Title
42785
    1SAPS     N    1   1.376   3.614   7.154 -0.2950  0.0747 -0.3297
    1SAPS   HN1    2   1.352   3.516   7.178  2.1880 -0.3479  0.7561
    1SAPS   HN2    3   1.297   3.681   7.164  1.4640  2.0464  1.2890
    1SAPS   HN3    4   1.402   3.631   7.055 -1.4756  0.0872 -0.6438
    1SAPS   C12    5   1.499   3.654   7.236  0.1135 -0.3503  0.1231
    1SAPS  H12A    6   1.538   3.740   7.184 -2.9794 -0.1375 -2.0784
    1SAPS   C13    7   1.468   3.696   7.387 -0.1311 -0.2830 -0.4322
    1SAPS  O13A    8   1.348   3.685   7.428  0.4526  0.5344  0.5098
    1SAPS  O13B    9   1.565   3.716   7.464  0.3909 -0.3530 -0.3534
    1SAPS   C11   10   1.601   3.539   7.234 -0.1055 -0.5808  0.6089
    1SAPS  H11A   11   1.563   3.464   7.306  0.6948 -1.9000 -0.3111
    1SAPS  H11B   12   1.700   3.577   7.269  1.8211 -3.3970 -1.3617
    1SAPS     P   13   1.677   3.337   7.085 -0.0580 -0.4043 -0.0467
    1SAPS   O13   14   1.741   3.299   7.212 -0.0403  0.4237  0.0419
    1SAPS   O14   15   1.570   3.255   7.036 -0.2290 -0.3377 -0.1698
    1SAPS   O12   16   1.627   3.488   7.098  0.6200  0.2770 -0.3212
    1SAPS   O11   17   1.782   3.344   6.967 -0.2287  0.2895  0.3242
    1SAPS    C1   18   1.863   3.466   6.956  0.4352  0.3634  0.4189
    1SAPS    HA   19   1.800   3.558   6.953  0.0792  0.0958 -1.2451
    1SAPS    HB   20   1.934   3.475   7.041  0.9093 -0.6441  0.1391
    1SAPS    C2   21   1.945   3.449   6.823  0.7195 -0.0156 -0.2387
    1SAPS    HS   22   1.995   3.548   6.812 -0.5604  0.6170 -0.6691
    1SAPS   O21   23   1.868   3.413   6.705  0.1762 -0.0286  1.2048
    1SAPS   C21   24   1.743   3.459   6.688  0.9640  0.3238 -0.5401
    1SAPS   O22   25   1.685   3.542   6.753 -0.4528  0.2967  0.0164
    1SAPS   C22   26   1.682   3.405   6.559 -0.0728  1.0988 -0.1074
    1SAPS   H2R   27   1.756   3.339   6.509 -0.6715  1.7954 -2.0194
    1SAPS   H2S   28   1.588   3.345   6.567 -0.0832  0.7041 -2.3795
    1SAPS    C3   29   2.059   3.341   6.844 -0.3012  0.3495  0.1503
    1SAPS    HX   30   2.007   3.243   6.839 -0.2012  0.3526 -1.8278
    1SAPS    HY   31   2.095   3.350   6.949 -0.1824 -1.4331  0.2931
    1SAPS   O31   32   2.172   3.357   6.744 -0.3933  0.0335  0.1280
    1SAPS   C31   33   2.146   3.278   6.637  0.2657  0.0459  0.3206
    1SAPS   O32   34   2.082   3.175   6.638 -0.6596  0.0528 -0.1611
    1SAPS   C32   35   2.218   3.331   6.514  0.0692 -0.9898 -0.3048
    1SAPS   H2X   36   2.303   3.261   6.495  0.7306 -0.8606  1.8571
    1SAPS   H2Y   37   2.253   3.434   6.538 -2.5099 -0.2914  0.7140
    1SAPS   C23   38   1.640   3.515   6.453  0.1339  0.4363 -0.1228
    1SAPS   H3R   39   1.591   3.595   6.513  2.7126  1.9321  0.1485
    1SAPS   H3S   40   1.580   3.464   6.375  1.1006 -1.0841  0.0896
    1SAPS   C24   41   1.755   3.582   6.380 -0.4553  0.3456  0.5339
    1SAPS   H4R   42   1.820   3.509   6.327  0.0560  1.5317 -0.5151
    1SAPS   H4S   43   1.817   3.629   6.460  2.3701 -2.1451 -0.0008
    1SAPS   C25   44   1.697   3.676   6.275 -0.1534  0.2229 -0.1236
    1SAPS   H5R   45   1.644   3.756   6.329 -0.1667 -1.1594  2.0218
    1SAPS   C26   46   1.699   3.675   6.142 -0.1541 -0.0580 -0.1396
    1SAPS   H6R   47   1.646   3.751   6.083  1.9869 -1.5440 -4.4032
    1SAPS   C27   48   1.776   3.572   6.061  0.3950  0.2573  0.2290
    1SAPS   H7R   49   1.821   3.493   6.126  1.3673 -0.3760 -1.1507
    1SAPS   H7S   50   1.865   3.621   6.016 -0.8836  0.1354 -2.6831
    1SAPS   C28   51   1.701   3.509   5.948 -0.4873  0.7283  0.5594
    1SAPS   H8R   52   1.660   3.408   5.963  1.6913 -0.3725 -0.4295
    1SAPS   C29   53   1.678   3.572   5.835  0.2055 -0.6762 -0.1474
    1SAPS   H9R   54   1.618   3.525   5.756 -1.5534  0.9774  0.0987
    1SAPS  C210   55   1.721   3.710   5.793  0.7811 -0.1768 -0.6231
    1SAPS  H10R   56   1.785   3.762   5.867  0.5146  1.9308 -1.7736
    1SAPS  H10S   57   1.626   3.765   5.774  0.7338 -0.3682 -0.9570
    1SAPS  C211   58   1.790   3.714   5.658  0.1604  0.5649  0.2786
    1SAPS  H11R   59   1.883   3.656   5.651 -0.7117 -0.6443 -3.4016
    1SAPS  C212   60   1.748   3.756   5.539  0.2656  0.8021  0.4320
    1SAPS  H12R   61   1.829   3.761   5.465  1.5173 -0.2477  1.6724
    1SAPS  C213   62   1.623   3.832   5.508 -0.1945 -0.8568 -0.1680
    1SAPS  H13R   63   1.642   3.940   5.526 -0.5219 -0.9210  0.6092
    1SAPS  H13S   64   1.530   3.814   5.567  0.4388 -0.6051  0.9215
    1SAPS  C214   65   1.591   3.806   5.366 -0.1796 -0.2448  0.2528
    1SAPS  H14R   66   1.606   3.703   5.330 -0.8929 -1.1786  2.4471
    1SAPS  C215   67   1.565   3.900   5.269  0.0322  0.1072  0.8452
    1SAPS  H15R   68   1.563   3.875   5.162 -1.1461  0.7434  0.6997
    1SAPS  C216   69   1.569   4.052   5.288 -1.0974 -0.6282 -0.0808
    1SAPS  H16R   70   1.591   4.077   5.394  2.1614 -0.7202 -0.6458
    1SAPS  H16S   71   1.464   4.083   5.266 -0.6544 -1.0629 -3.2006
    1SAPS  C217   72   1.645   4.135   5.186 -0.5551  0.3307  0.2531
    1SAPS  H17R   73   1.613   4.240   5.207  2.7785  2.0260 -2.1911
    1SAPS  H17S   74   1.613   4.113   5.082  1.2110  0.4038 -0.3355
    1SAPS  C218   75   1.802   4.135   5.210  0.3214  0.2488 -0.1698
    1SAPS  H18R   76   1.823   4.027   5.191  1.3026  0.7358 -2.1044
    1SAPS  H18S   77   1.829   4.167   5.313 -2.4631  2.5046 -0.0271
    1SAPS  C219   78   1.873   4.217   5.107 -0.2971 -0.2896  0.1262
    1SAPS  H19R   79   1.835   4.182   5.009  0.7764 -0.6775 -0.1555
    1SAPS  H19S   80   1.982   4.198   5.109 -0.0710  0.9699  1.2963
    1SAPS  C220   81   1.855   4.371   5.117  0.4878  0.5734 -0.0335
    1SAPS  H20R   82   1.920   4.411   5.035  0.6627 -1.7405 -1.0970
    1SAPS  H20S   83   1.897   4.407   5.213 -2.1395  0.4134  1.2618
    1SAPS  H20T   84   1.752   4.410   5.113  0.9773  1.8575 -0.7258
    1SAPS   C33   85   2.130   3.351   6.393  0.5849 -1.0232 -0.8102
    1SAPS   H3X   86   2.198   3.396   6.318  2.0626  0.6268  1.4046
    1SAPS   H3Y   87   2.055   3.428   6.419 -0.9862 -1.8879 -2.5128
    1SAPS   C34   88   2.071   3.219   6.338 -0.0400  0.0686  0.5492
    1SAPS   H4X   89   2.005   3.161   6.406  0.0254 -1.4982 -0.6619
    1SAPS   H4Y   90   2.161   3.155   6.333  1.0659  1.6368 -0.5151
    1SAPS   C35   91   1.997   3.224   6.205 -0.1842 -0.6269 -0.0833
    1SAPS   H5X   92   1.905   3.284   6.225  0.4412 -0.5139  2.9330
    1SAPS   H5Y   93   1.962   3.121   6.182 -0.0677 -0.6756 -0.0419
    1SAPS   C36   94   2.072   3.288   6.090 -0.5764  0.4126  0.1167
    1SAPS   H6X   95   2.173   3.247   6.067 -1.2058 -0.6065 -0.9202
    1SAPS   H6Y   96   2.093   3.390   6.126 -1.2162  0.6502 -0.1637
    1SAPS   C37   97   1.987   3.282   5.967 -0.0229  0.5442  0.6615
    1SAPS   H7X   98   1.898   3.347   5.979 -0.1568  0.3164  0.8989
    1SAPS   H7Y   99   1.938   3.184   5.952  1.5212 -0.1559 -0.0765
    1SAPS   C38  100   2.072   3.309   5.842  0.0232 -0.3503 -0.4434
    1SAPS   H8X  101   2.153   3.235   5.826 -0.6138 -0.9933 -0.7852
    1SAPS   H8Y  102   2.119   3.409   5.851  0.8757 -0.7620 -0.2250
    1SAPS   C39  103   1.985   3.324   5.722 -0.2618 -1.0951  1.2232
    1SAPS   H9X  104   1.896   3.387   5.742 -2.5153 -3.2706 -1.1728
    1SAPS   H9Y  105   1.934   3.227   5.704 -1.6292 -0.2692  0.4958
    1SAPS  C310  106   2.055   3.374   5.600 -1.1193  0.0267 -0.2123
    1SAPS  H10X  107   2.137   3.300   5.590 -2.8128 -2.2548  1.5448
    1SAPS  H10Y  108   2.087   3.477   5.624 -0.9763 -0.5690  2.4839
    1SAPS  C311  109   1.982   3.383   5.468  0.2788  0.3074 -0.0766
    1SAPS  H11X  110   1.884   3.435   5.464  0.7108  1.1545  0.1563
    1SAPS  H11Y  111   1.978   3.280   5.427  0.9652 -0.3975  1.5276
    1SAPS  C312  112   2.058   3.462   5.358  0.0193 -0.2173 -0.5229
    1SAPS  H12X  113   2.159   3.418   5.355 -0.4021 -1.3567  1.0174
    1SAPS  H12Y  114   2.061   3.572   5.374  0.8272 -0.1438 -1.0910
    1SAPS  C313  115   1.998   3.452   5.210 -0.4227  0.1696  0.3723
    1SAPS  H13X  116   1.949   3.354   5.192  0.8012 -0.3578 -0.1534
    1SAPS  H13Y  117   2.072   3.476   5.131  0.9580 -0.0460  1.5462
    1SAPS  C314  118   1.901   3.564   5.194 -0.1683  0.0323 -0.2023
    1SAPS  H14X  119   1.954   3.660   5.208  0.3168 -0.0123 -1.6425
    1SAPS  H14Y  120   1.829   3.559   5.279  0.3806  4.4457  0.7571
    1SAPS  C315  121   1.824   3.559   5.068  0.7580  0.6497  0.7542
    1SAPS  H15X  122   1.887   3.516   4.987  1.2205  0.2953  1.2990
    1SAPS  H15Y  123   1.800   3.658   5.022 -0.0503 -0.0147 -0.3210
    1SAPS  C316  124   1.703   3.470   5.067  0.3167  0.8942  0.1559
    1SAPS  H16X  125   1.628   3.508   5.140  0.9373  0.1262  1.2139
    1SAPS  H16Y  126   1.743   3.373   5.103  0.1194 -0.1884 -2.3379
    1SAPS  C317  127   1.623   3.452   4.934  0.1153 -1.0461  0.0892
    1SAPS  H17X  128   1.541   3.377   4.943 -1.0386  0.3831  2.1922
    1SAPS  H17Y  129   1.698   3.414   4.861  0.1224 -1.9468  0.5555
    1SAPS  C318  130   1.558   3.587   4.888 -0.2811  1.2431  0.4196
    1SAPS  H18X  131   1.503   3.559   4.796  0.1842 -0.7164  0.6798
    1SAPS  H18Y  132   1.637   3.662   4.865 -0.9102  1.4226 -1.2734
    1SAPS  H18Z  133   1.487   3.620   4.966 -0.1510  0.7436  0.7603
    2SAPS     N  134   1.234   4.676   7.835  0.4244 -0.6482 -0.0440
    2SAPS   HN1  135   1.257   4.590   7.780  0.6878 -0.7242  0.1805
    2SAPS   HN2  136   1.319   4.719   7.876  1.7544 -1.0385 -2.1896
    2SAPS   HN3  137   1.173   4.630   7.905  1.3731 -1.6256  0.1781
    2SAPS   C12  138   1.155   4.771   7.764  0.4867  0.5313 -0.3782
    2SAPS  H12A  139   1.083   4.820   7.829 -2.0019 -2.5331 -0.5764
    2SAPS   C13  140   1.219   4.880   7.684  0.1638 -0.6618 -1.0396
    2SAPS  O13A  141   1.339   4.908   7.699 -0.1611  0.0543 -0.6918
    2SAPS  O13B  142   1.147   4.965   7.626  0.1563  0.0534 -0.0465
    2SAPS   C11  143   1.070   4.692   7.661  0.7059  0.6134 -0.7506
    2SAPS  H11A  144   1.001   4.765   7.612 -0.2338  0.2011 -0.0813
    2SAPS  H11B  145   1.001   4.622   7.713 -2.2125  0.3039 -4.5744
    2SAPS     P  146   1.113   4.603   7.407  0.3423  0.2879 -0.4616
    2SAPS   O13  147   1.244   4.577   7.338 -0.5535  0.3235 -0.5446
    2SAPS   O14  148   0.997   4.511   7.391  0.3441 -0.5672  0.1222
    2SAPS   O12  149   1.148   4.623   7.563 -0.3123  0.1538 -0.0036
    2SAPS   O11  150   1.072   4.744   7.369 -0.5290  0.1609  0.5705
    2SAPS    C1  151   0.942   4.775   7.316  0.8677  0.0208 -0.0162
    2SAPS    HA  152   0.858   4.724   7.369 -0.0868  0.8806 -0.6805
    2SAPS    HB  153   0.927   4.885   7.323  0.2703  0.1138 -2.2319
    2SAPS    C2  154   0.934   4.739   7.166  0.5588 -0.5171  0.8501
    2SAPS    HS  155   0.939   4.628   7.160 -0.7901 -0.6332  1.4540
    2SAPS   O21  156   1.042   4.807   7.094 -0.3382 -0.5008  0.0269
    2SAPS   C21  157   1.096   4.741   6.995  0.1274  0.4285 -0.4013
    2SAPS   O22  158   1.070   4.625   6.959  0.1027 -0.8953  0.6142
    2SAPS   C22  159   1.223   4.813   6.962 -0.2962 -0.5833 -0.3859
    2SAPS   H2R  160   1.207   4.922   6.977 -1.4764 -0.8662  0.6565
    2SAPS   H2S  161   1.293   4.776   7.040 -0.3178  0.5194  0.1725
    2SAPS    C3  162   0.799   4.786   7.105  0.1257  0.6874  0.1445
    2SAPS    HX  163   0.806   4.895   7.123 -0.0376  0.4851  1.5009
    2SAPS    HY  164   0.718   4.758   7.175  1.5888  2.6359  2.7857
    2SAPS   O31  165   0.775   4.764   6.966  0.8291 -0.0861 -0.3603
    2SAPS   C31  166   0.722   4.646   6.941 -0.6685 -0.4258 -0.3108
    2SAPS   O32  167   0.705   4.556   7.021  0.6171  0.5340 -0.2192
    2SAPS   C32  168   0.689   4.633   6.792  0.2013  0.3606  0.3162
    2SAPS   H2X  169   0.629   4.722   6.763 -0.9597 -0.2992  0.6364
    2SAPS   H2Y  170   0.632   4.540   6.771  1.0918 -0.0009 -0.5850
    2SAPS   C23  171   1.264   4.785   6.807 -0.6814 -0.0071 -0.5801
    2SAPS   H3R  172   1.176   4.811   6.744 -2.7527 -4.3208  0.1822
    2SAPS   H3S  173   1.278   4.675   6.805  0.8930 -0.1264  4.2952
    2SAPS   C24  174   1.399   4.860   6.777 -0.2336 -0.2794 -0.0572
    2SAPS   H4R  175   1.444   4.821   6.683  0.7290  0.1201  0.2241
    2SAPS   H4S  176   1.482   4.846   6.849 -1.4904 -0.6127  1.3508
    2SAPS   C25  177   1.373   5.003   6.748 -0.2918 -0.0011 -0.5485
    2SAPS   H5R  178   1.282   5.023   6.690 -0.7056 -0.8538 -0.2004
    2SAPS   C26  179   1.437   5.107   6.806  0.0565 -0.1954  0.8381
    2SAPS   H6R  180   1.404   5.202   6.760 -3.6325 -2.2940 -1.2692
    2SAPS   C27  181   1.544   5.100   6.909  0.4706 -0.3560 -0.2041
    2SAPS   H7R  182   1.641   5.065   6.866  0.2254  0.2009 -1.2536
    2SAPS   H7S  183   1.522   5.027   6.989 -0.1484 -0.7207 -0.7026
    2SAPS   C28  184   1.560   5.235   6.983 -0.4068  0.0694 -0.3310
    2SAPS   H8R  185   1.523   5.232   7.086  3.6439 -1.0994  1.2946
    2SAPS   C29  186   1.628   5.344   6.940 -0.2494 -0.0253  0.6925
    2SAPS   H9R  187   1.622   5.434   7.003 -0.7258 -0.6623  1.5765
    2SAPS  C210  188   1.707   5.356   6.815  0.1572  0.1500  0.4779
    2SAPS  H10R  189   1.728   5.463   6.796  0.3886  0.0945  0.4226
    2SAPS  H10S  190   1.634   5.332   6.734 -0.6311  0.7732  0.9875
    2SAPS  C211  191   1.839   5.288   6.795 -0.2371 -0.1138 -0.0150
    2SAPS  H11R  192   1.905   5.284   6.882  0.4063  0.8245 -0.4536
    2SAPS  C212  193   1.883   5.229   6.686 -0.4637 -0.4743 -0.6222
    2SAPS  H12R  194   1.984   5.186   6.692 -0.0620  0.4629 -0.4659
    2SAPS  C213  195   1.817   5.220   6.553  0.5222  0.4213  0.2785
    2SAPS  H13R  196   1.877   5.286   6.487 -0.3988 -0.1386 -1.1704
    2SAPS  H13S  197   1.710   5.249   6.545  0.7112  1.4015  1.1036
    2SAPS  C214  198   1.830   5.081   6.493  0.3893  0.9012 -0.4085
    2SAPS  H14R  199   1.915   5.014   6.514  0.1697  0.4651 -0.8862
    2SAPS  C215  200   1.730   5.026   6.421  0.0786  0.0585  0.2403
    2SAPS  H15R  201   1.741   4.926   6.377 -1.4483  0.3601 -0.8735
    2SAPS  C216  202   1.591   5.078   6.376 -0.3345 -0.4708 -0.0691
    2SAPS  H16R  203   1.523   5.118   6.454  1.1992  1.6041  0.2935
    2SAPS  H16S  204   1.542   4.994   6.323  2.2440 -1.5306 -0.9244
    2SAPS  C217  205   1.605   5.202   6.275 -0.0593  0.0800 -0.5159
    2SAPS  H17R  206   1.672   5.177   6.190 -1.4182 -2.0208 -1.0658
    2SAPS  H17S  207   1.646   5.294   6.322 -0.3108 -0.1254  0.1268
    2SAPS  C218  208   1.468   5.228   6.211 -0.3651 -0.2121  0.2583
    2SAPS  H18R  209   1.431   5.128   6.178 -0.3309 -0.6057  1.3810
    2SAPS  H18S  210   1.478   5.291   6.121  0.6153 -0.4466  0.1919
    2SAPS  C219  211   1.361   5.281   6.312 -0.3345  0.5550 -0.0856
    2SAPS  H19R  212   1.351   5.212   6.398  1.6708  1.0787  0.6285
    2SAPS  H19S  213   1.266   5.288   6.254 -1.4356 -0.3499  1.5412
    2SAPS  C220  214   1.404   5.410   6.375 -0.5408 -0.0212 -0.0871
    2SAPS  H20R  215   1.496   5.408   6.437 -0.5571  1.6880  0.0311
    2SAPS  H20S  216   1.315   5.439   6.435 -0.4688 -0.8761  0.4521
    2SAPS  H20T  217   1.424   5.485   6.295 -3.0128  0.8021 -0.0277
    2SAPS   C33  218   0.822   4.642   6.715  0.3188 -0.0642 -0.1170
    2SAPS   H3X  219   0.881   4.549   6.734  1.0981  0.5584  0.6048
    2SAPS   H3Y  220   0.900   4.714   6.746  0.5016 -1.3230  2.7250
    2SAPS   C34  221   0.805   4.653   6.563 -0.1794  0.0902 -0.1024
    2SAPS   H4X  222   0.765   4.753   6.539 -1.8912 -0.4623  0.3144
    2SAPS   H4Y  223   0.733   4.582   6.516 -1.1306  0.8446  0.1924
    2SAPS   C35  224   0.939   4.655   6.484  0.2180 -0.0714 -0.5875
    2SAPS   H5X  225   0.998   4.565   6.512  0.1466 -0.7955 -2.5607
    2SAPS   H5Y  226   1.005   4.742   6.507  1.4992 -1.8080  3.0590
    2SAPS   C36  227   0.916   4.643   6.338  0.5757 -0.5122  0.1822
    2SAPS   H6X  228   0.862   4.734   6.304  1.0256 -0.0047  0.8056
    2SAPS   H6Y  229   0.844   4.559   6.323  0.4144 -0.0467 -1.8954
    2SAPS   C37  230   1.037   4.623   6.247  0.3966  0.3653  0.5598
    2SAPS   H7X  231   1.087   4.533   6.289  1.4634 -1.1459 -3.4812
    2SAPS   H7Y  232   1.104   4.712   6.253 -0.4453  1.1167 -0.7371
    2SAPS   C38  233   0.982   4.595   6.105 -0.0076 -0.3032 -0.0168
    2SAPS   H8X  234   0.935   4.692   6.075  1.1364 -0.0341 -0.9683
    2SAPS   H8Y  235   0.909   4.511   6.110 -2.2160  1.4000 -1.4325
    2SAPS   C39  236   1.093   4.568   6.011  0.0856  0.9430 -0.1622
    2SAPS   H9X  237   1.145   4.472   6.029 -0.5945  0.8677  1.6284
    2SAPS   H9Y  238   1.177   4.638   6.030  1.2811 -0.6206  0.5605
    2SAPS  C310  239   1.065   4.594   5.865 -0.5442 -0.1531  0.0144
    2SAPS  H10X  240   1.150   4.563   5.801 -0.5544 -0.1642  0.0061
    2SAPS  H10Y  241   1.047   4.703   5.853 -2.8425 -0.4492  0.2758
    2SAPS  C311  242   0.941   4.530   5.813  1.1270  0.0563  0.3351
    2SAPS  H11X  243   0.844   4.564   5.856 -0.0269 -1.6304 -0.7969
    2SAPS  H11Y  244   0.933   4.424   5.846  0.6051  0.3929  1.3272
    2SAPS  C312  245   0.932   4.535   5.656  0.1517  0.2675  0.2544
    2SAPS  H12X  246   1.007   4.613   5.631 -0.7850  0.7170 -1.2698
    2SAPS  H12Y  247   0.834   4.572   5.621 -0.4709 -0.6810  0.9239
    2SAPS  C313  248   0.962   4.402   5.598  0.3829  0.5108 -0.7975
    2SAPS  H13X  249   0.892   4.331   5.646  1.1570  1.2610  1.5636
    2SAPS  H13Y  250   1.066   4.370   5.624 -0.6373 -1.7247  0.8916
    2SAPS  C314  251   0.945   4.414   5.448 -0.5910 -0.0351 -0.0441
    2SAPS  H14X  252   0.973   4.518   5.420  0.4915  0.1379  1.5719
    2SAPS  H14Y  253   0.837   4.402   5.423 -1.3003 -2.3697  3.4536
    2SAPS  C315  254   1.016   4.304   5.366 -0.1598 -0.1909 -0.9116
    2SAPS  H15X  255   0.970   4.209   5.399  0.2405 -0.2648 -0.5602
    2SAPS  H15Y  256   1.120   4.294   5.403 -1.1573  1.5357  2.8294
    2SAPS  C316  257   1.016   4.329   5.219  0.6244  0.2694  0.1953
    2SAPS  H16X  258   1.069   4.426   5.201 -0.7519  0.7645 -1.4114
    2SAPS  H16Y  259   0.913   4.341   5.180  0.9330 -0.3381 -0.8584
    2SAPS  C317  260   1.100   4.224   5.137 -0.3850 -0.1887 -0.4400
    2SAPS  H17X  261   1.051   4.125   5.140 -0.5092 -0.1113  0.3744
    2SAPS  H17Y  262   1.197   4.214   5.190 -2.3440 -1.4157  3.2993
    2SAPS  C318  263   1.129   4.259   4.988  0.0593  0.4804 -0.2958
    2SAPS  H18X  264   1.036   4.250   4.928  1.8794 -0.6985 -3.1420
    2SAPS  H18Y  265   1.201   4.195   4.932  0.5688 -0.2109  1.1161
    2SAPS  H18Z  266   1.155   4.367   4.985 -1.2499  0.7901 -1.8016
    3SAPS     N  267   1.072   3.644   7.437  0.0880 -0.5305  0.5877
    3SAPS   HN1  268   1.048   3.685   7.344  0.2719  1.1580  1.2525
    3SAPS   HN2  269   1.175   3.650   7.452 -0.0554 -1.4129  2.0681
    3SAPS   HN3  270   1.039   3.546   7.447 -4.3463  0.7626  0.6543
    3SAPS   C12  271   1.004   3.715   7.546  0.4540  0.5907 -0.0746
    3SAPS  H12A  272   0.897   3.702   7.533  0.3571 -0.2157  1.3513
    3SAPS   C13  273   1.034   3.649   7.678 -0.0916  0.0279 -0.1789
    3SAPS  O13A  274   1.142   3.588   7.689 -0.1344  0.4749 -0.0790
    3SAPS  O13B  275   0.965   3.677   7.781 -0.5874 -0.0714  0.6026
    3SAPS   C11  276   1.045   3.865   7.548  0.1769  0.5785 -0.5179
    3SAPS  H11A  277   1.149   3.867   7.588 -0.1774 -0.1860  0.4722
    3SAPS  H11B  278   0.976   3.914   7.621  1.0056 -0.7892  1.2651
    3SAPS     P  279   1.031   4.074   7.400  0.4365  0.0465 -0.0237
    3SAPS   O13  280   0.903   4.117   7.342  0.0347 -0.3145 -0.1216
    3SAPS   O14  281   1.063   4.140   7.528  0.2592 -0.2343  0.3782
    3SAPS   O12  282   1.036   3.914   7.417 -0.0928 -0.8768 -0.4269
    3SAPS   O11  283   1.142   4.111   7.299 -1.2406 -0.1626 -0.4157
    3SAPS    C1  284   1.280   4.125   7.340  0.4342 -0.3038 -0.3970
    3SAPS    HA  285   1.296   4.223   7.389  3.1385 -0.2757 -1.1925
    3SAPS    HB  286   1.304   4.040   7.407 -2.5378 -1.3533 -0.5081
    3SAPS    C2  287   1.366   4.111   7.215 -0.9127  0.1104 -0.0247
    3SAPS    HS  288   1.471   4.108   7.252 -0.8020  1.3572 -0.1758
    3SAPS   O21  289   1.347   4.232   7.141 -0.0404  0.2280 -0.5811
    3SAPS   C21  290   1.418   4.334   7.186 -0.2426  0.1072 -0.1545
    3SAPS   O22  291   1.481   4.343   7.292 -0.5994 -0.2277  0.1711
    3SAPS   C22  292   1.401   4.447   7.087 -0.2771 -0.0026 -0.4855
    3SAPS   H2R  293   1.313   4.427   7.021  0.1050 -1.1152 -0.6810
    3SAPS   H2S  294   1.373   4.535   7.149  0.9071 -0.5419  0.8656
    3SAPS    C3  295   1.331   3.990   7.136 -0.5239 -0.2998 -0.5849
    3SAPS    HX  296   1.237   3.995   7.078 -0.8903 -0.6757 -0.0360
    3SAPS    HY  297   1.325   3.910   7.214  0.8124  1.2237  1.1751
    3SAPS   O31  298   1.447   3.955   7.061  0.5112  0.2516 -0.2957
    3SAPS   C31  299   1.436   3.993   6.930 -0.6281 -0.8799 -0.3961
    3SAPS   O32  300   1.341   4.041   6.873 -0.8762  0.5418  0.3065
    3SAPS   C32  301   1.575   3.966   6.873 -0.1378  0.1299  0.5638
    3SAPS   H2X  302   1.621   3.878   6.923 -2.7940 -1.8784 -0.3653
    3SAPS   H2Y  303   1.630   4.060   6.896  2.1505 -0.2395 -2.7101
    3SAPS   C23  304   1.530   4.482   7.002  0.0695  0.2060 -0.4172
    3SAPS   H3R  305   1.613   4.471   7.076 -0.1078  1.0018 -0.0789
    3SAPS   H3S  306   1.508   4.584   6.962 -4.3318 -0.2600  0.3571
    3SAPS   C24  307   1.561   4.390   6.886 -0.4484  0.1067  0.0025
    3SAPS   H4R  308   1.581   4.289   6.927  0.2250 -0.2956 -1.2803
    3SAPS   H4S  309   1.649   4.429   6.830 -0.1733  0.5107  0.7073
    3SAPS   C25  310   1.441   4.370   6.794  0.6831 -0.2659 -0.6399
    3SAPS   H5R  311   1.361   4.299   6.822 -0.1876  1.0698  0.4094
    3SAPS   C26  312   1.433   4.430   6.676  0.4352  0.5568  0.2576
    3SAPS   H6R  313   1.348   4.409   6.610 -0.5368 -0.0857  1.6632
    3SAPS   C27  314   1.520   4.536   6.614 -0.1252  0.5084  0.3671
    3SAPS   H7R  315   1.579   4.589   6.691 -0.0987  1.5506 -0.3594
    3SAPS   H7S  316   1.454   4.617   6.578 -0.2452 -1.0018 -3.3395
    3SAPS   C28  317   1.611   4.481   6.503  0.5413 -0.0824  0.3598
    3SAPS   H8R  318   1.669   4.394   6.538  3.1623  0.7902 -1.5444
    3SAPS   C29  319   1.602   4.514   6.371 -0.2339 -0.0213 -0.1116
    3SAPS   H9R  320   1.678   4.477   6.300 -0.0867  1.8230 -0.9648
    3SAPS  C210  321   1.513   4.629   6.320  0.8336 -0.2336 -0.0646
    3SAPS  H10R  322   1.567   4.726   6.323 -0.2962  0.4134 -0.1628
    3SAPS  H10S  323   1.423   4.635   6.384  0.7396  0.1522 -0.2344
    3SAPS  C211  324   1.455   4.613   6.182  0.6405  0.5062 -0.5889
    3SAPS  H11R  325   1.347   4.593   6.177  0.6403 -0.3281  1.8174
    3SAPS  C212  326   1.518   4.622   6.063 -0.5390 -0.9267 -0.2792
    3SAPS  H12R  327   1.464   4.602   5.969  1.3160 -0.7697 -1.4329
    3SAPS  C213  328   1.663   4.648   6.046 -0.1723  0.7478  0.5398
    3SAPS  H13R  329   1.701   4.559   5.991 -2.1994 -0.3250  0.7884
    3SAPS  H13S  330   1.720   4.658   6.141  0.0221  2.6175  0.2658
    3SAPS  C214  331   1.685   4.770   5.968  0.0605 -0.5968 -0.3756
    3SAPS  H14R  332   1.665   4.864   6.022 -0.3254 -0.8129 -0.1444
    3SAPS  C215  333   1.715   4.775   5.842 -1.1684 -0.1424 -0.0871
    3SAPS  H15R  334   1.715   4.879   5.807 -0.6062  1.3322  3.8151
    3SAPS  C216  335   1.757   4.664   5.750 -0.1369  0.8420  0.0913
    3SAPS  H16R  336   1.665   4.625   5.702 -0.3672  0.4127  0.8620
    3SAPS  H16S  337   1.813   4.582   5.800  0.6816  2.5720  2.1709
    3SAPS  C217  338   1.848   4.709   5.636  0.0999 -0.7398 -0.1945
    3SAPS  H17R  339   1.935   4.770   5.669 -0.3054  0.8189 -1.8674
    3SAPS  H17S  340   1.774   4.772   5.582  1.8555  0.8742 -0.8468
    3SAPS  C218  341   1.900   4.591   5.554 -0.1698  0.3518 -1.0411
    3SAPS  H18R  342   1.830   4.506   5.543  1.3006 -1.3537  1.7384
    3SAPS  H18S  343   1.977   4.547   5.621 -0.0338 -0.2915 -1.6096
    3SAPS  C219  344   1.954   4.622   5.416 -0.1616 -0.1728 -0.5136
    3SAPS  H19R  345   2.026   4.543   5.386  0.5085 -0.4081  1.5345
    3SAPS  H19S  346   1.868   4.648   5.351  0.5251  3.7479 -0.1265
    3SAPS  C220  347   2.042   4.752   5.397  1.1634  0.1045  0.3873
    3SAPS  H20R  348   2.110   4.757   5.484  3.3001 -0.1656 -1.1742
    3SAPS  H20S  349   1.974   4.839   5.404 -0.8151 -1.4326  1.0263
    3SAPS  H20T  350   2.098   4.741   5.301  0.6325  2.8392 -0.3217
    3SAPS   C33  351   1.578   3.936   6.717  0.7923 -0.0894 -0.0497
    3SAPS   H3X  352   1.489   3.882   6.677  0.8942  0.6593 -1.3695
    3SAPS   H3Y  353   1.668   3.871   6.705  1.2360  0.0948  1.9312
    3SAPS   C34  354   1.576   4.047   6.615  0.2404 -0.1521  0.3379
    3SAPS   H4X  355   1.674   4.099   6.612  0.8964 -1.2704 -3.2981
    3SAPS   H4Y  356   1.497   4.124   6.626  0.5557  0.2339 -0.0671
    3SAPS   C35  357   1.570   3.992   6.469 -0.0512 -0.0322 -0.7402
    3SAPS   H5X  358   1.664   3.937   6.448  0.2842 -0.2790  1.1879
    3SAPS   H5Y  359   1.493   3.911   6.468  0.6192 -0.6778 -2.1876
    3SAPS   C36  360   1.525   4.099   6.370 -0.4176  0.2455 -0.3147
    3SAPS   H6X  361   1.597   4.183   6.373  0.6140 -0.5513 -1.6580
    3SAPS   H6Y  362   1.426   4.140   6.401 -0.6939 -2.1096  2.3788
    3SAPS   C37  363   1.522   4.038   6.230  0.2684 -0.4327  0.5962
    3SAPS   H7X  364   1.453   3.952   6.233 -0.4345  0.1211  0.5073
    3SAPS   H7Y  365   1.624   4.002   6.205 -0.5312 -1.8786 -0.7262
    3SAPS   C38  366   1.466   4.140   6.135  0.0329 -0.3390  0.4384
    3SAPS   H8X  367   1.526   4.233   6.143 -0.6272  0.3663 -2.0088
    3SAPS   H8Y  368   1.362   4.170   6.162  0.3076  1.6402 -0.4984
    3SAPS   C39  369   1.477   4.084   5.991  0.3144  0.2741  0.1706
    3SAPS   H9X  370   1.416   3.992   5.984 -0.7663  1.0791 -2.5641
    3SAPS   H9Y  371   1.584   4.069   5.966  0.1941 -0.2576 -0.0376
    3SAPS  C310  372   1.414   4.179   5.890 -0.3963 -0.1886 -0.1167
    3SAPS  H10X  373   1.473   4.271   5.870 -0.8258  0.2714  0.6762
    3SAPS  H10Y  374   1.311   4.195   5.928  0.1479  1.7474  0.6514
    3SAPS  C311  375   1.417   4.126   5.749  0.0467 -0.1299 -0.1787
    3SAPS  H11X  376   1.375   4.023   5.753 -0.3850 -0.0428 -1.8188
    3SAPS  H11Y  377   1.524   4.110   5.723 -0.5301  0.3609 -3.1933
    3SAPS  C312  378   1.359   4.222   5.640 -0.1887  0.5609  0.0838
    3SAPS  H12X  379   1.250   4.240   5.649 -0.0795  1.3179 -0.0649
    3SAPS  H12Y  380   1.392   4.160   5.554  2.3918  0.6596  0.9200
    3SAPS  C313  381   1.436   4.352   5.620  0.0835  0.8503  0.8461
    3SAPS  H13X  382   1.545   4.338   5.606 -0.0911  2.5930 -4.2081
    3SAPS  H13Y  383   1.434   4.414   5.712 -0.2125  3.9662 -1.1326
    3SAPS  C314  384   1.372   4.444   5.515 -0.1020 -0.5007 -0.4072
    3SAPS  H14X  385   1.394   4.549   5.544 -1.8667  0.1565 -1.3202
    3SAPS  H14Y  386   1.263   4.435   5.533 -0.2146 -0.6162 -1.1349
    3SAPS  C315  387   1.410   4.416   5.370 -0.1116  0.1926  0.0065
    3SAPS  H15X  388   1.366   4.318   5.340 -0.4980  0.7148 -1.2054
    3SAPS  H15Y  389   1.521   4.404   5.364 -0.1863 -0.7474  0.2513
    3SAPS  C316  390   1.351   4.521   5.265 -0.6503  0.2352  0.1150
    3SAPS  H16X  391   1.394   4.619   5.296  0.8457 -1.3126  3.3550
    3SAPS  H16Y  392   1.241   4.531   5.264 -0.5643  1.3966  0.3376
    3SAPS  C317  393   1.401   4.493   5.126 -0.1205 -0.0853  0.0026
    3SAPS  H17X  394   1.375   4.388   5.100  1.5408 -0.5394  0.0861
    3SAPS  H17Y  395   1.511   4.492   5.115 -0.0871  1.4673  0.0685
    3SAPS  C318  396   1.342   4.584   5.017  0.5067  0.0962  0.0361
    3SAPS  H18X  397   1.389   4.545   4.924  2.6317 -1.6146  1.7147
    3SAPS  H18Y  398   1.353   4.693   5.035  1.0318  0.0866 -0.2104
    3SAPS  H18Z  399   1.232   4.574   5.000  0.5162  0.7792 -0.5224
    4SAPS     N  400   1.410   3.512   7.636  0.2813 -0.2606  0.4027
    4SAPS   HN1  401   1.490   3.543   7.695  1.1855 -3.1484  0.8365
    4SAPS   HN2  402   1.423   3.566   7.548 -0.1738 -0.3944  0.2505
    4SAPS   HN3  403   1.316   3.525   7.679  0.2328 -2.4547  1.0787
    4SAPS   C12  404   1.419   3.374   7.606  0.9515 -0.2286 -0.2848
    4SAPS  H12A  405   1.496   3.360   7.532  1.1451 -2.0667  0.1905
    4SAPS   C13  406   1.461   3.288   7.730  0.3732  0.1096 -0.5099
    4SAPS  O13A  407   1.459   3.339   7.844  0.3325  0.0002 -0.3060
    4SAPS  O13B  408   1.482   3.167   7.716  0.6051  0.2940 -0.5245
    4SAPS   C11  409   1.286   3.324   7.559  0.6005 -0.6335 -0.0550
    4SAPS  H11A  410   1.207   3.337   7.634 -1.0360  0.3117 -1.8572
    4SAPS  H11B  411   1.285   3.214   7.542 -2.5125 -0.5661 -0.8312
    4SAPS     P  412   1.178   3.314   7.311 -0.3599 -0.3176 -0.1445
    4SAPS   O13  413   1.232   3.391   7.193 -0.1293  0.4016 -0.4064
    4SAPS   O14  414   1.204   3.169   7.316  0.5766 -0.1447 -0.0326
    4SAPS   O12  415   1.249   3.384   7.433  0.4657 -0.3574 -0.1179
    4SAPS   O11  416   1.027   3.347   7.337 -0.6364  0.2216 -0.1644
    4SAPS    C1  417   0.926   3.363   7.239 -0.4662  0.4503 -0.2409
    4SAPS    HA  418   0.837   3.403   7.293 -0.7131 -1.6133  0.9882
    4SAPS    HB  419   0.952   3.428   7.153  0.4901  1.2264  0.5896
    4SAPS    C2  420   0.884   3.229   7.182  0.7206 -0.1893 -0.4288
    4SAPS    HS  421   0.915   3.150   7.253 -1.8760  0.1648  1.2094
    4SAPS   O21  422   0.957   3.206   7.060  0.1229  0.6282 -0.0041
    4SAPS   C21  423   0.974   3.080   7.021  0.6636  1.1027 -0.4840
    4SAPS   O22  424   0.936   2.974   7.081 -0.5215  0.0981 -0.0983
    4SAPS   C22  425   1.066   3.069   6.902 -0.2147 -0.1549 -0.3886
    4SAPS   H2R  426   1.069   3.170   6.855  1.9018  1.5650  3.0599
    4SAPS   H2S  427   1.163   3.043   6.949 -0.1610 -0.5406 -0.7051
    4SAPS    C3  428   0.730   3.212   7.169 -0.2743 -0.1468  0.3335
    4SAPS    HX  429   0.678   3.236   7.265 -2.6494  2.5252 -1.4680
    4SAPS    HY  430   0.712   3.106   7.140  1.6024 -0.8675  1.5752
    4SAPS   O31  431   0.678   3.311   7.073  0.0615 -0.2123  0.4442
    4SAPS   C31  432   0.631   3.252   6.964  0.7272  0.3272  0.4780
    4SAPS   O32  433   0.617   3.134   6.938 -0.7261 -0.0594  0.2514
    4SAPS   C32  434   0.599   3.353   6.857  0.2091 -0.4813 -0.6865
    4SAPS   H2X  435   0.696   3.401   6.834 -0.3668  1.2730  0.4157
    4SAPS   H2Y  436   0.528   3.429   6.895  0.7970 -0.6332  0.7843
    4SAPS   C23  437   1.019   2.955   6.808  0.2203  0.2908  0.2823
    4SAPS   H3R  438   0.914   2.982   6.783 -0.1471  0.5687  1.9674
    4SAPS   H3S  439   1.017   2.862   6.868 -1.7700 -0.0515 -0.2669
    4SAPS   C24  440   1.090   2.936   6.672 -0.7644 -0.0981 -0.0334
    4SAPS   H4R  441   1.130   3.032   6.633 -0.5238 -0.5467 -0.9117
    4SAPS   H4S  442   1.013   2.913   6.597 -1.8924  0.3962  0.9400
    4SAPS   C25  443   1.192   2.825   6.655 -0.1278  0.3104  0.2680
    4SAPS   H5R  444   1.195   2.742   6.727  0.2272 -0.9556 -1.1363
    4SAPS   C26  445   1.286   2.827   6.560 -0.2624  0.2827 -0.3698
    4SAPS   H6R  446   1.351   2.740   6.573 -1.1990 -0.0438  3.1529
    4SAPS   C27  447   1.312   2.923   6.450 -0.4206  0.1696  1.0260
    4SAPS   H7R  448   1.272   3.022   6.480 -0.4269  0.4045  0.2617
    4SAPS   H7S  449   1.256   2.890   6.360  0.3709 -2.9879  1.5755
    4SAPS   C28  450   1.457   2.948   6.414  0.1023  0.5434  0.0268
    4SAPS   H8R  451   1.531   2.867   6.426  1.8615  1.6325 -2.4230
    4SAPS   C29  452   1.509   3.059   6.354  1.1153 -0.2704  0.2162
    4SAPS   H9R  453   1.615   3.079   6.376  1.0846  0.2739 -0.1246
    4SAPS  C210  454   1.440   3.183   6.300  0.3155 -0.6405 -0.5918
    4SAPS  H10R  455   1.437   3.261   6.378  1.8657 -0.4904 -0.6583
    4SAPS  H10S  456   1.334   3.154   6.279 -0.6346 -0.5203  3.2328
    4SAPS  C211  457   1.503   3.238   6.176 -0.4498  0.0181 -0.5479
    4SAPS  H11R  458   1.591   3.303   6.193 -0.6675 -0.1066  1.2128
    4SAPS  C212  459   1.470   3.199   6.046 -0.0555 -0.2641  0.6559
    4SAPS  H12R  460   1.538   3.226   5.964 -2.0197  4.5741  0.3012
    4SAPS  C213  461   1.355   3.117   5.998 -0.1002  0.1269 -0.3553
    4SAPS  H13R  462   1.268   3.160   6.051  0.1769  0.2314  0.0219
    4SAPS  H13S  463   1.376   3.012   6.027 -1.6984  0.6036  3.0457
    4SAPS  C214  464   1.322   3.129   5.855  0.3122  0.6907  0.1957
    4SAPS  H14R  465   1.222   3.174   5.846 -0.2874 -0.8214 -1.0850
    4SAPS  C215  466   1.389   3.095   5.741 -0.3708 -0.2735  0.0714
    4SAPS  H15R  467   1.338   3.115   5.645 -0.6271  1.1932  0.4850
    4SAPS  C216  468   1.526   3.038   5.731  0.1156  0.5131  0.1492
    4SAPS  H16R  469   1.511   2.928   5.745 -1.6398  0.8978  1.6283
    4SAPS  H16S  470   1.593   3.076   5.810  0.4658 -1.1999  0.7319
    4SAPS  C217  471   1.596   3.056   5.597 -0.1748  0.0019  0.6792
    4SAPS  H17R  472   1.534   3.036   5.506 -0.3615  2.0677  0.3119
    4SAPS  H17S  473   1.685   2.989   5.594  0.8522  1.3588 -0.7736
    4SAPS  C218  474   1.653   3.200   5.578  0.6213 -0.5377 -1.3733
    4SAPS  H18R  475   1.747   3.182   5.522  1.4911 -0.1955 -0.0743
    4SAPS  H18S  476   1.681   3.244   5.676 -0.0561  0.8609 -1.7764
    4SAPS  C219  477   1.556   3.301   5.504 -1.4052  0.3849 -0.7497
    4SAPS  H19R  478   1.616   3.394   5.513 -0.4345 -0.4080  1.5747
    4SAPS  H19S  479   1.464   3.310   5.565 -0.6457 -1.5350  0.7973
    4SAPS  C220  480   1.535   3.277   5.356  0.5680 -0.3330 -0.7356
    4SAPS  H20R  481   1.512   3.171   5.331  0.5399 -0.1620 -1.4385
    4SAPS  H20S  482   1.633   3.302   5.310  1.2036 -1.0337  0.1889
    4SAPS  H20T  483   1.456   3.346   5.319 -1.1910 -2.2813 -0.8300
    4SAPS   C33  484   0.540   3.284   6.731  0.1811 -0.5430  0.5769
    4SAPS   H3X  485   0.443   3.241   6.762 -0.0289  0.6999  1.7258
    4SAPS   H3Y  486   0.612   3.203   6.707 -0.5800 -1.3512  0.9825
    4SAPS   C34  487   0.527   3.386   6.617  0.6863 -0.2268 -0.9220
    4SAPS   H4X  488   0.615   3.449   6.595 -1.1523  2.3484 -1.3887
    4SAPS   H4Y  489   0.454   3.461   6.655  0.5940 -1.2824  1.1240
    4SAPS   C35  490   0.477   3.316   6.496  0.2925  0.4068 -0.2739
    4SAPS   H5X  491   0.369   3.297   6.513  0.1774 -0.0644 -1.4695
    4SAPS   H5Y  492   0.525   3.218   6.478 -1.5262 -0.1415 -2.4915
    4SAPS   C36  493   0.479   3.395   6.365 -0.1496 -0.4681 -0.6828
    4SAPS   H6X  494   0.580   3.434   6.340 -1.0603  2.3069 -0.3506
    4SAPS   H6Y  495   0.408   3.480   6.368  0.3508 -0.0205 -1.2406
    4SAPS   C37  496   0.424   3.307   6.252 -0.2948  0.4474 -0.4043
    4SAPS   H7X  497   0.336   3.248   6.286  0.1786 -0.1267 -0.1518
    4SAPS   H7Y  498   0.502   3.231   6.230 -0.5227 -0.1456  0.7373
    4SAPS   C38  499   0.411   3.385   6.124 -0.1809  0.3449  0.2918
    4SAPS   H8X  500   0.496   3.455   6.105  0.1535  0.0940  0.8349
    4SAPS   H8Y  501   0.334   3.462   6.146  0.5797  1.6346 -1.3323
    4SAPS   C39  502   0.377   3.307   6.002  0.4602  0.5669  0.4003
    4SAPS   H9X  503   0.283   3.253   6.028 -1.1690  2.8832 -0.3455
    4SAPS   H9Y  504   0.456   3.234   5.973 -2.0332 -1.6128 -1.3971
    4SAPS  C310  505   0.337   3.390   5.885  0.5815 -0.0504  0.6739
    4SAPS  H10X  506   0.423   3.459   5.867  1.5784 -0.8107  2.3080
    4SAPS  H10Y  507   0.246   3.449   5.908 -1.0931 -2.1281 -0.2498
    4SAPS  C311  508   0.308   3.309   5.752 -0.3775  0.1932  0.4512
    4SAPS  H11X  509   0.218   3.249   5.777 -0.1552  0.8367  3.1283
    4SAPS  H11Y  510   0.390   3.237   5.729 -1.9289 -1.4302 -0.2983
    4SAPS  C312  511   0.279   3.392   5.628  0.0358  0.3323 -0.0770
    4SAPS  H12X  512   0.341   3.483   5.633 -0.2491  0.5714 -0.7247
    4SAPS  H12Y  513   0.180   3.441   5.640  1.2390  2.3459  2.2352
    4SAPS  C313  514   0.297   3.315   5.497  0.1292 -0.1791  0.3965
    4SAPS  H13X  515   0.214   3.242   5.497 -0.5853  0.6008  1.4212
    4SAPS  H13Y  516   0.399   3.271   5.503 -0.0843 -0.5329  1.7618
    4SAPS  C314  517   0.276   3.398   5.377 -0.5516 -0.0523  0.5759
    4SAPS  H14X  518   0.351   3.479   5.372  0.3639 -0.8987  0.2107
    4SAPS  H14Y  519   0.172   3.436   5.382 -1.4857 -2.3362 -0.2422
    4SAPS  C315  520   0.291   3.323   5.240 -0.0502 -0.3654 -0.5260
    4SAPS  H15X  521   0.215   3.242   5.236 -0.1041 -0.3365 -0.1443
    4SAPS  H15Y  522   0.390   3.275   5.251  0.1531  0.3114  0.8884
    4SAPS  C316  523   0.278   3.426   5.127 -0.0563  0.0095  0.0054
    4SAPS  H16X  524   0.322   3.520   5.167 -0.2002  0.0397  0.0921
    4SAPS  H16Y  525   0.172   3.449   5.106 -0.7684 -3.2371 -0.4330
    4SAPS  C317  526   0.356   3.378   4.998 -0.4924 -0.0525 -0.4534
    4SAPS  H17X  527   0.310   3.282   4.967 -1.3789 -0.3016  1.4776
    4SAPS  H17Y  528   0.464   3.366   5.024 -0.9921 -0.9805  1.3366
    4SAPS  C318  529   0.355   3.468   4.881 -0.0681  0.1536 -0.0149
    4SAPS  H18X  530   0.252   3.466   4.840  1.1147 -0.8266 -3.3217
    4SAPS  H18Y  531   0.417   3.435   4.794 -0.0587  1.8978 -0.7070
    4SAPS  H18Z  532   0.390   3.567   4.917 -0.7969  1.1012 -1.7957
    5SAPS     N  533   1.401   1.614   7.404  0.2482  0.2292  0.2169
    5SAPS   HN1  534   1.434   1.516   7.407 -1.3797 -0.4461 -1.7517
    5SAPS   HN2  535   1.304   1.622   7.367  0.0974 -0.4957  0.4381
    5SAPS   HN3  536   1.469   1.653   7.335 -0.8567  1.5861 -0.1555
    5SAPS   C12  537   1.403   1.670   7.536 -0.0091 -0.0158 -0.7756
    5SAPS  H12A  538   1.378   1.587   7.601 -1.9244  0.1043 -1.3115
    5SAPS   C13  539   1.546   1.722   7.567  0.1427  0.3260 -0.5813
    5SAPS  O13A  540   1.632   1.691   7.485  0.2870  0.2354  0.6148
    5SAPS  O13B  541   1.577   1.760   7.686 -0.0848  0.1325  0.1160
    5SAPS   C11  542   1.305   1.794   7.554 -0.0988  0.4266 -0.2414
    5SAPS  H11A  543   1.307   1.846   7.455  1.8966  3.3040  1.1637
    5SAPS  H11B  544   1.339   1.870   7.627 -2.0391  0.7742  0.3554
    5SAPS     P  545   1.049   1.840   7.537 -0.3771  0.0913 -0.2648
    5SAPS   O13  546   0.943   1.830   7.638  0.2297  0.1431 -0.0545
    5SAPS   O14  547   1.094   1.977   7.495 -0.2019  0.4186  0.1584
    5SAPS   O12  548   1.171   1.753   7.579  0.5591  0.1551 -0.0679
    5SAPS   O11  549   0.994   1.763   7.411 -0.1254 -0.5678 -0.2226
    5SAPS    C1  550   0.865   1.802   7.362  0.4168 -0.3949 -0.2805
    5SAPS    HA  551   0.799   1.716   7.385  1.0472 -0.2877  2.2108
    5SAPS    HB  552   0.822   1.894   7.408 -1.2590 -0.7838 -1.0195
    5SAPS    C2  553   0.872   1.839   7.208 -0.5813 -0.1032  0.7599
    5SAPS    HS  554   0.768   1.864   7.178 -0.1755 -0.0682 -0.7396
    5SAPS   O21  555   0.921   1.722   7.140 -0.2762  0.0283 -0.0710
    5SAPS   C21  556   0.840   1.620   7.133 -0.6566 -0.0880 -0.4270
    5SAPS   O22  557   0.737   1.606   7.191  0.3667 -0.3175  0.3111
    5SAPS   C22  558   0.886   1.542   7.007 -0.1384  0.3728 -0.1555
    5SAPS   H2R  559   0.924   1.611   6.928  0.4503  0.0696 -0.1455
    5SAPS   H2S  560   0.963   1.469   7.041  1.5433  1.6792 -0.9805
    5SAPS    C3  561   0.952   1.967   7.183 -0.1905  0.4392 -0.4738
    5SAPS    HX  562   1.059   1.964   7.215 -0.7334  0.3541  1.4836
    5SAPS    HY  563   0.916   2.049   7.248  2.1077 -0.8044  2.6660
    5SAPS   O31  564   0.937   1.992   7.041 -0.4684 -0.3539 -0.1054
    5SAPS   C31  565   1.039   1.956   6.966  0.6741 -0.0000 -0.4963
    5SAPS   O32  566   1.143   1.900   7.005  0.5005  0.0886  0.1181
    5SAPS   C32  567   1.017   2.003   6.827 -0.8163 -0.3531  0.7466
    5SAPS   H2X  568   1.081   2.094   6.823 -0.4412 -0.6546 -0.6635
    5SAPS   H2Y  569   0.912   2.038   6.819 -1.3049 -1.4638  1.8590
    5SAPS   C23  570   0.767   1.457   6.950 -0.9360 -0.2484 -0.3430
    5SAPS   H3R  571   0.732   1.398   7.038 -0.3125 -0.2516 -0.0910
    5SAPS   H3S  572   0.820   1.383   6.886 -0.1360  1.9911 -2.4360
    5SAPS   C24  573   0.663   1.528   6.867  0.5066 -0.7349  0.0987
    5SAPS   H4R  574   0.696   1.568   6.768  0.6013  0.8601  0.7457
    5SAPS   H4S  575   0.642   1.630   6.905 -1.1126 -0.8633 -0.3846
    5SAPS   C25  576   0.532   1.465   6.858  0.0393  0.2615 -0.0873
    5SAPS   H5R  577   0.455   1.482   6.935 -0.9881  0.0057 -1.0323
    5SAPS   C26  578   0.501   1.373   6.764 -0.0534  0.8792  0.3183
    5SAPS   H6R  579   0.401   1.327   6.763 -0.4712  1.5694  3.0022
    5SAPS   C27  580   0.594   1.315   6.657  0.8023 -1.1890  0.1046
    5SAPS   H7R  581   0.698   1.345   6.681 -0.0448  1.6739  0.5547
    5SAPS   H7S  582   0.574   1.363   6.559  1.4381 -0.1646  0.4596
    5SAPS   C28  583   0.591   1.165   6.654  0.5849 -1.1119 -0.3734
    5SAPS   H8R  584   0.597   1.113   6.751  0.8062 -0.7001 -0.1669
    5SAPS   C29  585   0.593   1.091   6.542 -0.3785 -0.0148 -0.5042
    5SAPS   H9R  586   0.584   0.984   6.561 -2.4637 -0.3397 -2.7736
    5SAPS  C210  587   0.601   1.136   6.398  0.2185  0.9311  0.0521
    5SAPS  H10R  588   0.691   1.090   6.352  0.0847  0.4770  0.2379
    5SAPS  H10S  589   0.611   1.246   6.388 -1.1385  1.2434  1.6212
    5SAPS  C211  590   0.477   1.077   6.320  0.5608  0.4564 -0.4296
    5SAPS  H11R  591   0.384   1.067   6.378  0.0221  2.1921 -0.9335
    5SAPS  C212  592   0.477   1.023   6.201 -0.0329  0.2164 -0.2898
    5SAPS  H12R  593   0.375   0.994   6.171  0.1488 -0.1524 -0.5538
    5SAPS  C213  594   0.592   1.029   6.093  0.0898 -0.7494  0.1230
    5SAPS  H13R  595   0.554   0.971   6.006 -0.1414  0.3962 -0.5530
    5SAPS  H13S  596   0.674   0.958   6.116  0.2922 -0.3907  0.5093
    5SAPS  C214  597   0.651   1.159   6.047 -0.3345  0.1062  0.2708
    5SAPS  H14R  598   0.621   1.252   6.096  1.4476  0.3652  0.9496
    5SAPS  C215  599   0.747   1.180   5.952  0.5406 -0.2799 -0.0434
    5SAPS  H15R  600   0.775   1.286   5.942 -2.1709  0.4093 -1.3612
    5SAPS  C216  601   0.808   1.072   5.866 -0.2028 -0.2100  0.1653
    5SAPS  H16R  602   0.782   0.967   5.894 -0.6117 -0.1346  0.0749
    5SAPS  H16S  603   0.918   1.071   5.882  0.2737 -0.7784 -2.6231
    5SAPS  C217  604   0.755   1.086   5.724  0.0236  0.6552  0.0402
    5SAPS  H17R  605   0.644   1.098   5.726  0.2569  3.4409  0.5154
    5SAPS  H17S  606   0.777   0.991   5.672 -1.5236  0.4887 -0.3674
    5SAPS  C218  607   0.794   1.204   5.636  0.2207 -0.5695 -0.3006
    5SAPS  H18R  608   0.904   1.200   5.620  0.5985  0.4565  1.7228
    5SAPS  H18S  609   0.787   1.295   5.699  0.9090 -1.9195  1.8479
    5SAPS  C219  610   0.718   1.206   5.505 -0.1162 -0.7425 -0.1213
    5SAPS  H19R  611   0.610   1.226   5.523 -0.6961 -1.1661 -2.6827
    5SAPS  H19S  612   0.722   1.111   5.448  0.7784 -0.8850  0.1638
    5SAPS  C220  613   0.769   1.320   5.407  0.0178  0.1732 -0.9630
    5SAPS  H20R  614   0.730   1.305   5.304 -0.8807 -0.5658 -0.5365
    5SAPS  H20S  615   0.878   1.312   5.392  0.2074 -0.2993  0.4618
    5SAPS  H20T  616   0.732   1.413   5.454 -2.6408 -1.9626  1.6048
    5SAPS   C33  617   1.050   1.898   6.729 -0.1406  0.0037 -0.1889
    5SAPS   H3X  618   0.956   1.840   6.713  0.0598 -0.7156  1.0369
    5SAPS   H3Y  619   1.126   1.827   6.768  0.0294  0.1521 -0.2564
    5SAPS   C34  620   1.096   1.963   6.595  0.0083 -0.9350  0.2205
    5SAPS   H4X  621   1.202   1.994   6.604 -0.5112  0.7589  1.1901
    5SAPS   H4Y  622   1.041   2.058   6.573  1.2829 -0.0817  0.6048
    5SAPS   C35  623   1.077   1.874   6.478  0.1505 -0.2786 -0.1508
    5SAPS   H5X  624   0.979   1.825   6.465  0.4318 -0.6347 -1.0430
    5SAPS   H5Y  625   1.149   1.788   6.474  0.6891  0.1497  0.1349
    5SAPS   C36  626   1.075   1.956   6.353  0.0915 -1.1228  0.1342
    5SAPS   H6X  627   1.169   2.016   6.349  1.3480 -3.0271 -0.2998
    5SAPS   H6Y  628   0.992   2.030   6.347  0.7014 -0.4902 -0.6528
    5SAPS   C37  629   1.078   1.857   6.230  0.0183 -0.2838 -0.4897
    5SAPS   H7X  630   0.991   1.787   6.236  1.1524 -1.8979 -1.8433
    5SAPS   H7Y  631   1.170   1.796   6.239  0.4709  0.4942  0.2722
    5SAPS   C38  632   1.095   1.941   6.101  0.1464 -0.0362  0.2620
    5SAPS   H8X  633   1.175   2.017   6.095  0.3159 -0.1339  1.1200
    5SAPS   H8Y  634   1.003   2.002   6.088 -0.4657 -0.9087  0.3890
    5SAPS   C39  635   1.091   1.843   5.982 -0.1531 -0.2825  0.5472
    5SAPS   H9X  636   0.987   1.811   5.963  0.4777 -2.2876  0.2542
    5SAPS   H9Y  637   1.139   1.747   6.009 -0.1310 -0.7342 -1.0070
    5SAPS  C310  638   1.147   1.904   5.851  0.2153 -0.2630  0.4922
    5SAPS  H10X  639   1.247   1.946   5.873  0.8176 -1.4885  0.1448
    5SAPS  H10Y  640   1.079   1.988   5.823  0.3744 -0.4383 -0.4754
    5SAPS  C311  641   1.158   1.802   5.726  0.2426 -0.1544  0.1841
    5SAPS  H11X  642   1.077   1.728   5.739 -0.5350  0.7959  0.9724
    5SAPS  H11Y  643   1.246   1.735   5.736  0.0022 -0.4089  0.6370
    5SAPS  C312  644   1.179   1.872   5.592 -0.3340 -0.9404  0.0428
    5SAPS  H12X  645   1.245   1.959   5.608 -1.9364  0.1577  0.9945
    5SAPS  H12Y  646   1.082   1.922   5.569 -1.2374 -2.3863  0.5514
    5SAPS  C313  647   1.222   1.787   5.464  0.9200  0.5865 -0.0193
    5SAPS  H13X  648   1.163   1.694   5.478 -0.5279  1.4021 -0.3780
    5SAPS  H13Y  649   1.330   1.761   5.465  0.9390  0.6757  0.3834
    5SAPS  C314  650   1.183   1.858   5.341 -0.1974  0.3896 -0.0384
    5SAPS  H14X  651   1.229   1.959   5.331  1.4070 -0.3967 -1.0215
    5SAPS  H14Y  652   1.075   1.882   5.348 -0.3666  0.0127 -1.1056
    5SAPS  C315  653   1.220   1.762   5.221 -0.2598 -0.2977  0.2055
    5SAPS  H15X  654   1.149   1.773   5.137  0.3598  0.7128 -0.2035
    5SAPS  H15Y  655   1.205   1.656   5.251 -0.0064 -0.7739 -1.2797
    5SAPS  C316  656   1.367   1.786   5.176  0.1534 -0.4085  0.3337
    5SAPS  H16X  657   1.432   1.760   5.262 -0.1380 -1.4577  0.2576
    5SAPS  H16Y  658   1.381   1.893   5.153  0.9575 -0.5098  0.3334
    5SAPS  C317  659   1.402   1.692   5.063  0.2504 -0.0633  0.2189
    5SAPS  H17X  660   1.363   1.589   5.066  0.0798  0.0163  0.9290
    5SAPS  H17Y  661   1.512   1.676   5.057  0.0758 -0.8068 -2.0128
    5SAPS  C318  662   1.354   1.741   4.923  0.2617 -0.5319  0.2247
    5SAPS  H18X  663   1.246   1.716   4.909  0.5518 -1.5955 -0.1886
    5SAPS  H18Y  664   1.424   1.697   4.849  2.8659  0.2291  2.1056
    5SAPS  H18Z  665   1.381   1.848   4.915  0.4089 -0.5451  0.5160
    6SAPS     N  666   5.164   4.415   7.170 -0.0275 -0.0340  0.0843
    6SAPS   HN1  667   5.182   4.436   7.270 -0.1246  0.8227 -0.0743
    6SAPS   HN2  668   5.073   4.369   7.151 -1.1222  2.3408 -0.7520
    6SAPS   HN3  669   5.244   4.370   7.120 -0.1571  0.5955 -0.6949
    6SAPS   C12  670   5.162   4.561   7.109  0.0457  0.2911 -0.4193
    6SAPS  H12A  671   5.099   4.619   7.175 -0.8724 -0.5983 -0.4931
    6SAPS   C13  672   5.293   4.636   7.105 -0.3154 -0.5337 -0.4567
    6SAPS  O13A  673   5.392   4.574   7.137  0.3441 -0.0273  0.1320
    6SAPS  O13B  674   5.295   4.737   7.031  1.2275  0.4832  0.2018
    6SAPS   C11  675   5.083   4.552   6.973 -0.7096  0.2102  0.0006
    6SAPS  H11A  676   5.129   4.477   6.906  0.9442  0.9606  0.2402
    6SAPS  H11B  677   5.082   4.639   6.905  0.2771  0.0944 -0.1756
    6SAPS     P  678   4.863   4.415   6.924  0.1299  0.4509 -0.1414
    6SAPS   O13  679   4.942   4.284   6.921  0.1979 -0.5471 -0.3719
    6SAPS   O14  680   4.717   4.416   6.974 -0.3808  0.2824  1.1519
    6SAPS   O12  681   4.948   4.519   7.003  0.3232  0.3413  0.4987
    6SAPS   O11  682   4.858   4.482   6.779 -0.2710 -0.7093  0.2981
    6SAPS    C1  683   4.782   4.606   6.762  0.6559 -0.4555 -0.3376
    6SAPS    HA  684   4.678   4.587   6.796 -0.1257  0.5882 -2.0220
    6SAPS    HB  685   4.834   4.676   6.831  2.8500 -2.5214  0.2291
    6SAPS    C2  686   4.785   4.666   6.617  0.3570  0.3005 -0.2653
    6SAPS    HS  687   4.721   4.754   6.637 -1.3200 -1.1770  1.2811
    6SAPS   O21  688   4.717   4.587   6.521 -0.2887  0.4346  0.0988
    6SAPS   C21  689   4.586   4.577   6.526  0.6013 -0.2328 -0.3626
    6SAPS   O22  690   4.512   4.642   6.601  0.0043 -0.5810  0.5504
    6SAPS   C22  691   4.537   4.481   6.416 -0.7212 -0.2421  0.4769
    6SAPS   H2R  692   4.596   4.500   6.324 -0.6986 -0.4276  0.4534
    6SAPS   H2S  693   4.562   4.379   6.454 -0.1925  0.0640  0.9714
    6SAPS    C3  694   4.930   4.685   6.568 -0.9396 -0.1640  0.5935
    6SAPS    HX  695   4.996   4.601   6.597  1.8095  2.3520  2.1481
    6SAPS    HY  696   4.972   4.774   6.620 -2.2762  0.6707  0.3135
    6SAPS   O31  697   4.946   4.711   6.429 -0.3304  0.1516 -0.5529
    6SAPS   C31  698   4.885   4.821   6.380 -0.5949 -0.3007 -0.5682
    6SAPS   O32  699   4.820   4.906   6.444  0.0625  0.1251  0.3187
    6SAPS   C32  700   4.878   4.816   6.232 -1.0221  0.7417 -0.3413
    6SAPS   H2X  701   4.779   4.775   6.202 -0.5224  0.1494 -1.2101
    6SAPS   H2Y  702   4.957   4.748   6.193 -2.2502 -1.7796  1.2696
    6SAPS   C23  703   4.385   4.509   6.375  0.2334  0.5812 -0.0029
    6SAPS   H3R  704   4.369   4.619   6.378  1.9639  1.0032 -2.3925
    6SAPS   H3S  705   4.321   4.449   6.443 -0.4018 -0.2558 -1.2987
    6SAPS   C24  706   4.361   4.480   6.219 -0.6025  1.2679 -0.0100
    6SAPS   H4R  707   4.436   4.543   6.167 -0.1874  0.1017 -0.8716
    6SAPS   H4S  708   4.256   4.509   6.197 -1.1503  1.0709  2.1071
    6SAPS   C25  709   4.377   4.325   6.201  0.1992 -0.5052 -0.2735
    6SAPS   H5R  710   4.453   4.275   6.263 -0.4885 -0.6273  0.4914
    6SAPS   C26  711   4.280   4.245   6.147  0.3066 -0.6568  0.8959
    6SAPS   H6R  712   4.294   4.137   6.162  2.1010 -0.3494  1.7051
    6SAPS   C27  713   4.148   4.290   6.081  0.9696  0.0512  0.4435
    6SAPS   H7R  714   4.175   4.381   6.023 -0.2830 -0.3737 -0.8834
    6SAPS   H7S  715   4.075   4.318   6.159  0.9055  1.3296 -0.0446
    6SAPS   C28  716   4.082   4.198   5.985  0.1452  0.1968  0.4938
    6SAPS   H8R  717   4.025   4.110   6.019 -2.0674  0.4853 -2.1409
    6SAPS   C29  718   4.078   4.211   5.852  0.3119  0.2859 -0.1976
    6SAPS   H9R  719   4.022   4.131   5.801  0.7490  0.0323 -0.2835
    6SAPS  C210  720   4.141   4.318   5.769 -0.0646  0.2110 -0.1936
    6SAPS  H10R  721   4.189   4.399   5.829 -1.0010  0.2724  0.4956
    6SAPS  H10S  722   4.053   4.369   5.723 -1.0098  1.8551  3.1718
    6SAPS  C211  723   4.239   4.267   5.658  0.3108  0.2133 -1.4616
    6SAPS  H11R  724   4.344   4.257   5.689  0.3901 -0.6330 -1.9741
    6SAPS  C212  725   4.224   4.243   5.531 -0.3962  0.1555  0.8202
    6SAPS  H12R  726   4.312   4.221   5.469 -1.4107  0.4694 -0.7943
    6SAPS  C213  727   4.096   4.233   5.458 -0.0035  0.2619  0.3696
    6SAPS  H13R  728   4.056   4.330   5.421  0.5133 -0.4987 -2.4352
    6SAPS  H13S  729   4.010   4.200   5.521 -0.9398  2.2510  0.2453
    6SAPS  C214  730   4.090   4.132   5.349  0.4923 -0.0146 -0.1399
    6SAPS  H14R  731   4.171   4.060   5.336  0.6906  0.2625 -0.4418
    6SAPS  C215  732   3.992   4.125   5.254  0.2452  0.1697  0.0983
    6SAPS  H15R  733   4.000   4.043   5.181 -1.3481  1.4825 -1.6455
    6SAPS  C216  734   3.878   4.220   5.229 -0.4622 -0.9360  0.5741
    6SAPS  H16R  735   3.867   4.295   5.310  0.0331 -0.6310  0.3609
    6SAPS  H16S  736   3.786   4.158   5.228 -0.0658 -1.6627  2.8088
    6SAPS  C217  737   3.886   4.282   5.088  0.2087 -0.9227  0.1227
    6SAPS  H17R  738   3.892   4.209   5.004  2.2419  1.0266 -1.5612
    6SAPS  H17S  739   3.978   4.345   5.092 -0.1602 -0.4214  0.7627
    6SAPS  C218  740   3.771   4.376   5.039 -0.4297  0.1602  0.1683
    6SAPS  H18R  741   3.802   4.443   4.955  2.0982  0.1634  1.0250
    6SAPS  H18S  742   3.741   4.451   5.115 -1.6127 -0.3094  0.1814
    6SAPS  C219  743   3.638   4.302   5.011 -0.6267  0.0045  0.1449
    6SAPS  H19R  744   3.615   4.243   5.102 -2.0203 -0.0499 -0.2164
    6SAPS  H19S  745   3.652   4.225   4.932  1.5281 -0.7734  1.2134
    6SAPS  C220  746   3.519   4.390   4.981  0.0021 -0.2923 -0.7079
    6SAPS  H20R  747   3.445   4.314   4.947  0.5523 -1.0013 -0.3613
    6SAPS  H20S  748   3.540   4.452   4.892  2.3726  0.6785  0.4229
    6SAPS  H20T  749   3.485   4.450   5.069 -0.9750  1.1403 -2.0255
    6SAPS   C33  750   4.893   4.957   6.176 -0.4148  0.1318 -1.0766
    6SAPS   H3X  751   4.993   5.001   6.193 -0.6596  0.1692  0.3196
    6SAPS   H3Y  752   4.814   5.021   6.220  1.9163  1.3313  1.6739
    6SAPS   C34  753   4.859   4.955   6.028 -0.7029  0.2497  0.2757
    6SAPS   H4X  754   4.840   5.060   5.997 -2.1594 -0.7507 -2.5019
    6SAPS   H4Y  755   4.770   4.891   6.018 -2.0390  1.9100  1.0348
    6SAPS   C35  756   4.970   4.911   5.930 -0.3804 -0.6629  0.6205
    6SAPS   H5X  757   5.018   4.813   5.953  0.2990 -0.6151 -0.5055
    6SAPS   H5Y  758   5.055   4.982   5.941 -0.6627  0.0752 -1.5680
    6SAPS   C36  759   4.919   4.922   5.794  0.0891  0.1543  0.5728
    6SAPS   H6X  760   4.876   5.021   5.769 -1.5411 -0.4207  1.0022
    6SAPS   H6Y  761   4.825   4.863   5.788 -0.7141  1.2559  1.7345
    6SAPS   C37  762   5.024   4.892   5.685  0.0626  0.9175 -0.2681
    6SAPS   H7X  763   5.069   4.790   5.687 -1.4454  0.2257 -0.4343
    6SAPS   H7Y  764   5.103   4.969   5.702 -0.0751  1.0172 -0.0749
    6SAPS   C38  765   4.970   4.920   5.541  0.2804 -0.1052 -0.2449
    6SAPS   H8X  766   4.933   5.024   5.551 -1.7646 -0.7753 -0.2516
    6SAPS   H8Y  767   4.881   4.856   5.519  0.6034 -0.7974  0.3830
    6SAPS   C39  768   5.069   4.899   5.425  0.1835  0.4521 -0.5188
    6SAPS   H9X  769   5.088   4.790   5.416  1.9465  0.5321  1.4903
    6SAPS   H9Y  770   5.162   4.956   5.446  0.5011 -0.6924  1.3969
    6SAPS  C310  771   5.017   4.941   5.288 -0.8216  0.4970  0.4927
    6SAPS  H10X  772   5.027   5.051   5.277  0.5531  0.2030 -2.1634
    6SAPS  H10Y  773   4.908   4.917   5.283 -0.4340 -1.3044 -0.0402
    6SAPS  C311  774   5.092   4.885   5.170  0.0755 -0.4146 -0.0359
    6SAPS  H11X  775   5.123   4.784   5.205 -1.7792 -0.5805  1.2702
    6SAPS  H11Y  776   5.180   4.947   5.145  0.8883 -1.7268 -0.5255
    6SAPS  C312  777   4.998   4.881   5.052 -0.2496 -0.7770 -0.0288
    6SAPS  H12X  778   4.906   4.821   5.068 -0.8553  0.1633  0.0945
    6SAPS  H12Y  779   5.052   4.828   4.970  0.2389  2.1648 -1.7502
    6SAPS  C313  780   4.969   5.019   4.994  0.3549 -0.0626  0.3631
    6SAPS  H13X  781   5.060   5.081   5.005  1.6188 -1.7666 -0.0820
    6SAPS  H13Y  782   4.890   5.059   5.060  1.7556 -1.5640  3.1061
    6SAPS  C314  783   4.934   5.021   4.845  0.0358  0.2604 -0.5026
    6SAPS  H14X  784   5.014   4.976   4.782  0.5283  0.6514 -0.1595
    6SAPS  H14Y  785   4.915   5.127   4.819 -2.0741  0.2448  0.7718
    6SAPS  C315  786   4.818   4.929   4.813  0.0349  0.2562 -0.2563
    6SAPS  H15X  787   4.735   4.980   4.867 -0.4577 -1.6193  0.8626
    6SAPS  H15Y  788   4.843   4.828   4.852  1.9307  1.1587  1.0038
    6SAPS  C316  789   4.790   4.922   4.666  0.0768  0.6959 -0.0463
    6SAPS  H16X  790   4.701   4.858   4.647 -0.2542  1.2152 -0.2638
    6SAPS  H16Y  791   4.872   4.873   4.608 -0.1769  0.0286  0.1462
    6SAPS  C317  792   4.758   5.060   4.603 -0.0838 -0.5217  0.3158
    6SAPS  H17X  793   4.846   5.126   4.615 -1.2591  1.5542 -1.4992
    6SAPS  H17Y  794   4.672   5.101   4.661  0.3722 -0.0418  0.6572
    6SAPS  C318  795   4.726   5.056   4.450 -0.5029 -0.0693  0.7777
    6SAPS  H18X  796   4.658   4.972   4.422 -0.0580  0.4342 -2.1905
    6SAPS  H18Y  797   4.813   5.021   4.390 -1.2413 -0.1811 -0.2634
    6SAPS  H18Z  798   4.691   5.156   4.417  2.2091  0.8798  0.5396
    7SAPS     N  799   0.230   4.162   7.170 -0.1888  0.0454 -0.6627
    7SAPS   HN1  800   0.178   4.223   7.237 -1.1719 -2.8453  1.4138
    7SAPS   HN2  801   0.311   4.217   7.135  0.4170 -1.0364 -0.9932
    7SAPS   HN3  802   0.169   4.128   7.093  1.2707 -2.4141 -0.8127
    7SAPS   C12  803   0.267   4.041   7.241  0.2382  0.2593 -0.4837
    7SAPS  H12A  804   0.360   4.059   7.292 -1.3655  1.8105  2.1752
    7SAPS   C13  805   0.174   3.997   7.367 -0.1271  0.1281 -0.4335
    7SAPS  O13A  806   0.078   4.078   7.395  0.0566 -0.3878  0.0649
    7SAPS  O13B  807   0.190   3.889   7.428 -0.1464  0.1545 -0.1756
    7SAPS   C11  808   0.282   3.925   7.132  0.4774 -0.3427 -0.5492
    7SAPS  H11A  809   0.345   3.862   7.198  0.5713 -0.0990 -0.4011
    7SAPS  H11B  810   0.342   3.972   7.051 -0.7064 -0.7753 -1.7037
    7SAPS     P  811   0.115   3.898   6.951 -0.0966  0.3135 -0.1625
    7SAPS   O13  812  -0.008   3.823   6.923  0.2250  0.3566 -0.3388
    7SAPS   O14  813   0.109   4.050   6.949  0.0921  0.8484  0.0645
    7SAPS   O12  814   0.165   3.855   7.097  0.0167 -0.1455  0.4835
    7SAPS   O11  815   0.236   3.852   6.859  0.4339  0.2317  0.0255
    7SAPS    C1  816   0.293   3.920   6.746  0.0979  0.3661  0.1833
    7SAPS    HA  817   0.301   4.029   6.765 -1.7880  0.3540  1.3325
    7SAPS    HB  818   0.397   3.887   6.726 -0.0095  1.5621 -2.9374
    7SAPS    C2  819   0.229   3.887   6.607  0.5717  0.2798  0.4775
    7SAPS    HS  820   0.280   3.952   6.533 -1.5543  1.0964 -0.3586
    7SAPS   O21  821   0.087   3.932   6.596 -0.4161  0.1797  0.1636
    7SAPS   C21  822   0.072   4.059   6.606  0.2776 -0.0439  0.2998
    7SAPS   O22  823   0.163   4.141   6.626 -0.4151  0.7763 -0.0713
    7SAPS   C22  824  -0.073   4.088   6.578  0.0839  0.1180 -0.2205
    7SAPS   H2R  825  -0.114   4.027   6.495 -2.4072 -0.0589  1.0696
    7SAPS   H2S  826  -0.121   4.061   6.674  0.8198  1.2696  0.4949
    7SAPS    C3  827   0.266   3.744   6.562  1.0351  0.1446  0.9028
    7SAPS    HX  828   0.219   3.674   6.635  1.2771 -0.1765  0.7548
    7SAPS    HY  829   0.376   3.733   6.560  1.1305  1.1376  0.1977
    7SAPS   O31  830   0.200   3.708   6.435  0.6349  0.0900  0.2718
    7SAPS   C31  831   0.257   3.751   6.321 -0.6022  0.2317  0.2698
    7SAPS   O32  832   0.364   3.814   6.320 -0.1733  0.1774  0.3094
    7SAPS   C32  833   0.163   3.721   6.208 -0.5028  0.1604 -0.1923
    7SAPS   H2X  834   0.074   3.788   6.218 -0.6382 -0.0742  0.2092
    7SAPS   H2Y  835   0.148   3.612   6.225 -0.1325  0.2112  0.4612
    7SAPS   C23  836  -0.100   4.235   6.552 -0.8908 -0.8044  0.2419
    7SAPS   H3R  837  -0.049   4.300   6.626 -1.5832 -1.3985  1.2650
    7SAPS   H3S  838  -0.208   4.251   6.572 -0.5805 -1.4046  2.7403
    7SAPS   C24  839  -0.084   4.280   6.403  0.3420  0.6724 -0.4907
    7SAPS   H4R  840   0.024   4.269   6.379 -0.0517 -0.1815 -2.0342
    7SAPS   H4S  841  -0.116   4.386   6.411  2.1188  1.0761  3.2484
    7SAPS   C25  842  -0.179   4.212   6.307 -0.4461 -0.5024  0.2190
    7SAPS   H5R  843  -0.284   4.226   6.336 -0.6078  1.7597 -1.2542
    7SAPS   C26  844  -0.152   4.126   6.202 -0.5492  0.5908 -0.2828
    7SAPS   H6R  845  -0.232   4.105   6.131  1.7630  1.9874 -3.5589
    7SAPS   C27  846  -0.017   4.097   6.146  0.2624 -0.7269  0.2096
    7SAPS   H7R  847  -0.008   3.999   6.095 -0.3792 -0.7798  0.1816
    7SAPS   H7S  848   0.061   4.099   6.225  0.5399 -1.2354 -0.0485
    7SAPS   C28  849   0.020   4.205   6.044  0.1566 -0.5034  0.2096
    7SAPS   H8R  850   0.089   4.283   6.078  0.6574 -0.0224 -1.7728
    7SAPS   C29  851  -0.012   4.201   5.913 -0.7688  0.1951 -0.1202
    7SAPS   H9R  852   0.035   4.286   5.862 -0.3222  0.7301  1.1370
    7SAPS  C210  853  -0.095   4.107   5.835 -0.4367  0.4563  0.5860
    7SAPS  H10R  854  -0.142   4.037   5.907  4.2926 -2.4566  1.2759
    7SAPS  H10S  855  -0.032   4.034   5.779 -0.2365  0.7005  0.4883
    7SAPS  C211  856  -0.185   4.175   5.742 -0.7351 -0.0960  0.9048
    7SAPS  H11R  857  -0.291   4.158   5.765 -0.7973 -0.2850  0.4823
    7SAPS  C212  858  -0.154   4.227   5.625 -0.3867 -0.4396  0.2193
    7SAPS  H12R  859  -0.233   4.264   5.559  0.5431 -1.6236 -1.6290
    7SAPS  C213  860  -0.015   4.235   5.554 -0.0048  0.4670 -0.4611
    7SAPS  H13R  861   0.072   4.224   5.623  0.4238  1.4130 -0.8358
    7SAPS  H13S  862  -0.003   4.337   5.511 -0.8703  0.9607  0.4341
    7SAPS  C214  863   0.000   4.136   5.443 -0.3079 -0.4436 -0.3797
    7SAPS  H14R  864  -0.019   4.030   5.466  2.9471 -1.7885 -3.0263
    7SAPS  C215  865   0.032   4.158   5.317 -0.8681 -0.6308 -0.0835
    7SAPS  H15R  866   0.041   4.075   5.246  4.5147 -0.4592 -0.0413
    7SAPS  C216  867   0.058   4.294   5.260 -0.9213 -0.1708 -0.2237
    7SAPS  H16R  868   0.169   4.305   5.263 -0.7392 -1.9218  2.3278
    7SAPS  H16S  869   0.010   4.372   5.323 -1.0298 -1.1614  0.9652
    7SAPS  C217  870   0.005   4.307   5.117 -0.0148  0.7597  0.4706
    7SAPS  H17R  871  -0.102   4.278   5.129 -0.0325 -0.3268 -1.7972
    7SAPS  H17S  872   0.065   4.232   5.060 -1.6636 -0.9684  0.8898
    7SAPS  C218  873   0.018   4.447   5.042  0.0775  0.3384 -0.0808
    7SAPS  H18R  874   0.001   4.413   4.938  2.0872 -2.8602  0.5148
    7SAPS  H18S  875   0.121   4.488   5.050  0.6650 -1.0640 -0.1728
    7SAPS  C219  876  -0.083   4.552   5.097 -0.8271 -0.2392 -0.1179
    7SAPS  H19R  877  -0.059   4.570   5.204  1.6137 -2.1148 -0.2636
    7SAPS  H19S  878  -0.187   4.513   5.094 -0.6008 -0.8513 -0.1346
    7SAPS  C220  879  -0.071   4.684   5.029  0.0323 -0.1909 -0.4992
    7SAPS  H20R  880  -0.114   4.769   5.085  0.6263  1.7529 -2.8156
    7SAPS  H20S  881  -0.124   4.675   4.931  1.9280 -0.1621 -1.5775
    7SAPS  H20T  882   0.035   4.707   5.002 -0.1230  1.3993  0.1719
    7SAPS   C33  883   0.213   3.762   6.065 -0.2907  0.6946  0.0836
    7SAPS   H3X  884   0.299   3.701   6.028 -1.0276 -0.9929  1.0574
    7SAPS   H3Y  885   0.232   3.871   6.071  1.1735  0.6076 -1.9503
    7SAPS   C34  886   0.106   3.725   5.963 -0.1736 -0.0132  0.2309
    7SAPS   H4X  887   0.016   3.785   5.983  0.9340  0.8980  2.9121
    7SAPS   H4Y  888   0.080   3.617   5.956  2.3111 -0.6717 -0.2126
    7SAPS   C35  889   0.166   3.764   5.826 -0.2989  0.9048 -0.3110
    7SAPS   H5X  890   0.256   3.700   5.809 -1.2856 -0.2475 -1.4490
    7SAPS   H5Y  891   0.187   3.873   5.824  1.0970  0.6604 -0.2168
    7SAPS   C36  892   0.079   3.731   5.705 -0.3615 -0.0209  0.8437
    7SAPS   H6X  893  -0.023   3.774   5.710  0.1903  1.8668 -1.8386
    7SAPS   H6Y  894   0.066   3.622   5.694 -4.1286  0.1697  2.1353
    7SAPS   C37  895   0.144   3.788   5.580  0.2813 -0.8829 -0.3684
    7SAPS   H7X  896   0.251   3.759   5.571  0.0352 -1.4794 -1.6701
    7SAPS   H7Y  897   0.134   3.898   5.579  2.6511 -0.6026  0.3700
    7SAPS   C38  898   0.077   3.739   5.449  0.3673  0.4095  0.9438
    7SAPS   H8X  899  -0.031   3.766   5.444  0.8613  2.4435  0.6541
    7SAPS   H8Y  900   0.084   3.628   5.455 -1.1781  0.1571 -0.9439
    7SAPS   C39  901   0.150   3.798   5.326 -0.4134  0.3529 -0.3668
    7SAPS   H9X  902   0.253   3.759   5.310 -0.1379  1.1625 -0.5896
    7SAPS   H9Y  903   0.159   3.908   5.339 -1.4812  0.2568  1.6316
    7SAPS  C310  904   0.073   3.773   5.197  0.0869  0.7220  0.9465
    7SAPS  H10X  905  -0.030   3.813   5.209 -0.7720 -0.4771 -1.6841
    7SAPS  H10Y  906   0.060   3.663   5.192 -1.3999  0.9168 -0.2814
    7SAPS  C311  907   0.149   3.828   5.075 -0.0826 -0.9097  0.5945
    7SAPS  H11X  908   0.230   3.762   5.038  0.7480  0.5776 -0.3358
    7SAPS  H11Y  909   0.198   3.923   5.106 -2.5757  1.7546 -2.8075
    7SAPS  C312  910   0.050   3.880   4.966 -0.3244 -0.0261 -0.5825
    7SAPS  H12X  911  -0.029   3.935   5.021  1.2733 -0.2977  2.1593
    7SAPS  H12Y  912   0.005   3.791   4.916  2.7054 -1.1414 -1.5803
    7SAPS  C313  913   0.118   3.956   4.857 -0.8272 -0.7866 -0.2135
    7SAPS  H13X  914   0.189   3.886   4.809 -0.9277 -0.5808 -0.6678
    7SAPS  H13Y  915   0.178   4.042   4.893  0.5360 -0.6448 -2.6170
    7SAPS  C314  916   0.028   4.017   4.749  0.3261 -0.2948 -0.0854
    7SAPS  H14X  917  -0.048   3.945   4.713 -0.7139  0.1468  1.1656
    7SAPS  H14Y  918   0.098   4.052   4.669  1.8154 -0.4757  1.0881
    7SAPS  C315  919  -0.049   4.144   4.804  0.0518 -0.7253 -0.0067
    7SAPS  H15X  920   0.022   4.227   4.823 -0.0481 -0.9927  1.6651
    7SAPS  H15Y  921  -0.078   4.110   4.906  1.7454  1.0216  1.1318
    7SAPS  C316  922  -0.179   4.178   4.718 -0.3593 -0.1790  0.1200
    7SAPS  H16X  923  -0.250   4.240   4.776  0.9187  1.9544 -0.4690
    7SAPS  H16Y  924  -0.236   4.084   4.706 -2.4325  0.8861  1.0526
    7SAPS  C317  925  -0.153   4.246   4.582  0.1134  0.1938  0.1830
    7SAPS  H17X  926  -0.089   4.183   4.517  0.1008  1.5741 -1.2300
    7SAPS  H17Y  927  -0.097   4.341   4.597  0.6558 -0.0051 -0.5531
    7SAPS  C318  928  -0.285   4.260   4.504  0.0645  0.4226 -0.2196
    7SAPS  H18X  929  -0.328   4.165   4.467  0.3080 -0.6072  1.9684
    7SAPS  H18Y  930  -0.269   4.325   4.416  2.3036 -1.3126 -1.1700
    7SAPS  H18Z  931  -0.359   4.306   4.574 -0.6398  1.0298 -1.3245
    8SAPS     N  932   4.487   6.314   7.367 -0.0159 -0.4640 -0.3283
    8SAPS   HN1  933   4.444   6.223   7.395 -1.4741  0.2564 -0.1170
    8SAPS   HN2  934   4.417   6.391   7.366 -0.0735 -0.5241 -0.8466
    8SAPS   HN3  935   4.529   6.316   7.272  0.5534 -0.9461 -0.0927
    8SAPS   C12  936   4.594   6.354   7.465 -0.4048 -0.8847 -0.0567
    8SAPS  H12A  937   4.635   6.444   7.422 -1.0353 -0.1657  0.7923
    8SAPS   C13  938   4.552   6.395   7.609  0.0310 -0.6576 -0.4473
    8SAPS  O13A  939   4.433   6.379   7.645  0.1883  0.3894 -0.2440
    8SAPS  O13B  940   4.636   6.423   7.703 -0.0927 -0.3052 -0.0054
    8SAPS   C11  941   4.699   6.241   7.456  0.8167 -0.5104 -0.3686
    8SAPS  H11A  942   4.772   6.261   7.537  0.5900 -0.2801 -0.2224
    8SAPS  H11B  943   4.760   6.238   7.363  0.3015  0.9798 -0.7919
    8SAPS     P  944   4.732   5.992   7.528  0.2020 -0.4215 -0.1729
    8SAPS   O13  945   4.836   6.026   7.622 -0.0021 -0.3499 -0.0325
    8SAPS   O14  946   4.646   5.875   7.555 -0.2204  0.0377 -0.3134
    8SAPS   O12  947   4.639   6.115   7.498 -0.4266 -0.3141 -0.8232
    8SAPS   O11  948   4.796   5.976   7.383  0.1795  0.0711 -0.0587
    8SAPS    C1  949   4.718   5.937   7.276 -0.7673  0.2028 -0.5468
    8SAPS    HA  950   4.675   5.836   7.291  0.8659 -0.1385  2.8554
    8SAPS    HB  951   4.644   6.018   7.260  1.6151  2.9501  1.1461
    8SAPS    C2  952   4.792   5.918   7.139  0.5031  0.3248  0.3132
    8SAPS    HS  953   4.861   5.830   7.144  1.1817  0.8717  0.8477
    8SAPS   O21  954   4.860   6.043   7.113 -0.2199 -0.2294 -0.4628
    8SAPS   C21  955   4.974   6.030   7.046  0.3085 -0.4482 -0.2285
    8SAPS   O22  956   5.043   5.932   7.025  0.0377  0.3826  0.0450
    8SAPS   C22  957   4.993   6.166   6.988  0.6397 -0.1606 -0.7419
    8SAPS   H2R  958   4.912   6.186   6.915  1.2608  1.3104 -1.0471
    8SAPS   H2S  959   5.000   6.234   7.075  2.5559  0.2768 -1.1883
    8SAPS    C3  960   4.689   5.893   7.023 -0.3489  0.4203 -0.4964
    8SAPS    HX  961   4.611   5.972   7.016 -1.2263 -0.5007 -1.6130
    8SAPS    HY  962   4.647   5.793   7.047  0.9617 -1.1633 -4.1276
    8SAPS   O31  963   4.750   5.900   6.891 -0.4606  0.3553 -0.1662
    8SAPS   C31  964   4.784   5.785   6.839 -0.0873  0.4541  0.2166
    8SAPS   O32  965   4.749   5.677   6.882 -0.1015  0.2085 -0.0528
    8SAPS   C32  966   4.869   5.808   6.723  0.1568 -0.0626  0.2396
    8SAPS   H2X  967   4.893   5.708   6.682 -2.8590 -0.4232 -0.8716
    8SAPS   H2Y  968   4.964   5.861   6.745  0.3139  1.2479 -3.0084
    8SAPS   C23  969   5.122   6.185   6.909  0.2393  1.0360  0.1389
    8SAPS   H3R  970   5.205   6.144   6.969 -0.8175 -2.2469 -0.4419
    8SAPS   H3S  971   5.149   6.292   6.922  1.8565  0.7640 -0.7005
    8SAPS   C24  972   5.124   6.146   6.761 -0.4468  1.3552 -0.2835
    8SAPS   H4R  973   5.089   6.042   6.750  1.1200  0.5665  1.6413
    8SAPS   H4S  974   5.232   6.154   6.736 -0.4532 -0.3527 -0.9923
    8SAPS   C25  975   5.040   6.230   6.669 -0.0528  0.0643  0.6406
    8SAPS   H5R  976   4.954   6.282   6.714 -0.1666  0.0127  0.4883
    8SAPS   C26  977   5.072   6.268   6.539  0.3939 -0.5209 -0.7187
    8SAPS   H6R  978   4.998   6.324   6.479 -0.4370 -0.3796  0.4127
    8SAPS   C27  979   5.189   6.214   6.449 -0.1241 -0.2796 -0.2918
    8SAPS   H7R  980   5.254   6.157   6.519 -0.4580 -0.9634 -0.5277
    8SAPS   H7S  981   5.242   6.303   6.410  0.5301 -0.7759 -0.5550
    8SAPS   C28  982   5.155   6.114   6.346 -0.7484  0.3026 -0.2494
    8SAPS   H8R  983   5.114   6.019   6.385  1.3065  0.6435  3.2317
    8SAPS   C29  984   5.171   6.116   6.215 -0.2778  0.3530  0.7318
    8SAPS   H9R  985   5.153   6.027   6.153  3.1424  0.0026  0.0530
    8SAPS  C210  986   5.244   6.227   6.133 -0.1872  0.0936 -0.5980
    8SAPS  H10R  987   5.349   6.199   6.113 -0.0979 -1.0458  1.1666
    8SAPS  H10S  988   5.265   6.319   6.191 -0.5125  0.3680 -0.9097
    8SAPS  C211  989   5.161   6.250   6.014 -0.2178 -0.7212 -0.1263
    8SAPS  H11R  990   5.054   6.243   6.035 -0.6790  1.1251 -1.5769
    8SAPS  C212  991   5.201   6.260   5.888 -0.1823 -0.2122  0.3673
    8SAPS  H12R  992   5.123   6.275   5.813 -0.6489  0.8664  1.0460
    8SAPS  C213  993   5.344   6.246   5.834 -0.1353  0.0083  0.4783
    8SAPS  H13R  994   5.402   6.187   5.908 -1.3808 -0.1764  1.3348
    8SAPS  H13S  995   5.383   6.349   5.822 -0.7204  0.6895  3.4644
    8SAPS  C214  996   5.347   6.153   5.722 -0.4999 -0.8533  0.2913
    8SAPS  H14R  997   5.387   6.052   5.742  0.7650 -1.3137 -3.7620
    8SAPS  C215  998   5.320   6.191   5.594 -0.5024 -0.2196 -0.6081
    8SAPS  H15R  999   5.342   6.117   5.516 -0.4078 -0.1335 -0.6631
    8SAPS  C216 1000   5.279   6.327   5.538 -0.1269 -0.6177 -0.3903
    8SAPS  H16R 1001   5.369   6.389   5.518  1.3890 -2.3576  0.7024
    8SAPS  H16S 1002   5.213   6.385   5.606 -0.1094 -1.0591  0.0052
    8SAPS  C217 1003   5.196   6.314   5.417 -0.4842  0.1866  0.5688
    8SAPS  H17R 1004   5.111   6.244   5.427  0.4739 -0.9139  1.2218
    8SAPS  H17S 1005   5.252   6.257   5.340 -1.9764 -0.7221  0.1308
    8SAPS  C218 1006   5.143   6.449   5.376 -0.0817 -0.4182 -0.5334
    8SAPS  H18R 1007   5.098   6.504   5.462 -1.0201 -0.5872 -0.9016
    8SAPS  H18S 1008   5.067   6.433   5.297 -0.8969 -2.8273  0.6479
    8SAPS  C219 1009   5.247   6.537   5.306 -0.4355  0.0260 -0.1315
    8SAPS  H19R 1010   5.279   6.488   5.212 -0.2294  0.8801 -0.5138
    8SAPS  H19S 1011   5.330   6.552   5.378 -1.0756  1.1336  0.4147
    8SAPS  C220 1012   5.203   6.676   5.275  0.0598 -0.6157 -0.3671
    8SAPS  H20R 1013   5.163   6.733   5.362  0.0204  2.9242 -2.5187
    8SAPS  H20S 1014   5.124   6.674   5.196  0.4503 -1.5069 -0.7522
    8SAPS  H20T 1015   5.283   6.741   5.234  1.6549 -1.2441  1.6033
    8SAPS   C33 1016   4.795   5.898   6.617 -0.2678  0.1858 -0.3484
    8SAPS   H3X 1017   4.810   6.004   6.648 -0.1825  0.0368  0.1274
    8SAPS   H3Y 1018   4.685   5.888   6.609 -0.0552 -0.9494 -2.5449
    8SAPS   C34 1019   4.849   5.886   6.470  0.9873 -0.1052 -0.3463
    8SAPS   H4X 1020   4.827   5.784   6.432 -1.1785  0.8011 -1.6834
    8SAPS   H4Y 1021   4.960   5.894   6.474  0.9845 -0.4715  2.5267
    8SAPS   C35 1022   4.804   5.985   6.369  0.4741 -0.2388 -0.2202
    8SAPS   H5X 1023   4.819   6.090   6.403  0.7183 -0.0993 -0.7461
    8SAPS   H5Y 1024   4.695   5.975   6.352  0.3136  1.6821 -0.5010
    8SAPS   C36 1025   4.865   5.942   6.235  0.2293  0.1376  0.8834
    8SAPS   H6X 1026   4.825   5.842   6.209 -1.7295  1.4006 -1.3358
    8SAPS   H6Y 1027   4.976   5.934   6.246  0.1897 -1.3346  0.3313
    8SAPS   C37 1028   4.832   6.030   6.121  0.0819 -0.3597  0.4370
    8SAPS   H7X 1029   4.877   6.130   6.139 -1.3047  0.9115 -2.6043
    8SAPS   H7Y 1030   4.722   6.045   6.117  0.1384  0.5952  1.8304
    8SAPS   C38 1031   4.870   5.984   5.981 -0.4625  0.3940  0.7940
    8SAPS   H8X 1032   4.814   5.888   5.978 -2.8728  1.7123  1.3133
    8SAPS   H8Y 1033   4.979   5.962   5.983 -0.3806  0.5916 -0.7099
    8SAPS   C39 1034   4.828   6.081   5.870 -0.0381 -0.2066  0.2964
    8SAPS   H9X 1035   4.870   6.180   5.899  1.0194  0.0331 -1.9010
    8SAPS   H9Y 1036   4.720   6.105   5.862 -0.1685 -1.1571 -1.1046
    8SAPS  C310 1037   4.899   6.054   5.738 -0.0866  0.1442 -0.3256
    8SAPS  H10X 1038   4.858   5.954   5.713 -1.2112  0.5156 -0.0431
    8SAPS  H10Y 1039   5.007   6.039   5.759  0.1963  0.4690 -1.4441
    8SAPS  C311 1040   4.871   6.150   5.628  0.6482  0.2900 -0.0014
    8SAPS  H11X 1041   4.950   6.227   5.639 -0.4415  1.3362  0.8526
    8SAPS  H11Y 1042   4.771   6.197   5.640 -0.0563 -1.6718  2.8142
    8SAPS  C312 1043   4.883   6.083   5.490 -1.2182 -0.4700 -0.3813
    8SAPS  H12X 1044   4.982   6.035   5.475 -1.2354 -0.6009 -0.0674
    8SAPS  H12Y 1045   4.860   6.164   5.416  1.1816 -0.9978 -1.8227
    8SAPS  C313 1046   4.769   5.984   5.459 -0.1939  0.2633  0.1157
    8SAPS  H13X 1047   4.679   6.005   5.520 -0.5311  0.4224 -0.4336
    8SAPS  H13Y 1048   4.812   5.890   5.502 -0.5500  0.3323  0.6379
    8SAPS  C314 1049   4.730   5.962   5.320 -0.5943  0.1772  0.1166
    8SAPS  H14X 1050   4.815   5.948   5.250 -1.6474  0.2757 -1.2277
    8SAPS  H14Y 1051   4.685   6.058   5.285 -0.1200  0.4888  0.3541
    8SAPS  C315 1052   4.633   5.845   5.318 -0.0100 -0.4659  0.8088
    8SAPS  H15X 1053   4.546   5.856   5.387  0.5674  1.1688  1.3307
    8SAPS  H15Y 1054   4.704   5.763   5.341  1.1240 -0.0687 -1.0987
    8SAPS  C316 1055   4.587   5.828   5.178  0.5440 -0.0456  0.2582
    8SAPS  H16X 1056   4.664   5.809   5.100 -0.5897  0.6979 -1.0910
    8SAPS  H16Y 1057   4.534   5.918   5.139  0.2781 -0.6332 -0.7682
    8SAPS  C317 1058   4.502   5.699   5.167  0.4096 -0.5744 -0.6967
    8SAPS  H17X 1059   4.412   5.708   5.232  0.4608 -1.3906 -0.5033
    8SAPS  H17Y 1060   4.567   5.629   5.224  2.5560  0.9727 -1.1465
    8SAPS  C318 1061   4.462   5.657   5.024 -0.5113  0.1784  0.3647
    8SAPS  H18X 1062   4.532   5.688   4.944 -0.7451  0.6235  0.3331
    8SAPS  H18Y 1063   4.370   5.717   5.009  1.1382  3.3984  1.9616
    8SAPS  H18Z 1064   4.441   5.548   5.021  3.1709 -0.7458  2.0590
    9SAPS     N 1065   4.380   5.379   7.455  0.2317  0.3598 -0.7348
    9SAPS   HN1 1066   4.395   5.470   7.409  2.9610 -0.2199 -1.1431
    9SAPS   HN2 1067   4.450   5.361   7.530  0.6866  0.2420 -1.1835
    9SAPS   HN3 1068   4.404   5.302   7.390  0.9418 -0.1873  0.1348
    9SAPS   C12 1069   4.247   5.365   7.524 -0.2038 -0.2198 -0.8409
    9SAPS  H12A 1070   4.224   5.261   7.542 -2.5754  0.5242  1.1380
    9SAPS   C13 1071   4.246   5.429   7.668 -0.0197 -0.2256 -0.4202
    9SAPS  O13A 1072   4.341   5.502   7.703  0.0024 -0.2717  0.2792
    9SAPS  O13B 1073   4.156   5.398   7.746 -0.0289  0.2952  0.4004
    9SAPS   C11 1074   4.131   5.432   7.447  0.1604 -0.0644  0.2897
    9SAPS  H11A 1075   4.161   5.538   7.436 -0.1569 -0.0747 -0.7862
    9SAPS  H11B 1076   4.040   5.421   7.510 -0.5782 -0.7204 -0.8654
    9SAPS     P 1077   4.025   5.421   7.214 -0.2060 -0.3116 -0.5996
    9SAPS   O13 1078   4.031   5.323   7.100 -0.2352  0.0247  0.3325
    9SAPS   O14 1079   3.894   5.438   7.274  0.1089 -0.2278 -0.2968
    9SAPS   O12 1080   4.121   5.361   7.325  0.2164 -0.0155  0.3736
    9SAPS   O11 1081   4.092   5.563   7.166 -0.0783  0.4313  0.6548
    9SAPS    C1 1082   4.239   5.574   7.149 -0.0033  0.0823 -0.1090
    9SAPS    HA 1083   4.290   5.606   7.242  0.7629  2.9224 -1.4146
    9SAPS    HB 1084   4.276   5.474   7.119 -1.2763 -0.2965 -0.4928
    9SAPS    C2 1085   4.289   5.660   7.030 -0.3213  0.2746  0.0046
    9SAPS    HS 1086   4.400   5.666   7.028 -0.3558  0.7877 -1.8502
    9SAPS   O21 1087   4.238   5.797   7.039  0.1147 -0.1063  0.6314
    9SAPS   C21 1088   4.279   5.876   7.136 -0.3373  0.4535  0.6242
    9SAPS   O22 1089   4.356   5.841   7.224 -0.5255  0.1423 -0.4686
    9SAPS   C22 1090   4.209   6.013   7.123 -0.3027 -0.2042 -0.1781
    9SAPS   H2R 1091   4.123   6.001   7.054 -1.1820  2.7213  0.2992
    9SAPS   H2S 1092   4.182   6.041   7.228 -0.4534 -1.3680  0.1137
    9SAPS    C3 1093   4.246   5.598   6.895 -0.3324  0.6258 -1.0782
    9SAPS    HX 1094   4.137   5.585   6.880 -0.1296 -1.1924 -1.0980
    9SAPS    HY 1095   4.284   5.495   6.906 -0.0497  0.5624 -2.5050
    9SAPS   O31 1096   4.293   5.670   6.780  0.4151 -0.3385 -0.7323
    9SAPS   C31 1097   4.409   5.618   6.720 -0.7727 -0.2924 -0.7596
    9SAPS   O32 1098   4.462   5.510   6.754 -0.7158 -0.5532 -0.2792
    9SAPS   C32 1099   4.467   5.695   6.612 -0.0056  0.0575  1.1440
    9SAPS   H2X 1100   4.571   5.664   6.586  0.5423  1.3126  1.7037
    9SAPS   H2Y 1101   4.468   5.803   6.641 -2.7291  0.4507  0.0572
    9SAPS   C23 1102   4.311   6.119   7.072  0.0391 -0.4896  0.0755
    9SAPS   H3R 1103   4.399   6.127   7.140 -0.1879  0.1889  0.2905
    9SAPS   H3S 1104   4.252   6.212   7.078 -0.4503 -0.7134 -1.0798
    9SAPS   C24 1105   4.358   6.094   6.925 -0.9648  0.0329 -0.2042
    9SAPS   H4R 1106   4.383   5.986   6.919 -0.5613  0.0552  0.8456
    9SAPS   H4S 1107   4.446   6.154   6.896 -1.9717  0.8331 -1.7891
    9SAPS   C25 1108   4.245   6.117   6.834 -0.1717  0.9672  0.9464
    9SAPS   H5R 1109   4.142   6.111   6.871 -0.4300  1.3851  0.3122
    9SAPS   C26 1110   4.269   6.140   6.703  0.2335 -0.0242  0.6383
    9SAPS   H6R 1111   4.180   6.158   6.640 -0.5837  0.6606  1.9518
    9SAPS   C27 1112   4.396   6.139   6.624 -1.0513 -0.0965  0.3251
    9SAPS   H7R 1113   4.391   6.051   6.557 -0.0517 -0.7634  1.1052
    9SAPS   H7S 1114   4.479   6.113   6.693 -2.3573  1.0186  2.3937
    9SAPS   C28 1115   4.429   6.275   6.563 -0.3565  0.3952 -0.1986
    9SAPS   H8R 1116   4.422   6.362   6.629 -1.4870 -0.5729  1.0096
    9SAPS   C29 1117   4.454   6.304   6.430  0.4482 -0.5756 -0.1738
    9SAPS   H9R 1118   4.470   6.408   6.398 -0.4169 -0.3352  0.1339
    9SAPS  C210 1119   4.441   6.203   6.317 -0.5326  0.5302 -0.7434
    9SAPS  H10R 1120   4.440   6.102   6.363 -1.1335  0.7092 -0.3526
    9SAPS  H10S 1121   4.539   6.205   6.264  1.0367  1.2182  1.9967
    9SAPS  C211 1122   4.333   6.222   6.210  0.4556  0.3704 -0.0536
    9SAPS  H11R 1123   4.234   6.245   6.250  0.3862 -2.6197  1.7752
    9SAPS  C212 1124   4.344   6.206   6.071 -0.4167 -0.1649 -0.2407
    9SAPS  H12R 1125   4.247   6.216   6.020 -0.6932 -2.4503 -0.2731
    9SAPS  C213 1126   4.470   6.180   5.983 -0.3562  0.1582  0.2080
    9SAPS  H13R 1127   4.473   6.081   5.934 -1.0616 -0.0331  0.5255
    9SAPS  H13S 1128   4.567   6.178   6.036  0.7354 -1.6251 -1.7590
    9SAPS  C214 1129   4.496   6.288   5.880 -0.1170  0.5118  0.0395
    9SAPS  H14R 1130   4.537   6.380   5.924 -1.9165  0.2293  2.5421
    9SAPS  C215 1131   4.481   6.283   5.751  0.2299 -0.2577  0.7628
    9SAPS  H15R 1132   4.508   6.366   5.683 -0.7483 -1.0998 -0.7062
    9SAPS  C216 1133   4.409   6.171   5.670  0.3068 -0.8220  0.6240
    9SAPS  H16R 1134   4.325   6.131   5.731 -1.9369  2.8136  0.1717
    9SAPS  H16S 1135   4.490   6.097   5.650  0.9543  0.3323 -1.2846
    9SAPS  C217 1136   4.367   6.230   5.536 -0.4001  0.6308  0.1223
    9SAPS  H17R 1137   4.452   6.285   5.490 -0.5310  2.0876  1.5391
    9SAPS  H17S 1138   4.298   6.317   5.542 -1.0811  0.0718  0.5522
    9SAPS  C218 1139   4.319   6.118   5.446  0.1161  0.9297 -0.6445
    9SAPS  H18R 1140   4.235   6.062   5.493  1.5235  0.3278  1.2377
    9SAPS  H18S 1141   4.402   6.047   5.429  0.7222  1.8056 -1.4783
    9SAPS  C219 1142   4.279   6.162   5.306 -0.0573  0.3105 -0.3500
    9SAPS  H19R 1143   4.181   6.214   5.304 -1.3848 -1.8848  1.4320
    9SAPS  H19S 1144   4.263   6.062   5.260  0.2780 -1.4931  3.0971
    9SAPS  C220 1145   4.379   6.224   5.211 -0.8341 -0.0867  0.7487
    9SAPS  H20R 1146   4.425   6.321   5.242 -0.8017  0.3499 -0.6122
    9SAPS  H20S 1147   4.321   6.246   5.119 -1.1902  1.4192  1.3024
    9SAPS  H20T 1148   4.469   6.167   5.182  1.0759  2.1302  1.9665
    9SAPS   C33 1149   4.392   5.681   6.477  0.4846  0.0160  0.4117
    9SAPS   H3X 1150   4.306   5.751   6.479  1.7578  1.6476  0.2714
    9SAPS   H3Y 1151   4.353   5.577   6.469  0.0134 -0.0816  3.0721
    9SAPS   C34 1152   4.480   5.720   6.358 -0.0380  0.4978  0.1519
    9SAPS   H4X 1153   4.574   5.662   6.374  0.7801  1.4899 -0.9002
    9SAPS   H4Y 1154   4.505   5.828   6.359 -1.8248  1.0287 -2.3630
    9SAPS   C35 1155   4.417   5.688   6.223 -0.4896 -0.5768  0.4354
    9SAPS   H5X 1156   4.311   5.719   6.207 -0.2987 -0.8388 -1.5435
    9SAPS   H5Y 1157   4.423   5.577   6.219  0.5862 -0.5790  1.4691
    9SAPS   C36 1158   4.503   5.742   6.108 -0.2218 -0.0414 -0.1122
    9SAPS   H6X 1159   4.609   5.711   6.120 -0.3487 -0.9315 -1.1585
    9SAPS   H6Y 1160   4.518   5.852   6.117  0.9280 -0.2398  0.5692
    9SAPS   C37 1161   4.450   5.722   5.971  0.0543 -0.9788  0.1414
    9SAPS   H7X 1162   4.353   5.777   5.965 -0.4742 -2.0497 -2.6322
    9SAPS   H7Y 1163   4.429   5.615   5.947 -3.8997 -0.2101 -0.5900
    9SAPS   C38 1164   4.558   5.767   5.869  0.7413 -0.3059 -0.3284
    9SAPS   H8X 1165   4.652   5.708   5.878  1.5794  1.1290  0.5190
    9SAPS   H8Y 1166   4.578   5.875   5.883 -1.5875  0.2309 -0.6135
    9SAPS   C39 1167   4.498   5.739   5.730  0.8438  0.2270  0.0476
    9SAPS   H9X 1168   4.584   5.744   5.659  1.3207 -2.1786  0.3658
    9SAPS   H9Y 1169   4.429   5.821   5.700 -0.4909 -0.8308  0.1161
    9SAPS  C310 1170   4.429   5.599   5.707  0.0785 -0.0226  1.2830
    9SAPS  H10X 1171   4.326   5.590   5.748  0.8462 -1.3102  3.0632
    9SAPS  H10Y 1172   4.502   5.523   5.743  1.1950  1.3366  1.9680
    9SAPS  C311 1173   4.398   5.581   5.558  0.2982  0.7543  0.4786
    9SAPS  H11X 1174   4.491   5.588   5.498 -0.9049 -0.0537 -1.5923
    9SAPS  H11Y 1175   4.326   5.656   5.521  0.0619  0.2965 -0.0152
    9SAPS  C312 1176   4.345   5.434   5.520  0.3466 -0.6807 -0.5785
    9SAPS  H12X 1177   4.244   5.423   5.565  0.5326  1.4314  0.4955
    9SAPS  H12Y 1178   4.417   5.362   5.564 -0.5217 -1.2909 -0.1344
    9SAPS  C313 1179   4.357   5.416   5.368  0.2946  0.0707  0.1564
    9SAPS  H13X 1180   4.458   5.442   5.330  1.1540 -0.1238  2.1961
    9SAPS  H13Y 1181   4.281   5.475   5.312 -0.7631 -0.1587  1.2972
    9SAPS  C314 1182   4.313   5.270   5.341  0.4293  0.3164  0.7608
    9SAPS  H14X 1183   4.224   5.256   5.406 -0.3132  1.0328 -0.0717
    9SAPS  H14Y 1184   4.381   5.198   5.391 -1.0368 -1.1846  0.6825
    9SAPS  C315 1185   4.294   5.250   5.190 -0.7320  0.2797 -1.0995
    9SAPS  H15X 1186   4.388   5.276   5.137 -1.1918  3.8606 -0.4036
    9SAPS  H15Y 1187   4.211   5.313   5.151 -1.4237  0.9184  1.2255
    9SAPS  C316 1188   4.243   5.101   5.159  0.1217  0.4388 -0.5882
    9SAPS  H16X 1189   4.315   5.038   5.215  0.5410  0.1730 -1.4130
    9SAPS  H16Y 1190   4.234   5.089   5.049  0.8814  1.4691 -0.7788
    9SAPS  C317 1191   4.095   5.083   5.213  0.6455  0.6846  0.1500
    9SAPS  H17X 1192   4.031   5.170   5.184  0.8343  0.8578  0.2522
    9SAPS  H17Y 1193   4.098   5.102   5.322 -0.0163  0.7484  0.1655
    9SAPS  C318 1194   4.031   4.949   5.169  0.7220 -0.5695 -0.1139
    9SAPS  H18X 1195   4.038   4.935   5.059  0.4293  0.4748 -0.2744
    9SAPS  H18Y 1196   3.926   4.949   5.205  0.3422  0.6416 -1.1620
    9SAPS  H18Z 1197   4.087   4.865   5.215 -0.6280 -1.4678 -0.0483
   10SAPS     N 1198   4.306   4.347   7.189  0.7571 -0.0301 -0.0706
   10SAPS   HN1 1199   4.362   4.426   7.151  2.7812 -1.6370 -0.5990
   10SAPS   HN2 1200   4.355   4.256   7.186 -0.9057 -1.0270  1.1443
   10SAPS   HN3 1201   4.217   4.329   7.139  1.6895 -0.9180 -1.4616
   10SAPS   C12 1202   4.278   4.372   7.334  0.0532  0.0840 -0.3357
   10SAPS  H12A 1203   4.351   4.311   7.385  1.1255  1.0370 -0.6676
   10SAPS   C13 1204   4.322   4.516   7.364 -0.4020 -0.2735  0.3712
   10SAPS  O13A 1205   4.356   4.590   7.275  0.2974  0.2939  0.7529
   10SAPS  O13B 1206   4.326   4.556   7.485  0.5113 -0.1737 -0.7016
   10SAPS   C11 1207   4.127   4.339   7.369 -0.2304  0.3914  0.3162
   10SAPS  H11A 1208   4.064   4.394   7.296  0.5644  1.0597  0.1269
   10SAPS  H11B 1209   4.099   4.372   7.471  0.1412 -1.4868  1.0696
   10SAPS     P 1210   3.981   4.117   7.375 -0.0841  0.2660  0.0651
   10SAPS   O13 1211   4.000   3.971   7.394 -0.2578 -0.4629 -0.4470
   10SAPS   O14 1212   3.898   4.186   7.482 -0.0781  0.1378  0.7123
   10SAPS   O12 1213   4.119   4.194   7.371 -0.0404 -0.0433 -0.1945
   10SAPS   O11 1214   3.925   4.144   7.238  0.0034 -0.5521  0.3535
   10SAPS    C1 1215   3.984   4.076   7.132 -0.1091 -0.0482 -0.0433
   10SAPS    HA 1216   4.090   4.109   7.128  0.6259 -2.2800 -0.7264
   10SAPS    HB 1217   3.991   3.966   7.148  2.9171  0.0346 -0.1289
   10SAPS    C2 1218   3.932   4.111   6.987  0.0761  1.3270 -0.0643
   10SAPS    HS 1219   4.009   4.076   6.915 -0.6794 -2.3645  0.6909
   10SAPS   O21 1220   3.883   4.241   6.969 -0.0750 -0.1885  0.1442
   10SAPS   C21 1221   3.960   4.341   7.003  0.6134 -0.0460  0.2092
   10SAPS   O22 1222   4.075   4.322   7.048  0.5816 -0.4519  0.0149
   10SAPS   C22 1223   3.909   4.479   6.955  0.1845  0.5940  0.2482
   10SAPS   H2R 1224   3.879   4.460   6.850  2.2135 -3.0102  0.1680
   10SAPS   H2S 1225   3.814   4.505   7.005 -0.8781 -0.7014 -1.0199
   10SAPS    C3 1226   3.805   4.025   6.959  0.2350  0.1751  0.7691
   10SAPS    HX 1227   3.745   3.997   7.049 -0.5186  1.5235  0.7077
   10SAPS    HY 1228   3.843   3.925   6.929  1.0546 -0.0956  2.5831
   10SAPS   O31 1229   3.727   4.067   6.846  0.1482  0.3966 -0.2744
   10SAPS   C31 1230   3.617   4.142   6.869  0.0165  0.1696 -0.4537
   10SAPS   O32 1231   3.576   4.178   6.977 -0.7586  0.4595 -0.3216
   10SAPS   C32 1232   3.557   4.189   6.742  0.1952 -0.3874 -0.1759
   10SAPS   H2X 1233   3.476   4.116   6.722  1.1094 -2.5652  3.2360
   10SAPS   H2Y 1234   3.643   4.181   6.671  2.3346 -0.8512  2.3025
   10SAPS   C23 1235   4.001   4.597   6.982 -0.6994  0.4484 -0.5040
   10SAPS   H3R 1236   4.107   4.567   6.998 -0.9262  0.2798  0.7901
   10SAPS   H3S 1237   3.976   4.640   7.081 -0.4589 -0.0202 -0.2364
   10SAPS   C24 1238   4.007   4.698   6.868  0.2593 -0.2619 -0.2722
   10SAPS   H4R 1239   4.058   4.788   6.910 -0.9898  0.6619 -0.6992
   10SAPS   H4S 1240   3.904   4.725   6.838 -0.3452 -1.6556  0.5117
   10SAPS   C25 1241   4.091   4.653   6.746 -0.5072 -0.7961 -1.2125
   10SAPS   H5R 1242   4.196   4.636   6.773 -0.9098  0.6873  1.6384
   10SAPS   C26 1243   4.048   4.650   6.620 -1.5531  0.8175  0.1059
   10SAPS   H6R 1244   4.117   4.620   6.540 -1.9571 -1.8237  0.6720
   10SAPS   C27 1245   3.916   4.686   6.563 -0.3236  0.1541 -0.4326
   10SAPS   H7R 1246   3.942   4.774   6.501  0.8410  0.6090  0.6642
   10SAPS   H7S 1247   3.841   4.719   6.639  1.1772 -1.4600  1.8629
   10SAPS   C28 1248   3.852   4.586   6.479  0.2752 -0.6388 -0.3034
   10SAPS   H8R 1249   3.907   4.491   6.469 -0.9042 -1.6546  1.9644
   10SAPS   C29 1250   3.737   4.601   6.413  0.6339  0.8329 -0.5806
   10SAPS   H9R 1251   3.707   4.515   6.351 -2.5250  1.3127  0.1072
   10SAPS  C210 1252   3.651   4.717   6.410  1.7982 -0.5347  0.0848
   10SAPS  H10R 1253   3.679   4.795   6.484  1.8321 -0.8115  0.3689
   10SAPS  H10S 1254   3.548   4.688   6.442  0.6893  1.9480 -0.9831
   10SAPS  C211 1255   3.623   4.767   6.273  0.3367  0.7409  0.2443
   10SAPS  H11R 1256   3.514   4.774   6.259  0.4077 -1.6650 -2.3834
   10SAPS  C212 1257   3.709   4.796   6.168 -0.2357  0.6840 -0.6994
   10SAPS  H12R 1258   3.674   4.835   6.072 -0.9422 -3.4313 -2.3436
   10SAPS  C213 1259   3.867   4.790   6.175 -0.1891 -0.2520  0.0245
   10SAPS  H13R 1260   3.900   4.798   6.281  1.3458 -0.3666 -0.4238
   10SAPS  H13S 1261   3.905   4.884   6.129  0.4529  0.5363  2.0475
   10SAPS  C214 1262   3.925   4.671   6.106  0.4953  0.0173  0.1094
   10SAPS  H14R 1263   3.935   4.583   6.171  0.3181 -0.2340 -0.1973
   10SAPS  C215 1264   3.952   4.669   5.970 -0.2641  0.6335 -0.3315
   10SAPS  H15R 1265   3.996   4.578   5.927 -1.6893  0.3515 -1.2695
   10SAPS  C216 1266   3.930   4.785   5.878 -0.8167  0.4215 -0.2647
   10SAPS  H16R 1267   4.007   4.864   5.893 -1.4866  0.9107  0.6744
   10SAPS  H16S 1268   3.829   4.827   5.894 -0.3695  1.1741  0.6708
   10SAPS  C217 1269   3.938   4.749   5.731  1.0628 -0.5121  0.1173
   10SAPS  H17R 1270   3.894   4.833   5.673 -0.2105 -0.8080  0.6299
   10SAPS  H17S 1271   3.870   4.663   5.713 -1.9177  1.4020  1.5799
   10SAPS  C218 1272   4.077   4.707   5.681  0.0080  0.4038 -0.6883
   10SAPS  H18R 1273   4.120   4.643   5.761 -0.9391  1.1823  0.4834
   10SAPS  H18S 1274   4.151   4.789   5.668  0.7276 -0.4470 -2.1350
   10SAPS  C219 1275   4.067   4.625   5.550 -0.1121 -0.0380  0.1195
   10SAPS  H19R 1276   3.989   4.547   5.556 -1.3569  1.1285 -0.4609
   10SAPS  H19S 1277   4.168   4.578   5.547  0.9653  2.2110 -2.3600
   10SAPS  C220 1278   4.034   4.705   5.428  0.0837  0.0427  0.4269
   10SAPS  H20R 1279   3.939   4.758   5.447  1.0134  2.1666 -0.5222
   10SAPS  H20S 1280   4.006   4.639   5.343 -0.7435 -1.7751  2.0425
   10SAPS  H20T 1281   4.111   4.781   5.403  0.1462  0.5539  2.0920
   10SAPS   C33 1282   3.514   4.341   6.752  0.1269 -0.2870  0.2937
   10SAPS   H3X 1283   3.598   4.401   6.794  0.7793 -0.2445 -1.0142
   10SAPS   H3Y 1284   3.421   4.349   6.812  0.7219 -0.4247  1.2454
   10SAPS   C34 1285   3.480   4.404   6.616  0.3755  0.4577  0.7218
   10SAPS   H4X 1286   3.561   4.374   6.546 -1.3525 -0.4562 -0.9969
   10SAPS   H4Y 1287   3.486   4.511   6.643  0.2720  0.3526  1.1619
   10SAPS   C35 1288   3.342   4.377   6.557  0.6554 -0.0514  0.9422
   10SAPS   H5X 1289   3.275   4.375   6.646 -0.6217 -1.4659  0.0025
   10SAPS   H5Y 1290   3.347   4.278   6.505  0.3656  0.7832 -0.7339
   10SAPS   C36 1291   3.289   4.475   6.455 -0.2542  0.3751 -0.3740
   10SAPS   H6X 1292   3.294   4.577   6.497  1.8059 -0.7362  2.3497
   10SAPS   H6Y 1293   3.185   4.443   6.430  0.0179  0.8107 -2.2187
   10SAPS   C37 1294   3.367   4.477   6.320 -0.3754 -0.0446  0.1173
   10SAPS   H7X 1295   3.387   4.378   6.272 -0.8440  0.9725 -2.3664
   10SAPS   H7Y 1296   3.470   4.516   6.336 -0.0792 -0.9624  0.5344
   10SAPS   C38 1297   3.287   4.561   6.217  0.3859  0.0837  0.2758
   10SAPS   H8X 1298   3.271   4.665   6.253  0.4323  1.4017 -3.1285
   10SAPS   H8Y 1299   3.191   4.508   6.198 -0.7455  1.5716  1.6359
   10SAPS   C39 1300   3.360   4.570   6.073  0.3795  0.6428 -0.1246
   10SAPS   H9X 1301   3.359   4.469   6.028 -1.2444  0.1595  0.9235
   10SAPS   H9Y 1302   3.462   4.612   6.059  0.6271 -0.0018 -0.3028
   10SAPS  C310 1303   3.275   4.639   5.964 -0.4753 -0.4955  0.1055
   10SAPS  H10X 1304   3.269   4.748   5.985 -1.2215 -0.6178  0.5704
   10SAPS  H10Y 1305   3.170   4.608   5.979 -0.8963  1.1547  0.8473
   10SAPS  C311 1306   3.316   4.605   5.821 -0.6889 -1.0761 -0.1752
   10SAPS  H11X 1307   3.274   4.507   5.791 -1.7218 -0.3587 -1.1533
   10SAPS  H11Y 1308   3.424   4.581   5.809 -0.4657  0.5639 -1.8917
   10SAPS  C312 1309   3.272   4.731   5.732 -0.0663  0.0588 -0.0617
   10SAPS  H12X 1310   3.325   4.821   5.770  0.7924 -0.5545  0.2090
   10SAPS  H12Y 1311   3.162   4.747   5.734  0.1487  2.7351 -2.5874
   10SAPS  C313 1312   3.302   4.706   5.586 -0.4729 -0.3916 -0.2330
   10SAPS  H13X 1313   3.412   4.706   5.566 -0.5757  0.3202 -0.8087
   10SAPS  H13Y 1314   3.258   4.788   5.527 -0.6392  1.1105  1.8640
   10SAPS  C314 1315   3.249   4.571   5.537  0.1759  0.4353  0.2258
   10SAPS  H14X 1316   3.154   4.556   5.593 -0.5314  1.9847 -0.4742
   10SAPS  H14Y 1317   3.321   4.490   5.559 -1.5050 -1.9701 -2.3710
   10SAPS  C315 1318   3.233   4.563   5.382 -0.3832  0.1725 -0.4926
   10SAPS  H15X 1319   3.330   4.585   5.332 -1.3417 -1.2133 -3.1596
   10SAPS  H15Y 1320   3.163   4.647   5.366  0.2341  0.4312 -2.0152
   10SAPS  C316 1321   3.181   4.438   5.339 -0.2140  0.7019  0.4233
   10SAPS  H16X 1322   3.099   4.399   5.402 -2.0024 -0.8510 -2.6101
   10SAPS  H16Y 1323   3.262   4.363   5.350 -2.7323 -2.2244  0.1670
   10SAPS  C317 1324   3.124   4.438   5.191  0.0387 -0.5877 -0.1790
   10SAPS  H17X 1325   3.101   4.334   5.158 -0.0701 -0.2726 -1.1243
   10SAPS  H17Y 1326   3.203   4.472   5.121 -2.2693  3.2087 -1.1677
   10SAPS  C318 1327   2.984   4.519   5.180 -0.4159  0.3556 -0.2226
   10SAPS  H18X 1328   2.937   4.519   5.080 -3.1310  1.7037  0.9314
   10SAPS  H18Y 1329   3.008   4.624   5.210 -1.3711  0.9586 -1.4924
   10SAPS  H18Z 1330   2.913   4.483   5.258  0.6698  1.1693  1.2092
   11SAPS     N 1331   2.816   2.774   1.704  0.0298 -0.2671 -0.1916
   11SAPS   HN1 1332   2.766   2.842   1.644 -0.6682 -0.5839  0.0208
   11SAPS   HN2 1333   2.764   2.777   1.794 -0.6327 -2.4414 -0.4444
   11SAPS   HN3 1334   2.919   2.786   1.713 -0.2325  1.0945  1.3021
   11SAPS   C12 1335   2.790   2.630   1.650  0.0011 -0.1108 -0.3973
   11SAPS  H12A 1336   2.707   2.644   1.583 -2.6173 -2.8630  1.9495
   11SAPS   C13 1337   2.905   2.571   1.574  0.6688  0.0293 -0.7338
   11SAPS  O13A 1338   3.016   2.631   1.574 -0.5839  0.3549 -0.3446
   11SAPS  O13B 1339   2.896   2.457   1.529 -0.4161  0.1960 -0.7854
   11SAPS   C11 1340   2.742   2.542   1.774  0.0173  0.0361 -0.2265
   11SAPS  H11A 1341   2.706   2.447   1.728  1.1847 -0.0012 -1.1162
   11SAPS  H11B 1342   2.655   2.601   1.807 -0.0318  0.0170 -0.3202
   11SAPS     P 1343   2.827   2.389   1.964 -0.4356  0.6207  0.0780
   11SAPS   O13 1344   2.764   2.271   1.889 -0.3111 -0.2244  0.2392
   11SAPS   O14 1345   2.964   2.365   2.032  0.4589  0.0339  0.0678
   11SAPS   O12 1346   2.842   2.516   1.871 -0.1691 -0.4371  0.1497
   11SAPS   O11 1347   2.720   2.434   2.063 -0.4948 -0.4182 -0.3189
   11SAPS    C1 1348   2.726   2.560   2.132 -0.0977  0.3470  0.3674
   11SAPS    HA 1349   2.748   2.648   2.067 -3.8593  0.7903 -0.4907
   11SAPS    HB 1350   2.624   2.581   2.171 -1.5522 -3.7690 -0.7659
   11SAPS    C2 1351   2.830   2.555   2.241 -0.0717 -0.6624  0.4237
   11SAPS    HS 1352   2.931   2.545   2.195 -0.3459 -1.8289  0.0436
   11SAPS   O21 1353   2.807   2.437   2.314 -0.1383 -0.4191 -0.3234
   11SAPS   C21 1354   2.908   2.383   2.370 -0.3542  0.2887  0.7638
   11SAPS   O22 1355   3.029   2.408   2.357 -0.1224  0.3120 -0.3080
   11SAPS   C22 1356   2.849   2.271   2.452 -0.0804 -0.4118 -0.0081
   11SAPS   H2R 1357   2.741   2.256   2.429 -0.1361 -0.2032  0.1212
   11SAPS   H2S 1358   2.894   2.170   2.437 -1.0518 -0.8795  0.1177
   11SAPS    C3 1359   2.822   2.685   2.326  0.8335  0.1069  0.0782
   11SAPS    HX 1360   2.722   2.671   2.373  0.3917 -1.1658 -1.1618
   11SAPS    HY 1361   2.818   2.780   2.269 -2.7367  0.5081  0.7517
   11SAPS   O31 1362   2.914   2.674   2.434 -0.0541  0.7147 -0.2524
   11SAPS   C31 1363   3.032   2.734   2.421 -0.5526 -0.2421 -0.1494
   11SAPS   O32 1364   3.071   2.774   2.311  0.0580 -0.1931 -0.7209
   11SAPS   C32 1365   3.113   2.727   2.550  0.0210  0.5046  0.0770
   11SAPS   H2X 1366   3.184   2.811   2.560 -1.0008  1.1905  2.5815
   11SAPS   H2Y 1367   3.169   2.631   2.549  0.1042  0.5547 -0.1289
   11SAPS   C23 1368   2.864   2.306   2.609  0.3302 -0.2391 -0.2269
   11SAPS   H3R 1369   2.825   2.408   2.627  2.2374  0.3925  0.5833
   11SAPS   H3S 1370   2.973   2.310   2.629  0.1090 -0.7790  1.1965
   11SAPS   C24 1371   2.797   2.203   2.703  0.8287 -0.9135 -0.1876
   11SAPS   H4R 1372   2.826   2.231   2.806 -1.9351 -1.3082  0.7716
   11SAPS   H4S 1373   2.842   2.105   2.676 -0.8275 -1.7386 -0.0466
   11SAPS   C25 1374   2.646   2.201   2.697  0.3892 -0.0316  0.2773
   11SAPS   H5R 1375   2.609   2.119   2.633 -1.4527  2.1282 -1.5655
   11SAPS   C26 1376   2.561   2.276   2.776 -0.0164 -0.5714 -0.1307
   11SAPS   H6R 1377   2.452   2.261   2.770  0.0768 -1.1548 -0.4249
   11SAPS   C27 1378   2.612   2.370   2.880  0.5456 -0.6266  0.3471
   11SAPS   H7R 1379   2.690   2.439   2.841  1.1505 -2.6537 -2.2652
   11SAPS   H7S 1380   2.644   2.303   2.963  1.4533 -1.5537 -0.7308
   11SAPS   C28 1381   2.496   2.452   2.941 -0.6737  0.6042  1.0862
   11SAPS   H8R 1382   2.442   2.496   2.856 -2.2424 -0.0248  1.7304
   11SAPS   C29 1383   2.445   2.449   3.061 -0.1564  0.2223  0.3038
   11SAPS   H9R 1384   2.357   2.511   3.080 -0.6685  0.3753 -2.2683
   11SAPS  C210 1385   2.484   2.355   3.171  0.1707 -0.5113 -0.0144
   11SAPS  H10R 1386   2.518   2.259   3.127 -1.4783 -0.5495 -1.3075
   11SAPS  H10S 1387   2.387   2.323   3.214  0.0789  0.2986  0.3919
   11SAPS  C211 1388   2.588   2.397   3.268  0.1836 -0.2009  0.2093
   11SAPS  H11R 1389   2.685   2.426   3.225 -0.5965  0.8084 -0.9072
   11SAPS  C212 1390   2.581   2.388   3.398  0.2089  0.1542 -0.6947
   11SAPS  H12R 1391   2.667   2.413   3.462 -0.8350 -0.1905  0.9000
   11SAPS  C213 1392   2.461   2.348   3.480 -0.0542 -0.5116  0.7829
   11SAPS  H13R 1393   2.371   2.312   3.426 -1.5000  3.1151  0.5421
   11SAPS  H13S 1394   2.427   2.445   3.520  0.4980  0.0017  0.0492
   11SAPS  C214 1395   2.496   2.252   3.589 -0.8041  0.4902 -0.5421
   11SAPS  H14R 1396   2.571   2.181   3.551 -0.2785  1.4773 -1.3902
   11SAPS  C215 1397   2.450   2.244   3.716 -0.5090  0.0608 -0.3223
   11SAPS  H15R 1398   2.488   2.166   3.785 -3.6391 -0.8833  0.5359
   11SAPS  C216 1399   2.349   2.335   3.778 -0.2269  0.1234 -0.3467
   11SAPS  H16R 1400   2.272   2.276   3.831  0.0736  0.7434  0.8111
   11SAPS  H16S 1401   2.300   2.395   3.698  0.3496  1.8945  0.5964
   11SAPS  C217 1402   2.423   2.433   3.871  0.3550  0.5703  0.3586
   11SAPS  H17R 1403   2.526   2.469   3.855 -0.0603  2.1425  1.0325
   11SAPS  H17S 1404   2.427   2.388   3.973  3.3799  0.4879  0.2845
   11SAPS  C218 1405   2.344   2.563   3.878 -0.5449 -0.6282 -0.0497
   11SAPS  H18R 1406   2.238   2.534   3.888 -1.4615 -0.3219 -5.6146
   11SAPS  H18S 1407   2.351   2.608   3.776  1.6430  0.8509  0.6752
   11SAPS  C219 1408   2.381   2.666   3.983  0.0345 -0.2004  0.2178
   11SAPS  H19R 1409   2.484   2.698   3.954  0.6429  3.0866  4.8292
   11SAPS  H19S 1410   2.392   2.623   4.085  1.6881  1.6680  0.8975
   11SAPS  C220 1411   2.307   2.797   3.998  0.5166  0.0144 -0.2885
   11SAPS  H20R 1412   2.359   2.871   4.063 -0.5809  0.3730  0.2033
   11SAPS  H20S 1413   2.201   2.775   4.026  0.7077 -0.8211 -0.1973
   11SAPS  H20T 1414   2.311   2.848   3.900  1.3896 -0.9632 -0.7836
   11SAPS   C33 1415   3.020   2.705   2.676 -0.1629 -0.5629 -0.1217
   11SAPS   H3X 1416   2.962   2.611   2.661 -0.6887  0.0683 -2.4505
   11SAPS   H3Y 1417   2.941   2.783   2.675  0.6692  0.3584  1.5280
   11SAPS   C34 1418   3.089   2.716   2.816  0.5080 -0.5160 -0.7609
   11SAPS   H4X 1419   3.131   2.818   2.823 -1.3180  0.1815  1.0986
   11SAPS   H4Y 1420   3.175   2.646   2.831  1.2086  0.6794  1.2939
   11SAPS   C35 1421   2.990   2.693   2.930  0.7710  0.0825  0.5526
   11SAPS   H5X 1422   2.971   2.585   2.912  0.5563  0.3715 -1.1080
   11SAPS   H5Y 1423   2.902   2.761   2.925  1.9194  1.6313  0.5631
   11SAPS   C36 1424   3.053   2.706   3.067  0.1247 -0.1514 -0.4879
   11SAPS   H6X 1425   3.067   2.813   3.090  2.3546 -0.0792 -1.8401
   11SAPS   H6Y 1426   3.154   2.662   3.055 -0.2897 -0.8264 -1.6877
   11SAPS   C37 1427   2.955   2.662   3.175  0.0670 -0.0097  0.1440
   11SAPS   H7X 1428   2.916   2.559   3.159  1.2868 -0.2173 -1.8480
   11SAPS   H7Y 1429   2.868   2.731   3.178  0.2257  0.1605  0.9390
   11SAPS   C38 1430   3.007   2.660   3.314  0.2646  0.4719  0.3527
   11SAPS   H8X 1431   3.068   2.746   3.350  1.0042 -1.0849  3.1335
   11SAPS   H8Y 1432   3.080   2.579   3.333 -1.1908 -1.0010 -0.1712
   11SAPS   C39 1433   2.881   2.645   3.409 -0.2477 -0.0812  0.3440
   11SAPS   H9X 1434   2.823   2.558   3.373  0.5764 -1.0259  1.2151
   11SAPS   H9Y 1435   2.826   2.740   3.395  0.6118  0.3445 -0.2689
   11SAPS  C310 1436   2.922   2.616   3.555  0.2959  0.6457  0.2823
   11SAPS  H10X 1437   3.013   2.676   3.574  0.8732  0.1309 -0.7851
   11SAPS  H10Y 1438   2.945   2.508   3.570 -0.8035  0.3810  0.1499
   11SAPS  C311 1439   2.816   2.654   3.658  0.1613 -0.1226 -0.4384
   11SAPS  H11X 1440   2.727   2.589   3.644  0.8609 -0.8206 -1.7738
   11SAPS  H11Y 1441   2.788   2.761   3.643  0.9810  0.1776  0.0583
   11SAPS  C312 1442   2.872   2.645   3.803  0.1205  0.4318 -0.5273
   11SAPS  H12X 1443   2.975   2.686   3.800  0.4215 -0.2362  0.3286
   11SAPS  H12Y 1444   2.884   2.538   3.832 -1.4039 -0.2832 -2.2883
   11SAPS  C313 1445   2.783   2.699   3.911 -0.2279 -0.1353 -0.9429
   11SAPS  H13X 1446   2.680   2.661   3.920 -0.3229  0.4876  1.2256
   11SAPS  H13Y 1447   2.781   2.810   3.906 -1.8010 -0.1502 -0.9816
   11SAPS  C314 1448   2.855   2.672   4.046  0.6363  0.3483 -0.0128
   11SAPS  H14X 1449   2.948   2.733   4.047  0.4214  0.6825  1.4947
   11SAPS  H14Y 1450   2.896   2.569   4.056  0.9302  0.5558  1.0030
   11SAPS  C315 1451   2.763   2.703   4.172 -0.7005 -0.2200  0.2105
   11SAPS  H15X 1452   2.676   2.640   4.144 -0.1767 -0.6100 -0.6027
   11SAPS  H15Y 1453   2.738   2.810   4.161 -0.3618 -0.1568  0.0330
   11SAPS  C316 1454   2.823   2.672   4.310 -0.1209 -0.1432 -0.4898
   11SAPS  H16X 1455   2.766   2.731   4.385  0.4398 -0.2922  0.0700
   11SAPS  H16Y 1456   2.928   2.697   4.337 -0.4294 -1.6382  2.6248
   11SAPS  C317 1457   2.822   2.515   4.346  0.1879 -0.4667  0.0853
   11SAPS  H17X 1458   2.836   2.507   4.456 -0.3855 -1.0899  0.1211
   11SAPS  H17Y 1459   2.907   2.477   4.285 -1.2461  0.0450 -2.3663
   11SAPS  C318 1460   2.690   2.442   4.308 -0.2281 -0.0853 -0.5649
   11SAPS  H18X 1461   2.679   2.345   4.360 -1.6768  0.6662  0.6106
   11SAPS  H18Y 1462   2.690   2.425   4.198  0.2979  1.1640 -0.7818
   11SAPS  H18Z 1463   2.606   2.510   4.335  1.0500  0.9425  1.0729
   12SAPS     N 1464   4.243   0.707   1.961  0.0751 -0.2324 -0.3045
   12SAPS   HN1 1465   4.255   0.620   1.905  0.2258 -0.6769  0.3985
   12SAPS   HN2 1466   4.278   0.787   1.903 -0.4854  0.0984 -0.1855
   12SAPS   HN3 1467   4.286   0.695   2.055 -2.4798  2.1094  1.3004
   12SAPS   C12 1468   4.100   0.723   1.978 -0.3732  0.3445 -0.2598
   12SAPS  H12A 1469   4.077   0.808   1.916  1.9429 -0.5408 -2.4771
   12SAPS   C13 1470   4.011   0.609   1.924  0.3854 -0.7766  0.6013
   12SAPS  O13A 1471   4.064   0.504   1.875 -0.0367  0.2033  0.2414
   12SAPS  O13B 1472   3.887   0.618   1.952  0.6480 -0.5202 -0.1147
   12SAPS   C11 1473   4.055   0.769   2.125 -0.0854  0.3387 -0.1926
   12SAPS  H11A 1474   4.082   0.687   2.195 -3.1136 -2.4434 -1.9670
   12SAPS  H11B 1475   3.945   0.786   2.124 -0.0857  0.3139 -1.1707
   12SAPS     P 1476   4.159   0.919   2.304 -0.2485 -0.3437  0.0015
   12SAPS   O13 1477   4.280   0.841   2.327 -0.6932  0.4174 -0.0895
   12SAPS   O14 1478   4.155   1.066   2.321 -0.3455  0.1049  0.1373
   12SAPS   O12 1479   4.119   0.887   2.156 -0.2682 -0.4771 -0.9712
   12SAPS   O11 1480   4.057   0.856   2.400  0.1923 -0.0843 -0.2206
   12SAPS    C1 1481   3.928   0.895   2.444 -0.1527  0.8694  0.1409
   12SAPS    HA 1482   3.882   0.977   2.385  0.6663  2.2476  1.3576
   12SAPS    HB 1483   3.863   0.805   2.433 -0.2201  1.0422 -0.9890
   12SAPS    C2 1484   3.919   0.934   2.595 -0.3375 -0.2547 -0.0088
   12SAPS    HS 1485   3.814   0.944   2.628 -1.4193  0.7960 -3.3341
   12SAPS   O21 1486   3.997   1.061   2.620  0.3836  0.2129  0.3954
   12SAPS   C21 1487   3.949   1.170   2.558  0.4830  0.3936 -0.3936
   12SAPS   O22 1488   3.835   1.184   2.516 -0.4095  0.3324 -0.4400
   12SAPS   C22 1489   4.050   1.270   2.554  0.1810  0.0207 -0.2825
   12SAPS   H2R 1490   4.138   1.230   2.500 -0.7924 -1.8296 -0.5662
   12SAPS   H2S 1491   3.994   1.340   2.488 -2.6955  0.4188  2.3230
   12SAPS    C3 1492   3.991   0.831   2.683 -0.1735 -0.2249 -0.4306
   12SAPS    HX 1493   4.093   0.816   2.641 -0.7689  0.0981 -2.0736
   12SAPS    HY 1494   3.943   0.731   2.683 -1.3932  0.3064 -2.4213
   12SAPS   O31 1495   3.996   0.879   2.814  0.7520  0.7033 -0.7225
   12SAPS   C31 1496   4.111   0.933   2.859 -0.0928  0.1102 -0.3562
   12SAPS   O32 1497   4.210   0.953   2.791 -0.7886  0.0871  0.3768
   12SAPS   C32 1498   4.093   0.959   3.006 -0.7830  0.5504 -0.6489
   12SAPS   H2X 1499   4.188   0.944   3.061 -0.7408  1.6825 -0.3813
   12SAPS   H2Y 1500   4.017   0.886   3.041 -0.5781 -1.1343 -3.3644
   12SAPS   C23 1501   4.075   1.335   2.693 -0.1588 -0.5937 -0.3476
   12SAPS   H3R 1502   4.177   1.380   2.691 -0.5416  0.2739 -0.6600
   12SAPS   H3S 1503   4.077   1.260   2.776  1.3983 -1.2314 -0.9165
   12SAPS   C24 1504   3.975   1.449   2.736 -0.1154  0.4738 -0.6032
   12SAPS   H4R 1505   3.977   1.526   2.656 -0.5430 -0.4091 -1.4906
   12SAPS   H4S 1506   4.024   1.501   2.821 -2.0387 -1.0030  1.5171
   12SAPS   C25 1507   3.836   1.399   2.759 -0.5656 -0.3521  0.8991
   12SAPS   H5R 1508   3.779   1.360   2.674 -3.0825  2.3745  1.2002
   12SAPS   C26 1509   3.765   1.411   2.871 -0.0302 -0.3224 -0.2523
   12SAPS   H6R 1510   3.658   1.384   2.874 -0.5820  1.6526 -0.7500
   12SAPS   C27 1511   3.815   1.458   3.005 -0.1216  0.3555 -0.5821
   12SAPS   H7R 1512   3.769   1.558   3.017  0.0148  0.1488  2.5843
   12SAPS   H7S 1513   3.926   1.460   3.009 -0.1231 -0.3085  0.2023
   12SAPS   C28 1514   3.768   1.376   3.127  0.1426  0.3988  0.4455
   12SAPS   H8R 1515   3.731   1.276   3.099  1.9261 -0.5869  1.4609
   12SAPS   C29 1516   3.766   1.412   3.253 -0.1706  0.7467  0.3003
   12SAPS   H9R 1517   3.716   1.354   3.332  1.7490  0.2565  1.2010
   12SAPS  C210 1518   3.822   1.547   3.297 -0.0654  0.5305 -0.6250
   12SAPS  H10R 1519   3.796   1.626   3.224 -1.5823  1.8940  1.2775
   12SAPS  H10S 1520   3.931   1.538   3.274 -0.1967 -2.9398 -0.3230
   12SAPS  C211 1521   3.804   1.593   3.441 -0.3133  0.6019  0.1960
   12SAPS  H11R 1522   3.810   1.519   3.522  0.1355  0.3667 -0.0465
   12SAPS  C212 1523   3.795   1.718   3.483  0.0548 -0.4795  0.0687
   12SAPS  H12R 1524   3.772   1.750   3.585 -0.8047 -1.2677  0.1334
   12SAPS  C213 1525   3.779   1.831   3.388  0.0859  0.6901  0.3422
   12SAPS  H13R 1526   3.722   1.807   3.295 -0.4105 -0.2488  0.8696
   12SAPS  H13S 1527   3.880   1.859   3.351  2.0430 -1.9101  3.1977
   12SAPS  C214 1528   3.706   1.943   3.454  0.3063 -0.3098  0.1364
   12SAPS  H14R 1529   3.598   1.951   3.433  0.5951 -0.8734 -1.6961
   12SAPS  C215 1530   3.752   2.040   3.530  0.2789  0.0136 -0.1036
   12SAPS  H15R 1531   3.681   2.121   3.556 -0.2284 -0.5038  0.1361
   12SAPS  C216 1532   3.895   2.058   3.560  0.4629 -0.1908 -0.1300
   12SAPS  H16R 1533   3.951   2.082   3.467  0.4967  2.2589  0.4561
   12SAPS  H16S 1534   3.935   1.960   3.594  0.5394 -0.0396  0.2162
   12SAPS  C217 1535   3.942   2.175   3.651  0.7078  0.7708 -0.3219
   12SAPS  H17R 1536   3.890   2.260   3.602 -0.3288  0.1200 -0.3672
   12SAPS  H17S 1537   4.053   2.178   3.640  0.8020  0.2128  0.3406
   12SAPS  C218 1538   3.920   2.161   3.800  1.0173  0.1034 -0.5912
   12SAPS  H18R 1539   3.812   2.140   3.814  0.9854  1.0914  0.7752
   12SAPS  H18S 1540   3.934   2.259   3.850 -2.0468  1.7046 -2.5657
   12SAPS  C219 1541   4.005   2.066   3.881 -0.8205 -0.5895  0.3232
   12SAPS  H19R 1542   4.106   2.107   3.862 -0.8447  0.8301  2.7903
   12SAPS  H19S 1543   4.008   1.964   3.837  1.7121 -0.4844  0.0960
   12SAPS  C220 1544   3.972   2.064   4.033  0.2341 -1.4852  0.6470
   12SAPS  H20R 1545   4.051   2.024   4.101  1.5258  0.0896  0.1331
   12SAPS  H20S 1546   3.895   1.985   4.047 -0.6845 -0.4892  1.2989
   12SAPS  H20T 1547   3.917   2.152   4.072 -1.7295 -2.0952 -0.5930
   12SAPS   C33 1548   4.046   1.105   3.036  0.3974 -0.5870 -0.1528
   12SAPS   H3X 1549   3.940   1.113   3.002 -0.0166  0.3218  1.2547
   12SAPS   H3Y 1550   4.105   1.171   2.969  0.8223 -1.9097 -1.1165
   12SAPS   C34 1551   4.064   1.149   3.184 -0.6142 -0.6343  0.1562
   12SAPS   H4X 1552   4.004   1.242   3.198 -1.3709 -1.3132  1.7630
   12SAPS   H4Y 1553   4.174   1.153   3.197 -0.5799  0.1195 -0.3232
   12SAPS   C35 1554   4.005   1.049   3.284 -0.6156 -0.0680  0.7189
   12SAPS   H5X 1555   4.076   0.967   3.308  1.3800  1.0373 -1.1602
   12SAPS   H5Y 1556   3.917   0.995   3.242 -1.7917  0.4794  2.3489
   12SAPS   C36 1557   3.966   1.113   3.415 -0.1266  0.3459  0.2992
   12SAPS   H6X 1558   3.925   1.033   3.480  1.4657  0.3980  1.4152
   12SAPS   H6Y 1559   3.888   1.190   3.399  0.8042  0.8724 -2.2068
   12SAPS   C37 1560   4.089   1.183   3.490  0.0369 -0.5975  0.3363
   12SAPS   H7X 1561   4.127   1.270   3.432 -0.8654 -1.8447 -2.2461
   12SAPS   H7Y 1562   4.172   1.109   3.497 -0.1892 -0.7711  1.2981
   12SAPS   C38 1563   4.063   1.226   3.628 -0.2229 -0.5246 -0.3717
   12SAPS   H8X 1564   3.986   1.305   3.626  0.2370  0.1096  2.4168
   12SAPS   H8Y 1565   4.149   1.291   3.655 -0.8742  1.5725 -2.9413
   12SAPS   C39 1566   4.026   1.110   3.717  0.8149 -0.2002  0.4585
   12SAPS   H9X 1567   4.100   1.029   3.697 -0.0880 -0.6317 -1.2845
   12SAPS   H9Y 1568   3.930   1.059   3.697  1.5637 -1.8019  0.7638
   12SAPS  C310 1569   4.026   1.158   3.865 -0.3390  0.1417  0.3588
   12SAPS  H10X 1570   3.964   1.251   3.861  0.4743  0.6456 -1.3921
   12SAPS  H10Y 1571   4.126   1.184   3.906 -0.7149  4.4244 -0.9918
   12SAPS  C311 1572   3.964   1.057   3.959  0.3442 -0.3961 -0.4360
   12SAPS  H11X 1573   4.030   0.968   3.965 -0.5271 -1.0788 -0.8714
   12SAPS  H11Y 1574   3.869   1.025   3.913  0.3282 -0.4100 -0.3930
   12SAPS  C312 1575   3.940   1.105   4.104 -0.2553  0.2512 -0.2665
   12SAPS  H12X 1576   3.894   1.028   4.169 -0.4299  1.0996  0.6384
   12SAPS  H12Y 1577   3.862   1.183   4.090  0.3049  0.5953 -1.6874
   12SAPS  C313 1578   4.072   1.162   4.169  0.5134  0.1378 -0.3832
   12SAPS  H13X 1579   4.096   1.257   4.118  2.5239  1.8484  3.3012
   12SAPS  H13Y 1580   4.148   1.083   4.149 -0.5509 -1.2127  0.6811
   12SAPS  C314 1581   4.076   1.190   4.319  0.2130 -0.6851  0.6177
   12SAPS  H14X 1582   3.979   1.242   4.331 -0.9494 -2.9382  1.6905
   12SAPS  H14Y 1583   4.164   1.255   4.340 -0.7309  0.5644  0.8186
   12SAPS  C315 1584   4.072   1.065   4.403 -0.3787 -0.1013  0.0996
   12SAPS  H15X 1585   4.170   1.016   4.386  0.3393  0.8825  1.2543
   12SAPS  H15Y 1586   3.997   0.996   4.358 -1.7958  1.4383 -0.0122
   12SAPS  C316 1587   4.041   1.082   4.556  0.4308  0.0613  0.4245
   12SAPS  H16X 1588   4.119   1.149   4.597 -0.0777  1.6080 -1.0074
   12SAPS  H16Y 1589   4.056   0.992   4.619  0.5448  1.4545  2.4612
   12SAPS  C317 1590   3.907   1.135   4.583  0.3584  0.0498  0.3486
   12SAPS  H17X 1591   3.832   1.060   4.551  0.1620 -0.3943  1.7909
   12SAPS  H17Y 1592   3.886   1.223   4.518 -1.5350 -0.8077 -0.2764
   12SAPS  C318 1593   3.878   1.170   4.728  0.6987 -0.1338  0.5210
   12SAPS  H18X 1594   3.780   1.221   4.740 -0.3444 -1.8649 -0.3243
   12SAPS  H18Y 1595   3.957   1.243   4.755  1.4299  0.0948 -2.0497
   12SAPS  H18Z 1596   3.881   1.072   4.782 -0.2521 -1.3735 -1.5477
   13SAPS     N 1597   0.543   2.176   2.485  0.1677 -0.3226  0.4989
   13SAPS   HN1 1598   0.579   2.273   2.498  0.4531 -0.2825 -0.4631
   13SAPS   HN2 1599   0.488   2.170   2.397 -0.8909 -0.0082  1.1275
   13SAPS   HN3 1600   0.478   2.153   2.562 -1.3741  0.2753 -0.5745
   13SAPS   C12 1601   0.656   2.080   2.475 -0.2021 -0.5469  0.3902
   13SAPS  H12A 1602   0.663   2.034   2.573 -1.0396 -0.6330  0.4125
   13SAPS   C13 1603   0.633   1.971   2.378 -0.1167  0.3614 -0.7913
   13SAPS  O13A 1604   0.519   1.952   2.331 -0.8212 -0.0360 -0.1589
   13SAPS  O13B 1605   0.721   1.882   2.369 -0.0049  0.5646 -0.2946
   13SAPS   C11 1606   0.780   2.162   2.436 -0.1877  0.0698  0.6524
   13SAPS  H11A 1607   0.766   2.222   2.343 -0.2814 -1.0775 -0.1044
   13SAPS  H11B 1608   0.864   2.091   2.419 -0.2981 -0.2057  1.2531
   13SAPS     P 1609   0.950   2.249   2.610 -0.1708  0.4127  0.3148
   13SAPS   O13 1610   1.057   2.213   2.513 -0.1330 -0.1552  0.5560
   13SAPS   O14 1611   0.973   2.369   2.690  0.0423 -0.6127  0.0072
   13SAPS   O12 1612   0.803   2.256   2.546 -0.3039 -0.7664  0.4312
   13SAPS   O11 1613   0.928   2.129   2.710  0.3275  0.5395 -0.4334
   13SAPS    C1 1614   0.826   2.126   2.811 -0.7288  0.4758  0.0481
   13SAPS    HA 1615   0.800   2.222   2.860  0.1403 -0.1242  1.7712
   13SAPS    HB 1616   0.734   2.095   2.757 -0.5080 -1.4082  0.6941
   13SAPS    C2 1617   0.868   2.007   2.907 -0.2531 -0.0099  0.0972
   13SAPS    HS 1618   0.779   1.980   2.969 -0.8258 -2.1260 -1.5067
   13SAPS   O21 1619   0.990   2.033   2.972  0.0365  0.3188  0.4004
   13SAPS   C21 1620   0.986   2.118   3.067  0.1507  0.0178  0.0924
   13SAPS   O22 1621   0.883   2.162   3.114 -0.0652 -0.1366 -0.7131
   13SAPS   C22 1622   1.127   2.165   3.112 -0.2216  0.6103  0.0106
   13SAPS   H2R 1623   1.185   2.070   3.114 -1.0584  0.0467 -1.3652
   13SAPS   H2S 1624   1.163   2.230   3.029 -0.2402  0.1365 -0.3730
   13SAPS    C3 1625   0.891   1.872   2.821 -1.0164 -0.7201 -0.7170
   13SAPS    HX 1626   1.000   1.864   2.797 -0.3003 -0.4400  2.0356
   13SAPS    HY 1627   0.837   1.883   2.724  0.6701 -0.3446 -1.6604
   13SAPS   O31 1628   0.856   1.755   2.906 -0.7501 -0.0531  0.2936
   13SAPS   C31 1629   0.866   1.645   2.836 -0.5760 -0.8604  0.2193
   13SAPS   O32 1630   0.876   1.634   2.716  0.1069 -0.0498  0.8402
   13SAPS   C32 1631   0.849   1.534   2.934 -0.4684  0.0914 -0.6891
   13SAPS   H2X 1632   0.916   1.548   3.021 -2.9138 -1.5861  1.6372
   13SAPS   H2Y 1633   0.895   1.446   2.883 -0.3023 -0.4112  0.2968
   13SAPS   C23 1634   1.140   2.237   3.248 -0.4744 -0.6692  0.1659
   13SAPS   H3R 1635   1.063   2.317   3.255 -0.7405 -0.8695 -0.3979
   13SAPS   H3S 1636   1.235   2.292   3.234  0.2333 -2.0147 -0.4649
   13SAPS   C24 1637   1.169   2.155   3.378  0.3112  0.0642 -0.8402
   13SAPS   H4R 1638   1.246   2.077   3.358  1.2170  0.3716  1.1893
   13SAPS   H4S 1639   1.074   2.104   3.405  0.0167 -0.7077 -3.1732
   13SAPS   C25 1640   1.215   2.233   3.501  0.0198  0.4604  0.7499
   13SAPS   H5R 1641   1.255   2.334   3.483  0.6317 -0.0980 -1.3857
   13SAPS   C26 1642   1.209   2.185   3.621 -0.5149 -0.5667 -0.2946
   13SAPS   H6R 1643   1.247   2.248   3.703  2.2388 -2.3708 -0.0518
   13SAPS   C27 1644   1.161   2.051   3.673  0.2068  1.3596  0.5314
   13SAPS   H7R 1645   1.224   1.985   3.736  2.4846 -0.4148 -3.2717
   13SAPS   H7S 1646   1.153   1.982   3.587  1.3024 -0.4679  1.8107
   13SAPS   C28 1647   1.025   2.066   3.726 -0.3690  0.2203 -0.6594
   13SAPS   H8R 1648   0.952   2.089   3.647  0.0770  5.5295  0.1148
   13SAPS   C29 1649   0.983   2.036   3.856 -0.4631 -0.6554  1.0491
   13SAPS   H9R 1650   0.883   2.071   3.885  0.4084  2.2984  0.8971
   13SAPS  C210 1651   1.072   2.009   3.973  0.3052  0.2269 -0.0580
   13SAPS  H10R 1652   1.095   2.110   4.015 -2.2730  0.2439  1.4456
   13SAPS  H10S 1653   1.171   1.967   3.944  0.2928  0.6281 -0.7168
   13SAPS  C211 1654   1.018   1.914   4.074  0.0474  0.0190  0.1903
   13SAPS  H11R 1655   0.947   1.834   4.048  1.0260 -1.4873  1.8546
   13SAPS  C212 1656   1.028   1.946   4.206  0.0688  0.8101  0.4956
   13SAPS  H12R 1657   0.986   1.870   4.272 -2.7037  0.0267 -1.9690
   13SAPS  C213 1658   1.100   2.063   4.264 -0.7087  0.3182  0.1013
   13SAPS  H13R 1659   1.028   2.100   4.340 -1.3261 -1.6362  0.5078
   13SAPS  H13S 1660   1.121   2.151   4.199  1.4294 -0.9137 -1.0140
   13SAPS  C214 1661   1.232   2.025   4.333 -0.5393  0.2934  0.3245
   13SAPS  H14R 1662   1.298   1.957   4.278  1.0362 -0.2675  2.7170
   13SAPS  C215 1663   1.276   2.065   4.452 -0.3096  0.0888  0.0731
   13SAPS  H15R 1664   1.380   2.038   4.476 -0.1391 -0.0267 -0.7495
   13SAPS  C216 1665   1.217   2.166   4.536  0.7825  0.1768 -0.6738
   13SAPS  H16R 1666   1.135   2.224   4.489  0.2977 -0.0140 -0.0673
   13SAPS  H16S 1667   1.291   2.244   4.565  0.9552 -0.7066  1.4469
   13SAPS  C217 1668   1.145   2.109   4.664  0.3740  0.0173 -0.1384
   13SAPS  H17R 1669   1.213   2.039   4.718  0.8335  2.3043  2.4342
   13SAPS  H17S 1670   1.056   2.050   4.635  0.5259  0.1334 -0.8701
   13SAPS  C218 1671   1.097   2.219   4.762  0.0860 -0.0228  0.0856
   13SAPS  H18R 1672   1.027   2.286   4.708  2.3788  2.2119 -0.2833
   13SAPS  H18S 1673   1.184   2.285   4.783  0.3836  0.3393 -2.0447
   13SAPS  C219 1674   1.049   2.160   4.889  0.0097  0.2580 -0.1590
   13SAPS  H19R 1675   1.051   2.241   4.964  0.9958 -0.5588  0.7390
   13SAPS  H19S 1676   1.122   2.091   4.938 -0.1284 -1.3108 -2.0351
   13SAPS  C220 1677   0.900   2.108   4.879 -0.6632  0.3077 -0.0445
   13SAPS  H20R 1678   0.852   2.090   4.978 -3.3659  1.9609 -0.9507
   13SAPS  H20S 1679   0.891   2.019   4.813 -0.5360 -0.8303  1.4087
   13SAPS  H20T 1680   0.846   2.186   4.822  0.5607  0.8573 -0.4809
   13SAPS   C33 1681   0.703   1.500   2.966  0.5878 -0.7965 -0.3981
   13SAPS   H3X 1682   0.690   1.402   3.016 -1.3638  0.7817  2.4727
   13SAPS   H3Y 1683   0.647   1.502   2.870 -1.3351 -2.4918  0.6197
   13SAPS   C34 1684   0.640   1.607   3.061 -0.7244  0.4771  0.4233
   13SAPS   H4X 1685   0.645   1.706   3.010  2.9607 -0.5606 -1.5556
   13SAPS   H4Y 1686   0.696   1.619   3.156  0.5857 -0.9801 -0.1211
   13SAPS   C35 1687   0.490   1.572   3.097  0.6503 -0.0903  0.1788
   13SAPS   H5X 1688   0.479   1.478   3.155  0.1207 -0.0951  0.0682
   13SAPS   H5Y 1689   0.426   1.559   3.007 -0.6892  0.6805  0.9836
   13SAPS   C36 1690   0.430   1.687   3.180  0.7593  0.1121 -0.0524
   13SAPS   H6X 1691   0.491   1.778   3.161 -0.1850  0.5873 -0.8658
   13SAPS   H6Y 1692   0.451   1.672   3.288  2.2770  2.5438  0.0562
   13SAPS   C37 1693   0.277   1.709   3.163 -1.4052  0.1295 -0.5154
   13SAPS   H7X 1694   0.258   1.728   3.056 -1.6100 -0.6187 -0.6183
   13SAPS   H7Y 1695   0.229   1.789   3.224  0.3475 -0.3146  1.5601
   13SAPS   C38 1696   0.199   1.583   3.206  0.1697 -0.9141 -0.0250
   13SAPS   H8X 1697   0.219   1.489   3.151  0.4260  0.0773 -1.7182
   13SAPS   H8Y 1698   0.096   1.623   3.189 -0.4977 -2.0654  1.1416
   13SAPS   C39 1699   0.207   1.536   3.345 -0.8725 -1.2077 -0.3937
   13SAPS   H9X 1700   0.308   1.492   3.356  0.3105  1.3622 -0.3486
   13SAPS   H9Y 1701   0.134   1.457   3.373 -0.4606 -1.1811  0.8285
   13SAPS  C310 1702   0.197   1.643   3.447  0.1342 -0.6206 -0.2562
   13SAPS  H10X 1703   0.101   1.699   3.438  0.7098  0.0659 -2.7104
   13SAPS  H10Y 1704   0.284   1.707   3.423 -0.4077  0.2456  0.0247
   13SAPS  C311 1705   0.200   1.589   3.590  0.5417  0.0813  0.8717
   13SAPS  H11X 1706   0.225   1.675   3.656  0.7431  0.8918 -0.2376
   13SAPS  H11Y 1707   0.279   1.511   3.597  1.6070  1.2853  3.1590
   13SAPS  C312 1708   0.072   1.525   3.637  1.1446 -0.3513  0.1240
   13SAPS  H12X 1709   0.026   1.468   3.555 -0.1939  1.4796 -0.4502
   13SAPS  H12Y 1710   0.002   1.605   3.669  0.9322 -0.0725 -1.0233
   13SAPS  C313 1711   0.107   1.439   3.757  0.2595 -0.0363 -0.3613
   13SAPS  H13X 1712   0.184   1.362   3.736 -0.1000 -0.0054 -1.8841
   13SAPS  H13Y 1713   0.013   1.382   3.770  1.1649 -1.9839 -1.8719
   13SAPS  C314 1714   0.140   1.531   3.878 -0.4439 -0.6542 -0.2038
   13SAPS  H14X 1715   0.052   1.598   3.894  1.1006  2.3634 -3.0565
   13SAPS  H14Y 1716   0.218   1.606   3.854 -0.3490 -1.1307 -1.4757
   13SAPS  C315 1717   0.179   1.459   4.006 -0.2071 -0.5470 -0.2460
   13SAPS  H15X 1718   0.256   1.381   3.990 -1.0913 -1.6440  0.6789
   13SAPS  H15Y 1719   0.091   1.403   4.045 -1.2805  0.7051 -0.7845
   13SAPS  C316 1720   0.218   1.549   4.125 -0.2780 -0.3929 -0.3846
   13SAPS  H16X 1721   0.132   1.614   4.154 -2.6403 -3.2357 -0.5167
   13SAPS  H16Y 1722   0.300   1.622   4.106 -0.4887  0.0252  0.2761
   13SAPS  C317 1723   0.258   1.481   4.256 -0.6566  0.1820  0.3410
   13SAPS  H17X 1724   0.352   1.425   4.236  0.6542  2.2585  0.3970
   13SAPS  H17Y 1725   0.176   1.411   4.284  0.4469 -0.9713  0.7844
   13SAPS  C318 1726   0.274   1.581   4.373  0.0975 -0.3196  0.0763
   13SAPS  H18X 1727   0.292   1.529   4.469  2.3520  0.7470  0.2949
   13SAPS  H18Y 1728   0.179   1.638   4.376  0.9157  1.1582 -0.8521
   13SAPS  H18Z 1729   0.360   1.650   4.356  0.5791 -0.4377  1.8772
   14SAPS     N 1730   5.043   3.674   1.863  0.0722  0.3333  0.1732
   14SAPS   HN1 1731   4.954   3.678   1.917 -0.5176  0.5055 -0.7841
   14SAPS   HN2 1732   5.033   3.650   1.762  3.8617  0.6716 -0.4375
   14SAPS   HN3 1733   5.099   3.600   1.910 -0.0527  0.7972  1.0863
   14SAPS   C12 1734   5.103   3.807   1.875  0.1663 -0.2622 -0.9953
   14SAPS  H12A 1735   5.200   3.797   1.828  0.7714  1.7126 -0.2755
   14SAPS   C13 1736   5.030   3.911   1.788 -0.0978  0.4246 -0.1154
   14SAPS  O13A 1737   4.910   3.885   1.753 -0.7518 -0.2699 -0.0299
   14SAPS  O13B 1738   5.062   4.034   1.802  0.9996  0.1979 -0.4950
   14SAPS   C11 1739   5.130   3.841   2.021 -0.2420 -0.2855 -0.4273
   14SAPS  H11A 1740   5.044   3.873   2.083  1.5246  3.0352  0.5551
   14SAPS  H11B 1741   5.190   3.934   2.015  0.0001 -0.4833 -1.2828
   14SAPS     P 1742   5.358   3.719   2.097  0.4083 -0.2123  0.0752
   14SAPS   O13 1743   5.389   3.616   2.201 -0.0762 -0.1721  0.5694
   14SAPS   O14 1744   5.407   3.694   1.959  0.4703  0.1251 -0.4097
   14SAPS   O12 1745   5.208   3.745   2.086 -0.3047 -0.0207  0.0797
   14SAPS   O11 1746   5.402   3.858   2.141  0.0669 -0.5817  0.1070
   14SAPS    C1 1747   5.371   3.913   2.270  0.4468  0.3086  1.0471
   14SAPS    HA 1748   5.348   4.020   2.249 -1.1255  0.0628  1.4325
   14SAPS    HB 1749   5.278   3.875   2.318  0.3134  0.2107  0.7126
   14SAPS    C2 1750   5.487   3.917   2.378 -0.6232  0.5365  0.1159
   14SAPS    HS 1751   5.578   3.953   2.326 -0.5756 -0.4138 -0.4990
   14SAPS   O21 1752   5.509   3.779   2.429 -0.1096  0.1660  0.0564
   14SAPS   C21 1753   5.631   3.735   2.461 -0.5578 -0.6014  0.0853
   14SAPS   O22 1754   5.738   3.795   2.434  0.2020  0.0973  0.0518
   14SAPS   C22 1755   5.615   3.612   2.553  0.1341 -0.2715 -0.0204
   14SAPS   H2R 1756   5.564   3.653   2.642  0.0259  1.0944 -0.6835
   14SAPS   H2S 1757   5.546   3.544   2.499  1.8864 -0.6554 -1.8839
   14SAPS    C3 1758   5.453   3.993   2.511  0.4249  0.1406 -0.0417
   14SAPS    HX 1759   5.370   3.945   2.566 -0.2165 -0.3920 -1.4181
   14SAPS    HY 1760   5.419   4.092   2.475 -0.6651 -0.4296 -0.6365
   14SAPS   O31 1761   5.563   3.999   2.601 -0.1539 -0.5486 -0.2396
   14SAPS   C31 1762   5.629   4.119   2.596  0.2704  0.1970  0.8757
   14SAPS   O32 1763   5.629   4.193   2.502  0.2325 -0.1196  0.0318
   14SAPS   C32 1764   5.719   4.118   2.719  0.2252  0.2586 -0.2806
   14SAPS   H2X 1765   5.768   4.018   2.723  0.3025  0.3176  0.2362
   14SAPS   H2Y 1766   5.647   4.125   2.802  2.1529  3.2288  1.3335
   14SAPS   C23 1767   5.742   3.532   2.595 -0.0741 -0.3902 -0.1098
   14SAPS   H3R 1768   5.810   3.517   2.508 -1.0381  4.0466 -1.8514
   14SAPS   H3S 1769   5.702   3.438   2.638 -1.8579 -0.4921 -1.8139
   14SAPS   C24 1770   5.821   3.605   2.702 -0.6749 -0.5369  0.2258
   14SAPS   H4R 1771   5.828   3.714   2.679  4.7462 -0.7406 -0.2713
   14SAPS   H4S 1772   5.921   3.560   2.690 -0.2875  0.0212  1.2512
   14SAPS   C25 1773   5.796   3.564   2.848  0.4761  0.3891 -0.2233
   14SAPS   H5R 1774   5.814   3.458   2.871  1.8014  0.6121 -0.1638
   14SAPS   C26 1775   5.752   3.654   2.939 -0.0870  0.7275  0.2083
   14SAPS   H6R 1776   5.737   3.620   3.042 -0.7470  0.9460  0.1896
   14SAPS   C27 1777   5.704   3.801   2.915 -0.4500 -0.5725  0.0978
   14SAPS   H7R 1778   5.683   3.828   2.809 -1.4539  0.5057  0.5443
   14SAPS   H7S 1779   5.776   3.878   2.949 -1.3768  1.1615 -1.6244
   14SAPS   C28 1780   5.576   3.835   2.982  0.0758  0.2720  0.1565
   14SAPS   H8R 1781   5.483   3.843   2.924 -0.1528 -0.8826  0.3359
   14SAPS   C29 1782   5.554   3.847   3.113 -0.2906  0.1365 -0.2114
   14SAPS   H9R 1783   5.456   3.889   3.144  1.3994  3.0059  1.7300
   14SAPS  C210 1784   5.638   3.834   3.235 -0.2013  0.0349 -0.6208
   14SAPS  H10R 1785   5.644   3.921   3.304 -0.3434 -0.8152  0.4846
   14SAPS  H10S 1786   5.739   3.811   3.194 -0.9470 -2.5477 -1.1560
   14SAPS  C211 1787   5.605   3.711   3.310  0.1578  0.6072  0.1758
   14SAPS  H11R 1788   5.577   3.625   3.248  3.4738 -0.6086  0.1988
   14SAPS  C212 1789   5.609   3.697   3.445 -0.0105  0.3900 -0.0172
   14SAPS  H12R 1790   5.575   3.600   3.484 -0.0227  0.3747 -0.0648
   14SAPS  C213 1791   5.656   3.793   3.546  0.3683 -0.2117  0.3701
   14SAPS  H13R 1792   5.567   3.840   3.591  0.1912 -1.1864  1.0656
   14SAPS  H13S 1793   5.709   3.879   3.500  0.3293  0.2917  1.2468
   14SAPS  C214 1794   5.748   3.738   3.649  0.7483 -0.3112 -0.4053
   14SAPS  H14R 1795   5.856   3.732   3.628  0.7243 -2.4343 -0.1262
   14SAPS  C215 1796   5.704   3.672   3.763 -0.2426 -0.2574 -0.8337
   14SAPS  H15R 1797   5.771   3.632   3.841 -0.6008  1.7600  0.5830
   14SAPS  C216 1798   5.550   3.669   3.803 -0.0504  0.7104 -0.3883
   14SAPS  H16R 1799   5.493   3.579   3.770  1.2251 -0.6989  1.0333
   14SAPS  H16S 1800   5.491   3.747   3.751 -0.8393  0.2770 -0.1731
   14SAPS  C217 1801   5.534   3.671   3.957 -0.2518  0.0361 -0.9769
   14SAPS  H17R 1802   5.430   3.691   3.990 -0.2434 -1.5644  0.0983
   14SAPS  H17S 1803   5.594   3.750   4.007  1.3390 -0.8587 -1.4043
   14SAPS  C218 1804   5.579   3.541   4.021 -0.6389 -0.2794 -0.2657
   14SAPS  H18R 1805   5.689   3.526   4.017 -0.6384 -0.6454  0.6650
   14SAPS  H18S 1806   5.527   3.455   3.973  1.0626 -1.9965  0.8088
   14SAPS  C219 1807   5.532   3.532   4.172 -0.4057 -0.5272  0.2631
   14SAPS  H19R 1808   5.531   3.424   4.197  2.1045 -0.5194  0.7012
   14SAPS  H19S 1809   5.428   3.570   4.166  0.6541  2.6691 -0.3658
   14SAPS  C220 1810   5.624   3.608   4.270  0.5954  0.6915  0.0825
   14SAPS  H20R 1811   5.583   3.711   4.276 -2.0050 -0.3365  1.9102
   14SAPS  H20S 1812   5.732   3.596   4.247  0.0236 -3.7320 -1.1077
   14SAPS  H20T 1813   5.618   3.580   4.378 -0.3736  1.1758  0.1575
   14SAPS   C33 1814   5.830   4.229   2.721  0.0666 -0.4140 -1.0739
   14SAPS   H3X 1815   5.778   4.323   2.746  1.3344 -0.2326  1.0874
   14SAPS   H3Y 1816   5.879   4.256   2.625  1.0763  3.2039  0.3010
   14SAPS   C34 1817   5.931   4.204   2.832  0.5856  0.4282 -0.0183
   14SAPS   H4X 1818   6.013   4.275   2.809  0.5128  1.5428  2.8393
   14SAPS   H4Y 1819   5.963   4.099   2.819  0.7296  0.6264 -1.4437
   14SAPS   C35 1820   5.880   4.225   2.973  0.1478 -0.4994 -0.2554
   14SAPS   H5X 1821   5.791   4.169   3.010 -0.4639  0.0814 -0.8243
   14SAPS   H5Y 1822   5.855   4.332   2.988 -0.7552 -0.9283  1.7445
   14SAPS   C36 1823   5.992   4.180   3.074  0.7366  0.1774  0.4274
   14SAPS   H6X 1824   6.083   4.240   3.049  1.1847  0.0168  1.6271
   14SAPS   H6Y 1825   6.016   4.073   3.062  0.3686  0.1566 -0.2078
   14SAPS   C37 1826   5.949   4.213   3.224 -0.6404 -0.0703  0.6832
   14SAPS   H7X 1827   5.869   4.138   3.240 -0.7379 -0.3024 -0.7432
   14SAPS   H7Y 1828   5.901   4.314   3.224  1.4912  1.0228 -0.9905
   14SAPS   C38 1829   6.066   4.189   3.313  0.4654  0.3580 -0.5330
   14SAPS   H8X 1830   6.140   4.272   3.304  0.0783  0.8213  0.4336
   14SAPS   H8Y 1831   6.114   4.099   3.270  0.8489  0.5821 -0.5778
   14SAPS   C39 1832   6.034   4.161   3.462 -0.0810 -0.6534  0.5000
   14SAPS   H9X 1833   5.961   4.077   3.462  1.3971 -1.9984  1.1798
   14SAPS   H9Y 1834   5.970   4.245   3.496  0.3701 -0.7963  1.7567
   14SAPS  C310 1835   6.155   4.124   3.540 -0.3101  0.0496 -0.2211
   14SAPS  H10X 1836   6.240   4.195   3.551 -0.1837 -0.4606  2.8481
   14SAPS  H10Y 1837   6.201   4.039   3.485 -0.8502 -0.5053  0.1842
   14SAPS  C311 1838   6.109   4.076   3.678 -0.4320  0.2176 -0.1303
   14SAPS  H11X 1839   6.031   4.000   3.657 -1.8270  0.5154  3.4243
   14SAPS  H11Y 1840   6.052   4.160   3.724 -0.4800 -0.1635  0.5090
   14SAPS  C312 1841   6.213   4.016   3.769 -0.2862  0.8182  0.5834
   14SAPS  H12X 1842   6.292   4.093   3.774  0.1107  0.3570  1.8102
   14SAPS  H12Y 1843   6.248   3.923   3.719  0.7142  1.4856  0.0119
   14SAPS  C313 1844   6.163   3.977   3.904 -0.6018  1.1469 -0.1922
   14SAPS  H13X 1845   6.093   3.891   3.905  0.1267  0.3463 -3.6923
   14SAPS  H13Y 1846   6.126   4.072   3.949  3.5484  1.8024  2.3200
   14SAPS  C314 1847   6.274   3.919   4.000 -0.2285  0.4160 -0.0307
   14SAPS  H14X 1848   6.362   3.984   3.981 -0.4491  0.3553 -1.3328
   14SAPS  H14Y 1849   6.309   3.817   3.973  2.0987  1.7056 -2.3352
   14SAPS  C315 1850   6.223   3.929   4.143  0.5689  0.0032  0.0468
   14SAPS  H15X 1851   6.129   3.870   4.154  0.8897 -0.4262  0.4750
   14SAPS  H15Y 1852   6.190   4.035   4.151 -0.2564  0.4413 -5.2127
   14SAPS  C316 1853   6.324   3.886   4.247 -0.1920 -0.4542 -0.4321
   14SAPS  H16X 1854   6.335   3.777   4.228  0.0824 -0.3194 -1.0592
   14SAPS  H16Y 1855   6.268   3.897   4.342 -0.0265 -0.4750 -0.3297
   14SAPS  C317 1856   6.449   3.967   4.268  0.3313  0.4845 -0.0651
   14SAPS  H17X 1857   6.419   4.074   4.261 -0.0644  0.3103 -1.5098
   14SAPS  H17Y 1858   6.521   3.956   4.184 -1.1285  1.1584 -1.4851
   14SAPS  C318 1859   6.520   3.940   4.399 -0.0361 -0.0616  0.4175
   14SAPS  H18X 1860   6.610   4.005   4.407 -0.0427 -0.1506  1.2095
   14SAPS  H18Y 1861   6.556   3.835   4.398  0.5926  0.1387 -0.7421
   14SAPS  H18Z 1862   6.463   3.966   4.490 -1.9678 -1.0057 -0.4751
   15SAPS     N 1863   5.930   4.596   1.810  0.3296 -0.2939 -0.3463
   15SAPS   HN1 1864   5.981   4.683   1.835  0.8707 -0.2918 -1.3719
   15SAPS   HN2 1865   5.986   4.516   1.845 -1.0280 -1.2198 -0.1811
   15SAPS   HN3 1866   5.939   4.606   1.706  0.7364  0.7884 -0.2214
   15SAPS   C12 1867   5.795   4.606   1.873  0.2847  0.1883 -0.1834
   15SAPS  H12A 1868   5.742   4.688   1.829 -1.2452 -1.0045 -0.6357
   15SAPS   C13 1869   5.699   4.493   1.850 -0.0622 -0.1256  0.1470
   15SAPS  O13A 1870   5.728   4.393   1.771 -0.2480  0.6960  0.0328
   15SAPS  O13B 1871   5.593   4.485   1.913  0.3975  0.6327 -0.0231
   15SAPS   C11 1872   5.810   4.633   2.028  0.5079  0.1860  0.3236
   15SAPS  H11A 1873   5.863   4.548   2.077 -0.7627 -1.3934 -0.9282
   15SAPS  H11B 1874   5.709   4.650   2.072  1.2001  0.3458  1.9021
   15SAPS     P 1875   5.911   4.818   2.185 -0.1322  0.4453  0.1081
   15SAPS   O13 1876   6.041   4.772   2.242  0.0152 -0.1185 -0.1116
   15SAPS   O14 1877   5.906   4.963   2.183 -0.3594 -0.0018 -0.4218
   15SAPS   O12 1878   5.889   4.756   2.041 -0.0774  0.1306  0.2701
   15SAPS   O11 1879   5.803   4.749   2.269  0.2466 -0.2507 -0.1982
   15SAPS    C1 1880   5.678   4.808   2.312  0.1540 -0.6378 -0.6539
   15SAPS    HA 1881   5.638   4.871   2.230 -0.8343 -0.0454  0.2421
   15SAPS    HB 1882   5.620   4.715   2.331  2.2108 -1.5772  1.5684
   15SAPS    C2 1883   5.688   4.896   2.445 -0.2023 -0.5947 -0.2659
   15SAPS    HS 1884   5.766   4.974   2.431  0.9475 -1.6104  0.3841
   15SAPS   O21 1885   5.699   4.814   2.557  0.1858 -0.2487 -0.1239
   15SAPS   C21 1886   5.808   4.824   2.623  0.2535  0.4021 -0.1823
   15SAPS   O22 1887   5.896   4.906   2.603 -0.2979  0.4608 -0.0945
   15SAPS   C22 1888   5.816   4.703   2.711 -0.0171 -0.1383  0.2601
   15SAPS   H2R 1889   5.712   4.668   2.729 -0.3421 -0.7516 -2.3495
   15SAPS   H2S 1890   5.873   4.629   2.651 -1.1009 -2.2038  1.6550
   15SAPS    C3 1891   5.563   4.984   2.462  0.5750 -0.0735  0.9910
   15SAPS    HX 1892   5.477   4.914   2.450  0.6684 -0.1840  0.9699
   15SAPS    HY 1893   5.555   5.062   2.383  0.3228 -0.5449  0.5436
   15SAPS   O31 1894   5.563   5.050   2.589  0.6989  0.1464  0.6216
   15SAPS   C31 1895   5.624   5.171   2.593 -0.2180  0.5691  0.4729
   15SAPS   O32 1896   5.694   5.218   2.504  0.8150  0.1683 -0.5282
   15SAPS   C32 1897   5.584   5.239   2.713  0.0613 -0.1611 -0.2525
   15SAPS   H2X 1898   5.485   5.196   2.741  0.3423 -0.1253  0.8526
   15SAPS   H2Y 1899   5.571   5.344   2.680  1.6509 -0.1307 -0.8436
   15SAPS   C23 1900   5.893   4.740   2.835  0.4450  0.3323  0.0717
   15SAPS   H3R 1901   5.994   4.782   2.818 -0.9306  4.7111  1.5366
   15SAPS   H3S 1902   5.904   4.646   2.893 -0.6116 -0.0995 -0.3851
   15SAPS   C24 1903   5.822   4.841   2.920  0.0364  0.0674 -0.3590
   15SAPS   H4R 1904   5.813   4.941   2.873 -0.6180 -0.0459 -0.4899
   15SAPS   H4S 1905   5.881   4.859   3.013 -1.9149  1.0928  0.7589
   15SAPS   C25 1906   5.681   4.797   2.943 -0.7790 -0.1602 -0.4167
   15SAPS   H5R 1907   5.611   4.785   2.858 -0.3891 -1.7593 -0.5438
   15SAPS   C26 1908   5.628   4.760   3.061  0.0596 -0.4334 -0.0996
   15SAPS   H6R 1909   5.520   4.741   3.059  0.1518 -1.3001  1.3523
   15SAPS   C27 1910   5.684   4.759   3.200  0.0951 -0.0264 -0.4563
   15SAPS   H7R 1911   5.779   4.701   3.200  0.1108 -0.0014 -0.5471
   15SAPS   H7S 1912   5.611   4.695   3.255 -0.2778 -1.7991 -2.8787
   15SAPS   C28 1913   5.707   4.894   3.266 -0.0090 -0.2214 -0.0227
   15SAPS   H8R 1914   5.722   4.978   3.196  1.1420  0.1689  0.6651
   15SAPS   C29 1915   5.723   4.908   3.396 -0.1266  0.1045  0.7429
   15SAPS   H9R 1916   5.735   5.013   3.426 -0.7033  0.7294 -1.0518
   15SAPS  C210 1917   5.716   4.804   3.499 -0.2187  0.3929 -0.7270
   15SAPS  H10R 1918   5.701   4.701   3.460  0.0467 -0.5172  1.4262
   15SAPS  H10S 1919   5.626   4.810   3.564 -0.5796  1.5585 -1.3257
   15SAPS  C211 1920   5.847   4.804   3.585 -0.2560 -0.7389  0.6460
   15SAPS  H11R 1921   5.938   4.785   3.526 -0.7207 -1.2136  0.0688
   15SAPS  C212 1922   5.864   4.843   3.705  0.4370 -0.5297 -0.0737
   15SAPS  H12R 1923   5.963   4.835   3.754 -0.1361  2.8015  1.9455
   15SAPS  C213 1924   5.762   4.888   3.808 -0.5632  0.4445 -0.6713
   15SAPS  H13R 1925   5.676   4.922   3.746  0.5168  2.2172 -1.2513
   15SAPS  H13S 1926   5.796   4.980   3.859  0.5991 -1.8347  3.0219
   15SAPS  C214 1927   5.735   4.783   3.908  0.2866 -0.0136  0.3463
   15SAPS  H14R 1928   5.751   4.680   3.871 -0.6734 -0.2162  0.4764
   15SAPS  C215 1929   5.676   4.802   4.028  0.1788  0.0592 -0.0605
   15SAPS  H15R 1930   5.673   4.718   4.099 -0.2233  2.0366  2.4216
   15SAPS  C216 1931   5.642   4.938   4.084  0.2662  0.3315  0.5017
   15SAPS  H16R 1932   5.554   4.923   4.150 -0.0392 -0.2556 -0.0280
   15SAPS  H16S 1933   5.620   5.018   4.011 -2.2260  0.6719  1.5177
   15SAPS  C217 1934   5.761   4.996   4.165  0.3967 -0.1060 -0.2616
   15SAPS  H17R 1935   5.731   5.102   4.180  0.1271  0.1518 -2.3096
   15SAPS  H17S 1936   5.858   5.004   4.111 -0.2321  2.6746 -1.1239
   15SAPS  C218 1937   5.771   4.932   4.311  0.0396  0.3390  0.1236
   15SAPS  H18R 1938   5.781   4.821   4.302  2.5408  0.5294 -0.3095
   15SAPS  H18S 1939   5.676   4.950   4.365 -0.2292 -3.0076  0.9896
   15SAPS  C219 1940   5.876   4.994   4.400 -0.8705 -0.6218 -0.1434
   15SAPS  H19R 1941   5.856   5.103   4.410 -1.6117 -0.8164  0.5580
   15SAPS  H19S 1942   5.979   4.994   4.357 -0.7926  3.2789 -0.3692
   15SAPS  C220 1943   5.885   4.931   4.538 -0.5332  0.0168  0.2538
   15SAPS  H20R 1944   5.791   4.952   4.593 -0.7497 -1.7470  0.6373
   15SAPS  H20S 1945   5.971   4.970   4.596 -1.8611  1.9802  1.0133
   15SAPS  H20T 1946   5.905   4.822   4.532  1.0147  0.1963  1.4200
   15SAPS   C33 1947   5.684   5.235   2.831 -0.1061 -0.0812  0.6408
   15SAPS   H3X 1948   5.788   5.237   2.791 -1.0001  0.0014 -1.8463
   15SAPS   H3Y 1949   5.668   5.142   2.890 -1.4957 -0.9384 -0.9786
   15SAPS   C34 1950   5.658   5.344   2.933 -0.2991 -0.3583 -1.3043
   15SAPS   H4X 1951   5.548   5.355   2.936 -0.2934 -0.1597  1.5828
   15SAPS   H4Y 1952   5.706   5.442   2.911  2.1300 -0.2401  3.2439
   15SAPS   C35 1953   5.683   5.306   3.080  0.0265  0.1237  0.0330
   15SAPS   H5X 1954   5.662   5.199   3.101 -2.1213  0.1206 -1.7020
   15SAPS   H5Y 1955   5.612   5.365   3.142 -0.0489  1.4575 -1.2721
   15SAPS   C36 1956   5.823   5.332   3.137 -0.0587 -0.6859  0.0340
   15SAPS   H6X 1957   5.843   5.441   3.144 -0.2776 -0.6454  0.0515
   15SAPS   H6Y 1958   5.892   5.311   3.053  0.3457  1.1351 -0.1503
   15SAPS   C37 1959   5.864   5.270   3.270 -0.4181 -0.0983 -0.0725
   15SAPS   H7X 1960   5.974   5.284   3.276 -0.3563 -0.7928  0.5898
   15SAPS   H7Y 1961   5.833   5.163   3.271  1.4692 -0.6717  0.2703
   15SAPS   C38 1962   5.806   5.338   3.395  0.0630 -0.3836 -0.4529
   15SAPS   H8X 1963   5.696   5.355   3.391 -0.2740 -2.5346 -1.6529
   15SAPS   H8Y 1964   5.838   5.444   3.386 -4.7801  1.4812  0.9580
   15SAPS   C39 1965   5.860   5.296   3.532 -0.1158  0.1903  0.1322
   15SAPS   H9X 1966   5.971   5.304   3.539  0.0520 -0.4303 -1.4627
   15SAPS   H9Y 1967   5.829   5.198   3.575  1.4758 -0.2599  0.3313
   15SAPS  C310 1968   5.823   5.402   3.633  0.5748 -0.0602 -0.4002
   15SAPS  H10X 1969   5.715   5.382   3.652 -0.0246  0.2053 -3.1910
   15SAPS  H10Y 1970   5.824   5.507   3.596  0.5776  0.4629  0.9870
   15SAPS  C311 1971   5.898   5.384   3.770 -0.3136  0.1123 -0.4732
   15SAPS  H11X 1972   5.992   5.442   3.758 -0.8482  1.1247  0.1246
   15SAPS  H11Y 1973   5.924   5.277   3.782  1.0418  0.1704 -2.4835
   15SAPS  C312 1974   5.811   5.424   3.894  0.3130 -0.2595 -0.9730
   15SAPS  H12X 1975   5.711   5.377   3.888  0.9158 -1.7539  0.1700
   15SAPS  H12Y 1976   5.777   5.530   3.894 -4.0872 -1.3799  2.3403
   15SAPS  C313 1977   5.876   5.415   4.034 -0.0197 -0.2284 -0.9623
   15SAPS  H13X 1978   5.966   5.479   4.018 -0.3345  0.3557 -0.4370
   15SAPS  H13Y 1979   5.902   5.307   4.043 -2.2907 -0.7999 -0.7233
   15SAPS  C314 1980   5.784   5.445   4.150  0.6568 -0.0124 -0.7455
   15SAPS  H14X 1981   5.745   5.345   4.179  0.0733  0.3684 -0.2126
   15SAPS  H14Y 1982   5.710   5.522   4.120 -0.8083 -0.4901  1.4528
   15SAPS  C315 1983   5.864   5.505   4.264 -0.4940  0.0611 -0.8579
   15SAPS  H15X 1984   5.900   5.605   4.231 -2.9658  1.4205  0.3156
   15SAPS  H15Y 1985   5.961   5.451   4.267 -1.0042 -1.0252 -2.4678
   15SAPS  C316 1986   5.798   5.486   4.393 -0.1201  0.1270 -0.6870
   15SAPS  H16X 1987   5.871   5.512   4.473 -0.1700 -0.2289 -0.5258
   15SAPS  H16Y 1988   5.776   5.377   4.397 -0.6322  0.2443 -0.1498
   15SAPS  C317 1989   5.671   5.573   4.420 -0.5802  0.0118 -0.3196
   15SAPS  H17X 1990   5.592   5.529   4.356  1.3761  0.2193 -3.0862
   15SAPS  H17Y 1991   5.692   5.675   4.380  2.6081  0.9015  2.9882
   15SAPS  C318 1992   5.635   5.569   4.565  0.0334 -0.1973  0.1273
   15SAPS  H18X 1993   5.727   5.585   4.626 -0.0382 -0.2523  0.2507
   15SAPS  H18Y 1994   5.600   5.470   4.602  0.3177 -0.5719 -0.5881
   15SAPS  H18Z 1995   5.563   5.651   4.589  1.3802  2.0420 -2.8842
   16SAPS     N 1996   5.729   4.183   1.958 -0.7503  0.5632 -0.0358
   16SAPS   HN1 1997   5.768   4.233   2.041  2.7875 -1.5315 -0.2345
   16SAPS   HN2 1998   5.718   4.250   1.880 -1.9665 -0.3494 -0.6885
   16SAPS   HN3 1999   5.638   4.133   1.968  0.1240 -1.8265 -2.6797
   16SAPS   C12 2000   5.826   4.070   1.929 -0.0199  0.5462  0.7535
   16SAPS  H12A 2001   5.825   4.000   2.011 -0.5362 -0.3900 -0.0266
   16SAPS   C13 2002   5.784   3.989   1.806  0.0758 -0.3514  0.5778
   16SAPS  O13A 2003   5.704   4.032   1.721  0.0126 -0.1423  0.4923
   16SAPS  O13B 2004   5.861   3.893   1.770 -0.0716 -0.2802  0.1519
   16SAPS   C11 2005   5.965   4.125   1.914 -0.2063  0.7104  0.0928
   16SAPS  H11A 2006   5.983   4.177   1.818  1.4044 -0.1229 -0.0909
   16SAPS  H11B 2007   6.030   4.035   1.914 -0.0551  0.7558 -2.3031
   16SAPS     P 2008   6.127   4.313   2.021  0.0187 -0.1164  0.2859
   16SAPS   O13 2009   6.244   4.226   1.995  0.3864 -0.2339 -0.5548
   16SAPS   O14 2010   6.098   4.427   1.926 -0.2582  0.6280 -0.0893
   16SAPS   O12 2011   6.005   4.212   2.023  0.9335 -0.5344  1.0388
   16SAPS   O11 2012   6.134   4.376   2.165 -0.2497  0.2072 -0.1688
   16SAPS    C1 2013   6.030   4.377   2.262  0.4861  0.2019 -1.1267
   16SAPS    HA 2014   6.011   4.481   2.296  1.6983 -0.0067  0.2887
   16SAPS    HB 2015   5.936   4.336   2.219 -1.2575  1.7538  1.0058
   16SAPS    C2 2016   6.066   4.279   2.377  0.6643 -0.1482  0.3677
   16SAPS    HS 2017   5.967   4.269   2.427  1.0931  0.5782  1.3881
   16SAPS   O21 2018   6.165   4.335   2.472 -0.2101 -0.2875  0.0054
   16SAPS   C21 2019   6.146   4.453   2.525  0.0662 -0.5394  0.0759
   16SAPS   O22 2020   6.031   4.492   2.549 -0.2431  0.1730  0.3467
   16SAPS   C22 2021   6.278   4.523   2.541 -0.0550  0.3845 -0.2501
   16SAPS   H2R 2022   6.361   4.450   2.543 -1.8354 -1.7308  0.2022
   16SAPS   H2S 2023   6.284   4.589   2.452 -2.4513  1.5877  0.3822
   16SAPS    C3 2024   6.103   4.127   2.333 -0.4256 -0.1331  0.4940
   16SAPS    HX 2025   6.211   4.128   2.308 -0.7887 -0.0023 -1.1523
   16SAPS    HY 2026   6.040   4.106   2.245  1.5301 -1.2810 -0.7167
   16SAPS   O31 2027   6.073   4.041   2.443  0.3022  0.2194  0.0646
   16SAPS   C31 2028   6.087   3.913   2.429  0.0712  0.7266  0.1538
   16SAPS   O32 2029   6.137   3.859   2.331 -0.2218  0.2757  0.0121
   16SAPS   C32 2030   6.055   3.837   2.561  0.2823 -0.2875  0.4694
   16SAPS   H2X 2031   6.040   3.731   2.531 -0.5409 -0.3774  1.1819
   16SAPS   H2Y 2032   5.956   3.877   2.593 -1.8098 -2.2033 -2.9867
   16SAPS   C23 2033   6.278   4.619   2.662 -0.7668  0.5020  0.0533
   16SAPS   H3R 2034   6.193   4.691   2.660 -2.4008 -1.3684 -0.7204
   16SAPS   H3S 2035   6.369   4.682   2.649  0.0915 -0.0565  2.7399
   16SAPS   C24 2036   6.293   4.535   2.790 -0.2551 -0.3511 -0.1520
   16SAPS   H4R 2037   6.383   4.473   2.771 -0.1649 -1.2723  2.7836
   16SAPS   H4S 2038   6.201   4.474   2.802 -0.2424 -0.9383 -2.5354
   16SAPS   C25 2039   6.330   4.619   2.907 -0.2862  0.3560 -0.5524
   16SAPS   H5R 2040   6.380   4.714   2.884  0.6598  0.7584  2.6089
   16SAPS   C26 2041   6.276   4.616   3.032  0.8772  0.7323 -0.2156
   16SAPS   H6R 2042   6.310   4.688   3.108  1.9474  0.0474 -0.0451
   16SAPS   C27 2043   6.168   4.522   3.092 -0.1083 -0.0748  0.1211
   16SAPS   H7R 2044   6.220   4.455   3.164 -1.1220  0.3392  1.2549
   16SAPS   H7S 2045   6.118   4.460   3.015 -0.2541 -0.9125  0.8755
   16SAPS   C28 2046   6.074   4.614   3.155  0.1016 -0.2559  0.8760
   16SAPS   H8R 2047   6.034   4.681   3.077 -2.0521 -0.8709  1.4148
   16SAPS   C29 2048   6.046   4.638   3.286 -0.2134  0.1142 -0.2005
   16SAPS   H9R 2049   5.967   4.711   3.309 -0.6499  0.7855 -3.3690
   16SAPS  C210 2050   6.106   4.565   3.403 -0.0086  0.2305  0.3023
   16SAPS  H10R 2051   6.095   4.455   3.393  2.0004  0.0494 -0.6108
   16SAPS  H10S 2052   6.049   4.591   3.494  1.2948  0.0040  1.2171
   16SAPS  C211 2053   6.255   4.582   3.431  0.5223  0.1106 -0.0374
   16SAPS  H11R 2054   6.325   4.599   3.348 -0.4395 -0.6495 -1.0272
   16SAPS  C212 2055   6.303   4.594   3.557  0.7288 -0.1251 -0.9509
   16SAPS  H12R 2056   6.406   4.632   3.559  0.4955  0.5057  0.2363
   16SAPS  C213 2057   6.227   4.583   3.693  0.3595 -0.2221  0.1153
   16SAPS  H13R 2058   6.163   4.673   3.701  1.3289  0.3392  2.2468
   16SAPS  H13S 2059   6.302   4.602   3.773  0.5780 -0.9698  0.0955
   16SAPS  C214 2060   6.138   4.465   3.723 -0.0716  1.0659 -0.8005
   16SAPS  H14R 2061   6.072   4.427   3.644  0.7679  0.0250 -1.0186
   16SAPS  C215 2062   6.119   4.414   3.850  0.8720 -0.7022 -0.4374
   16SAPS  H15R 2063   6.043   4.335   3.861 -0.3843  0.3712 -1.0370
   16SAPS  C216 2064   6.166   4.465   3.982  0.3558 -0.2115 -0.2206
   16SAPS  H16R 2065   6.208   4.568   3.980  0.6319 -0.3300 -1.3204
   16SAPS  H16S 2066   6.245   4.394   4.015 -0.8765 -2.4520 -1.7742
   16SAPS  C217 2067   6.047   4.464   4.080  0.6498  0.6598  0.4996
   16SAPS  H17R 2068   6.014   4.358   4.085  1.2916  0.2662 -1.9584
   16SAPS  H17S 2069   5.961   4.525   4.043  0.7685  1.2461  1.1658
   16SAPS  C218 2070   6.073   4.495   4.231  0.2285 -0.4603 -0.4841
   16SAPS  H18R 2071   6.124   4.594   4.233 -0.6817  0.0115  1.1136
   16SAPS  H18S 2072   6.145   4.423   4.276  1.5251  0.8140 -0.4102
   16SAPS  C219 2073   5.949   4.510   4.315 -0.4476  0.3743 -0.3866
   16SAPS  H19R 2074   5.894   4.414   4.308  0.6130 -0.3601  1.0952
   16SAPS  H19S 2075   5.885   4.584   4.262 -1.5544 -1.4729 -1.7612
   16SAPS  C220 2076   5.971   4.525   4.468 -0.0886 -0.2476  0.2604
   16SAPS  H20R 2077   6.042   4.448   4.507 -0.9072 -1.3194 -0.3165
   16SAPS  H20S 2078   5.876   4.524   4.526 -0.4875 -0.2260 -0.3889
   16SAPS  H20T 2079   6.011   4.627   4.488  1.4201 -0.9086  0.8239
   16SAPS   C33 2080   6.162   3.848   2.677  0.5668  0.2458  0.6362
   16SAPS   H3X 2081   6.178   3.957   2.689 -2.2495  0.9799 -1.2671
   16SAPS   H3Y 2082   6.256   3.797   2.649 -0.8474 -1.4381 -1.3732
   16SAPS   C34 2083   6.113   3.801   2.807  0.7240 -0.2032 -0.0480
   16SAPS   H4X 2084   6.055   3.706   2.798  1.0113 -0.3543 -0.3116
   16SAPS   H4Y 2085   6.045   3.881   2.843 -0.3706 -1.0611 -0.1417
   16SAPS   C35 2086   6.221   3.771   2.918  0.7645  0.3531  0.2143
   16SAPS   H5X 2087   6.280   3.865   2.928  1.7509 -0.0556 -1.3354
   16SAPS   H5Y 2088   6.290   3.686   2.900  0.1965 -0.6069  2.2399
   16SAPS   C36 2089   6.138   3.743   3.048  0.0846 -0.6513 -0.0663
   16SAPS   H6X 2090   6.066   3.660   3.035  0.6987 -1.0521 -1.0327
   16SAPS   H6Y 2091   6.072   3.832   3.058  0.3263 -0.0065 -3.1766
   16SAPS   C37 2092   6.227   3.717   3.170  1.0095 -0.2916 -0.0085
   16SAPS   H7X 2093   6.293   3.803   3.191 -1.5456  2.0590 -0.9428
   16SAPS   H7Y 2094   6.286   3.624   3.151  1.2047  0.0648 -1.2833
   16SAPS   C38 2095   6.135   3.697   3.292 -0.9565 -0.1774 -0.5966
   16SAPS   H8X 2096   6.043   3.636   3.274 -0.6041 -1.2387  0.9618
   16SAPS   H8Y 2097   6.098   3.800   3.307  1.2454  0.8740 -2.0004
   16SAPS   C39 2098   6.210   3.630   3.414 -0.5808  0.1295 -0.2717
   16SAPS   H9X 2099   6.308   3.675   3.439 -0.6594  0.0927  0.1141
   16SAPS   H9Y 2100   6.233   3.525   3.384  1.1307  0.4329 -0.1192
   16SAPS  C310 2101   6.123   3.608   3.535  0.8023 -0.0757 -0.1686
   16SAPS  H10X 2102   6.067   3.512   3.531  1.4227 -0.4674  0.2425
   16SAPS  H10Y 2103   6.058   3.696   3.555  0.2894 -0.6631  0.8387
   16SAPS  C311 2104   6.204   3.579   3.666 -0.5157 -0.0472 -0.4671
   16SAPS  H11X 2105   6.273   3.664   3.682 -0.8473  0.1799 -0.2282
   16SAPS  H11Y 2106   6.275   3.494   3.660  0.0970  0.1546  2.6990
   16SAPS  C312 2107   6.114   3.560   3.783  0.0210  0.3368 -0.0501
   16SAPS  H12X 2108   6.042   3.481   3.751 -0.7814  1.3588 -0.8230
   16SAPS  H12Y 2109   6.067   3.659   3.799  1.0436  0.5753  1.6949
   16SAPS  C313 2110   6.173   3.508   3.916 -0.3862 -0.2641 -0.8295
   16SAPS  H13X 2111   6.263   3.567   3.947 -1.1804 -0.0818  1.2571
   16SAPS  H13Y 2112   6.203   3.403   3.896 -1.6149 -0.5605 -1.1967
   16SAPS  C314 2113   6.072   3.504   4.028  0.3696  0.5882  0.7849
   16SAPS  H14X 2114   5.977   3.455   3.995  0.7591  0.9958 -1.0157
   16SAPS  H14Y 2115   6.049   3.606   4.063  0.5688  1.0067 -0.2731
   16SAPS  C315 2116   6.135   3.428   4.145 -0.0553  0.2627  0.1130
   16SAPS  H15X 2117   6.244   3.449   4.153  0.0129 -0.1484  0.3160
   16SAPS  H15Y 2118   6.147   3.321   4.118  1.8490  0.1063  1.3859
   16SAPS  C316 2119   6.065   3.461   4.273 -0.4356  0.0189  0.2056
   16SAPS  H16X 2120   5.961   3.423   4.275 -1.4793  2.6526  0.9551
   16SAPS  H16Y 2121   6.051   3.571   4.275 -1.4062 -0.1168  1.2337
   16SAPS  C317 2122   6.146   3.414   4.401  0.0312 -0.2002 -0.3413
   16SAPS  H17X 2123   6.087   3.449   4.488 -0.3170  1.3303 -1.1629
   16SAPS  H17Y 2124   6.236   3.477   4.417 -1.4470  1.8040  0.5458
   16SAPS  C318 2125   6.175   3.264   4.416 -0.1679 -0.4744  0.6156
   16SAPS  H18X 2126   6.229   3.239   4.510 -0.7378  0.4579  1.1922
   16SAPS  H18Y 2127   6.238   3.238   4.328 -3.3290  1.3937 -2.4491
   16SAPS  H18Z 2128   6.083   3.204   4.400 -0.2727  0.0057 -0.7195
   17SAPS     N 2129   1.982   4.436   2.849 -0.2815  0.1766 -0.3348
   17SAPS   HN1 2130   1.994   4.337   2.878  1.1015  0.8911  1.7485
   17SAPS   HN2 2131   2.060   4.492   2.888 -1.1715  2.2695 -1.4262
   17SAPS   HN3 2132   1.896   4.459   2.902  0.0192 -0.8394  0.6423
   17SAPS   C12 2133   1.967   4.454   2.703  0.1154 -0.1174 -0.3690
   17SAPS  H12A 2134   1.900   4.377   2.668  0.2984 -0.1525 -0.6413
   17SAPS   C13 2135   1.916   4.584   2.643  0.4724  0.5264  0.0410
   17SAPS  O13A 2136   1.871   4.672   2.716  0.0602  0.4335 -0.3024
   17SAPS  O13B 2137   1.896   4.591   2.518  0.1193  0.2982 -0.0948
   17SAPS   C11 2138   2.112   4.421   2.640  0.3108  0.2323  0.3942
   17SAPS  H11A 2139   2.117   4.427   2.529  2.3151 -2.9265  0.1934
   17SAPS  H11B 2140   2.135   4.314   2.660 -1.7073 -0.5679 -1.1870
   17SAPS     P 2141   2.375   4.475   2.680 -0.1797  0.0850  0.1228
   17SAPS   O13 2142   2.412   4.470   2.536  0.8598  0.7439 -0.6121
   17SAPS   O14 2143   2.453   4.572   2.761 -0.1023  0.2318  0.2002
   17SAPS   O12 2144   2.217   4.506   2.699 -0.3873 -0.2891  0.5018
   17SAPS   O11 2145   2.391   4.324   2.733 -0.3082  0.4911  0.5457
   17SAPS    C1 2146   2.347   4.281   2.869 -0.0754 -0.3915  0.9468
   17SAPS    HA 2147   2.246   4.322   2.888  0.3736  2.4694 -1.8155
   17SAPS    HB 2148   2.347   4.171   2.883  0.1869 -0.5680 -0.2807
   17SAPS    C2 2149   2.440   4.340   2.982 -0.0137 -0.4219 -0.1243
   17SAPS    HS 2150   2.452   4.446   2.952 -1.0100 -0.9262 -2.6254
   17SAPS   O21 2151   2.574   4.276   2.981  0.7602  0.0649  0.3360
   17SAPS   C21 2152   2.657   4.342   3.053 -0.1707 -0.0764 -0.5891
   17SAPS   O22 2153   2.648   4.461   3.077 -0.0587  0.0625 -0.5222
   17SAPS   C22 2154   2.775   4.251   3.090  0.1737 -0.5316 -0.5840
   17SAPS   H2R 2155   2.810   4.204   2.995  2.6256  0.1764 -0.0760
   17SAPS   H2S 2156   2.848   4.327   3.123 -1.4855  0.4761  0.9661
   17SAPS    C3 2157   2.358   4.320   3.117  0.5116 -0.3126  0.5454
   17SAPS    HX 2158   2.341   4.210   3.120 -3.3393  0.0250 -1.7779
   17SAPS    HY 2159   2.254   4.359   3.117  1.0925  1.4555 -1.8139
   17SAPS   O31 2160   2.429   4.353   3.235  0.3153 -0.2816 -0.0243
   17SAPS   C31 2161   2.428   4.478   3.272 -0.2589  0.7551 -0.1472
   17SAPS   O32 2162   2.364   4.566   3.220 -0.4936  0.1594  0.5415
   17SAPS   C32 2163   2.520   4.502   3.394 -0.0596 -0.7543 -0.0021
   17SAPS   H2X 2164   2.545   4.610   3.396 -3.1429  0.0562 -0.3367
   17SAPS   H2Y 2165   2.618   4.451   3.384  1.0976  0.5995  3.1464
   17SAPS   C23 2166   2.757   4.151   3.209  0.0334 -0.2681 -0.3662
   17SAPS   H3R 2167   2.662   4.102   3.180 -1.6025  3.2692 -1.5322
   17SAPS   H3S 2168   2.753   4.209   3.304  1.8942 -1.0199  0.2165
   17SAPS   C24 2169   2.879   4.059   3.219  0.2111 -0.4021  0.5963
   17SAPS   H4R 2170   2.970   4.118   3.242  0.9571 -1.7583  1.2844
   17SAPS   H4S 2171   2.898   4.015   3.119 -0.2708 -1.0253  0.7657
   17SAPS   C25 2172   2.859   3.957   3.328  0.2491  0.9821 -0.0309
   17SAPS   H5R 2173   2.831   3.854   3.301 -0.9192  0.8196  1.6534
   17SAPS   C26 2174   2.889   3.974   3.454 -0.1168  0.0257  0.3700
   17SAPS   H6R 2175   2.875   3.892   3.526  1.5702 -2.3810 -1.8335
   17SAPS   C27 2176   2.932   4.103   3.517 -0.9163  1.1703  0.0902
   17SAPS   H7R 2177   2.981   4.169   3.443  2.0408 -0.7263  0.1820
   17SAPS   H7S 2178   3.009   4.082   3.594 -0.4138  2.3768 -0.0741
   17SAPS   C28 2179   2.821   4.165   3.589 -0.7299 -0.2229 -0.0075
   17SAPS   H8R 2180   2.750   4.220   3.527 -2.2664 -1.3167  0.7267
   17SAPS   C29 2181   2.791   4.152   3.720  0.1064 -0.5803 -0.9021
   17SAPS   H9R 2182   2.731   4.231   3.768  0.2785  0.0365 -1.6773
   17SAPS  C210 2183   2.871   4.073   3.819 -0.6931 -0.3818  0.5331
   17SAPS  H10R 2184   2.943   4.147   3.861  0.5492 -1.4911  0.4043
   17SAPS  H10S 2185   2.934   3.995   3.773 -0.5103  1.6492 -3.0659
   17SAPS  C211 2186   2.785   4.001   3.921  0.7838 -0.2315 -0.3337
   17SAPS  H11R 2187   2.726   3.923   3.870  0.3220  0.6748 -1.2216
   17SAPS  C212 2188   2.768   4.016   4.052 -0.2732 -1.0426  0.2024
   17SAPS  H12R 2189   2.705   3.948   4.111 -1.5407  0.0632  0.1574
   17SAPS  C213 2190   2.849   4.113   4.138  0.2083  0.6608 -0.5228
   17SAPS  H13R 2191   2.780   4.177   4.198 -0.7571 -0.2703 -0.6043
   17SAPS  H13S 2192   2.917   4.177   4.079  0.9667 -0.7472 -1.2278
   17SAPS  C214 2193   2.948   4.034   4.224 -0.2218  0.2788 -0.6870
   17SAPS  H14R 2194   3.013   3.956   4.182 -0.2160  0.6407 -1.3744
   17SAPS  C215 2195   2.955   4.060   4.356  0.2211  0.0799 -0.2754
   17SAPS  H15R 2196   3.034   4.007   4.413  1.8876  3.3465  0.7031
   17SAPS  C216 2197   2.870   4.165   4.433  0.1044 -0.0709 -0.0491
   17SAPS  H16R 2198   2.771   4.181   4.384  0.6451  0.5779 -0.9562
   17SAPS  H16S 2199   2.925   4.261   4.426 -1.6558  1.0113  0.2970
   17SAPS  C217 2200   2.840   4.147   4.580  0.2760 -0.2968  0.1789
   17SAPS  H17R 2201   2.777   4.216   4.640 -0.8726 -0.1863 -1.0976
   17SAPS  H17S 2202   2.942   4.144   4.624 -0.2090 -2.0071  1.2787
   17SAPS  C218 2203   2.776   4.007   4.616  0.3821  0.1062 -0.9628
   17SAPS  H18R 2204   2.848   3.925   4.598 -0.0744 -0.3900 -0.5629
   17SAPS  H18S 2205   2.686   4.003   4.551  0.8766 -0.9607 -1.6004
   17SAPS  C219 2206   2.721   4.002   4.764 -0.0373  0.2788 -0.3431
   17SAPS  H19R 2207   2.792   4.047   4.836  0.5767 -0.9847 -0.1336
   17SAPS  H19S 2208   2.723   3.895   4.791  2.9876  0.1479 -0.7166
   17SAPS  C220 2209   2.586   4.062   4.776  0.7321  0.0072  0.0697
   17SAPS  H20R 2210   2.544   4.039   4.876 -0.1220  2.7293  0.4036
   17SAPS  H20S 2211   2.515   4.030   4.697  0.5158  0.4690  0.0773
   17SAPS  H20T 2212   2.586   4.172   4.771  1.9977  0.0022 -0.4289
   17SAPS   C33 2213   2.445   4.472   3.526  0.4547 -0.1941  0.4535
   17SAPS   H3X 2214   2.405   4.368   3.523 -0.5193  0.1949 -2.1957
   17SAPS   H3Y 2215   2.355   4.536   3.513  1.3065  0.8371 -0.4637
   17SAPS   C34 2216   2.532   4.485   3.648  0.0958 -0.0786 -0.0933
   17SAPS   H4X 2217   2.582   4.582   3.632  0.5599 -0.4933 -1.2691
   17SAPS   H4Y 2218   2.611   4.407   3.652  0.0730 -0.1104 -0.2546
   17SAPS   C35 2219   2.445   4.490   3.773  1.0996 -0.0323  0.7040
   17SAPS   H5X 2220   2.398   4.390   3.787  2.0667 -0.3316  2.0472
   17SAPS   H5Y 2221   2.367   4.568   3.761  0.1387 -1.1409 -0.5233
   17SAPS   C36 2222   2.534   4.510   3.895 -0.4054 -0.4763 -0.3793
   17SAPS   H6X 2223   2.587   4.606   3.878  0.1806 -0.9233 -1.1617
   17SAPS   H6Y 2224   2.603   4.424   3.893 -2.7318 -2.4644  0.0343
   17SAPS   C37 2225   2.462   4.506   4.036  0.0776 -0.2729 -0.3625
   17SAPS   H7X 2226   2.408   4.409   4.032  0.7505 -0.6612 -0.2583
   17SAPS   H7Y 2227   2.386   4.586   4.041  1.2290  1.0064 -1.9655
   17SAPS   C38 2228   2.562   4.505   4.147 -0.4880 -0.0135  0.7012
   17SAPS   H8X 2229   2.617   4.601   4.157 -0.5446  0.3831 -2.0665
   17SAPS   H8Y 2230   2.626   4.415   4.137 -1.4923 -0.8194  1.3334
   17SAPS   C39 2231   2.499   4.495   4.282  0.1618 -0.3330 -0.1314
   17SAPS   H9X 2232   2.438   4.403   4.278  2.3082 -1.8367 -0.3249
   17SAPS   H9Y 2233   2.429   4.579   4.300  0.6924  0.1418 -0.2302
   17SAPS  C310 2234   2.603   4.503   4.387  0.6461 -0.0426  0.0402
   17SAPS  H10X 2235   2.662   4.594   4.362  0.5295  0.7638  2.4535
   17SAPS  H10Y 2236   2.669   4.414   4.395 -1.6495 -1.8478  0.0560
   17SAPS  C311 2237   2.542   4.522   4.534 -0.2842 -0.2226  0.0525
   17SAPS  H11X 2238   2.517   4.426   4.583 -1.4254 -0.0703 -0.2027
   17SAPS  H11Y 2239   2.452   4.587   4.542  0.3610  0.7860 -0.6599
   17SAPS  C312 2240   2.628   4.612   4.629 -0.6823 -0.2029 -0.3116
   17SAPS  H12X 2241   2.555   4.654   4.702 -0.6631 -0.6373 -0.0386
   17SAPS  H12Y 2242   2.689   4.693   4.585 -0.3210  0.7955  1.8833
   17SAPS  C313 2243   2.730   4.530   4.704  0.4412  0.9628 -0.7719
   17SAPS  H13X 2244   2.811   4.587   4.755 -0.0777 -0.0346  1.2638
   17SAPS  H13Y 2245   2.781   4.461   4.633  0.2936 -1.2471  1.1699
   17SAPS  C314 2246   2.670   4.422   4.804  0.1265 -0.2738 -0.1333
   17SAPS  H14X 2247   2.747   4.347   4.834 -0.7939 -1.0715  0.2953
   17SAPS  H14Y 2248   2.590   4.364   4.753 -0.8486  0.3727  0.6403
   17SAPS  C315 2249   2.612   4.478   4.930  0.3654 -0.4756  0.0146
   17SAPS  H15X 2250   2.519   4.537   4.915  0.5325 -0.5444 -1.4974
   17SAPS  H15Y 2251   2.693   4.546   4.966  1.2176 -1.6283  0.3343
   17SAPS  C316 2252   2.580   4.359   5.030 -0.0428  0.3064 -0.9345
   17SAPS  H16X 2253   2.668   4.291   5.036  0.8411  1.4159 -1.0487
   17SAPS  H16Y 2254   2.496   4.303   4.984 -0.0314 -0.4965 -0.0106
   17SAPS  C317 2255   2.555   4.400   5.182  0.2105  0.1400 -0.5540
   17SAPS  H17X 2256   2.651   4.438   5.223  0.2923 -1.7224  1.1105
   17SAPS  H17Y 2257   2.533   4.307   5.238  1.3256 -0.4265 -1.0250
   17SAPS  C318 2258   2.442   4.500   5.200  0.0714 -0.4997  0.5955
   17SAPS  H18X 2259   2.419   4.514   5.308  3.2364 -1.0052  1.4231
   17SAPS  H18Y 2260   2.351   4.461   5.150  1.2763 -1.1292 -1.2070
   17SAPS  H18Z 2261   2.458   4.598   5.149 -1.2097 -0.2951  0.5467
   18SAPS     N 2262   4.718   0.872   2.140  0.1732 -0.8621  0.4768
   18SAPS   HN1 2263   4.718   0.970   2.176 -1.9710 -0.7911  0.4069
   18SAPS   HN2 2264   4.638   0.873   2.074  0.1019 -0.3205  0.5651
   18SAPS   HN3 2265   4.696   0.804   2.216  2.4886 -2.0969  0.1329
   18SAPS   C12 2266   4.837   0.836   2.056  0.5743  0.6575 -0.0104
   18SAPS  H12A 2267   4.843   0.730   2.037  1.7924  0.7112 -0.0008
   18SAPS   C13 2268   4.839   0.896   1.915 -0.2233  0.1508 -0.1063
   18SAPS  O13A 2269   4.758   0.990   1.887 -0.1876  0.2806  0.0486
   18SAPS  O13B 2270   4.934   0.872   1.836 -0.1339 -0.1057 -0.1113
   18SAPS   C11 2271   4.962   0.857   2.145 -0.9374  0.7280  0.1657
   18SAPS  H11A 2272   4.970   0.965   2.168  1.7590  1.2188 -2.4932
   18SAPS  H11B 2273   5.053   0.824   2.091  0.3122 -0.1652  2.6744
   18SAPS     P 2274   5.015   0.802   2.397 -0.3202  0.2328 -0.1880
   18SAPS   O13 2275   4.904   0.809   2.498  0.1242 -0.4058 -0.0171
   18SAPS   O14 2276   5.118   0.699   2.437 -0.0546 -0.0939 -0.2665
   18SAPS   O12 2277   4.952   0.774   2.258  0.2943 -0.0951  0.0293
   18SAPS   O11 2278   5.088   0.944   2.377  0.4108  0.3292 -0.0120
   18SAPS    C1 2279   5.040   1.071   2.404  0.1557 -0.0595 -0.5190
   18SAPS    HA 2280   5.039   1.141   2.318 -0.4355  1.1904  0.4773
   18SAPS    HB 2281   4.936   1.068   2.446  1.3022 -0.1532  2.6049
   18SAPS    C2 2282   5.130   1.142   2.513  0.1367 -0.0171 -0.6417
   18SAPS    HS 2283   5.220   1.177   2.457  0.1572  1.9437  0.4969
   18SAPS   O21 2284   5.164   1.040   2.609  0.5319 -0.2939  0.2195
   18SAPS   C21 2285   5.263   1.067   2.688 -0.2284  0.4140  0.2220
   18SAPS   O22 2286   5.344   1.161   2.683 -0.2111  0.0407  0.0623
   18SAPS   C22 2287   5.259   0.964   2.801 -0.2411 -0.2536 -0.5645
   18SAPS   H2R 2288   5.161   0.912   2.800 -0.1485 -0.4565 -0.0203
   18SAPS   H2S 2289   5.337   0.889   2.774  1.5339  1.3458 -0.1196
   18SAPS    C3 2290   5.055   1.266   2.583 -0.1195 -0.2884 -0.1057
   18SAPS    HX 2291   4.960   1.290   2.529 -0.2939  2.0112  1.0731
   18SAPS    HY 2292   5.112   1.361   2.577  0.5175 -0.6372  0.3395
   18SAPS   O31 2293   5.027   1.252   2.723 -0.2023  0.1458  0.3951
   18SAPS   C31 2294   4.933   1.163   2.754 -0.0790  0.2270  0.3060
   18SAPS   O32 2295   4.866   1.107   2.668 -0.0721  0.0669 -0.2726
   18SAPS   C32 2296   4.911   1.149   2.904  0.1056  0.1544  0.4915
   18SAPS   H2X 2297   4.955   1.051   2.932  0.8219  0.6206  1.0462
   18SAPS   H2Y 2298   4.802   1.143   2.923  0.0117  2.0110  0.6997
   18SAPS   C23 2299   5.295   1.011   2.944 -0.3549  1.0171 -0.1954
   18SAPS   H3R 2300   5.222   1.082   2.990 -2.1780 -1.4448  0.9240
   18SAPS   H3S 2301   5.395   1.059   2.937  0.5666 -0.7546  0.3243
   18SAPS   C24 2302   5.300   0.895   3.042  0.5630 -0.3860 -0.3334
   18SAPS   H4R 2303   5.330   0.912   3.148  2.0775 -2.0256 -0.4533
   18SAPS   H4S 2304   5.384   0.837   2.999  1.8389 -0.2604  1.8389
   18SAPS   C25 2305   5.170   0.817   3.030 -0.2527 -0.8145 -1.0801
   18SAPS   H5R 2306   5.167   0.757   2.938  2.2749  1.7767 -3.0371
   18SAPS   C26 2307   5.078   0.812   3.129 -0.7799 -0.6690  1.1247
   18SAPS   H6R 2308   4.982   0.761   3.115 -1.4123  0.2712  1.9972
   18SAPS   C27 2309   5.093   0.889   3.255 -0.0979 -0.3261 -0.2875
   18SAPS   H7R 2310   4.989   0.913   3.285  0.8744  2.0571  1.5210
   18SAPS   H7S 2311   5.146   0.986   3.252  0.1915 -0.3697  1.8504
   18SAPS   C28 2312   5.148   0.807   3.366 -0.2834  0.1596 -0.0898
   18SAPS   H8R 2313   5.214   0.724   3.338 -1.1711 -1.1450  1.4743
   18SAPS   C29 2314   5.131   0.805   3.498 -0.0722 -0.0873  0.0852
   18SAPS   H9R 2315   5.173   0.722   3.558  0.3233 -0.7079 -1.0152
   18SAPS  C210 2316   5.036   0.889   3.587 -0.9491 -0.4308  0.3669
   18SAPS  H10R 2317   5.002   0.824   3.671 -0.1362 -1.2882  0.0493
   18SAPS  H10S 2318   4.950   0.927   3.528 -0.4939 -0.9825 -0.6850
   18SAPS  C211 2319   5.117   1.001   3.652 -0.2438  0.8464  0.9041
   18SAPS  H11R 2320   5.188   1.046   3.582 -0.6167 -0.5655 -0.4358
   18SAPS  C212 2321   5.095   1.064   3.767 -0.8619  0.3965 -0.3796
   18SAPS  H12R 2322   5.154   1.153   3.797 -0.1788  0.3306 -1.4646
   18SAPS  C213 2323   4.992   1.027   3.870  0.6989  0.3957 -0.0985
   18SAPS  H13R 2324   4.942   0.930   3.850  0.7531  0.6188 -1.4266
   18SAPS  H13S 2325   4.909   1.098   3.852 -2.2817 -2.9371 -0.5793
   18SAPS  C214 2326   5.050   1.046   4.010 -0.1188  0.2775  0.2258
   18SAPS  H14R 2327   5.116   0.964   4.043 -0.5947  0.2046  1.0169
   18SAPS  C215 2328   5.014   1.136   4.105 -0.3575  0.5006 -0.0260
   18SAPS  H15R 2329   5.059   1.122   4.205  0.5368 -0.5265 -0.5537
   18SAPS  C216 2330   4.910   1.250   4.084 -0.2246  0.2457  0.9060
   18SAPS  H16R 2331   4.809   1.207   4.100 -1.2018  2.3174  0.6448
   18SAPS  H16S 2332   4.920   1.305   3.987  1.8381 -0.6490  0.5547
   18SAPS  C217 2333   4.925   1.356   4.200  1.1391  0.3714  0.8718
   18SAPS  H17R 2334   5.027   1.394   4.177  1.1293 -1.3402 -2.6678
   18SAPS  H17S 2335   4.930   1.304   4.298 -0.5655 -3.0552 -0.6964
   18SAPS  C218 2336   4.820   1.466   4.194  0.1347 -0.4503  0.4053
   18SAPS  H18R 2337   4.721   1.415   4.191  1.0962 -2.4024 -0.3894
   18SAPS  H18S 2338   4.840   1.517   4.098  1.6370 -1.2825  0.2447
   18SAPS  C219 2339   4.835   1.564   4.312  0.0867  0.1421 -0.4216
   18SAPS  H19R 2340   4.936   1.603   4.287 -0.0228 -0.0127 -1.1500
   18SAPS  H19S 2341   4.842   1.503   4.405 -0.0631 -1.2660 -1.2961
   18SAPS  C220 2342   4.719   1.667   4.324  0.3818 -0.1190  0.3258
   18SAPS  H20R 2343   4.619   1.622   4.342 -0.3882  0.1363 -2.7335
   18SAPS  H20S 2344   4.713   1.738   4.239 -1.4917 -0.0708  0.4726
   18SAPS  H20T 2345   4.736   1.722   4.419  1.1804 -0.3932  0.3570
   18SAPS   C33 2346   4.969   1.264   2.996  0.2497 -0.1774  0.1356
   18SAPS   H3X 2347   4.892   1.345   2.992  1.3585  0.9088  0.3105
   18SAPS   H3Y 2348   5.067   1.302   2.961 -0.0996  1.5443  0.8985
   18SAPS   C34 2349   4.983   1.216   3.139  0.8891  0.5807  0.1513
   18SAPS   H4X 2350   5.042   1.123   3.131  0.9342  0.2878  3.0074
   18SAPS   H4Y 2351   4.887   1.193   3.190  1.8795  0.8926  2.2448
   18SAPS   C35 2352   5.042   1.314   3.235 -0.1949  0.3355  0.1781
   18SAPS   H5X 2353   4.966   1.393   3.253  0.1630  0.2069  2.5389
   18SAPS   H5Y 2354   5.137   1.358   3.200  0.6607 -1.2638  0.3803
   18SAPS   C36 2355   5.059   1.247   3.377 -0.0815 -0.8502  0.8770
   18SAPS   H6X 2356   5.154   1.188   3.373  0.7663  0.5470 -1.0725
   18SAPS   H6Y 2357   4.968   1.189   3.401 -0.8681  0.5459  1.3563
   18SAPS   C37 2358   5.083   1.345   3.489 -0.3525  0.1516 -0.2644
   18SAPS   H7X 2359   5.127   1.439   3.450 -0.8690  0.4384 -0.1566
   18SAPS   H7Y 2360   5.154   1.297   3.561 -1.4896 -0.4458  0.4947
   18SAPS   C38 2361   4.958   1.387   3.572  0.0661 -0.3569 -0.3881
   18SAPS   H8X 2362   4.914   1.313   3.642 -0.4861 -0.9138 -1.3004
   18SAPS   H8Y 2363   4.877   1.415   3.502 -1.6022 -2.0122  0.7542
   18SAPS   C39 2364   4.988   1.508   3.664  0.0957 -0.2577  0.5687
   18SAPS   H9X 2365   4.892   1.544   3.707  1.0224  0.3704  2.2162
   18SAPS   H9Y 2366   5.029   1.588   3.599  0.5913 -1.7691 -1.0365
   18SAPS  C310 2367   5.083   1.483   3.781 -0.9867 -0.2535 -0.2124
   18SAPS  H10X 2368   5.188   1.509   3.759 -0.8371  0.2516  0.9984
   18SAPS  H10Y 2369   5.072   1.376   3.807  0.9353 -1.1804 -2.7977
   18SAPS  C311 2370   5.038   1.559   3.912  0.0202  0.0635 -0.2219
   18SAPS  H11X 2371   5.108   1.530   3.994  0.2057 -1.1313 -0.7927
   18SAPS  H11Y 2372   4.935   1.521   3.928  1.0024 -1.6030  3.2778
   18SAPS  C312 2373   5.059   1.715   3.913  0.2172  0.0224 -0.0543
   18SAPS  H12X 2374   5.029   1.760   3.816 -1.1405 -0.9419 -0.1051
   18SAPS  H12Y 2375   5.167   1.739   3.925  0.0867  0.6030 -0.0285
   18SAPS  C313 2376   4.965   1.775   4.023  0.8246 -0.1948  0.1712
   18SAPS  H13X 2377   4.997   1.737   4.122  1.3330 -1.1581 -0.3456
   18SAPS  H13Y 2378   4.857   1.751   4.011  0.4220  1.2170  0.7659
   18SAPS  C314 2379   4.977   1.928   4.023 -0.5389 -0.3429  0.0878
   18SAPS  H14X 2380   4.946   1.970   3.925 -0.2455  0.7077  0.4309
   18SAPS  H14Y 2381   5.082   1.953   4.052 -0.8843  0.4819  0.6430
   18SAPS  C315 2382   4.870   1.975   4.120 -0.0011  0.1846 -0.5043
   18SAPS  H15X 2383   4.875   1.926   4.220 -1.7075 -1.1493 -1.0110
   18SAPS  H15Y 2384   4.774   1.951   4.068 -1.6367  0.8574  1.9943
   18SAPS  C316 2385   4.881   2.127   4.137  0.0239  0.9798  0.3700
   18SAPS  H16X 2386   4.980   2.157   4.176  0.6485  1.0847 -1.2184
   18SAPS  H16Y 2387   4.821   2.165   4.222 -0.1230  0.0340  0.7062
   18SAPS  C317 2388   4.868   2.194   3.999 -0.4227  0.4690 -0.1279
   18SAPS  H17X 2389   4.788   2.154   3.932  0.0151  1.0023 -0.9881
   18SAPS  H17Y 2390   4.966   2.175   3.951 -1.0219  0.2388 -1.3079
   18SAPS  C318 2391   4.851   2.346   4.005  0.1531  0.1244 -0.4538
   18SAPS  H18X 2392   4.766   2.356   4.075 -2.2089 -1.8293 -2.8150
   18SAPS  H18Y 2393   4.827   2.398   3.909 -1.9398 -1.5921 -0.9301
   18SAPS  H18Z 2394   4.937   2.397   4.054  1.2983 -4.5961  3.1319
   19SAPS     N 2395   5.000   0.381   2.536 -0.0063  0.6124  0.3952
   19SAPS   HN1 2396   5.073   0.365   2.608  0.9328  0.4890 -0.5648
   19SAPS   HN2 2397   4.947   0.464   2.573 -0.6600 -0.1044  1.1076
   19SAPS   HN3 2398   4.930   0.305   2.530 -0.0504  0.4989  1.8951
   19SAPS   C12 2399   5.058   0.396   2.406 -0.2237  0.3182 -0.1718
   19SAPS  H12A 2400   5.142   0.462   2.420  0.5232 -0.0130 -2.7013
   19SAPS   C13 2401   5.139   0.275   2.353 -0.3591  0.0783  0.8695
   19SAPS  O13A 2402   5.171   0.179   2.428 -1.0022 -0.1223 -0.0585
   19SAPS  O13B 2403   5.181   0.274   2.233 -0.0960 -0.1258 -0.2504
   19SAPS   C11 2404   4.961   0.444   2.302  0.0040  0.0212  0.1737
   19SAPS  H11A 2405   5.013   0.485   2.213  0.7094 -0.2572  0.4567
   19SAPS  H11B 2406   4.898   0.522   2.349 -0.8451 -0.2791 -0.4122
   19SAPS     P 2407   4.723   0.314   2.325 -0.0463 -0.5736  0.0310
   19SAPS   O13 2408   4.646   0.441   2.332 -0.3211 -0.4511  0.3506
   19SAPS   O14 2409   4.660   0.201   2.251 -0.0403 -0.6852 -0.1442
   19SAPS   O12 2410   4.871   0.337   2.264  0.6104 -0.2947 -0.7424
   19SAPS   O11 2411   4.774   0.264   2.470 -0.3533  0.3922  0.1134
   19SAPS    C1 2412   4.695   0.171   2.543 -0.2329 -0.9825 -0.4170
   19SAPS    HA 2413   4.597   0.219   2.565 -0.7684 -2.3099  0.2314
   19SAPS    HB 2414   4.681   0.079   2.483 -1.4663  0.1176 -1.8929
   19SAPS    C2 2415   4.767   0.137   2.676  0.5694 -0.2517  0.1771
   19SAPS    HS 2416   4.703   0.083   2.748  0.3913  1.7683  1.6092
   19SAPS   O21 2417   4.821   0.258   2.744  0.0093 -0.0819  0.2213
   19SAPS   C21 2418   4.733   0.339   2.804 -1.1126  0.4841 -0.0268
   19SAPS   O22 2419   4.614   0.328   2.800  0.1153  0.0360  0.6805
   19SAPS   C22 2420   4.806   0.437   2.896  0.0454 -0.5596 -0.7450
   19SAPS   H2R 2421   4.907   0.460   2.857  0.2086  0.2614  0.1145
   19SAPS   H2S 2422   4.738   0.525   2.886 -1.0659 -1.2177  0.6156
   19SAPS    C3 2423   4.894   0.052   2.634  0.1446  0.4759 -0.2417
   19SAPS    HX 2424   4.963   0.105   2.565 -0.5472 -0.2150 -1.5057
   19SAPS    HY 2425   4.854  -0.030   2.571 -3.4922 -1.4087  3.9920
   19SAPS   O31 2426   4.975   0.006   2.744 -0.0146  0.9328  0.3580
   19SAPS   C31 2427   4.937  -0.114   2.797 -0.9444  0.3890  0.3812
   19SAPS   O32 2428   4.834  -0.168   2.775  0.4221  0.0938  0.6666
   19SAPS   C32 2429   5.042  -0.170   2.887  0.8003  0.4785  0.1797
   19SAPS   H2X 2430   5.138  -0.167   2.831  1.0393  1.0054  0.6055
   19SAPS   H2Y 2431   5.020  -0.275   2.915  2.0655 -0.7859 -3.0152
   19SAPS   C23 2432   4.807   0.388   3.042 -0.4082 -0.0713 -0.0144
   19SAPS   H3R 2433   4.706   0.355   3.074  0.0782 -0.9547  0.6809
   19SAPS   H3S 2434   4.824   0.470   3.114  0.7883  0.1569 -0.5265
   19SAPS   C24 2435   4.908   0.280   3.075  0.0598 -0.8385 -0.3135
   19SAPS   H4R 2436   4.888   0.185   3.020  0.1917 -0.7721 -0.4785
   19SAPS   H4S 2437   4.907   0.249   3.181  0.2563 -2.4285 -0.7438
   19SAPS   C25 2438   5.050   0.330   3.043  0.2680 -0.2614  0.4499
   19SAPS   H5R 2439   5.061   0.336   2.934 -2.0966  0.5185  0.1934
   19SAPS   C26 2440   5.138   0.373   3.133  0.1135 -0.6177 -0.3019
   19SAPS   H6R 2441   5.236   0.402   3.091 -0.7867  0.0955 -2.0028
   19SAPS   C27 2442   5.116   0.377   3.283 -0.6574  0.1081  0.1686
   19SAPS   H7R 2443   5.214   0.389   3.334 -0.4198 -2.5580  0.4608
   19SAPS   H7S 2444   5.076   0.279   3.316  2.1329 -0.8858  0.8378
   19SAPS   C28 2445   5.021   0.479   3.338  0.3475  0.6493 -0.0619
   19SAPS   H8R 2446   4.995   0.555   3.262 -1.2493  1.0904  0.8730
   19SAPS   C29 2447   4.969   0.492   3.458  0.4506 -0.1676  0.0488
   19SAPS   H9R 2448   4.914   0.584   3.484 -1.3664 -1.3628  0.5725
   19SAPS  C210 2449   4.996   0.402   3.577 -0.9817 -0.1241 -0.4025
   19SAPS  H10R 2450   4.961   0.298   3.558 -1.2271 -0.5420  1.9876
   19SAPS  H10S 2451   4.932   0.430   3.664  2.1607  2.4271  1.3108
   19SAPS  C211 2452   5.138   0.409   3.635 -0.4676  0.7216  0.7283
   19SAPS  H11R 2453   5.217   0.407   3.558 -0.3918  0.2899  0.8119
   19SAPS  C212 2454   5.179   0.409   3.759 -0.3849  1.0638 -0.4762
   19SAPS  H12R 2455   5.285   0.422   3.786 -0.9880  3.6392  0.9850
   19SAPS  C213 2456   5.079   0.394   3.872  0.4593  0.6593  0.8853
   19SAPS  H13R 2457   5.132   0.342   3.955  0.0516 -0.9980  0.1627
   19SAPS  H13S 2458   5.003   0.320   3.837  2.1345 -0.7452  0.0497
   19SAPS  C214 2459   5.019   0.529   3.922  0.2779 -0.2084 -0.3958
   19SAPS  H14R 2460   4.934   0.558   3.858  0.3840 -0.8850 -0.8548
   19SAPS  C215 2461   5.053   0.595   4.031 -0.2660 -0.0657 -0.3739
   19SAPS  H15R 2462   5.004   0.690   4.057 -3.3155 -1.4519 -0.6618
   19SAPS  C216 2463   5.151   0.544   4.128  0.0077 -0.4809 -0.2937
   19SAPS  H16R 2464   5.244   0.585   4.082 -0.0063  0.2804  0.3249
   19SAPS  H16S 2465   5.136   0.434   4.135  0.7610 -0.5704  0.0375
   19SAPS  C217 2466   5.129   0.610   4.261 -0.0561  0.2909  0.2716
   19SAPS  H17R 2467   5.021   0.611   4.287  0.3460  0.5272  2.0344
   19SAPS  H17S 2468   5.162   0.716   4.259  0.1242  0.2800  1.6545
   19SAPS  C218 2469   5.216   0.538   4.368 -0.1260 -0.1405 -0.4426
   19SAPS  H18R 2470   5.321   0.540   4.332  0.0376 -0.1199  0.0253
   19SAPS  H18S 2471   5.171   0.436   4.372 -2.0568  0.5876 -1.8259
   19SAPS  C219 2472   5.207   0.592   4.511  0.5419 -0.1915  0.2204
   19SAPS  H19R 2473   5.212   0.703   4.512  0.4578 -0.1918  0.8216
   19SAPS  H19S 2474   5.296   0.552   4.565 -0.1084 -1.9842  0.0202
   19SAPS  C220 2475   5.075   0.552   4.594 -0.3747 -0.1011 -0.2030
   19SAPS  H20R 2476   4.984   0.601   4.554 -0.1246 -0.0482 -0.7126
   19SAPS  H20S 2477   5.089   0.588   4.698 -0.1155 -1.8616  0.4120
   19SAPS  H20T 2478   5.067   0.441   4.601  2.3812 -0.3973 -0.5899
   19SAPS   C33 2479   5.050  -0.078   3.013  0.1084 -0.1130 -1.0601
   19SAPS   H3X 2480   4.949  -0.034   3.026  0.2635  0.1343 -0.6888
   19SAPS   H3Y 2481   5.115   0.010   2.990 -1.9731  1.6605 -0.4773
   19SAPS   C34 2482   5.107  -0.138   3.146  0.1313 -0.5583 -0.2598
   19SAPS   H4X 2483   5.211  -0.165   3.116  0.4241  0.6128 -0.3322
   19SAPS   H4Y 2484   5.048  -0.226   3.179  0.0450 -0.3754  0.0772
   19SAPS   C35 2485   5.103  -0.039   3.275  0.4520  0.3863  0.0443
   19SAPS   H5X 2486   4.999  -0.009   3.296  0.0401  0.1763 -1.5573
   19SAPS   H5Y 2487   5.169   0.049   3.256  0.4762  0.8492  2.0344
   19SAPS   C36 2488   5.154  -0.106   3.403  0.2043 -0.1599  0.2229
   19SAPS   H6X 2489   5.251  -0.157   3.386  1.2060  1.2200  1.5128
   19SAPS   H6Y 2490   5.086  -0.186   3.438 -1.0900  1.8389  2.5628
   19SAPS   C37 2491   5.170  -0.014   3.527  0.6054 -0.3195  1.2268
   19SAPS   H7X 2492   5.076   0.044   3.540 -0.4863 -1.5447 -0.6146
   19SAPS   H7Y 2493   5.250   0.061   3.512 -1.3389  1.7455  0.4201
   19SAPS   C38 2494   5.178  -0.088   3.661 -0.5877 -0.0916  0.2234
   19SAPS   H8X 2495   5.260  -0.163   3.665  1.4573  2.1117  2.5276
   19SAPS   H8Y 2496   5.087  -0.142   3.694  1.0397 -1.7693  2.2805
   19SAPS   C39 2497   5.219   0.009   3.772  0.9877 -0.2323 -0.0716
   19SAPS   H9X 2498   5.147   0.093   3.780  0.2181 -0.9430  0.8561
   19SAPS   H9Y 2499   5.319   0.043   3.739  0.7572 -0.0396 -0.5743
   19SAPS  C310 2500   5.234  -0.055   3.913  0.5484  0.2390  0.5268
   19SAPS  H10X 2501   5.336  -0.099   3.911  0.1391 -1.2144  4.1189
   19SAPS  H10Y 2502   5.161  -0.138   3.926  1.1242 -0.1395  1.4756
   19SAPS  C311 2503   5.220   0.043   4.036 -0.4286 -0.5926 -0.2577
   19SAPS  H11X 2504   5.118   0.086   4.032 -0.3430 -0.1967  1.1879
   19SAPS  H11Y 2505   5.295   0.124   4.022 -1.8108  0.7262 -0.2734
   19SAPS  C312 2506   5.221  -0.028   4.172  0.4307 -0.3043 -0.9340
   19SAPS  H12X 2507   5.317  -0.082   4.186  1.7785  1.9855 -0.6904
   19SAPS  H12Y 2508   5.142  -0.103   4.156  0.5640 -0.3347 -1.4764
   19SAPS  C313 2509   5.191   0.069   4.295  0.1057 -0.4178  0.8868
   19SAPS  H13X 2510   5.085   0.101   4.289  0.6116  1.0874 -1.2635
   19SAPS  H13Y 2511   5.249   0.164   4.291 -0.2063 -0.2460  0.4270
   19SAPS  C314 2512   5.202   0.004   4.438  0.2273  0.2084  0.6827
   19SAPS  H14X 2513   5.302   0.037   4.474  0.4697 -1.0244  1.2115
   19SAPS  H14Y 2514   5.204  -0.107   4.436 -1.8132  0.1388  0.3993
   19SAPS  C315 2515   5.089   0.040   4.529 -0.0170  0.2460  0.0096
   19SAPS  H15X 2516   4.998  -0.012   4.491 -0.1264 -0.2395  0.9010
   19SAPS  H15Y 2517   5.071   0.149   4.520  2.4168  0.6358 -0.7570
   19SAPS  C316 2518   5.115   0.006   4.670 -0.2925  0.0274 -0.3190
   19SAPS  H16X 2519   5.225   0.016   4.685  0.1223  0.2153 -2.9343
   19SAPS  H16Y 2520   5.083  -0.099   4.690 -0.3290  0.3217  1.2963
   19SAPS  C317 2521   5.035   0.094   4.778  0.9749 -0.3882  0.2987
   19SAPS  H17X 2522   4.928   0.076   4.755  1.0914  1.4452 -2.0600
   19SAPS  H17Y 2523   5.051   0.198   4.742 -0.2387 -0.6644 -1.1481
   19SAPS  C318 2524   5.081   0.087   4.924  0.0088 -0.1628  0.6131
   19SAPS  H18X 2525   5.170   0.148   4.949 -0.3969  0.3847  0.7519
   19SAPS  H18Y 2526   5.105  -0.017   4.954  1.2716  0.2987  1.2817
   19SAPS  H18Z 2527   4.996   0.126   4.985 -0.8771 -1.8851  0.5482
   20SAPS     N 2528   6.273   1.652   2.006  0.0915  0.0156 -0.1928
   20SAPS   HN1 2529   6.264   1.725   1.932  1.9025  0.8260  0.3279
   20SAPS   HN2 2530   6.239   1.703   2.090  1.5025  0.4218  0.1690
   20SAPS   HN3 2531   6.372   1.624   2.024 -0.4293 -1.0438  1.1725
   20SAPS   C12 2532   6.184   1.531   1.984  1.2213 -0.0854  0.7351
   20SAPS  H12A 2533   6.099   1.574   1.933  0.8657 -1.0475  0.5069
   20SAPS   C13 2534   6.230   1.424   1.882 -0.2404  0.5602  0.1460
   20SAPS  O13A 2535   6.347   1.433   1.840  0.1118 -0.1300 -0.1263
   20SAPS  O13B 2536   6.151   1.326   1.858 -0.4737  0.2957 -0.2874
   20SAPS   C11 2537   6.131   1.478   2.123 -0.8310  0.2282  0.4058
   20SAPS  H11A 2538   6.215   1.500   2.193 -0.6275 -0.9689  0.5624
   20SAPS  H11B 2539   6.125   1.367   2.123 -2.3476  0.2907  1.2148
   20SAPS     P 2540   5.997   1.654   2.253 -0.2681  0.0563 -0.0260
   20SAPS   O13 2541   6.106   1.749   2.201  0.1277  0.3615  0.2171
   20SAPS   O14 2542   5.859   1.707   2.252  0.1971 -0.3124 -0.5359
   20SAPS   O12 2543   6.006   1.521   2.166 -0.3698 -0.6076  0.3718
   20SAPS   O11 2544   6.033   1.604   2.401 -0.0853 -0.2122  0.3497
   20SAPS    C1 2545   5.989   1.471   2.445 -0.3064 -0.8938  1.1182
   20SAPS    HA 2546   5.909   1.430   2.381  0.6997 -0.5694 -0.4056
   20SAPS    HB 2547   6.075   1.401   2.436  0.2069 -0.3728  1.7652
   20SAPS    C2 2548   5.946   1.473   2.593 -0.1528 -0.5775 -0.0272
   20SAPS    HS 2549   5.912   1.370   2.616  0.6408 -0.9917 -0.6342
   20SAPS   O21 2550   5.845   1.575   2.618  0.5583 -0.0374 -0.5828
   20SAPS   C21 2551   5.724   1.543   2.557 -0.7316  0.2428 -0.1530
   20SAPS   O22 2552   5.696   1.435   2.510 -0.3835 -0.1527  0.2755
   20SAPS   C22 2553   5.625   1.654   2.582  0.6227 -0.0492  0.1206
   20SAPS   H2R 2554   5.685   1.743   2.611  1.8826 -0.4199 -1.1971
   20SAPS   H2S 2555   5.578   1.677   2.484  0.5514  2.4432  0.6972
   20SAPS    C3 2556   6.066   1.505   2.680  0.1397 -0.5767 -0.4827
   20SAPS    HX 2557   6.119   1.602   2.666 -2.5798  0.9310 -1.0562
   20SAPS    HY 2558   6.148   1.433   2.656 -0.0675 -0.9046 -0.2196
   20SAPS   O31 2559   6.027   1.485   2.818  0.5976 -0.1862 -0.4476
   20SAPS   C31 2560   6.012   1.596   2.894  0.0586 -0.0435  0.5825
   20SAPS   O32 2561   6.017   1.710   2.854 -0.3698  0.6730  0.5621
   20SAPS   C32 2562   5.997   1.555   3.039 -0.9747  0.1534  0.8395
   20SAPS   H2X 2563   6.087   1.508   3.085 -0.0811 -0.3128 -1.2946
   20SAPS   H2Y 2564   5.927   1.469   3.039 -1.0994  0.2387  1.9756
   20SAPS   C23 2565   5.533   1.600   2.701 -0.4152 -0.0921 -0.5140
   20SAPS   H3R 2566   5.489   1.693   2.743 -0.4002  0.7000 -2.1418
   20SAPS   H3S 2567   5.588   1.546   2.780 -2.0198 -1.3190 -0.1822
   20SAPS   C24 2568   5.416   1.510   2.652 -1.0061 -0.1409  0.4258
   20SAPS   H4R 2569   5.371   1.452   2.735  0.0182 -0.3675  0.8305
   20SAPS   H4S 2570   5.467   1.431   2.593  0.9350  0.2303  1.5277
   20SAPS   C25 2571   5.311   1.589   2.571  0.0124 -0.0947 -0.0606
   20SAPS   H5R 2572   5.335   1.583   2.463  1.2054  0.5518  0.1505
   20SAPS   C26 2573   5.200   1.650   2.612 -0.9590 -0.6379 -0.3577
   20SAPS   H6R 2574   5.134   1.693   2.535  2.4941  0.2165 -3.1071
   20SAPS   C27 2575   5.159   1.676   2.752 -0.1343 -0.2259 -0.5900
   20SAPS   H7R 2576   5.197   1.775   2.785 -0.8248 -0.6289  1.5889
   20SAPS   H7S 2577   5.216   1.611   2.822 -0.8818 -3.1350 -2.4812
   20SAPS   C28 2578   5.012   1.648   2.766 -0.2380 -0.1583  0.2585
   20SAPS   H8R 2579   4.992   1.543   2.743  1.4386 -0.2961 -0.7319
   20SAPS   C29 2580   4.906   1.728   2.806 -0.4403  0.1834 -0.7753
   20SAPS   H9R 2581   4.811   1.676   2.825  0.5045 -0.8860  1.3026
   20SAPS  C210 2582   4.917   1.868   2.846  0.0293 -1.1010 -0.2857
   20SAPS  H10R 2583   4.812   1.903   2.864  0.3630 -0.4471  0.4830
   20SAPS  H10S 2584   4.942   1.939   2.764  0.1862 -0.9221 -0.0843
   20SAPS  C211 2585   4.997   1.899   2.977 -0.0670  0.1145  0.0668
   20SAPS  H11R 2586   5.105   1.916   2.965  0.0272  1.2099  2.0699
   20SAPS  C212 2587   4.944   1.886   3.103 -0.3527 -0.4781 -0.0183
   20SAPS  H12R 2588   5.009   1.909   3.189 -0.5446 -0.7577  0.2034
   20SAPS  C213 2589   4.796   1.850   3.143  0.0573  0.1291  1.0552
   20SAPS  H13R 2590   4.740   1.808   3.057 -0.3698 -0.8112  1.7699
   20SAPS  H13S 2591   4.749   1.943   3.182 -2.5510 -0.4102 -0.6124
   20SAPS  C214 2592   4.801   1.748   3.259 -0.3804 -0.1636 -0.0500
   20SAPS  H14R 2593   4.790   1.645   3.222 -3.9445  0.2009 -0.3621
   20SAPS  C215 2594   4.797   1.776   3.395 -0.6980 -0.2133  0.6598
   20SAPS  H15R 2595   4.796   1.692   3.467  0.9841  0.2029  1.2222
   20SAPS  C216 2596   4.799   1.911   3.462 -0.2916 -0.4442  0.5212
   20SAPS  H16R 2597   4.713   1.980   3.448 -0.2719 -0.4051  0.5894
   20SAPS  H16S 2598   4.886   1.977   3.439  0.0457 -0.5157  1.5072
   20SAPS  C217 2599   4.787   1.887   3.618 -0.4037  0.3536  1.2324
   20SAPS  H17R 2600   4.781   1.982   3.674 -0.4306  0.5924  0.8280
   20SAPS  H17S 2601   4.868   1.819   3.654 -1.1274  0.1572  2.5300
   20SAPS  C218 2602   4.659   1.805   3.646  0.1164 -0.4824 -0.1514
   20SAPS  H18R 2603   4.674   1.697   3.624  1.6052 -0.2420 -0.3915
   20SAPS  H18S 2604   4.566   1.849   3.603  0.2840 -0.8817 -0.9287
   20SAPS  C219 2605   4.622   1.817   3.797  0.3549 -0.5098 -0.1408
   20SAPS  H19R 2606   4.601   1.923   3.821 -1.1926 -1.1406  1.5718
   20SAPS  H19S 2607   4.710   1.783   3.857 -0.8044 -0.3754  1.7039
   20SAPS  C220 2608   4.508   1.733   3.842  0.6059  0.4406  0.2465
   20SAPS  H20R 2609   4.461   1.773   3.935  2.4646  3.1751  0.1194
   20SAPS  H20S 2610   4.544   1.630   3.864  1.1016  0.1915 -1.5459
   20SAPS  H20T 2611   4.437   1.728   3.756  2.1709 -0.7945 -1.0320
   20SAPS   C33 2612   5.944   1.667   3.125  0.4112  0.1007 -0.2953
   20SAPS   H3X 2613   5.841   1.682   3.085  0.2568 -0.0454  0.0495
   20SAPS   H3Y 2614   6.005   1.759   3.109  0.0477  0.0915 -1.8837
   20SAPS   C34 2615   5.926   1.633   3.268 -0.5934  0.6663  0.0857
   20SAPS   H4X 2616   6.027   1.647   3.313 -1.1882  0.9934  1.3658
   20SAPS   H4Y 2617   5.893   1.530   3.289 -2.7473  1.5993  1.6944
   20SAPS   C35 2618   5.821   1.721   3.342 -0.2393  0.5254 -0.7479
   20SAPS   H5X 2619   5.716   1.712   3.306 -0.4725  1.7437 -0.4128
   20SAPS   H5Y 2620   5.846   1.828   3.327 -0.4998  0.7682  0.4945
   20SAPS   C36 2621   5.850   1.694   3.496  0.0729 -0.0971 -0.3653
   20SAPS   H6X 2622   5.946   1.735   3.533 -1.9212  4.0926  0.8580
   20SAPS   H6Y 2623   5.858   1.585   3.516  4.6556  0.2099  0.4472
   20SAPS   C37 2624   5.741   1.753   3.586  0.0756 -0.2086  0.1697
   20SAPS   H7X 2625   5.638   1.740   3.544  0.0201  2.1893 -0.5866
   20SAPS   H7Y 2626   5.757   1.863   3.585  1.7604 -0.4340 -0.9445
   20SAPS   C38 2627   5.737   1.695   3.727 -0.6288 -0.6061 -0.2353
   20SAPS   H8X 2628   5.833   1.725   3.774 -1.1023 -0.8472  0.8934
   20SAPS   H8Y 2629   5.738   1.585   3.732  3.3805 -0.6322  1.8945
   20SAPS   C39 2630   5.622   1.756   3.813  0.1568 -0.2889  0.3204
   20SAPS   H9X 2631   5.529   1.726   3.759 -0.0831  1.1002 -0.0729
   20SAPS   H9Y 2632   5.643   1.865   3.805  2.4381 -0.6605  0.6169
   20SAPS  C310 2633   5.627   1.694   3.955  0.2627 -0.0463  0.2743
   20SAPS  H10X 2634   5.720   1.726   4.007 -0.3956  1.6626  0.4562
   20SAPS  H10Y 2635   5.629   1.585   3.936  0.3369  0.0861 -0.5000
   20SAPS  C311 2636   5.503   1.738   4.035  0.0775  0.0128 -0.0091
   20SAPS  H11X 2637   5.416   1.720   3.968  0.5463  0.4274 -0.7472
   20SAPS  H11Y 2638   5.509   1.847   4.054 -0.6624  0.5145 -2.2389
   20SAPS  C312 2639   5.477   1.656   4.160 -0.3262 -0.3607  0.3332
   20SAPS  H12X 2640   5.497   1.551   4.129 -0.6749 -0.1078 -0.7882
   20SAPS  H12Y 2641   5.372   1.663   4.196 -0.4217  0.7880 -0.1272
   20SAPS  C313 2642   5.573   1.687   4.283  0.1091 -0.0226  0.9992
   20SAPS  H13X 2643   5.669   1.729   4.245 -1.0259  1.0213 -0.8454
   20SAPS  H13Y 2644   5.596   1.590   4.332 -2.1545 -1.2735 -0.2408
   20SAPS  C314 2645   5.516   1.789   4.381  0.5866 -0.2383 -0.5038
   20SAPS  H14X 2646   5.436   1.745   4.444  0.9039 -0.6857 -0.4151
   20SAPS  H14Y 2647   5.474   1.868   4.314  2.3583  1.7357  0.5962
   20SAPS  C315 2648   5.616   1.856   4.474  0.0553  0.3641 -0.7077
   20SAPS  H15X 2649   5.676   1.929   4.416  0.7868  1.2352  1.0642
   20SAPS  H15Y 2650   5.686   1.775   4.505  0.2857 -0.0190 -2.1744
   20SAPS  C316 2651   5.549   1.935   4.590 -0.3137  0.1559  0.3440
   20SAPS  H16X 2652   5.483   1.866   4.646 -0.2454  0.0210  0.2577
   20SAPS  H16Y 2653   5.486   2.020   4.557  0.1098  0.4646  0.3122
   20SAPS  C317 2654   5.650   1.990   4.692  0.0826 -0.0577  0.3939
   20SAPS  H17X 2655   5.721   2.052   4.632 -0.6061 -1.3362 -1.8667
   20SAPS  H17Y 2656   5.710   1.906   4.732 -2.6299 -1.1246  2.5823
   20SAPS  C318 2657   5.588   2.063   4.807  0.0585 -0.1723 -0.0044
   20SAPS  H18X 2658   5.671   2.099   4.871  0.8401 -0.8788 -0.5896
   20SAPS  H18Y 2659   5.525   1.989   4.860 -2.2811  0.3253 -1.9010
   20SAPS  H18Z 2660   5.523   2.144   4.769  1.2889  0.5443 -0.6419
   21CHL1    C3 2661   0.550   4.311   6.532  0.2759 -0.6904  0.5662
   21CHL1    H3 2662   0.661   4.317   6.529  0.3602 -2.1480  0.3606
   21CHL1    O3 2663   0.511   4.335   6.658  0.2378  0.9401  0.5917
   21CHL1   H3' 2664   0.523   4.256   6.712 -0.8396  0.5350  0.2712
   21CHL1    C4 2665   0.493   4.415   6.436  0.0096  0.4655 -0.0230
   21CHL1   H4A 2666   0.382   4.419   6.447 -0.1938 -2.1564 -0.4913
   21CHL1   H4B 2667   0.526   4.520   6.454 -0.9356  0.8600 -0.5172
   21CHL1    C5 2668   0.520   4.375   6.292  0.2165 -0.4683  0.6119
   21CHL1    C6 2669   0.570   4.463   6.206 -0.0760  0.0489  0.6918
   21CHL1    H6 2670   0.598   4.566   6.231  2.2843 -0.4488  0.4200
   21CHL1    C7 2671   0.593   4.444   6.056  0.2807  0.8748 -0.1437
   21CHL1   H7A 2672   0.559   4.529   5.994 -2.4548  0.5239  0.7422
   21CHL1   H7B 2673   0.703   4.432   6.072 -0.2580 -1.1892  2.8426
   21CHL1    C8 2674   0.518   4.325   6.001  0.0164 -0.6068  0.4590
   21CHL1    H8 2675   0.412   4.353   5.986  0.5827  0.4668 -1.8626
   21CHL1   C14 2676   0.572   4.292   5.865 -0.5243 -0.1845  0.4360
   21CHL1   H14 2677   0.678   4.264   5.887 -1.2402 -0.2026  4.7650
   21CHL1   C15 2678   0.572   4.407   5.762  0.2018 -0.7468 -0.1493
   21CHL1  H15A 2679   0.482   4.471   5.774  1.6771  1.5910 -0.9205
   21CHL1  H15B 2680   0.664   4.470   5.765 -0.0860 -0.3450  0.5359
   21CHL1   C16 2681   0.568   4.339   5.626  0.0337 -0.2196  0.8832
   21CHL1  H16A 2682   0.472   4.365   5.578 -0.1721 -0.2909  1.2555
   21CHL1  H16B 2683   0.646   4.377   5.557 -0.0286 -1.2305  0.2452
   21CHL1   C17 2684   0.571   4.182   5.656  0.2805 -0.0278 -0.1065
   21CHL1   H17 2685   0.678   4.156   5.667  0.8206  1.1720 -2.1782
   21CHL1   C13 2686   0.512   4.171   5.798  0.5853 -0.2338  0.2751
   21CHL1   C18 2687   0.355   4.198   5.787  0.7803 -0.7329  0.2848
   21CHL1  H18A 2688   0.309   4.104   5.750  0.6928 -0.1281 -1.2157
   21CHL1  H18B 2689   0.315   4.227   5.887  3.4543 -1.5316  1.7006
   21CHL1  H18C 2690   0.339   4.280   5.714 -0.8597 -0.9233  0.4000
   21CHL1   C12 2691   0.544   4.051   5.888 -0.5170 -0.3437 -0.2087
   21CHL1  H12A 2692   0.495   3.955   5.859  1.3955 -1.4401  0.0581
   21CHL1  H12B 2693   0.654   4.039   5.896 -0.3767  1.2296  0.6940
   21CHL1   C11 2694   0.494   4.071   6.028  0.0199  0.3269 -0.6037
   21CHL1  H11A 2695   0.383   4.076   6.027 -0.0973 -1.2687  0.6005
   21CHL1  H11B 2696   0.526   3.981   6.085  0.2797  1.4962  1.1637
   21CHL1    C9 2697   0.536   4.204   6.092  0.1451  0.4242 -0.0127
   21CHL1    H9 2698   0.646   4.197   6.107 -0.1605 -1.3702  1.7185
   21CHL1   C10 2699   0.483   4.232   6.241  0.3570 -0.9198 -0.5738
   21CHL1   C19 2700   0.331   4.207   6.240  0.4372  1.0203 -0.3510
   21CHL1  H19A 2701   0.274   4.243   6.152 -0.7506 -1.3501 -0.6534
   21CHL1  H19B 2702   0.319   4.098   6.263  0.2642  1.3679  1.3189
   21CHL1  H19C 2703   0.289   4.253   6.332 -0.6617 -1.8009  0.6715
   21CHL1    C1 2704   0.550   4.141   6.343  0.0989  0.3344  0.4372
   21CHL1   H1A 2705   0.522   4.039   6.308  0.8883  0.5704 -0.9832
   21CHL1   H1B 2706   0.659   4.154   6.326  0.7660 -1.8345  2.4774
   21CHL1    C2 2707   0.514   4.165   6.486  0.5760 -0.8858  0.0162
   21CHL1   H2A 2708   0.572   4.090   6.544 -1.3540 -2.8438 -0.4798
   21CHL1   H2B 2709   0.407   4.140   6.506  0.5024  1.0969  2.6392
   21CHL1   C20 2710   0.518   4.101   5.538 -0.7294 -0.0304  0.8460
   21CHL1   H20 2711   0.408   4.090   5.527 -0.5893 -2.1950  1.2033
   21CHL1   C21 2712   0.580   3.956   5.560  0.1974  0.2914  0.0108
   21CHL1  H21A 2713   0.536   3.908   5.650 -2.2258  1.8254 -0.2668
   21CHL1  H21B 2714   0.691   3.965   5.569  0.5680 -0.2023 -2.8544
   21CHL1  H21C 2715   0.553   3.894   5.472  1.4277  0.3247 -0.4190
   21CHL1   C22 2716   0.573   4.158   5.401  0.6129 -0.0560 -0.4942
   21CHL1  H22A 2717   0.519   4.252   5.378 -1.8185 -0.9607  1.1222
   21CHL1  H22B 2718   0.682   4.180   5.405  0.8409 -1.1041 -0.5999
   21CHL1   C23 2719   0.560   4.078   5.266  0.2114 -0.3338  0.3661
   21CHL1  H23A 2720   0.623   3.987   5.282 -1.2810 -1.3011  0.8908
   21CHL1  H23B 2721   0.459   4.032   5.256 -0.1642  0.4790  0.4161
   21CHL1   C24 2722   0.597   4.166   5.144 -0.3493 -0.0012 -0.1322
   21CHL1  H24A 2723   0.521   4.246   5.134 -0.3977  0.3521  2.4238
   21CHL1  H24B 2724   0.696   4.217   5.151  0.3656 -1.1394 -1.4376
   21CHL1   C25 2725   0.605   4.089   5.009 -0.2333 -0.5657 -0.5229
   21CHL1   H25 2726   0.604   4.169   4.932  1.9614  1.6676  1.6069
   21CHL1   C26 2727   0.742   4.021   4.990  0.5836 -0.3561  0.0499
   21CHL1  H26A 2728   0.821   4.096   5.010 -0.1900  1.0197 -1.8322
   21CHL1  H26B 2729   0.752   3.943   5.068  0.5423 -0.4554 -0.0435
   21CHL1  H26C 2730   0.752   3.975   4.889 -2.1095  2.4213 -1.6522
   21CHL1   C27 2731   0.491   3.988   4.986 -0.7284 -0.5365  0.3875
   21CHL1  H27A 2732   0.391   4.037   4.986 -0.1339  0.7562 -0.5605
   21CHL1  H27B 2733   0.513   3.958   4.881  0.4533 -0.2927  0.5568
   21CHL1  H27C 2734   0.507   3.905   5.058 -0.4307  0.9578  2.1200
   22CHL1    C3 2735   5.903   2.748   6.374 -0.3874  0.5576 -0.1618
   22CHL1    H3 2736   5.800   2.724   6.342  0.0140 -2.6870  0.6487
   22CHL1    O3 2737   5.910   2.744   6.513 -0.0701 -0.4935 -0.0199
   22CHL1   H3' 2738   5.851   2.673   6.539 -1.2592  1.2277  2.2957
   22CHL1    C4 2739   6.004   2.641   6.322 -0.0203  0.1656 -0.0358
   22CHL1   H4A 2740   6.100   2.680   6.363 -0.1830 -1.5043  2.1150
   22CHL1   H4B 2741   5.989   2.538   6.361  0.5927  0.3398  0.6944
   22CHL1    C5 2742   6.007   2.645   6.171  0.4531  0.0912  0.2171
   22CHL1    C6 2743   5.980   2.533   6.096 -0.6812 -0.1584 -1.1805
   22CHL1    H6 2744   5.952   2.441   6.150  1.2927 -0.6013 -0.8448
   22CHL1    C7 2745   5.997   2.525   5.951 -0.3806  0.3912  0.0860
   22CHL1   H7A 2746   6.067   2.442   5.927 -0.3406  0.7183 -0.9615
   22CHL1   H7B 2747   5.907   2.512   5.887 -0.4062  1.7461 -0.1699
   22CHL1    C8 2748   6.059   2.654   5.891  0.1503 -0.2901 -0.1303
   22CHL1    H8 2749   6.166   2.649   5.919  0.5716  0.1363 -1.5755
   22CHL1   C14 2750   6.033   2.668   5.741  0.1653  0.3013 -0.3999
   22CHL1   H14 2751   5.924   2.690   5.743  0.1199  0.0391  0.5646
   22CHL1   C15 2752   6.058   2.544   5.659 -0.5111  0.9165  0.4429
   22CHL1  H15A 2753   6.164   2.518   5.681  0.0744  0.2668 -2.6291
   22CHL1  H15B 2754   5.986   2.461   5.673 -0.0257  0.6025  1.0923
   22CHL1   C16 2755   6.068   2.594   5.512  0.5113  0.4912 -0.0422
   22CHL1  H16A 2756   6.164   2.556   5.471 -0.1652  0.0179 -1.2517
   22CHL1  H16B 2757   5.985   2.548   5.454  0.2406 -0.0677  0.7754
   22CHL1   C17 2758   6.058   2.749   5.516 -0.2126  0.1965 -0.1936
   22CHL1   H17 2759   5.950   2.775   5.504 -0.0438  0.0150 -2.5417
   22CHL1   C13 2760   6.101   2.782   5.667  1.0168  0.3288  0.2296
   22CHL1   C18 2761   6.254   2.776   5.676  0.5711 -0.2719  0.1303
   22CHL1  H18A 2762   6.288   2.759   5.781  0.7578  0.3467  0.1715
   22CHL1  H18B 2763   6.286   2.693   5.610 -1.4606 -0.5233 -0.6235
   22CHL1  H18C 2764   6.293   2.876   5.648  0.5482 -0.4511 -0.5589
   22CHL1   C12 2765   6.034   2.903   5.727  0.1998  0.2610  0.4513
   22CHL1  H12A 2766   6.071   2.998   5.684  3.6075 -1.1255  0.0044
   22CHL1  H12B 2767   5.929   2.912   5.691  0.8278  1.5486 -1.1516
   22CHL1   C11 2768   6.057   2.909   5.876 -0.2014  0.1945 -0.1626
   22CHL1  H11A 2769   6.167   2.918   5.890  0.0318 -1.9368 -0.1929
   22CHL1  H11B 2770   6.001   3.002   5.899 -2.0503 -0.9360  0.1634
   22CHL1    C9 2771   6.009   2.784   5.958  0.3890  1.3246  0.4809
   22CHL1    H9 2772   5.901   2.778   5.937  0.4022 -3.4431  0.7048
   22CHL1   C10 2773   6.033   2.782   6.109 -0.1578 -0.2700  0.0167
   22CHL1   C19 2774   6.184   2.824   6.133  0.2924  0.1192  0.1074
   22CHL1  H19A 2775   6.200   2.932   6.117  0.1987  0.8867  4.1899
   22CHL1  H19B 2776   6.217   2.828   6.239  0.9509  0.9144 -0.1158
   22CHL1  H19C 2777   6.249   2.768   6.062  0.9129  1.0801 -0.0972
   22CHL1    C1 2778   5.945   2.896   6.172  0.4964 -0.2249 -0.1892
   22CHL1   H1A 2779   5.989   2.995   6.149 -0.4942  0.7691  1.9492
   22CHL1   H1B 2780   5.848   2.888   6.120 -1.0890  1.9299  2.2019
   22CHL1    C2 2781   5.943   2.888   6.329  0.1984  0.1812 -0.0152
   22CHL1   H2A 2782   5.883   2.971   6.371  1.4040  1.0800 -0.0174
   22CHL1   H2B 2783   6.045   2.902   6.371 -0.4081  0.1045  1.5316
   22CHL1   C20 2784   6.131   2.805   5.393 -0.0993  0.6817  0.0314
   22CHL1   H20 2785   6.225   2.746   5.382  0.2976  1.0901  1.1103
   22CHL1   C21 2786   6.159   2.954   5.414  0.6008 -0.6352  0.2241
   22CHL1  H21A 2787   6.218   2.988   5.502 -0.6355  2.0769  0.0868
   22CHL1  H21B 2788   6.064   3.010   5.413  2.6731  3.4186  3.1475
   22CHL1  H21C 2789   6.220   2.988   5.327 -0.3392  1.7391  0.4199
   22CHL1   C22 2790   6.038   2.793   5.268 -0.0048  0.1259 -0.2124
   22CHL1  H22A 2791   6.008   2.688   5.245 -0.9537  0.0324  1.3381
   22CHL1  H22B 2792   5.947   2.853   5.287  1.0463  1.6320  0.2632
   22CHL1   C23 2793   6.096   2.853   5.136  0.3068  0.4973 -0.0515
   22CHL1  H23A 2794   6.096   2.964   5.144 -2.4726  0.5928 -0.4166
   22CHL1  H23B 2795   6.199   2.813   5.133 -0.5157 -1.9879  1.7149
   22CHL1   C24 2796   6.021   2.791   5.012 -0.3415  0.2173 -1.3883
   22CHL1  H24A 2797   6.010   2.681   5.025  0.0705  0.3874  0.7910
   22CHL1  H24B 2798   5.921   2.836   4.998 -0.1329  0.5394 -1.8923
   22CHL1   C25 2799   6.103   2.826   4.886  0.0165  0.6895  0.7623
   22CHL1   H25 2800   6.210   2.799   4.884 -0.0670  0.3792  0.0401
   22CHL1   C26 2801   6.038   2.748   4.766 -0.0565  0.1625 -0.1188
   22CHL1  H26A 2802   6.038   2.642   4.800  0.5334  0.9059  2.4099
   22CHL1  H26B 2803   5.935   2.784   4.744  0.7905  1.7717 -1.7206
   22CHL1  H26C 2804   6.096   2.759   4.672 -2.0182 -0.3069 -1.4552
   22CHL1   C27 2805   6.097   2.980   4.848  0.2802  0.2162 -0.7752
   22CHL1  H27A 2806   6.138   3.043   4.929  1.4975 -0.4740 -0.8314
   22CHL1  H27B 2807   6.148   2.996   4.751 -1.4853 -0.3817 -1.8606
   22CHL1  H27C 2808   5.991   3.010   4.837 -0.2059 -0.9680  0.4621
   23CHL1    C3 2809   5.029   3.693   6.206 -0.1046  0.4195 -0.2983
   23CHL1    H3 2810   5.069   3.594   6.174 -1.3204  0.1090 -0.9204
   23CHL1    O3 2811   5.041   3.697   6.348 -0.8862 -0.6459  0.2514
   23CHL1   H3' 2812   4.948   3.688   6.372 -0.2696 -2.3199  2.3650
   23CHL1    C4 2813   5.119   3.802   6.156 -0.7467 -0.5162  0.5610
   23CHL1   H4A 2814   5.093   3.902   6.198 -0.0388  0.1731 -0.6099
   23CHL1   H4B 2815   5.224   3.771   6.172 -0.0074 -0.6368 -3.4439
   23CHL1    C5 2816   5.092   3.810   6.005  0.7089  0.8016 -0.1604
   23CHL1    C6 2817   5.199   3.803   5.930 -0.1414  0.4189 -0.4047
   23CHL1    H6 2818   5.299   3.786   5.972  0.2470 -2.9902 -2.3387
   23CHL1    C7 2819   5.196   3.803   5.782 -0.2593  0.2363  0.4685
   23CHL1   H7A 2820   5.260   3.886   5.745  0.7651 -0.3436  0.8746
   23CHL1   H7B 2821   5.234   3.707   5.740  0.8566  0.5050  0.8229
   23CHL1    C8 2822   5.053   3.826   5.718 -0.6877  0.6587 -0.2509
   23CHL1    H8 2823   5.031   3.935   5.724 -0.8196  0.5483  3.6520
   23CHL1   C14 2824   5.045   3.773   5.568  0.3364  0.3912 -0.7212
   23CHL1   H14 2825   5.059   3.664   5.585 -0.1810  0.2718 -1.0500
   23CHL1   C15 2826   5.150   3.829   5.477 -0.4033  0.2913  0.3021
   23CHL1  H15A 2827   5.154   3.939   5.493 -0.1779  0.2402  0.6082
   23CHL1  H15B 2828   5.252   3.792   5.501 -1.0917 -2.1056 -0.1499
   23CHL1   C16 2829   5.104   3.797   5.337  0.0096 -0.3960 -0.6849
   23CHL1  H16A 2830   5.116   3.891   5.280  2.7401  0.1779  0.6484
   23CHL1  H16B 2831   5.169   3.714   5.302  1.0509  0.1212 -0.0275
   23CHL1   C17 2832   4.952   3.758   5.349 -0.5638  0.2451  0.4976
   23CHL1   H17 2833   4.961   3.647   5.344 -0.3057  0.3092 -2.6729
   23CHL1   C13 2834   4.912   3.802   5.498  0.2331 -0.3040  0.6229
   23CHL1   C18 2835   4.881   3.952   5.494 -0.0995 -0.0536 -0.2434
   23CHL1  H18A 2836   4.885   4.003   5.593  0.1993 -1.3867  0.4558
   23CHL1  H18B 2837   4.954   4.003   5.427  0.2309 -0.2057  0.0019
   23CHL1  H18C 2838   4.786   3.968   5.439  0.5824  1.0435 -1.1396
   23CHL1   C12 2839   4.817   3.717   5.572  0.4415  0.4584  0.0008
   23CHL1  H12A 2840   4.716   3.734   5.531 -0.5206  1.3207  2.5542
   23CHL1  H12B 2841   4.843   3.609   5.560 -1.9717 -0.0986 -0.7562
   23CHL1   C11 2842   4.809   3.752   5.718 -0.1159 -0.4431  0.5316
   23CHL1  H11A 2843   4.774   3.858   5.725  3.6507  1.0215 -0.3086
   23CHL1  H11B 2844   4.728   3.696   5.769 -1.1878 -0.7792 -1.4352
   23CHL1    C9 2845   4.948   3.751   5.795  0.2143 -0.5352 -0.0996
   23CHL1    H9 2846   4.980   3.645   5.792 -0.6612 -0.7978 -2.9626
   23CHL1   C10 2847   4.948   3.800   5.946 -0.1556 -1.2227 -0.4022
   23CHL1   C19 2848   4.901   3.949   5.960  0.4153 -0.2327 -0.0469
   23CHL1  H19A 2849   4.977   4.009   5.906 -2.1424  1.4965 -1.9961
   23CHL1  H19B 2850   4.801   3.959   5.912 -0.3566 -1.5112  1.2264
   23CHL1  H19C 2851   4.894   3.987   6.064 -0.5782  1.2029 -0.5964
   23CHL1    C1 2852   4.853   3.716   6.027  0.2479 -0.1908  0.1150
   23CHL1   H1A 2853   4.747   3.740   6.004 -0.1608 -1.3641  0.6934
   23CHL1   H1B 2854   4.867   3.612   5.991  2.0045  0.7392 -2.1019
   23CHL1    C2 2855   4.876   3.719   6.181  0.2721  0.1259  0.3811
   23CHL1   H2A 2856   4.818   3.633   6.221  0.5628 -0.9481 -1.3664
   23CHL1   H2B 2857   4.855   3.818   6.226  2.2404  0.3100  1.0165
   23CHL1   C20 2858   4.864   3.787   5.223 -0.4063  0.4729 -0.7033
   23CHL1   H20 2859   4.867   3.898   5.213  0.5150  0.3645 -1.8128
   23CHL1   C21 2860   4.716   3.759   5.252 -0.5459 -0.0759  0.0839
   23CHL1  H21A 2861   4.656   3.771   5.159  0.7120  0.4876 -0.6966
   23CHL1  H21B 2862   4.679   3.823   5.334  2.2229  0.2830  1.1624
   23CHL1  H21C 2863   4.712   3.653   5.285 -0.9422  0.1518  0.7643
   23CHL1   C22 2864   4.905   3.715   5.094  0.1666  0.4062  0.2423
   23CHL1  H22A 2865   4.857   3.773   5.013  0.8022 -0.2688 -0.6351
   23CHL1  H22B 2866   5.015   3.732   5.087  0.0184  1.1424 -0.4258
   23CHL1   C23 2867   4.872   3.567   5.080 -0.5054 -0.4108 -0.0842
   23CHL1  H23A 2868   4.921   3.512   5.163 -0.1811  1.3914  0.9639
   23CHL1  H23B 2869   4.762   3.550   5.088 -1.3439  3.0792 -1.8625
   23CHL1   C24 2870   4.912   3.498   4.949  0.4796  0.2175  0.5358
   23CHL1  H24A 2871   5.018   3.467   4.956 -0.0872 -1.8779  0.6455
   23CHL1  H24B 2872   4.860   3.400   4.955  2.1580 -0.9015 -1.7071
   23CHL1   C25 2873   4.866   3.567   4.825 -0.2803  0.0540  0.5459
   23CHL1   H25 2874   4.897   3.674   4.829 -0.0636  0.0452 -0.5761
   23CHL1   C26 2875   4.934   3.513   4.697  0.4356 -0.5774  0.0366
   23CHL1  H26A 2876   5.044   3.527   4.703  0.4852  0.5424 -2.3358
   23CHL1  H26B 2877   4.917   3.403   4.690  1.0808 -0.5908 -2.3341
   23CHL1  H26C 2878   4.891   3.560   4.605  0.8377 -1.4628 -0.6205
   23CHL1   C27 2879   4.715   3.574   4.815  0.7470 -0.3412  0.2401
   23CHL1  H27A 2880   4.670   3.615   4.722 -2.6862 -0.9813  1.4863
   23CHL1  H27B 2881   4.673   3.472   4.825 -1.0138  0.1779 -1.2269
   23CHL1  H27C 2882   4.667   3.630   4.898  0.8565  0.2701 -0.1018
   24CHL1    C3 2883   0.545   2.183   6.360  1.2187  0.0474 -0.4438
   24CHL1    H3 2884   0.479   2.097   6.336 -0.3388  1.1834 -0.3819
   24CHL1    O3 2885   0.560   2.184   6.505  0.1039 -0.6508 -0.0533
   24CHL1   H3' 2886   0.486   2.238   6.535  1.3225  2.4324 -2.0851
   24CHL1    C4 2887   0.685   2.168   6.305 -0.2758 -0.3002 -0.2696
   24CHL1   H4A 2888   0.728   2.261   6.348 -2.6326  0.3356  0.9021
   24CHL1   H4B 2889   0.738   2.077   6.340  1.8191  1.3598  1.1794
   24CHL1    C5 2890   0.675   2.179   6.155 -0.1518 -0.0848 -0.9420
   24CHL1    C6 2891   0.734   2.081   6.080  1.1961  0.2871 -0.1866
   24CHL1    H6 2892   0.791   2.002   6.133  1.9945  0.4301 -0.8123
   24CHL1    C7 2893   0.739   2.082   5.930 -0.3230  0.6715  0.8988
   24CHL1   H7A 2894   0.839   2.059   5.887 -1.0621  0.8932 -1.0586
   24CHL1   H7B 2895   0.669   2.002   5.898 -0.8276  2.0511 -1.6953
   24CHL1    C8 2896   0.703   2.214   5.869  0.1460 -0.9786  1.1221
   24CHL1    H8 2897   0.793   2.280   5.870  0.2711 -1.0131 -1.4114
   24CHL1   C14 2898   0.656   2.197   5.723  0.0398 -0.0379 -0.6134
   24CHL1   H14 2899   0.572   2.125   5.718 -1.0278  1.2648 -2.5029
   24CHL1   C15 2900   0.758   2.128   5.629 -0.1216  0.0142 -0.0797
   24CHL1  H15A 2901   0.854   2.180   5.652 -0.7466  1.7939 -1.3007
   24CHL1  H15B 2902   0.767   2.020   5.651  0.8075  0.0947 -0.0019
   24CHL1   C16 2903   0.699   2.158   5.487  0.5275 -1.0288  0.8648
   24CHL1  H16A 2904   0.776   2.209   5.425 -0.3899 -1.1764 -0.4373
   24CHL1  H16B 2905   0.658   2.063   5.445  2.4026 -2.7295  2.6347
   24CHL1   C17 2906   0.590   2.264   5.511  0.6349 -0.6457  0.0571
   24CHL1   H17 2907   0.494   2.210   5.522 -1.0917  2.6264  2.7289
   24CHL1   C13 2908   0.613   2.327   5.654 -0.4111  0.5911  0.1471
   24CHL1   C18 2909   0.718   2.437   5.648  0.0751  0.1772 -0.5411
   24CHL1  H18A 2910   0.734   2.467   5.754  1.6271 -0.6019 -0.5314
   24CHL1  H18B 2911   0.810   2.413   5.591  0.2905  0.0552 -0.1514
   24CHL1  H18C 2912   0.669   2.525   5.603  4.6834  2.5882 -1.3549
   24CHL1   C12 2913   0.481   2.363   5.728  0.3486  0.5413  0.2208
   24CHL1  H12A 2914   0.438   2.462   5.701 -1.0245 -0.2934 -0.7704
   24CHL1  H12B 2915   0.401   2.286   5.733  1.1982 -0.2963  2.0526
   24CHL1   C11 2916   0.508   2.394   5.878  0.2859  0.0146 -0.4304
   24CHL1  H11A 2917   0.568   2.487   5.880  1.0107 -0.3726 -2.2378
   24CHL1  H11B 2918   0.415   2.424   5.930  0.1392  1.8182 -1.6565
   24CHL1    C9 2919   0.577   2.275   5.945 -0.9935 -0.1095 -0.0382
   24CHL1    H9 2920   0.499   2.197   5.930 -0.7442 -0.8470  2.0505
   24CHL1   C10 2921   0.599   2.297   6.095 -0.2233 -0.6628 -0.5577
   24CHL1   C19 2922   0.685   2.421   6.113  0.1763  0.0226 -0.1361
   24CHL1  H19A 2923   0.694   2.453   6.219 -0.6343  0.9298 -0.3291
   24CHL1  H19B 2924   0.783   2.417   6.063 -0.8367 -0.4394 -2.1780
   24CHL1  H19C 2925   0.634   2.508   6.068 -3.1529 -0.0004  3.0330
   24CHL1    C1 2926   0.471   2.328   6.176  0.3219  0.4204 -0.3145
   24CHL1   H1A 2927   0.429   2.427   6.151 -5.3105 -1.4570  0.2526
   24CHL1   H1B 2928   0.386   2.260   6.151  0.3957  0.1283  0.1989
   24CHL1    C2 2929   0.485   2.319   6.330 -0.0103  0.3210  0.6166
   24CHL1   H2A 2930   0.387   2.346   6.375  0.6153  2.0805  1.0321
   24CHL1   H2B 2931   0.548   2.403   6.368 -2.9197  1.7566  2.7086
   24CHL1   C20 2932   0.562   2.358   5.395  0.4913 -0.3486 -0.2071
   24CHL1   H20 2933   0.655   2.418   5.381  0.3264 -0.5757 -2.9126
   24CHL1   C21 2934   0.444   2.454   5.429  0.4387  0.0592  0.0067
   24CHL1  H21A 2935   0.503   2.539   5.470  2.2952 -1.5712  0.8187
   24CHL1  H21B 2936   0.367   2.398   5.486 -0.4368  1.7559  0.5678
   24CHL1  H21C 2937   0.389   2.497   5.342 -1.4802  0.3879  1.3056
   24CHL1   C22 2938   0.552   2.285   5.263  0.5508 -0.1356 -0.0391
   24CHL1  H22A 2939   0.641   2.221   5.246  1.7571  0.2862  3.7456
   24CHL1  H22B 2940   0.452   2.236   5.257 -0.1190  1.2585 -0.5377
   24CHL1   C23 2941   0.558   2.378   5.138  0.2546  0.2633  0.5090
   24CHL1  H23A 2942   0.452   2.412   5.126 -0.7299 -1.5672  3.0586
   24CHL1  H23B 2943   0.616   2.466   5.172 -0.4992  1.0264 -0.1254
   24CHL1   C24 2944   0.624   2.306   5.018  0.0682 -0.4189 -0.2937
   24CHL1  H24A 2945   0.731   2.300   5.046  0.1095  0.7165 -0.1584
   24CHL1  H24B 2946   0.582   2.204   5.006  0.5499 -0.4841 -1.7024
   24CHL1   C25 2947   0.614   2.369   4.883  0.0169  0.3903 -0.1612
   24CHL1   H25 2948   0.674   2.307   4.812  0.0647 -0.2913  0.4617
   24CHL1   C26 2949   0.470   2.370   4.830 -0.6030  0.7754 -0.6144
   24CHL1  H26A 2950   0.437   2.265   4.848  0.2365 -0.2555 -4.2688
   24CHL1  H26B 2951   0.410   2.440   4.892 -0.6304 -2.0689  2.9541
   24CHL1  H26C 2952   0.461   2.399   4.724  0.2961 -0.9870 -1.2228
   24CHL1   C27 2953   0.683   2.507   4.868  1.1018  0.7734  0.0339
   24CHL1  H27A 2954   0.630   2.571   4.943  1.2773  1.3425 -0.3184
   24CHL1  H27B 2955   0.790   2.492   4.895  1.2088  0.8682 -0.3362
   24CHL1  H27C 2956   0.672   2.544   4.764 -0.7955  1.5234  0.4571
   25CHL1    C3 2957   1.839   0.820   6.713  0.0446 -0.5416  0.1024
   25CHL1    H3 2958   1.827   0.915   6.658  0.9989  1.2387  2.7476
   25CHL1    O3 2959   1.805   0.849   6.848  0.3806 -0.5651  0.0649
   25CHL1   H3' 2960   1.880   0.900   6.882  0.8697 -0.0932 -1.6252
   25CHL1    C4 2961   1.758   0.705   6.660  0.0645 -0.3774 -0.4389
   25CHL1   H4A 2962   1.784   0.616   6.720  1.8202 -1.3440 -2.4894
   25CHL1   H4B 2963   1.649   0.722   6.670  0.0446 -0.7686  0.0153
   25CHL1    C5 2964   1.795   0.681   6.512 -0.1990 -0.0957  0.4178
   25CHL1    C6 2965   1.708   0.683   6.409  0.4534  0.4288 -0.2992
   25CHL1    H6 2966   1.602   0.704   6.427 -0.3686 -3.8242  0.9574
   25CHL1    C7 2967   1.743   0.657   6.265  0.2109 -0.1330 -0.0633
   25CHL1   H7A 2968   1.668   0.584   6.228 -1.3598  1.8607 -0.9949
   25CHL1   H7B 2969   1.735   0.751   6.207  0.1685 -0.6267 -0.8749
   25CHL1    C8 2970   1.878   0.587   6.252 -0.3795  0.1091 -1.0424
   25CHL1    H8 2971   1.870   0.480   6.282  1.2071 -1.4272 -5.2848
   25CHL1   C14 2972   1.918   0.586   6.103 -0.2878  0.2329 -0.2163
   25CHL1   H14 2973   1.923   0.696   6.089 -2.0450  0.4988  0.9536
   25CHL1   C15 2974   1.823   0.533   5.994 -0.5259  0.7425  0.4899
   25CHL1  H15A 2975   1.780   0.438   6.032  1.7133 -0.1867  0.8597
   25CHL1  H15B 2976   1.734   0.598   5.978 -1.5163 -0.1488  2.1075
   25CHL1   C16 2977   1.907   0.490   5.876 -0.0856 -0.0613 -0.1271
   25CHL1  H16A 2978   1.896   0.380   5.864 -0.1630 -0.2127  1.2575
   25CHL1  H16B 2979   1.867   0.540   5.785  0.3522 -1.0728 -0.9056
   25CHL1   C17 2980   2.055   0.526   5.916  1.0446  0.8174 -0.0304
   25CHL1   H17 2981   2.069   0.630   5.879 -0.1360  0.4349 -1.7182
   25CHL1   C13 2982   2.055   0.530   6.069  0.5940 -0.2735  0.1892
   25CHL1   C18 2983   2.052   0.385   6.129  0.2323 -0.8208  0.1472
   25CHL1  H18A 2984   1.979   0.319   6.079  0.8315 -0.7274 -0.8708
   25CHL1  H18B 2985   2.154   0.342   6.123  0.7979  0.3448  0.8589
   25CHL1  H18C 2986   2.027   0.374   6.237 -1.1022  0.1032 -0.0461
   25CHL1   C12 2987   2.149   0.627   6.141 -0.6349  0.1727  0.3234
   25CHL1  H12A 2988   2.248   0.586   6.115 -1.5325 -1.0565 -1.3209
   25CHL1  H12B 2989   2.140   0.731   6.105 -0.9223  0.6356  1.6570
   25CHL1   C11 2990   2.122   0.622   6.287  0.4698 -0.3483 -0.8229
   25CHL1  H11A 2991   2.151   0.524   6.331 -0.8183  0.1215  1.1824
   25CHL1  H11B 2992   2.185   0.694   6.344  0.1014  0.3000 -1.2180
   25CHL1    C9 2993   1.983   0.670   6.333 -0.3577  0.6633 -0.5913
   25CHL1    H9 2994   1.959   0.775   6.306 -0.9293  0.8447  0.5672
   25CHL1   C10 2995   1.950   0.660   6.492 -0.3229  0.5790 -1.9580
   25CHL1   C19 2996   1.991   0.514   6.535 -0.9623  0.2179 -0.2156
   25CHL1  H19A 2997   2.098   0.486   6.533 -0.0708  2.5137  3.9073
   25CHL1  H19B 2998   1.962   0.492   6.639 -0.3109 -1.7428 -0.4070
   25CHL1  H19C 2999   1.939   0.432   6.482  0.1303 -1.5950  1.4175
   25CHL1    C1 3000   2.040   0.761   6.574 -0.0479 -0.4885 -0.2455
   25CHL1   H1A 3001   2.145   0.728   6.560 -0.4420 -0.8891 -2.7358
   25CHL1   H1B 3002   2.029   0.858   6.520 -3.7905  0.2238  1.4760
   25CHL1    C2 3003   1.989   0.790   6.715 -0.0396  0.3135  0.9157
   25CHL1   H2A 3004   2.053   0.875   6.747 -0.0016  0.3737  0.6823
   25CHL1   H2B 3005   2.007   0.699   6.776  1.6309 -1.7258 -2.3217
   25CHL1   C20 3006   2.160   0.433   5.837 -0.2008  0.1169 -0.7641
   25CHL1   H20 3007   2.142   0.331   5.878 -4.1285  1.5339  1.6374
   25CHL1   C21 3008   2.300   0.480   5.871  0.1014  0.1589 -0.3501
   25CHL1  H21A 3009   2.336   0.454   5.972 -0.7462  1.8169  0.4189
   25CHL1  H21B 3010   2.292   0.590   5.859 -0.0196  0.1226 -0.6182
   25CHL1  H21C 3011   2.372   0.447   5.793  0.3414  3.0811 -1.4882
   25CHL1   C22 3012   2.125   0.431   5.687  0.2378 -0.8170  0.0692
   25CHL1  H22A 3013   2.177   0.348   5.634  0.1647 -1.3494  0.8062
   25CHL1  H22B 3014   2.021   0.393   5.677 -0.2596  0.2589  0.9439
   25CHL1   C23 3015   2.140   0.562   5.612 -0.1288  0.1995  0.1318
   25CHL1  H23A 3016   2.064   0.635   5.648  1.2426  2.3933 -1.1544
   25CHL1  H23B 3017   2.239   0.607   5.631 -0.1587  0.7999 -1.0491
   25CHL1   C24 3018   2.128   0.551   5.462 -0.4273 -0.5009 -0.6815
   25CHL1  H24A 3019   2.155   0.649   5.416  0.2496  0.4811  1.6815
   25CHL1  H24B 3020   2.197   0.472   5.428  2.1018  0.2353  2.3494
   25CHL1   C25 3021   1.981   0.507   5.414 -0.9699 -0.8885 -0.0396
   25CHL1   H25 3022   1.938   0.429   5.480 -1.3807 -0.4659  0.1995
   25CHL1   C26 3023   1.885   0.630   5.427  0.2691  0.0187 -0.4853
   25CHL1  H26A 3024   1.906   0.679   5.524 -0.7804 -0.9382  0.2613
   25CHL1  H26B 3025   1.910   0.705   5.350  0.1285  1.1968  0.5867
   25CHL1  H26C 3026   1.781   0.592   5.417 -0.1704  0.4047  1.8880
   25CHL1   C27 3027   1.976   0.452   5.270  1.0063 -0.3048 -0.1613
   25CHL1  H27A 3028   2.021   0.523   5.197  0.5003 -1.7203 -1.9247
   25CHL1  H27B 3029   2.036   0.360   5.258  0.8837 -0.2530 -1.2940
   25CHL1  H27C 3030   1.877   0.422   5.229  0.3527  0.4942  0.7707
   26CHL1    C3 3031   6.314   2.570   6.563 -0.1188 -0.4670 -0.4635
   26CHL1    H3 3032   6.204   2.567   6.549  0.0167 -2.6456 -1.4234
   26CHL1    O3 3033   6.344   2.588   6.705  1.0984  0.6985 -0.1969
   26CHL1   H3' 3034   6.268   2.544   6.743  1.3428  1.4971  1.2757
   26CHL1    C4 3035   6.364   2.431   6.531 -0.0506  0.8145  0.1631
   26CHL1   H4A 3036   6.468   2.425   6.569 -0.3040 -1.2686  0.6768
   26CHL1   H4B 3037   6.308   2.358   6.593 -1.0509  1.0315 -0.4610
   26CHL1    C5 3038   6.372   2.392   6.379  0.7569  0.2181 -0.2432
   26CHL1    C6 3039   6.305   2.280   6.324  0.1504 -0.0850  0.6841
   26CHL1    H6 3040   6.255   2.213   6.396  0.0961 -0.9616 -0.1571
   26CHL1    C7 3041   6.320   2.245   6.178  0.2663 -0.1114 -0.6691
   26CHL1   H7A 3042   6.341   2.137   6.163 -0.1573 -0.1407 -1.0633
   26CHL1   H7B 3043   6.222   2.260   6.128 -0.2010 -2.0086 -0.4008
   26CHL1    C8 3044   6.426   2.322   6.097 -1.0328  0.2997 -0.3686
   26CHL1    H8 3045   6.529   2.291   6.126 -1.3562  0.0704  0.5879
   26CHL1   C14 3046   6.406   2.316   5.957 -0.4266 -0.1079  0.0149
   26CHL1   H14 3047   6.305   2.361   5.942 -0.9575 -0.7815  1.3455
   26CHL1   C15 3048   6.387   2.173   5.897 -0.1395  0.1104 -0.0381
   26CHL1  H15A 3049   6.471   2.114   5.939 -0.2389  0.2120  0.3069
   26CHL1  H15B 3050   6.285   2.135   5.922 -0.1586  0.4872  0.4697
   26CHL1   C16 3051   6.389   2.194   5.745 -0.3187 -0.3647  0.0502
   26CHL1  H16A 3052   6.462   2.119   5.706  0.5734  1.0384 -1.1035
   26CHL1  H16B 3053   6.286   2.181   5.707 -0.7382 -1.1093  1.3934
   26CHL1   C17 3054   6.451   2.337   5.721  0.6218  0.7059 -0.2232
   26CHL1   H17 3055   6.365   2.406   5.704  1.9406  2.0322 -1.8199
   26CHL1   C13 3056   6.506   2.384   5.860  0.5666  0.6482 -0.9707
   26CHL1   C18 3057   6.644   2.328   5.885  0.1422 -0.9298 -0.3282
   26CHL1  H18A 3058   6.650   2.221   5.855  3.3637 -1.1988  0.8823
   26CHL1  H18B 3059   6.725   2.376   5.828  0.7756 -2.6194 -0.8998
   26CHL1  H18C 3060   6.684   2.325   5.989  0.0729 -0.3329 -0.2843
   26CHL1   C12 3061   6.495   2.528   5.896  0.2369  0.1746 -0.8988
   26CHL1  H12A 3062   6.559   2.597   5.838  0.4580  0.6940 -0.0570
   26CHL1  H12B 3063   6.394   2.571   5.884  0.4913  1.0497 -0.0659
   26CHL1   C11 3064   6.525   2.553   6.049 -0.2968  0.0513 -0.3776
   26CHL1  H11A 3065   6.631   2.529   6.073  0.0452  1.8507  0.0865
   26CHL1  H11B 3066   6.520   2.663   6.065  2.7613  0.3669 -0.8411
   26CHL1    C9 3067   6.420   2.473   6.138 -0.2342  0.0658 -0.3819
   26CHL1    H9 3068   6.318   2.509   6.114  0.1223  0.7225 -0.9481
   26CHL1   C10 3069   6.443   2.493   6.293  0.3871 -0.1934 -0.1930
   26CHL1   C19 3070   6.598   2.497   6.333  0.7607 -0.0014 -0.0857
   26CHL1  H19A 3071   6.648   2.590   6.297 -0.9463  0.7306 -0.6700
   26CHL1  H19B 3072   6.610   2.498   6.443  1.9950 -0.9809 -0.1912
   26CHL1  H19C 3073   6.649   2.402   6.305  2.1391  0.4652  0.7561
   26CHL1    C1 3074   6.388   2.637   6.327 -0.1508 -0.1991 -0.7224
   26CHL1   H1A 3075   6.454   2.713   6.280 -1.5908  0.9908 -0.8740
   26CHL1   H1B 3076   6.282   2.634   6.292  0.3127 -2.6954 -2.1710
   26CHL1    C2 3077   6.387   2.674   6.481  0.1801  0.3025  0.0289
   26CHL1   H2A 3078   6.332   2.770   6.492  0.9135  0.6935  0.3657
   26CHL1   H2B 3079   6.493   2.688   6.513  0.0472 -3.0187  2.3432
   26CHL1   C20 3080   6.538   2.345   5.592 -0.2167 -0.7107 -0.0493
   26CHL1   H20 3081   6.638   2.296   5.600  1.2877  2.1144 -0.3655
   26CHL1   C21 3082   6.580   2.495   5.577  0.4059  0.7786 -0.3449
   26CHL1  H21A 3083   6.625   2.517   5.478 -0.7378  0.0214 -1.0524
   26CHL1  H21B 3084   6.657   2.509   5.656 -1.2321  2.6489  1.0157
   26CHL1  H21C 3085   6.501   2.572   5.591  1.0683  1.5279 -0.6848
   26CHL1   C22 3086   6.473   2.288   5.461  0.7957 -0.2287 -0.5700
   26CHL1  H22A 3087   6.432   2.185   5.471  2.4222 -1.0214 -1.6234
   26CHL1  H22B 3088   6.388   2.356   5.439  1.9528  1.4783  0.1014
   26CHL1   C23 3089   6.570   2.278   5.346 -0.8893 -0.6180  0.0510
   26CHL1  H23A 3090   6.611   2.381   5.337 -2.3363 -0.0290 -0.1729
   26CHL1  H23B 3091   6.648   2.204   5.372 -1.8833 -1.0705  1.9719
   26CHL1   C24 3092   6.509   2.236   5.203 -0.0209 -0.0822 -0.4986
   26CHL1  H24A 3093   6.499   2.127   5.222 -0.1901 -0.2421 -1.4817
   26CHL1  H24B 3094   6.408   2.282   5.192 -0.8137 -1.4145  0.8701
   26CHL1   C25 3095   6.607   2.271   5.085  0.4384  0.3481  0.0411
   26CHL1   H25 3096   6.708   2.259   5.130  1.0264 -1.2169 -1.5993
   26CHL1   C26 3097   6.593   2.162   4.972 -0.0833 -0.2048  0.5864
   26CHL1  H26A 3098   6.629   2.068   5.019  2.1320  0.6991  0.8547
   26CHL1  H26B 3099   6.486   2.150   4.947  0.2836 -2.1600 -0.2168
   26CHL1  H26C 3100   6.638   2.193   4.875 -1.7720  0.7439  0.0740
   26CHL1   C27 3101   6.596   2.416   5.031  0.1899 -0.5295 -0.2153
   26CHL1  H27A 3102   6.639   2.470   5.118 -0.5950 -0.6484  0.2535
   26CHL1  H27B 3103   6.659   2.422   4.939 -0.4464 -0.9138 -0.6885
   26CHL1  H27C 3104   6.486   2.425   5.016  0.1971 -0.6267 -0.3299
   27CHL1    C3 3105   4.698   3.334   6.581 -0.0486  0.2204  0.3092
   27CHL1    H3 3106   4.631   3.421   6.566 -0.2454 -0.2647 -2.0350
   27CHL1    O3 3107   4.726   3.309   6.722 -0.3863  0.4732  0.5887
   27CHL1   H3' 3108   4.770   3.389   6.752 -1.3850  1.0369  0.5879
   27CHL1    C4 3109   4.630   3.206   6.525 -0.2736 -0.0221  0.0109
   27CHL1   H4A 3110   4.699   3.120   6.538  0.0093  0.2674  0.4360
   27CHL1   H4B 3111   4.541   3.186   6.588  0.8251 -1.7131  1.1168
   27CHL1    C5 3112   4.596   3.223   6.379  0.0338  0.7823  1.1878
   27CHL1    C6 3113   4.477   3.200   6.330 -0.7532 -0.5442 -0.0295
   27CHL1    H6 3114   4.395   3.168   6.396 -1.3434 -1.3649 -1.1454
   27CHL1    C7 3115   4.437   3.209   6.186  0.0506 -0.2936  0.6615
   27CHL1   H7A 3116   4.377   3.122   6.152 -1.2565  0.5446  0.7231
   27CHL1   H7B 3117   4.382   3.299   6.150 -1.3303 -3.1507 -5.5585
   27CHL1    C8 3118   4.560   3.217   6.095  0.6901 -0.2157 -0.3504
   27CHL1    H8 3119   4.579   3.109   6.081 -0.8421 -0.7305  1.1988
   27CHL1   C14 3120   4.509   3.273   5.961 -0.5400 -0.0103  0.3567
   27CHL1   H14 3121   4.484   3.381   5.975 -0.3547 -0.1831  2.3438
   27CHL1   C15 3122   4.387   3.209   5.897 -0.4621  0.0493  0.0034
   27CHL1  H15A 3123   4.407   3.099   5.896 -3.9421 -0.7015 -0.7160
   27CHL1  H15B 3124   4.301   3.244   5.958  0.3043 -2.0344  2.4843
   27CHL1   C16 3125   4.394   3.265   5.756  0.1741  0.6480 -0.1312
   27CHL1  H16A 3126   4.372   3.190   5.677  0.7576  0.2017  0.1127
   27CHL1  H16B 3127   4.326   3.351   5.740 -2.1976 -1.0848  0.1007
   27CHL1   C17 3128   4.542   3.324   5.731 -0.2961 -0.4352 -0.4619
   27CHL1   H17 3129   4.541   3.434   5.738 -0.6274 -0.3289 -1.7750
   27CHL1   C13 3130   4.623   3.266   5.855  0.0625 -0.2105  0.1901
   27CHL1   C18 3131   4.665   3.121   5.809  0.6854  0.0420 -0.4946
   27CHL1  H18A 3132   4.701   3.061   5.895  1.8520  0.0390 -0.9719
   27CHL1  H18B 3133   4.577   3.068   5.767  0.0492 -0.7048  1.6788
   27CHL1  H18C 3134   4.734   3.128   5.722  0.7462  1.0860 -0.3839
   27CHL1   C12 3135   4.739   3.352   5.902 -1.1463 -0.3014  0.5256
   27CHL1  H12A 3136   4.824   3.344   5.831 -0.9107 -1.6846  0.9406
   27CHL1  H12B 3137   4.705   3.458   5.904 -0.7596 -0.1765  1.9554
   27CHL1   C11 3138   4.789   3.310   6.039  0.1743  0.0917 -0.1119
   27CHL1  H11A 3139   4.841   3.212   6.029  0.8481  0.6863 -4.1625
   27CHL1  H11B 3140   4.865   3.388   6.065 -0.1934  0.9102 -1.3905
   27CHL1    C9 3141   4.674   3.305   6.145 -0.0305  0.2769 -0.3221
   27CHL1    H9 3142   4.640   3.410   6.150  2.7952  1.2449  3.4295
   27CHL1   C10 3143   4.716   3.266   6.286 -1.1652  0.8861 -0.0458
   27CHL1   C19 3144   4.807   3.138   6.272  0.0244  0.5001 -0.0410
   27CHL1  H19A 3145   4.824   3.089   6.370 -2.0384  0.1705  0.2082
   27CHL1  H19B 3146   4.762   3.076   6.191  2.6950 -1.1718 -0.3509
   27CHL1  H19C 3147   4.907   3.164   6.231  0.0572 -0.3009 -0.4995
   27CHL1    C1 3148   4.801   3.379   6.354 -0.0659 -0.1939 -0.7959
   27CHL1   H1A 3149   4.887   3.402   6.288  0.7695 -1.7238 -0.2606
   27CHL1   H1B 3150   4.735   3.469   6.350 -1.9532 -1.5282 -0.7486
   27CHL1    C2 3151   4.828   3.357   6.502  0.0281 -0.3155 -0.5249
   27CHL1   H2A 3152   4.873   3.446   6.550 -0.6561 -0.5019  0.5085
   27CHL1   H2B 3153   4.895   3.270   6.519  0.5751 -0.1266 -1.6354
   27CHL1   C20 3154   4.597   3.299   5.589  0.1357 -0.4395  0.1106
   27CHL1   H20 3155   4.596   3.191   5.564 -1.1884 -0.6597  0.9999
   27CHL1   C21 3156   4.742   3.354   5.581 -0.0019 -0.1341  0.0731
   27CHL1  H21A 3157   4.758   3.448   5.637  0.9430 -0.1133 -0.2102
   27CHL1  H21B 3158   4.771   3.368   5.475 -0.3814  1.0134  0.1033
   27CHL1  H21C 3159   4.819   3.280   5.614  0.1843 -0.3206 -0.7655
   27CHL1   C22 3160   4.506   3.367   5.481  0.0503  0.4003 -0.2472
   27CHL1  H22A 3161   4.398   3.341   5.496  0.4267 -0.5377  0.9758
   27CHL1  H22B 3162   4.509   3.478   5.482 -1.9814  0.5713 -2.4794
   27CHL1   C23 3163   4.544   3.308   5.350 -0.2920 -0.2798  0.7107
   27CHL1  H23A 3164   4.583   3.384   5.280  0.2825  0.7584  2.1215
   27CHL1  H23B 3165   4.616   3.224   5.363  0.1485  0.2228  1.5986
   27CHL1   C24 3166   4.423   3.250   5.275  0.3468 -1.5238  0.3362
   27CHL1  H24A 3167   4.378   3.154   5.309  1.5477 -2.5355 -0.8186
   27CHL1  H24B 3168   4.345   3.328   5.280  1.0897 -0.7513  0.0591
   27CHL1   C25 3169   4.448   3.246   5.124  0.0194 -0.6332  0.0103
   27CHL1   H25 3170   4.481   3.349   5.097 -1.2862  1.1126  4.2557
   27CHL1   C26 3171   4.564   3.156   5.088 -0.5100 -0.6750 -0.4698
   27CHL1  H26A 3172   4.557   3.063   5.148  1.1760 -0.6585 -0.2030
   27CHL1  H26B 3173   4.552   3.124   4.982  0.5029  0.3536 -0.9095
   27CHL1  H26C 3174   4.661   3.207   5.100 -1.1680  0.6630 -0.6968
   27CHL1   C27 3175   4.319   3.193   5.063 -0.5088  0.3864 -0.8207
   27CHL1  H27A 3176   4.305   3.088   5.096  1.0791  0.3236 -0.2424
   27CHL1  H27B 3177   4.334   3.179   4.954 -2.0653  0.3466 -1.0446
   27CHL1  H27C 3178   4.235   3.256   5.097  0.3358 -0.2410  2.8167
   28CHL1    C3 3179   2.855   1.988   6.103 -0.3908 -0.3554 -0.0520
   28CHL1    H3 3180   2.966   1.991   6.104 -0.4034  1.3604 -0.4258
   28CHL1    O3 3181   2.811   1.966   6.239  0.1567  0.3514  0.2995
   28CHL1   H3' 3182   2.832   1.873   6.255  0.9389  0.5199  0.3296
   28CHL1    C4 3183   2.802   2.123   6.051 -0.1822  0.0289  1.0032
   28CHL1   H4A 3184   2.692   2.121   6.067 -0.4047  0.4658 -0.2973
   28CHL1   H4B 3185   2.846   2.201   6.117  0.5052  2.2344 -1.8610
   28CHL1    C5 3186   2.831   2.144   5.902 -1.4724  0.3424 -0.7107
   28CHL1    C6 3187   2.902   2.253   5.860 -0.5039  0.8211 -0.1324
   28CHL1    H6 3188   2.928   2.336   5.927  0.9786 -0.7868  1.3932
   28CHL1    C7 3189   2.930   2.281   5.713 -0.6097 -0.5077  0.1615
   28CHL1   H7A 3190   2.922   2.390   5.690 -0.8908 -0.3680  0.9109
   28CHL1   H7B 3191   3.033   2.247   5.690 -0.5952 -1.5228  1.6441
   28CHL1    C8 3192   2.832   2.202   5.625 -0.2964 -0.1802 -0.1698
   28CHL1    H8 3193   2.732   2.248   5.637  1.2477  3.8349 -1.0116
   28CHL1   C14 3194   2.887   2.211   5.481  0.5169  0.6199 -0.3126
   28CHL1   H14 3195   2.980   2.151   5.474 -1.1518 -2.1354 -0.3630
   28CHL1   C15 3196   2.909   2.352   5.418  0.3904 -0.4045  0.4036
   28CHL1  H15A 3197   2.812   2.407   5.422  0.6324  0.1598 -0.9003
   28CHL1  H15B 3198   2.990   2.417   5.456 -0.7723  0.2092  1.9559
   28CHL1   C16 3199   2.912   2.324   5.264  0.1995  0.5602 -1.0131
   28CHL1  H16A 3200   2.844   2.393   5.210 -0.0813 -0.4527 -2.0023
   28CHL1  H16B 3201   3.016   2.330   5.225  1.1949 -0.2789  1.3720
   28CHL1   C17 3202   2.870   2.169   5.249  0.2526 -0.2237 -0.6388
   28CHL1   H17 3203   2.965   2.114   5.264  0.2240 -0.1187 -0.0490
   28CHL1   C13 3204   2.792   2.141   5.378 -0.4296 -0.3165 -0.7088
   28CHL1   C18 3205   2.649   2.198   5.381 -0.1353 -0.7383  0.3100
   28CHL1  H18A 3206   2.572   2.147   5.319 -1.1330  0.1114  0.8086
   28CHL1  H18B 3207   2.605   2.205   5.483  1.7149  2.0035  1.0265
   28CHL1  H18C 3208   2.655   2.295   5.327 -0.2969 -1.2672 -0.6663
   28CHL1   C12 3209   2.784   1.990   5.417 -0.3001  0.4481  0.5640
   28CHL1  H12A 3210   2.713   1.936   5.350 -1.4300  2.0306  0.4341
   28CHL1  H12B 3211   2.886   1.948   5.402 -0.6759 -0.2034 -0.2225
   28CHL1   C11 3212   2.754   1.968   5.565  0.4408 -0.1906 -0.0207
   28CHL1  H11A 3213   2.645   1.984   5.575  0.8680  2.0261  1.9248
   28CHL1  H11B 3214   2.778   1.863   5.590 -0.6358 -0.5751 -0.5634
   28CHL1    C9 3215   2.831   2.056   5.671 -0.0824  0.1524  0.5509
   28CHL1    H9 3216   2.937   2.022   5.671  1.6023  4.2174  5.1760
   28CHL1   C10 3217   2.779   2.031   5.814 -0.0684 -0.7249 -0.2881
   28CHL1   C19 3218   2.627   2.045   5.813  0.4097 -0.2563  0.3385
   28CHL1  H19A 3219   2.597   2.145   5.774  1.7631  0.8742  2.0379
   28CHL1  H19B 3220   2.568   1.970   5.757  0.9770 -0.6054  0.2063
   28CHL1  H19C 3221   2.586   2.038   5.916 -3.1992 -2.1229 -1.0552
   28CHL1    C1 3222   2.822   1.894   5.862 -0.4798  0.8243  0.4208
   28CHL1   H1A 3223   2.765   1.808   5.820 -1.6002  1.5817  0.3567
   28CHL1   H1B 3224   2.928   1.877   5.833 -0.9003 -0.8596 -0.2419
   28CHL1    C2 3225   2.810   1.869   6.014  0.0738 -0.0995  0.5697
   28CHL1   H2A 3226   2.871   1.780   6.039  1.3556  0.3957 -0.6658
   28CHL1   H2B 3227   2.703   1.844   6.034  0.0616 -1.2537 -0.7180
   28CHL1   C20 3228   2.804   2.137   5.117 -0.6050  0.6702  0.3611
   28CHL1   H20 3229   2.763   2.034   5.121  2.7810 -0.9440 -1.5304
   28CHL1   C21 3230   2.926   2.136   5.023  0.0268  0.5294  0.0534
   28CHL1  H21A 3231   3.017   2.093   5.070  0.1324  0.7840  0.0827
   28CHL1  H21B 3232   2.945   2.244   5.002 -1.1959  1.3800  2.7980
   28CHL1  H21C 3233   2.908   2.084   4.927 -0.2590  1.3304 -0.3362
   28CHL1   C22 3234   2.699   2.231   5.056  0.6001 -0.5476 -0.3523
   28CHL1  H22A 3235   2.619   2.250   5.131 -0.1273  3.0131 -1.8622
   28CHL1  H22B 3236   2.730   2.334   5.032 -2.6348  0.7435  0.4728
   28CHL1   C23 3237   2.629   2.168   4.931  0.4360 -0.0551 -0.8689
   28CHL1  H23A 3238   2.702   2.130   4.856  0.3767 -1.9472 -0.0407
   28CHL1  H23B 3239   2.582   2.073   4.964  1.8692 -0.7154 -0.6029
   28CHL1   C24 3240   2.521   2.258   4.864  0.2106  0.1242  0.2935
   28CHL1  H24A 3241   2.456   2.293   4.946  0.4394  0.6778  0.2425
   28CHL1  H24B 3242   2.588   2.342   4.837  1.8001 -1.2376 -0.1898
   28CHL1   C25 3243   2.451   2.197   4.748  0.4188 -0.6541  0.0661
   28CHL1   H25 3244   2.404   2.102   4.777 -0.3724 -0.5373 -0.7882
   28CHL1   C26 3245   2.332   2.283   4.702 -0.4607  0.7662 -0.1566
   28CHL1  H26A 3246   2.270   2.316   4.789  2.1147  1.4869  1.5022
   28CHL1  H26B 3247   2.372   2.379   4.665  0.0850  0.4277 -0.4589
   28CHL1  H26C 3248   2.267   2.240   4.623  2.0976  0.9915 -2.5329
   28CHL1   C27 3249   2.544   2.167   4.625  0.2625  0.0657 -0.0468
   28CHL1  H27A 3250   2.490   2.096   4.559 -1.3340  0.5216  0.7457
   28CHL1  H27B 3251   2.588   2.249   4.564  0.7256 -2.5966 -3.6116
   28CHL1  H27C 3252   2.625   2.102   4.666 -0.3360 -0.9219 -0.3996
   29CHL1    C3 3253   0.367   2.880   6.614 -0.8650 -0.5877  0.1060
   29CHL1    H3 3254   0.357   2.987   6.642  0.7466 -0.4382  0.2020
   29CHL1    O3 3255   0.371   2.812   6.733  0.8927  0.6560  0.3102
   29CHL1   H3' 3256   0.280   2.810   6.765  0.9745 -0.9843  0.4843
   29CHL1    C4 3257   0.238   2.838   6.534  0.1838 -0.4433 -0.0359
   29CHL1   H4A 3258   0.249   2.727   6.538  0.0654 -0.4608 -0.2033
   29CHL1   H4B 3259   0.149   2.860   6.597  0.4156 -2.4122  1.0797
   29CHL1    C5 3260   0.236   2.875   6.390 -0.4017  0.8744 -0.3650
   29CHL1    C6 3261   0.136   2.949   6.338  0.2410  0.1115 -0.5922
   29CHL1    H6 3262   0.049   2.983   6.396 -0.3172 -2.8653  0.4846
   29CHL1    C7 3263   0.119   2.960   6.192 -0.5367  0.5781  0.0422
   29CHL1   H7A 3264   0.014   2.932   6.173 -0.1073 -3.6477  2.6734
   29CHL1   H7B 3265   0.132   3.067   6.163  0.0870 -0.0454 -2.1071
   29CHL1    C8 3266   0.223   2.884   6.102  0.4026 -0.0481 -1.0127
   29CHL1    H8 3267   0.180   2.781   6.104 -0.8394  0.4694  0.0089
   29CHL1   C14 3268   0.230   2.938   5.960 -1.1018  0.6147 -0.8694
   29CHL1   H14 3269   0.275   3.040   5.958 -0.6663  0.4276 -3.1208
   29CHL1   C15 3270   0.099   2.946   5.884 -0.0206  0.0910 -0.8554
   29CHL1  H15A 3271   0.033   2.857   5.886  0.0506  0.0464 -0.4869
   29CHL1  H15B 3272   0.046   3.041   5.908  1.7699  1.3332 -1.5415
   29CHL1   C16 3273   0.131   2.954   5.734  0.1456 -0.0941  0.0526
   29CHL1  H16A 3274   0.079   2.882   5.668 -1.3563  0.7703  0.2545
   29CHL1  H16B 3275   0.111   3.056   5.696 -1.1181 -1.0408 -2.0069
   29CHL1   C17 3276   0.289   2.925   5.730 -0.1081 -0.1856 -0.7187
   29CHL1   H17 3277   0.335   3.026   5.735 -0.8856  0.2470 -1.9537
   29CHL1   C13 3278   0.329   2.861   5.867  0.1277 -0.1972 -0.3595
   29CHL1   C18 3279   0.297   2.713   5.868 -0.0302 -0.3235  1.0866
   29CHL1  H18A 3280   0.206   2.695   5.806  0.9905  1.7919 -1.2024
   29CHL1  H18B 3281   0.362   2.649   5.804 -0.8641 -0.8911  0.7861
   29CHL1  H18C 3282   0.271   2.664   5.964  0.1576 -1.0445  0.7785
   29CHL1   C12 3283   0.468   2.891   5.923 -0.3823 -0.6716  0.5692
   29CHL1  H12A 3284   0.546   2.826   5.878  1.9522 -0.1044  3.4573
   29CHL1  H12B 3285   0.495   2.999   5.920 -3.6470  0.2981  1.4420
   29CHL1   C11 3286   0.483   2.855   6.073 -0.1923  0.1811  0.0527
   29CHL1  H11A 3287   0.491   2.745   6.084  1.0933  0.3094  0.5431
   29CHL1  H11B 3288   0.568   2.911   6.119  0.1990 -2.9034  3.5287
   29CHL1    C9 3289   0.363   2.895   6.159 -0.7646  0.0780  0.8617
   29CHL1    H9 3290   0.384   3.003   6.174 -0.6913  0.3434 -0.9256
   29CHL1   C10 3291   0.363   2.836   6.308  0.0601 -0.6255  0.1350
   29CHL1   C19 3292   0.368   2.681   6.288  0.5750  0.0382 -0.1404
   29CHL1  H19A 3293   0.357   2.617   6.379  2.0363  0.6214  0.4903
   29CHL1  H19B 3294   0.293   2.656   6.211  0.2852  1.3437 -0.3085
   29CHL1  H19C 3295   0.465   2.641   6.252  0.2428  0.9811 -2.1849
   29CHL1    C1 3296   0.478   2.894   6.391 -0.2302 -0.1119 -0.2903
   29CHL1   H1A 3297   0.572   2.870   6.335  0.5016 -1.1134  1.3032
   29CHL1   H1B 3298   0.476   3.005   6.395  0.5484 -0.1398  1.9524
   29CHL1    C2 3299   0.495   2.845   6.538  0.5862 -0.1764  0.0354
   29CHL1   H2A 3300   0.582   2.885   6.595  0.3856  1.7327 -0.9075
   29CHL1   H2B 3301   0.512   2.736   6.543  0.9972 -0.1720 -0.9418
   29CHL1   C20 3302   0.337   2.852   5.603 -0.3119  0.2853 -0.6118
   29CHL1   H20 3303   0.318   2.742   5.605  2.7779 -0.3497  1.1103
   29CHL1   C21 3304   0.493   2.844   5.596 -0.4310  0.1088 -0.7319
   29CHL1  H21A 3305   0.533   2.769   5.667  2.1662  1.4907 -0.6183
   29CHL1  H21B 3306   0.533   2.940   5.636  1.0631 -0.5655 -0.5744
   29CHL1  H21C 3307   0.527   2.822   5.493  0.4682  4.0125 -1.4208
   29CHL1   C22 3308   0.291   2.920   5.471  0.2482  0.3120  0.0004
   29CHL1  H22A 3309   0.185   2.952   5.481  0.0005  0.0957 -1.5287
   29CHL1  H22B 3310   0.362   3.000   5.441 -0.8712  1.1013 -0.6359
   29CHL1   C23 3311   0.291   2.820   5.362 -0.1476  0.1997  0.4946
   29CHL1  H23A 3312   0.395   2.792   5.333  0.5843 -1.4287  4.0718
   29CHL1  H23B 3313   0.243   2.727   5.401 -1.8501  0.0208 -1.8161
   29CHL1   C24 3314   0.215   2.870   5.236  0.1037  0.0915 -0.0645
   29CHL1  H24A 3315   0.107   2.872   5.263  0.3280 -0.7863  1.0043
   29CHL1  H24B 3316   0.248   2.972   5.206  0.5291  0.5370  1.7533
   29CHL1   C25 3317   0.234   2.767   5.122  0.7674  0.1403 -0.0068
   29CHL1   H25 3318   0.206   2.666   5.158  0.5756  0.6580  1.3778
   29CHL1   C26 3319   0.139   2.800   5.008  0.4325 -0.4965  0.3239
   29CHL1  H26A 3320   0.043   2.838   5.050  0.3177  0.9553 -1.1506
   29CHL1  H26B 3321   0.172   2.891   4.955  1.2129  0.3801  2.2069
   29CHL1  H26C 3322   0.115   2.716   4.940 -0.8949 -0.0412  0.1830
   29CHL1   C27 3323   0.378   2.764   5.063 -0.1332 -0.5644  1.0439
   29CHL1  H27A 3324   0.464   2.737   5.129  1.1309 -2.8796 -1.3508
   29CHL1  H27B 3325   0.392   2.694   4.978  3.0157 -1.7695  2.4018
   29CHL1  H27C 3326   0.387   2.870   5.031  1.5946 -0.3956  1.9643
   30CHL1    C3 3327   5.458   4.371   6.435  1.3393  0.5599 -0.0793
   30CHL1    H3 3328   5.505   4.471   6.425  1.7424  0.4869  0.9470
   30CHL1    O3 3329   5.474   4.347   6.577 -0.0600 -0.7016  0.0470
   30CHL1   H3' 3330   5.398   4.387   6.618 -2.3911 -0.8667 -3.6178
   30CHL1    C4 3331   5.307   4.366   6.408 -0.2527  0.3056 -0.5677
   30CHL1   H4A 3332   5.258   4.273   6.445  1.9055 -0.7964 -0.3438
   30CHL1   H4B 3333   5.254   4.436   6.476  0.0191 -0.3974  0.3885
   30CHL1    C5 3334   5.276   4.387   6.261 -0.5313 -0.0395 -0.2679
   30CHL1    C6 3335   5.186   4.484   6.226 -0.1088  0.4200 -0.8519
   30CHL1    H6 3336   5.143   4.552   6.301  0.2722  1.5665 -1.6477
   30CHL1    C7 3337   5.153   4.500   6.083  0.0577  0.0952  0.0835
   30CHL1   H7A 3338   5.045   4.515   6.064 -0.2904 -2.1689  0.0499
   30CHL1   H7B 3339   5.194   4.599   6.054 -1.6414  0.4755 -1.1453
   30CHL1    C8 3340   5.193   4.379   5.997 -0.5290 -0.6398  0.6787
   30CHL1    H8 3341   5.120   4.298   6.020 -1.4647  0.0329  0.1458
   30CHL1   C14 3342   5.182   4.429   5.852  0.1380  0.0888  0.1190
   30CHL1   H14 3343   5.250   4.517   5.842  0.8526 -0.4304  0.3152
   30CHL1   C15 3344   5.042   4.480   5.795 -0.0063  0.5467  0.1472
   30CHL1  H15A 3345   4.962   4.408   5.822  0.0333  0.1200 -0.8143
   30CHL1  H15B 3346   5.017   4.581   5.831 -3.0550 -0.5018  1.2130
   30CHL1   C16 3347   5.061   4.476   5.643 -0.9347  0.1730  0.0787
   30CHL1  H16A 3348   4.969   4.433   5.598  0.4185  0.3282 -3.1406
   30CHL1  H16B 3349   5.086   4.576   5.602 -0.8177 -0.1354 -0.6139
   30CHL1   C17 3350   5.188   4.383   5.615 -0.8287 -0.3338  0.1168
   30CHL1   H17 3351   5.275   4.447   5.590  0.1583 -1.4729  0.5055
   30CHL1   C13 3352   5.227   4.325   5.750 -0.4143  0.4949 -0.1287
   30CHL1   C18 3353   5.156   4.192   5.765 -0.0596 -0.2653 -1.1541
   30CHL1  H18A 3354   5.050   4.190   5.730 -1.1587 -0.4517  1.8845
   30CHL1  H18B 3355   5.209   4.110   5.713  0.6898 -1.1603  0.9162
   30CHL1  H18C 3356   5.160   4.160   5.871  1.0705  1.3348 -0.6687
   30CHL1   C12 3357   5.376   4.302   5.774 -0.7072  0.3569  0.4565
   30CHL1  H12A 3358   5.423   4.235   5.699 -0.8179  1.9092 -1.0818
   30CHL1  H12B 3359   5.432   4.398   5.762  1.5497 -0.8220  1.0713
   30CHL1   C11 3360   5.393   4.242   5.913 -0.6087  0.5676 -0.6986
   30CHL1  H11A 3361   5.353   4.138   5.920 -1.3762  0.9107  0.0216
   30CHL1  H11B 3362   5.503   4.238   5.927 -0.4671  2.0965 -1.2310
   30CHL1    C9 3363   5.339   4.339   6.029 -0.1278  0.4280  0.4376
   30CHL1    H9 3364   5.400   4.430   6.010 -0.9406  0.9904  0.4658
   30CHL1   C10 3365   5.356   4.290   6.169 -0.5338  0.4346 -0.1564
   30CHL1   C19 3366   5.287   4.152   6.177 -0.1938  0.9272  0.1239
   30CHL1  H19A 3367   5.330   4.074   6.110 -0.4645 -0.5600  1.6387
   30CHL1  H19B 3368   5.293   4.108   6.279 -1.6815 -2.1134 -0.9672
   30CHL1  H19C 3369   5.177   4.158   6.162 -0.3576 -0.8853  0.3813
   30CHL1    C1 3370   5.508   4.277   6.200 -0.1754  0.4511 -0.0707
   30CHL1   H1A 3371   5.555   4.196   6.140 -1.3770  0.2676 -0.8039
   30CHL1   H1B 3372   5.559   4.372   6.175 -1.8879  2.0226  2.0041
   30CHL1    C2 3373   5.530   4.267   6.351  0.7523 -0.4846  0.5630
   30CHL1   H2A 3374   5.636   4.270   6.383  0.8012 -1.1773  0.4873
   30CHL1   H2B 3375   5.494   4.164   6.375 -0.5309 -0.1228  0.2586
   30CHL1   C20 3376   5.174   4.301   5.489  0.2877 -0.6702 -0.5723
   30CHL1   H20 3377   5.082   4.241   5.504 -1.2443  1.4249 -1.2151
   30CHL1   C21 3378   5.295   4.215   5.457  0.2587 -0.2737  0.5983
   30CHL1  H21A 3379   5.307   4.143   5.541  1.0117 -1.3170 -0.3678
   30CHL1  H21B 3380   5.383   4.280   5.437 -0.3226  0.5008  0.5141
   30CHL1  H21C 3381   5.272   4.154   5.367 -0.3144  0.8579 -0.0415
   30CHL1   C22 3382   5.144   4.394   5.364 -0.1892 -0.4085 -0.3721
   30CHL1  H22A 3383   5.052   4.454   5.381  0.7982  0.9878  0.2133
   30CHL1  H22B 3384   5.224   4.468   5.345  1.5263 -2.1674 -0.3699
   30CHL1   C23 3385   5.125   4.326   5.226 -0.0372 -0.2465  1.4441
   30CHL1  H23A 3386   5.221   4.292   5.182  0.1851 -0.2194  1.9005
   30CHL1  H23B 3387   5.059   4.238   5.240  0.3782 -0.9794 -0.8703
   30CHL1   C24 3388   5.077   4.428   5.124  0.2118 -0.1957 -0.4756
   30CHL1  H24A 3389   4.996   4.488   5.170  0.5730  1.1200 -1.5039
   30CHL1  H24B 3390   5.163   4.493   5.097 -0.4154  0.5608 -0.6787
   30CHL1   C25 3391   5.024   4.351   4.992 -0.2725 -0.3491  0.2182
   30CHL1   H25 3392   4.933   4.292   5.017  0.4302 -1.1224  0.9861
   30CHL1   C26 3393   4.975   4.458   4.899 -0.4699 -0.0358  0.6356
   30CHL1  H26A 3394   5.063   4.510   4.855 -0.6658  0.9942  1.4125
   30CHL1  H26B 3395   4.919   4.405   4.819  1.5776  0.1285 -0.9798
   30CHL1  H26C 3396   4.913   4.536   4.949 -2.3080 -1.9850  1.5678
   30CHL1   C27 3397   5.133   4.264   4.926  0.1296 -1.1161  0.5262
   30CHL1  H27A 3398   5.101   4.208   4.836 -0.3265  1.7854 -1.2222
   30CHL1  H27B 3399   5.204   4.338   4.884 -0.5866 -0.5441  0.3089
   30CHL1  H27C 3400   5.185   4.201   5.002 -0.7967 -2.8318 -0.1933
   31CHL1    C3 3401   5.721   5.918   6.487  0.4101  0.1366  0.0333
   31CHL1    H3 3402   5.693   5.811   6.489  0.2713  0.1711  1.6693
   31CHL1    O3 3403   5.715   5.970   6.621  0.1978  0.6263  0.0186
   31CHL1   H3' 3404   5.737   6.062   6.605  0.3806  0.6451  0.3776
   31CHL1    C4 3405   5.861   5.917   6.425  0.3416  0.3635 -0.2616
   31CHL1   H4A 3406   5.909   6.017   6.438 -0.9900  1.0347 -0.3237
   31CHL1   H4B 3407   5.934   5.866   6.493  0.1089 -0.3716 -0.5589
   31CHL1    C5 3408   5.849   5.863   6.278  0.1129  0.5586 -0.0835
   31CHL1    C6 3409   5.932   5.767   6.235 -0.6494 -0.9817 -0.2059
   31CHL1    H6 3410   6.004   5.723   6.306  0.3877  1.1701  0.1750
   31CHL1    C7 3411   5.942   5.724   6.093  0.5895 -0.1077 -0.0020
   31CHL1   H7A 3412   6.047   5.731   6.058  1.1971 -0.8279  1.5836
   31CHL1   H7B 3413   5.899   5.622   6.086  1.9923 -0.6268 -1.6052
   31CHL1    C8 3414   5.867   5.820   5.995  0.2009 -0.1076  0.1615
   31CHL1    H8 3415   5.925   5.913   5.979 -0.3009 -0.0924 -1.8148
   31CHL1   C14 3416   5.832   5.748   5.865 -0.0017 -0.1972  0.2517
   31CHL1   H14 3417   5.779   5.652   5.883 -1.7710  0.5204 -0.8529
   31CHL1   C15 3418   5.950   5.682   5.787 -0.1871  0.1431  0.1965
   31CHL1  H15A 3419   6.039   5.748   5.787  0.5231 -0.6904  2.7628
   31CHL1  H15B 3420   5.984   5.588   5.836 -0.5215 -0.4246 -0.6444
   31CHL1   C16 3421   5.892   5.654   5.646 -0.8237  0.0395  0.2467
   31CHL1  H16A 3422   5.971   5.677   5.572  1.0910 -2.5574  1.3347
   31CHL1  H16B 3423   5.867   5.548   5.626  1.0916 -0.4556  0.2247
   31CHL1   C17 3424   5.769   5.736   5.635  0.0655 -0.2284 -0.7254
   31CHL1   H17 3425   5.673   5.682   5.653 -0.2199  1.2621  3.5867
   31CHL1   C13 3426   5.768   5.833   5.758  0.6529 -0.3316 -0.0884
   31CHL1   C18 3427   5.855   5.948   5.716  0.4808  0.2399 -0.0476
   31CHL1  H18A 3428   5.900   6.002   5.802  0.0954  0.0715  0.2612
   31CHL1  H18B 3429   5.944   5.919   5.655  1.8408 -0.5958  2.1924
   31CHL1  H18C 3430   5.797   6.023   5.658  0.5308  0.6783  0.4616
   31CHL1   C12 3431   5.629   5.888   5.816  0.7358  0.1034  0.0818
   31CHL1  H12A 3432   5.578   5.955   5.743 -1.5204 -2.2340 -0.6711
   31CHL1  H12B 3433   5.574   5.795   5.840 -1.2892  0.8621 -1.3403
   31CHL1   C11 3434   5.652   5.957   5.950  0.1577 -0.2006 -0.5961
   31CHL1  H11A 3435   5.694   6.059   5.932 -2.4173  0.6311 -2.5512
   31CHL1  H11B 3436   5.552   5.969   5.998  0.2157 -1.4305 -0.1461
   31CHL1    C9 3437   5.732   5.873   6.055 -0.0152  0.2460 -0.0956
   31CHL1    H9 3438   5.663   5.786   6.057  1.9556 -1.3864  1.6686
   31CHL1   C10 3439   5.748   5.936   6.194 -0.0812  0.1094  0.0007
   31CHL1   C19 3440   5.801   6.083   6.170 -0.6490 -0.1224 -0.3625
   31CHL1  H19A 3441   5.878   6.088   6.090 -0.0262 -1.8604  0.0882
   31CHL1  H19B 3442   5.710   6.140   6.141  0.7219  2.9251  0.8551
   31CHL1  H19C 3443   5.844   6.126   6.263 -1.0935 -1.0255  0.2674
   31CHL1    C1 3444   5.608   5.937   6.258  0.4912  0.5553 -0.5141
   31CHL1   H1A 3445   5.538   6.003   6.203  1.0335  1.4393 -0.1616
   31CHL1   H1B 3446   5.575   5.831   6.259 -0.4814  0.8214  2.1938
   31CHL1    C2 3447   5.620   5.989   6.398 -0.2807  0.6935  0.2696
   31CHL1   H2A 3448   5.522   5.986   6.451  1.3253 -1.0623  3.4089
   31CHL1   H2B 3449   5.663   6.092   6.396  3.5545 -0.7656  0.8394
   31CHL1   C20 3450   5.747   5.797   5.493 -0.0078  0.4284 -0.9057
   31CHL1   H20 3451   5.820   5.867   5.447  1.5553 -0.3382  0.3272
   31CHL1   C21 3452   5.604   5.857   5.486  0.0770  0.6507  0.1770
   31CHL1  H21A 3453   5.604   5.947   5.551  0.1877 -0.0485  1.1636
   31CHL1  H21B 3454   5.528   5.784   5.522  0.9103 -0.8302 -0.9411
   31CHL1  H21C 3455   5.582   5.897   5.384  0.4100 -1.7045 -0.8825
   31CHL1   C22 3456   5.767   5.683   5.382 -0.2062 -0.4953  0.5339
   31CHL1  H22A 3457   5.869   5.638   5.385 -0.5492 -1.9515 -3.4866
   31CHL1  H22B 3458   5.690   5.608   5.409  1.3709 -2.4644 -0.1664
   31CHL1   C23 3459   5.743   5.740   5.241 -0.5093 -0.6790 -0.2976
   31CHL1  H23A 3460   5.639   5.774   5.220 -0.5262  0.4939  1.4183
   31CHL1  H23B 3461   5.809   5.827   5.220  2.4592 -2.5577  0.5722
   31CHL1   C24 3462   5.772   5.631   5.139  0.3648 -0.0892  0.7380
   31CHL1  H24A 3463   5.879   5.608   5.123  0.7198  1.5389  0.6404
   31CHL1  H24B 3464   5.724   5.534   5.166 -2.5356  0.5261 -1.7364
   31CHL1   C25 3465   5.708   5.655   5.000 -0.4300 -0.4465 -0.5178
   31CHL1   H25 3466   5.757   5.584   4.930  0.1963  1.3870 -2.0234
   31CHL1   C26 3467   5.559   5.611   5.001 -0.1818  0.5562 -0.8312
   31CHL1  H26A 3468   5.511   5.629   4.903 -3.3903 -1.1781  0.2783
   31CHL1  H26B 3469   5.545   5.507   5.037 -1.5333  0.8714 -0.3642
   31CHL1  H26C 3470   5.506   5.670   5.080  2.1161  0.8880  0.5797
   31CHL1   C27 3471   5.728   5.801   4.947  0.3329  0.0829  0.0489
   31CHL1  H27A 3472   5.685   5.880   5.012  0.1572 -0.6038  0.8000
   31CHL1  H27B 3473   5.833   5.821   4.920  0.0773  1.2329 -0.1570
   31CHL1  H27C 3474   5.671   5.810   4.852 -0.7153  1.9436  0.8044
   32CHL1    C3 3475   5.408   1.137   6.612 -0.5509 -0.5796  0.1469
   32CHL1    H3 3476   5.341   1.217   6.573  0.1859  0.3779  0.8023
   32CHL1    O3 3477   5.379   1.108   6.749  0.3213 -0.7678 -0.4562
   32CHL1   H3' 3478   5.458   1.096   6.803 -0.3578  0.0675  0.8049
   32CHL1    C4 3479   5.391   1.009   6.528 -0.0366  0.3644  0.2439
   32CHL1   H4A 3480   5.458   0.938   6.580  0.9869  1.0789 -0.0671
   32CHL1   H4B 3481   5.283   0.985   6.538  0.2520 -0.9443  0.4054
   32CHL1    C5 3482   5.432   1.030   6.384  0.3790  0.2177 -0.8092
   32CHL1    C6 3483   5.349   1.013   6.284 -0.6420  0.1955 -0.1393
   32CHL1    H6 3484   5.245   0.983   6.304 -0.1897  0.5339  3.1352
   32CHL1    C7 3485   5.386   1.038   6.138 -0.2798  0.4957 -0.5950
   32CHL1   H7A 3486   5.335   0.962   6.075  3.1391 -1.5672 -1.1710
   32CHL1   H7B 3487   5.346   1.138   6.114 -4.2791 -1.2408 -1.9938
   32CHL1    C8 3488   5.537   1.039   6.115 -0.3692  0.2954  0.2180
   32CHL1    H8 3489   5.570   0.935   6.136 -0.8238  0.4419  1.8067
   32CHL1   C14 3490   5.569   1.066   5.968  0.2129 -0.2657  0.4739
   32CHL1   H14 3491   5.530   1.170   5.955 -1.1251 -0.3962  2.8475
   32CHL1   C15 3492   5.481   0.997   5.855  0.5917  0.5353  0.5940
   32CHL1  H15A 3493   5.481   0.890   5.884 -0.7162 -0.1239 -1.5960
   32CHL1  H15B 3494   5.378   1.036   5.840  0.3123 -0.9786 -2.0523
   32CHL1   C16 3495   5.577   1.006   5.736  0.8350  0.3837  0.1485
   32CHL1  H16A 3496   5.606   0.902   5.712 -0.1897 -0.0126  0.5390
   32CHL1  H16B 3497   5.533   1.047   5.643 -0.5633  0.4095  0.7882
   32CHL1   C17 3498   5.708   1.086   5.787  0.2380  0.3328 -0.3144
   32CHL1   H17 3499   5.683   1.195   5.787  2.0774  0.8692  2.4426
   32CHL1   C13 3500   5.717   1.064   5.943 -0.1661 -0.4403 -0.9660
   32CHL1   C18 3501   5.782   0.927   5.965  0.4570  0.4903 -0.4594
   32CHL1  H18A 3502   5.882   0.918   5.917  0.9019 -0.7590  0.6603
   32CHL1  H18B 3503   5.786   0.898   6.072 -0.6807 -0.3979 -0.6376
   32CHL1  H18C 3504   5.720   0.848   5.918 -1.9482  0.0398  3.1079
   32CHL1   C12 3505   5.777   1.183   6.020  0.0867  0.3932  0.3557
   32CHL1  H12A 3506   5.887   1.192   6.011  0.2589 -1.8376 -0.1881
   32CHL1  H12B 3507   5.723   1.276   5.992 -2.3312 -0.2046  2.6307
   32CHL1   C11 3508   5.750   1.161   6.170  0.3327 -0.6245  0.1841
   32CHL1  H11A 3509   5.814   1.081   6.213 -1.5841 -1.5658  1.4405
   32CHL1  H11B 3510   5.780   1.255   6.222 -0.0196 -0.8425  0.7998
   32CHL1    C9 3511   5.604   1.138   6.213 -0.0479  0.3201 -0.5816
   32CHL1    H9 3512   5.554   1.236   6.196 -0.5737  0.5753  2.0101
   32CHL1   C10 3513   5.576   1.094   6.358 -0.1088  0.3402 -0.9626
   32CHL1   C19 3514   5.679   0.983   6.399  0.5756  0.0733 -0.6057
   32CHL1  H19A 3515   5.669   0.889   6.341 -1.7312 -0.8033  1.0204
   32CHL1  H19B 3516   5.780   1.028   6.405  0.6055 -0.1735  2.6714
   32CHL1  H19C 3517   5.661   0.942   6.501  1.5442  1.2406  0.0595
   32CHL1    C1 3518   5.595   1.213   6.454 -0.2928 -0.5520  0.0278
   32CHL1   H1A 3519   5.705   1.232   6.456 -0.2811 -0.6075  1.7448
   32CHL1   H1B 3520   5.552   1.309   6.420  0.5092  0.7042  2.2829
   32CHL1    C2 3521   5.552   1.182   6.599 -0.0570 -0.0528  0.3932
   32CHL1   H2A 3522   5.573   1.275   6.657  1.3652  0.0199 -0.1974
   32CHL1   H2B 3523   5.607   1.096   6.644 -2.8537 -2.4175 -0.4309
   32CHL1   C20 3524   5.825   1.056   5.698 -0.0889  0.4575  0.5067
   32CHL1   H20 3525   5.858   0.950   5.709 -1.1736  0.2132  1.6564
   32CHL1   C21 3526   5.953   1.129   5.748 -0.2660 -0.0656  0.1943
   32CHL1  H21A 3527   5.956   1.240   5.735  1.4384 -0.0183  0.7441
   32CHL1  H21B 3528   6.045   1.090   5.699  0.2627  0.9936  0.3122
   32CHL1  H21C 3529   5.973   1.103   5.854  0.8731  1.8776  0.5031
   32CHL1   C22 3530   5.797   1.095   5.545 -0.0573 -0.0170  0.4508
   32CHL1  H22A 3531   5.710   1.035   5.512 -0.1514 -0.6730  1.8070
   32CHL1  H22B 3532   5.755   1.198   5.533  1.1915  0.1997 -3.2043
   32CHL1   C23 3533   5.903   1.060   5.445 -0.1941 -0.2744 -0.2353
   32CHL1  H23A 3534   5.856   1.068   5.345  1.7576 -2.0656 -1.3922
   32CHL1  H23B 3535   5.992   1.126   5.454 -1.1373  0.9289  0.6207
   32CHL1   C24 3536   5.956   0.916   5.449  0.3360 -0.8863 -0.2352
   32CHL1  H24A 3537   5.997   0.890   5.549 -1.2359  0.8561  0.9022
   32CHL1  H24B 3538   5.878   0.841   5.422 -0.8492  0.2816 -0.1122
   32CHL1   C25 3539   6.062   0.885   5.334  0.2547  0.0070  0.2973
   32CHL1   H25 3540   6.133   0.970   5.344  2.3896 -1.6073 -0.2581
   32CHL1   C26 3541   6.118   0.746   5.350 -0.2038  0.0907  0.2771
   32CHL1  H26A 3542   6.047   0.661   5.336 -0.9634  0.9619 -1.4775
   32CHL1  H26B 3543   6.193   0.726   5.269 -0.7342 -0.5109 -0.0824
   32CHL1  H26C 3544   6.160   0.722   5.450  2.3219  1.3526 -0.4008
   32CHL1   C27 3545   5.996   0.889   5.200  0.0124  0.1901  0.4569
   32CHL1  H27A 3546   5.928   0.803   5.180 -2.1978  1.7196  1.0842
   32CHL1  H27B 3547   5.926   0.974   5.189 -1.2447 -0.6697  1.5314
   32CHL1  H27C 3548   6.076   0.901   5.123 -0.7433  0.6905 -0.2632
   33CHL1    C3 3549   3.494   2.876   6.122  0.1506 -0.5211 -0.4173
   33CHL1    H3 3550   3.387   2.864   6.096  0.3515 -0.6229 -1.2275
   33CHL1    O3 3551   3.523   2.891   6.258  0.2318  0.5526  0.4975
   33CHL1   H3' 3552   3.500   2.803   6.290 -1.0653  0.2198 -1.2095
   33CHL1    C4 3553   3.579   2.753   6.063  0.1566  0.0880 -0.1982
   33CHL1   H4A 3554   3.683   2.746   6.103 -1.0707 -0.1991  3.3115
   33CHL1   H4B 3555   3.528   2.662   6.102  0.6596 -0.9170 -1.7768
   33CHL1    C5 3556   3.580   2.746   5.907 -0.9052 -0.9065 -0.5652
   33CHL1    C6 3557   3.563   2.624   5.856 -0.3307  0.2064  0.4571
   33CHL1    H6 3558   3.551   2.533   5.917 -1.0634 -0.8583 -1.2207
   33CHL1    C7 3559   3.589   2.583   5.712 -0.4198 -0.3607 -0.3451
   33CHL1   H7A 3560   3.656   2.494   5.716 -0.7308 -0.5526  1.4663
   33CHL1   H7B 3561   3.492   2.555   5.666 -0.8105 -1.3380  0.9866
   33CHL1    C8 3562   3.646   2.708   5.638 -0.3724 -0.2410  0.4371
   33CHL1    H8 3563   3.756   2.720   5.635 -0.0507 -1.9728  2.6589
   33CHL1   C14 3564   3.618   2.699   5.486  0.2232  0.6813 -0.5903
   33CHL1   H14 3565   3.507   2.694   5.472  0.5563  0.6228 -3.8249
   33CHL1   C15 3566   3.658   2.562   5.417 -0.4643 -0.0003  0.0421
   33CHL1  H15A 3567   3.760   2.535   5.452 -0.9253 -1.0816  0.6149
   33CHL1  H15B 3568   3.592   2.476   5.442  0.3386 -0.0760  2.0679
   33CHL1   C16 3569   3.647   2.600   5.274 -0.4758 -0.7551  0.5498
   33CHL1  H16A 3570   3.741   2.583   5.217  0.1963  0.6015  1.1983
   33CHL1  H16B 3571   3.556   2.550   5.235 -0.3907  0.1394 -0.8960
   33CHL1   C17 3572   3.626   2.759   5.262  0.5908  1.1977  0.0306
   33CHL1   H17 3573   3.518   2.767   5.240  0.3753 -2.6666 -1.0290
   33CHL1   C13 3574   3.663   2.812   5.399  0.2127  0.5895  0.1822
   33CHL1   C18 3575   3.820   2.830   5.410  0.1185  0.9491  0.6151
   33CHL1  H18A 3576   3.862   2.894   5.330 -1.9487  0.6419 -0.7920
   33CHL1  H18B 3577   3.845   2.859   5.515 -0.4581  0.6352  0.8393
   33CHL1  H18C 3578   3.861   2.727   5.397 -2.9990 -0.3532  0.2338
   33CHL1   C12 3579   3.584   2.937   5.442 -0.4360  0.2363  0.0738
   33CHL1  H12A 3580   3.621   3.029   5.390  0.0390  0.0846  0.1383
   33CHL1  H12B 3581   3.478   2.923   5.412 -0.7817  2.5501 -0.0131
   33CHL1   C11 3582   3.605   2.967   5.591  0.4793 -0.2842  0.1670
   33CHL1  H11A 3583   3.710   3.001   5.605  0.8588 -1.8740  1.5327
   33CHL1  H11B 3584   3.520   3.034   5.615 -0.6273 -1.8849  0.9127
   33CHL1    C9 3585   3.581   2.842   5.685 -0.1615  0.6533 -0.2243
   33CHL1    H9 3586   3.473   2.823   5.668  0.5348 -3.3718 -1.1371
   33CHL1   C10 3587   3.607   2.870   5.833  0.5637  0.1581 -1.1229
   33CHL1   C19 3588   3.751   2.911   5.859 -0.0994  0.4787  0.5469
   33CHL1  H19A 3589   3.781   2.925   5.965  0.8895  3.7973 -0.0602
   33CHL1  H19B 3590   3.825   2.837   5.822 -2.1054 -2.1194  1.3733
   33CHL1  H19C 3591   3.770   3.012   5.817  1.3481  1.2651  2.8913
   33CHL1    C1 3592   3.509   2.981   5.888  0.2661  0.6204  0.2181
   33CHL1   H1A 3593   3.524   3.081   5.843 -3.0199  1.9862  1.8284
   33CHL1   H1B 3594   3.405   2.946   5.869  0.8096 -0.3017 -1.2979
   33CHL1    C2 3595   3.524   3.002   6.042 -0.2655 -0.3518  0.0949
   33CHL1   H2A 3596   3.452   3.082   6.069 -0.6781 -0.1800 -1.4566
   33CHL1   H2B 3597   3.625   3.045   6.062 -0.9344  1.3970 -0.1517
   33CHL1   C20 3598   3.696   2.820   5.141  0.2105  0.0438 -0.0898
   33CHL1   H20 3599   3.805   2.801   5.139 -0.2313 -2.9000 -1.5481
   33CHL1   C21 3600   3.665   2.974   5.140  0.5319  0.9271 -0.6428
   33CHL1  H21A 3601   3.712   3.015   5.048  0.6865 -0.5754 -1.2565
   33CHL1  H21B 3602   3.722   3.023   5.221 -0.1802  1.2683 -0.3401
   33CHL1  H21C 3603   3.559   3.007   5.143  1.0003  2.6971 -1.8671
   33CHL1   C22 3604   3.644   2.745   5.009 -0.1833 -0.3921  0.3464
   33CHL1  H22A 3605   3.637   2.635   5.025  1.9259 -0.5063  0.7676
   33CHL1  H22B 3606   3.545   2.789   4.984  1.0808  1.6612 -1.4122
   33CHL1   C23 3607   3.742   2.770   4.892  0.1399  0.1512  0.2353
   33CHL1  H23A 3608   3.751   2.879   4.877  2.5151 -0.1654 -1.0937
   33CHL1  H23B 3609   3.842   2.726   4.912  0.0996  0.3547  0.9263
   33CHL1   C24 3610   3.682   2.706   4.768  0.1502  0.0798 -0.2200
   33CHL1  H24A 3611   3.647   2.605   4.796 -0.2300  0.3697  0.3691
   33CHL1  H24B 3612   3.596   2.772   4.744  0.3822  0.8342  0.9673
   33CHL1   C25 3613   3.773   2.699   4.646 -0.4760 -0.6374 -0.1019
   33CHL1   H25 3614   3.862   2.639   4.673  1.3612  1.8387 -0.2936
   33CHL1   C26 3615   3.692   2.635   4.535 -0.3327 -0.0195 -0.2085
   33CHL1  H26A 3616   3.615   2.573   4.586 -0.6343  1.6845  1.5202
   33CHL1  H26B 3617   3.626   2.709   4.486 -0.4190 -1.0865 -1.7900
   33CHL1  H26C 3618   3.756   2.581   4.462  0.0103 -0.3280  0.3069
   33CHL1   C27 3619   3.819   2.846   4.605  0.0823  0.4121  0.2222
   33CHL1  H27A 3620   3.884   2.893   4.682 -1.1322  0.2140  1.4113
   33CHL1  H27B 3621   3.881   2.827   4.516 -1.8994 -0.6518 -1.0036
   33CHL1  H27C 3622   3.739   2.916   4.571  0.3274 -0.4450 -2.3072
   34CHL1    C3 3623   5.324   4.891   6.597 -0.0892  0.1802  0.5943
   34CHL1    H3 3624   5.295   4.784   6.605  1.6487 -0.4220 -0.4265
   34CHL1    O3 3625   5.322   4.944   6.730 -0.4842 -0.2198 -0.0021
   34CHL1   H3' 3626   5.400   4.903   6.769  1.0831 -0.1709 -2.8283
   34CHL1    C4 3627   5.472   4.893   6.557  0.3084  0.0579 -0.0263
   34CHL1   H4A 3628   5.514   4.991   6.588  1.6567  0.1465 -1.9546
   34CHL1   H4B 3629   5.522   4.815   6.619  0.6950 -0.8078 -1.3760
   34CHL1    C5 3630   5.490   4.860   6.413 -0.0318  0.0690 -0.1862
   34CHL1    C6 3631   5.572   4.756   6.382 -0.4238  0.1119  0.4805
   34CHL1    H6 3632   5.624   4.698   6.459  2.8180 -0.1302 -1.6765
   34CHL1    C7 3633   5.587   4.703   6.247  0.3093  0.4979 -0.2282
   34CHL1   H7A 3634   5.692   4.668   6.235 -0.3234 -1.3740 -0.6638
   34CHL1   H7B 3635   5.535   4.606   6.261  2.0963 -0.0881  3.6268
   34CHL1    C8 3636   5.541   4.806   6.140  0.8081  0.5845 -0.1498
   34CHL1    H8 3637   5.620   4.884   6.129 -0.6513  1.8124 -3.3406
   34CHL1   C14 3638   5.529   4.737   5.996 -0.2784 -0.0873 -0.4023
   34CHL1   H14 3639   5.450   4.661   6.013 -0.1591 -0.4327 -1.3377
   34CHL1   C15 3640   5.650   4.655   5.945 -0.9594  0.0322  0.0074
   34CHL1  H15A 3641   5.741   4.720   5.952 -0.4168 -0.7770  0.6092
   34CHL1  H15B 3642   5.661   4.561   6.004  0.9452  0.4142  0.3538
   34CHL1   C16 3643   5.624   4.636   5.793 -0.0519 -0.1581 -0.8219
   34CHL1  H16A 3644   5.717   4.661   5.739 -0.2221 -0.2759 -1.1699
   34CHL1  H16B 3645   5.601   4.528   5.776 -1.1894  0.0634 -0.7495
   34CHL1   C17 3646   5.506   4.735   5.759 -0.2931  0.0493 -0.3068
   34CHL1   H17 3647   5.413   4.673   5.763 -0.5045  0.4217  2.3173
   34CHL1   C13 3648   5.489   4.824   5.876  0.7352 -0.2817 -0.3010
   34CHL1   C18 3649   5.594   4.938   5.851  0.2456 -0.5249 -0.6423
   34CHL1  H18A 3650   5.695   4.906   5.817  0.7817  0.4923 -0.0335
   34CHL1  H18B 3651   5.543   5.013   5.786  0.9324  2.0360  1.6372
   34CHL1  H18C 3652   5.605   4.995   5.945  3.6686  0.3721 -1.4426
   34CHL1   C12 3653   5.350   4.883   5.910  0.3471 -0.1620 -0.7655
   34CHL1  H12A 3654   5.309   4.951   5.832  0.6263  0.2593 -0.5476
   34CHL1  H12B 3655   5.281   4.796   5.915 -0.3320  0.3324 -1.4236
   34CHL1   C11 3656   5.362   4.956   6.049 -0.8181 -0.3603 -0.4423
   34CHL1  H11A 3657   5.430   5.042   6.031  1.5887 -1.9810  0.5155
   34CHL1  H11B 3658   5.260   4.990   6.077  0.5067  1.9325  2.0970
   34CHL1    C9 3659   5.406   4.865   6.172  0.3628  0.2285  0.0355
   34CHL1    H9 3660   5.338   4.777   6.178  0.7645 -0.0062  1.7158
   34CHL1   C10 3661   5.400   4.926   6.312  0.3455 -0.4024 -1.4242
   34CHL1   C19 3662   5.450   5.070   6.301  0.5314 -0.7103 -0.4560
   34CHL1  H19A 3663   5.557   5.084   6.273  0.2309  1.1457 -0.8371
   34CHL1  H19B 3664   5.401   5.131   6.222  2.3575 -1.0790 -1.9522
   34CHL1  H19C 3665   5.435   5.121   6.399  0.6732  0.1612 -0.8803
   34CHL1    C1 3666   5.247   4.923   6.351  0.5648 -0.0187 -0.6496
   34CHL1   H1A 3667   5.187   4.994   6.290 -2.6619 -1.3418  0.7390
   34CHL1   H1B 3668   5.205   4.821   6.336 -0.3389  0.1630  0.4566
   34CHL1    C2 3669   5.233   4.977   6.499  0.2984 -0.2244  0.1850
   34CHL1   H2A 3670   5.124   4.965   6.516 -0.4398 -1.4426 -4.1171
   34CHL1   H2B 3671   5.260   5.085   6.501 -2.0916  0.4387  0.0093
   34CHL1   C20 3672   5.513   4.801   5.614  0.3375 -0.1068 -0.3077
   34CHL1   H20 3673   5.599   4.872   5.611 -0.2222  0.5627 -1.1964
   34CHL1   C21 3674   5.383   4.886   5.579 -0.4667 -0.0497  0.1585
   34CHL1  H21A 3675   5.368   4.984   5.628 -1.0444 -0.4247  0.7378
   34CHL1  H21B 3676   5.287   4.833   5.593  0.4744 -1.4544  1.5869
   34CHL1  H21C 3677   5.388   4.916   5.472  0.0038  2.9115  0.9254
   34CHL1   C22 3678   5.532   4.693   5.508  0.1130  0.3892 -0.1463
   34CHL1  H22A 3679   5.571   4.603   5.560 -1.8608 -1.3943 -1.5714
   34CHL1  H22B 3680   5.433   4.649   5.481  0.7747 -0.8607 -0.6378
   34CHL1   C23 3681   5.620   4.724   5.396 -0.3727  0.2613  0.2723
   34CHL1  H23A 3682   5.593   4.814   5.338  1.3744  1.3576  1.0835
   34CHL1  H23B 3683   5.720   4.745   5.439 -1.3020  1.9195  1.7605
   34CHL1   C24 3684   5.636   4.611   5.294 -0.1343  0.2531  0.5969
   34CHL1  H24A 3685   5.707   4.644   5.216  1.0080 -0.4973  1.2835
   34CHL1  H24B 3686   5.671   4.514   5.336  0.5202  0.3575  0.2867
   34CHL1   C25 3687   5.506   4.562   5.217 -0.5909 -0.1485  1.1339
   34CHL1   H25 3688   5.427   4.540   5.291 -1.2500 -0.0340  0.4755
   34CHL1   C26 3689   5.446   4.667   5.117 -0.3304 -0.2217  0.4929
   34CHL1  H26A 3690   5.409   4.752   5.179 -1.4829  1.3868 -2.2180
   34CHL1  H26B 3691   5.519   4.707   5.044 -1.8827 -0.1482 -1.0849
   34CHL1  H26C 3692   5.363   4.612   5.069  0.8340 -0.6407 -1.1197
   34CHL1   C27 3693   5.537   4.438   5.126 -0.5567  0.4502  0.1990
   34CHL1  H27A 3694   5.523   4.341   5.178 -3.6392  0.7998  0.2209
   34CHL1  H27B 3695   5.460   4.420   5.048  1.0710 -0.8188 -1.2172
   34CHL1  H27C 3696   5.637   4.449   5.079 -0.1937 -1.9764  0.3053
   35CHL1    C3 3697   6.386   4.869   6.719 -0.1616 -0.4311 -0.0446
   35CHL1    H3 3698   6.357   4.765   6.743  1.5006 -0.9425 -0.0907
   35CHL1    O3 3699   6.361   4.943   6.838 -0.0935 -0.7554  0.0134
   35CHL1   H3' 3700   6.379   5.033   6.811 -2.2426 -0.3714 -0.2812
   35CHL1    C4 3701   6.530   4.889   6.680 -0.3507 -0.2766 -0.4487
   35CHL1   H4A 3702   6.545   4.998   6.665  0.2855 -0.4547 -1.1656
   35CHL1   H4B 3703   6.597   4.863   6.765 -1.3987  1.0691  0.8478
   35CHL1    C5 3704   6.554   4.826   6.545 -0.1964  0.2667  0.1870
   35CHL1    C6 3705   6.651   4.731   6.528  1.0455 -0.1813  0.1216
   35CHL1    H6 3706   6.717   4.709   6.613  2.8474  2.5190 -0.4621
   35CHL1    C7 3707   6.695   4.662   6.403 -0.2653 -0.0925  0.2814
   35CHL1   H7A 3708   6.806   4.667   6.398 -0.2590  1.0464  1.1190
   35CHL1   H7B 3709   6.673   4.553   6.395 -1.0205 -0.0216  1.1867
   35CHL1    C8 3710   6.634   4.738   6.279 -0.6380  0.3433 -0.0613
   35CHL1    H8 3711   6.693   4.832   6.272  1.1953 -0.5811  1.9792
   35CHL1   C14 3712   6.648   4.656   6.150 -0.8067  0.3723  0.3728
   35CHL1   H14 3713   6.590   4.563   6.172  0.7710 -0.4415  1.2582
   35CHL1   C15 3714   6.787   4.604   6.115 -0.4648  0.1986 -0.3258
   35CHL1  H15A 3715   6.849   4.692   6.141  0.6184 -0.6001 -0.1359
   35CHL1  H15B 3716   6.830   4.514   6.163 -1.2615  0.7903  1.5810
   35CHL1   C16 3717   6.783   4.587   5.960  0.2673  0.8323  0.1900
   35CHL1  H16A 3718   6.859   4.652   5.912  0.1018  1.1994  0.4239
   35CHL1  H16B 3719   6.789   4.481   5.926 -1.3550  0.7594  0.0305
   35CHL1   C17 3720   6.635   4.634   5.910 -0.7185 -0.2286 -0.6684
   35CHL1   H17 3721   6.579   4.540   5.927  1.4678 -1.5384 -0.4329
   35CHL1   C13 3722   6.595   4.727   6.026 -0.6069 -0.7301 -0.2694
   35CHL1   C18 3723   6.670   4.861   6.019  0.0820 -0.2480  0.3606
   35CHL1  H18A 3724   6.770   4.857   5.972 -0.1260  0.7885 -0.2204
   35CHL1  H18B 3725   6.611   4.919   5.944  2.8401  1.1269 -0.9058
   35CHL1  H18C 3726   6.678   4.923   6.111  1.4453 -2.6179  1.9233
   35CHL1   C12 3727   6.447   4.740   6.048 -0.3334  0.4371 -0.5286
   35CHL1  H12A 3728   6.404   4.801   5.966 -1.2551 -0.3003 -0.6259
   35CHL1  H12B 3729   6.402   4.638   6.056 -0.4464  0.4987 -0.3799
   35CHL1   C11 3730   6.418   4.825   6.176 -0.0513 -0.1919 -0.1399
   35CHL1  H11A 3731   6.446   4.932   6.160  1.5361 -0.2816  1.7990
   35CHL1  H11B 3732   6.310   4.825   6.202 -0.0237 -1.4317 -0.0029
   35CHL1    C9 3733   6.485   4.774   6.304  0.4132 -1.0869 -0.3443
   35CHL1    H9 3734   6.437   4.682   6.343 -0.8721  0.5944  2.3786
   35CHL1   C10 3735   6.470   4.868   6.428 -0.1388  0.0945 -0.5356
   35CHL1   C19 3736   6.506   5.009   6.389 -0.0225 -0.8474 -0.1187
   35CHL1  H19A 3737   6.423   5.054   6.330 -0.1172  0.7159  1.1434
   35CHL1  H19B 3738   6.491   5.078   6.474  0.5697  0.7109 -1.2290
   35CHL1  H19C 3739   6.610   5.028   6.354 -0.0379  0.7459  0.5999
   35CHL1    C1 3740   6.317   4.854   6.473  0.4678 -0.2731 -0.4048
   35CHL1   H1A 3741   6.256   4.905   6.395 -0.0212  0.0590  0.1840
   35CHL1   H1B 3742   6.297   4.745   6.478  1.7061 -0.4921  0.5043
   35CHL1    C2 3743   6.287   4.916   6.613 -0.2782 -0.0557 -0.5139
   35CHL1   H2A 3744   6.182   4.885   6.628 -0.2730 -0.1891 -0.7441
   35CHL1   H2B 3745   6.298   5.025   6.599 -0.6851 -0.1818 -1.9603
   35CHL1   C20 3746   6.634   4.683   5.762  0.4929 -0.1786  0.3215
   35CHL1   H20 3747   6.711   4.763   5.747 -1.6351  1.8140 -0.5833
   35CHL1   C21 3748   6.497   4.748   5.729  1.0180 -0.3474  0.1348
   35CHL1  H21A 3749   6.481   4.850   5.771 -1.4985 -0.8725  0.5932
   35CHL1  H21B 3750   6.410   4.690   5.766 -1.2096  0.5825 -3.1946
   35CHL1  H21C 3751   6.479   4.770   5.622 -0.3980  1.9280  0.7577
   35CHL1   C22 3752   6.662   4.567   5.658 -0.1299 -0.6096  0.4621
   35CHL1  H22A 3753   6.726   4.488   5.701 -2.0821 -1.8065  1.3421
   35CHL1  H22B 3754   6.562   4.521   5.641 -1.6929  2.1917  1.3396
   35CHL1   C23 3755   6.717   4.611   5.516 -0.2143 -1.1186  0.8922
   35CHL1  H23A 3756   6.724   4.519   5.455  0.4519 -0.2880 -0.3585
   35CHL1  H23B 3757   6.656   4.685   5.460 -0.6487 -1.3135  1.1054
   35CHL1   C24 3758   6.861   4.661   5.517 -0.0686  0.1293 -0.9767
   35CHL1  H24A 3759   6.865   4.757   5.573  2.4134  0.1951 -1.1627
   35CHL1  H24B 3760   6.921   4.589   5.577 -0.6659  1.5212  1.4207
   35CHL1   C25 3761   6.923   4.689   5.382  0.9811  0.5949  0.0111
   35CHL1   H25 3762   6.860   4.769   5.337 -0.3175 -0.1368  0.4464
   35CHL1   C26 3763   7.060   4.746   5.402  0.3199 -0.0298 -0.1069
   35CHL1  H26A 3764   7.112   4.686   5.480  0.4147  0.4011  0.1652
   35CHL1  H26B 3765   7.121   4.753   5.310 -0.2335  0.5977 -0.4375
   35CHL1  H26C 3766   7.060   4.849   5.444  3.7686  0.5418 -1.1325
   35CHL1   C27 3767   6.923   4.556   5.297  0.2465 -0.2670  0.2111
   35CHL1  H27A 3768   7.004   4.490   5.336  0.7099  0.9912  1.4352
   35CHL1  H27B 3769   6.826   4.503   5.288 -1.1390  1.9686  1.2230
   35CHL1  H27C 3770   6.953   4.599   5.199 -1.3072  0.6574  0.1210
   36CHL1    C3 3771   3.295   3.991   6.470 -0.0826 -0.1751 -0.0362
   36CHL1    H3 3772   3.380   4.061   6.478 -2.4119  2.7070  1.4826
   36CHL1    O3 3773   3.265   3.961   6.606  0.2223 -0.5310  0.2498
   36CHL1   H3' 3774   3.346   3.921   6.638 -0.0321 -2.5367 -1.4044
   36CHL1    C4 3775   3.175   4.043   6.392  0.7153  0.1790  0.1709
   36CHL1   H4A 3776   3.093   3.974   6.420 -0.9230  2.8939  2.5672
   36CHL1   H4B 3777   3.142   4.132   6.449 -0.7635 -0.5768  0.5413
   36CHL1    C5 3778   3.215   4.064   6.242 -0.1634 -0.6178 -0.5578
   36CHL1    C6 3779   3.204   4.181   6.184 -0.4790  0.4454  0.2477
   36CHL1    H6 3780   3.170   4.269   6.241  1.9464  0.3978  1.9217
   36CHL1    C7 3781   3.233   4.213   6.041 -0.2083  1.0092  0.1820
   36CHL1   H7A 3782   3.141   4.265   6.006  0.7260  1.2113 -2.1603
   36CHL1   H7B 3783   3.331   4.265   6.035  0.9091 -1.1189 -2.0617
   36CHL1    C8 3784   3.249   4.077   5.958  0.1921  0.2406 -0.2340
   36CHL1    H8 3785   3.145   4.038   5.960 -0.3267  1.5700 -0.1513
   36CHL1   C14 3786   3.292   4.099   5.816 -0.3646 -0.2691  0.1051
   36CHL1   H14 3787   3.391   4.149   5.820 -0.5288  0.0787 -0.1821
   36CHL1   C15 3788   3.208   4.189   5.730 -0.1733 -0.5699 -0.3528
   36CHL1  H15A 3789   3.101   4.173   5.755 -0.3188  2.3241  1.3107
   36CHL1  H15B 3790   3.215   4.298   5.751 -2.8578 -0.7410  1.9319
   36CHL1   C16 3791   3.248   4.155   5.593 -0.4443  1.0833  0.7261
   36CHL1  H16A 3792   3.160   4.134   5.529 -0.6471  2.2096  0.6272
   36CHL1  H16B 3793   3.296   4.239   5.539 -0.2521 -0.4514 -1.6622
   36CHL1   C17 3794   3.350   4.032   5.600  0.0469  0.1482  0.0066
   36CHL1   H17 3795   3.449   4.079   5.610 -0.0404  0.5936 -1.0463
   36CHL1   C13 3796   3.312   3.968   5.732 -0.4599 -0.6287 -0.0838
   36CHL1   C18 3797   3.186   3.893   5.712 -0.5730  0.5369  0.0377
   36CHL1  H18A 3798   3.206   3.806   5.647  2.9700  1.5927 -0.5587
   36CHL1  H18B 3799   3.141   3.862   5.809  3.0591  1.5336  2.2683
   36CHL1  H18C 3800   3.113   3.962   5.665  0.1475  1.2292 -0.0946
   36CHL1   C12 3801   3.420   3.886   5.812 -0.8608  0.2310 -0.2405
   36CHL1  H12A 3802   3.431   3.782   5.772 -0.9159 -1.2081  3.1896
   36CHL1  H12B 3803   3.512   3.949   5.813 -0.3170 -0.5235 -0.8538
   36CHL1   C11 3804   3.383   3.843   5.954  0.1319 -0.6294 -1.0949
   36CHL1  H11A 3805   3.301   3.768   5.949 -0.1017 -0.4900  0.2394
   36CHL1  H11B 3806   3.467   3.802   6.014 -1.1350 -1.3992  0.2069
   36CHL1    C9 3807   3.332   3.968   6.033  0.2197  0.2661 -0.4034
   36CHL1    H9 3808   3.429   4.017   6.053  1.3730 -2.1810  0.3945
   36CHL1   C10 3809   3.270   3.939   6.175  0.1805  0.4752 -0.3430
   36CHL1   C19 3810   3.158   3.829   6.169  0.0568 -0.9598  0.5346
   36CHL1  H19A 3811   3.096   3.844   6.077 -0.7407 -1.0524  1.0478
   36CHL1  H19B 3812   3.216   3.735   6.154  0.8073 -0.4121 -0.0486
   36CHL1  H19C 3813   3.090   3.819   6.256  1.7770 -5.0356  1.6763
   36CHL1    C1 3814   3.378   3.884   6.261 -0.1687 -0.4868  0.2259
   36CHL1   H1A 3815   3.412   3.790   6.214 -0.5440  0.1372 -1.3565
   36CHL1   H1B 3816   3.471   3.944   6.256 -0.8530  0.8065  1.8610
   36CHL1    C2 3817   3.334   3.858   6.403 -0.0205  0.1993 -0.2567
   36CHL1   H2A 3818   3.421   3.818   6.459  0.0340  0.1322 -0.3895
   36CHL1   H2B 3819   3.258   3.777   6.398 -2.9144  2.7796 -1.7657
   36CHL1   C20 3820   3.339   3.958   5.464 -1.5145 -0.3524  0.5220
   36CHL1   H20 3821   3.233   3.932   5.444 -1.3215  0.8225 -2.5212
   36CHL1   C21 3822   3.438   3.838   5.469  0.1540  0.3623 -0.4348
   36CHL1  H21A 3823   3.537   3.881   5.495  0.4603 -1.0203  0.8179
   36CHL1  H21B 3824   3.443   3.783   5.373  1.8699  0.1100 -0.2306
   36CHL1  H21C 3825   3.401   3.775   5.552  0.2546 -0.2900 -0.8832
   36CHL1   C22 3826   3.378   4.049   5.349  0.4002  0.1955 -0.1975
   36CHL1  H22A 3827   3.373   4.158   5.371  2.6843 -0.0769  2.2403
   36CHL1  H22B 3828   3.489   4.042   5.353  0.3512 -0.5916  2.9081
   36CHL1   C23 3829   3.311   4.005   5.222 -0.5065 -0.8624  0.5763
   36CHL1  H23A 3830   3.310   3.894   5.222 -3.5776 -0.9212  0.5466
   36CHL1  H23B 3831   3.202   4.025   5.230 -0.3508  1.4454 -1.7586
   36CHL1   C24 3832   3.350   4.071   5.087 -0.5097 -0.1421  0.3910
   36CHL1  H24A 3833   3.310   4.174   5.078 -2.6652 -1.0808 -2.1794
   36CHL1  H24B 3834   3.461   4.065   5.090 -0.5070 -1.7908 -1.2234
   36CHL1   C25 3835   3.308   3.997   4.962 -0.4300  0.1201 -0.9240
   36CHL1   H25 3836   3.352   3.895   4.965 -0.2488  0.2126  0.2671
   36CHL1   C26 3837   3.154   3.984   4.953  0.0275 -0.5032 -0.4346
   36CHL1  H26A 3838   3.125   3.923   4.865  0.4423 -2.0271  0.4551
   36CHL1  H26B 3839   3.106   3.934   5.039  0.2504  1.0757  0.6632
   36CHL1  H26C 3840   3.110   4.084   4.932 -3.5401 -1.8983 -0.2668
   36CHL1   C27 3841   3.360   4.064   4.838 -0.5904 -0.2906  0.8206
   36CHL1  H27A 3842   3.471   4.064   4.841 -0.5806  0.5074  0.6292
   36CHL1  H27B 3843   3.334   4.011   4.744  0.2948 -1.4080  1.1778
   36CHL1  H27C 3844   3.330   4.171   4.838 -0.7008 -0.2769  2.8126
   37CHL1    C3 3845   3.741   1.401   6.034 -0.1336 -0.2180  0.1121
   37CHL1    H3 3846   3.830   1.465   6.025 -0.2502  0.0064  0.5200
   37CHL1    O3 3847   3.722   1.384   6.177 -0.0873  0.1913 -0.2420
   37CHL1   H3' 3848   3.679   1.299   6.190  0.2579  0.1390  0.5504
   37CHL1    C4 3849   3.616   1.466   5.982  0.9564 -0.5293  0.4562
   37CHL1   H4A 3850   3.526   1.409   6.015  0.3710  1.6958  3.1029
   37CHL1   H4B 3851   3.609   1.565   6.032 -3.3249  0.0676 -0.9123
   37CHL1    C5 3852   3.614   1.487   5.830 -0.0460 -0.2807  0.4834
   37CHL1    C6 3853   3.605   1.607   5.771 -0.2901 -0.0347 -0.9954
   37CHL1    H6 3854   3.580   1.695   5.832 -1.4539  0.2777 -1.8859
   37CHL1    C7 3855   3.619   1.637   5.625 -0.1081 -0.1728  0.2745
   37CHL1   H7A 3856   3.551   1.721   5.598  0.6753  1.0310  1.9001
   37CHL1   H7B 3857   3.719   1.679   5.599  0.2205 -0.5872  0.8543
   37CHL1    C8 3858   3.590   1.506   5.551  0.9211  0.3805  0.5808
   37CHL1    H8 3859   3.482   1.481   5.554  1.0276 -0.0036  1.6290
   37CHL1   C14 3860   3.625   1.521   5.405  0.4460  0.2990  0.2887
   37CHL1   H14 3861   3.735   1.534   5.398  0.4850 -0.0264  0.2976
   37CHL1   C15 3862   3.584   1.655   5.343  0.2177  0.3357  0.1460
   37CHL1  H15A 3863   3.479   1.677   5.372  0.1509 -0.2277  0.3483
   37CHL1  H15B 3864   3.628   1.752   5.374 -1.1232  1.1668 -0.4250
   37CHL1   C16 3865   3.599   1.627   5.195 -0.5014 -0.2245 -0.2483
   37CHL1  H16A 3866   3.502   1.656   5.149  0.7471  2.9446 -1.1421
   37CHL1  H16B 3867   3.681   1.686   5.149 -0.6297 -0.4463 -0.7774
   37CHL1   C17 3868   3.628   1.475   5.175 -0.3771 -0.0414 -0.7762
   37CHL1   H17 3869   3.738   1.464   5.178 -0.3072  0.4888  2.2702
   37CHL1   C13 3870   3.580   1.412   5.304 -0.0218 -0.2578 -0.6231
   37CHL1   C18 3871   3.427   1.395   5.315 -0.2594 -0.6591  1.0748
   37CHL1  H18A 3872   3.392   1.366   5.417 -1.3642  0.4768  1.0330
   37CHL1  H18B 3873   3.378   1.490   5.288  0.7762 -0.8718 -1.9596
   37CHL1  H18C 3874   3.397   1.318   5.241  0.0809  0.0248  0.2210
   37CHL1   C12 3875   3.657   1.283   5.349 -0.1482  0.7587  0.0217
   37CHL1  H12A 3876   3.619   1.198   5.288 -1.2387  0.2656  1.3384
   37CHL1  H12B 3877   3.765   1.292   5.323 -0.1352 -1.5617 -0.9185
   37CHL1   C11 3878   3.638   1.256   5.500 -0.5761 -0.5049 -0.4491
   37CHL1  H11A 3879   3.534   1.217   5.506  0.4421 -3.6191 -1.1647
   37CHL1  H11B 3880   3.709   1.178   5.533  0.5657  0.4917 -0.4943
   37CHL1    C9 3881   3.663   1.378   5.600 -0.4899 -0.1612  0.7707
   37CHL1    H9 3882   3.771   1.404   5.596 -0.8845  1.6419  0.8587
   37CHL1   C10 3883   3.639   1.350   5.751 -0.2836 -0.4733 -0.1272
   37CHL1   C19 3884   3.513   1.267   5.761  0.1418 -0.4715  0.1855
   37CHL1  H19A 3885   3.436   1.307   5.691 -0.2437 -1.7611 -0.1565
   37CHL1  H19B 3886   3.539   1.166   5.723  0.7558 -0.2904  0.1070
   37CHL1  H19C 3887   3.470   1.265   5.864 -0.9783  0.9815 -0.2198
   37CHL1    C1 3888   3.755   1.269   5.811 -0.0646 -0.4833 -0.1136
   37CHL1   H1A 3889   3.749   1.170   5.763 -3.0898  0.6628 -2.4379
   37CHL1   H1B 3890   3.853   1.318   5.790  0.0292 -0.9153 -0.6782
   37CHL1    C2 3891   3.761   1.262   5.969  0.5437 -0.3347  0.2460
   37CHL1   H2A 3892   3.851   1.208   6.005 -1.0374 -2.6459  0.9663
   37CHL1   H2B 3893   3.669   1.207   5.998  0.2961 -0.0116  0.0781
   37CHL1   C20 3894   3.576   1.412   5.043  0.5640  0.3824  0.3247
   37CHL1   H20 3895   3.466   1.403   5.062  0.6661  1.4763  1.5528
   37CHL1   C21 3896   3.644   1.277   5.012  0.1024  0.4496  0.1480
   37CHL1  H21A 3897   3.647   1.203   5.095  1.9312 -1.6431 -1.6722
   37CHL1  H21B 3898   3.748   1.307   4.987  1.5803 -4.4559 -0.4750
   37CHL1  H21C 3899   3.604   1.226   4.923  1.1053  1.2966 -0.8225
   37CHL1   C22 3900   3.585   1.506   4.917  0.4888 -0.4016 -0.3417
   37CHL1  H22A 3901   3.522   1.594   4.943  2.8516  1.0103  0.8429
   37CHL1  H22B 3902   3.691   1.535   4.906  1.0835 -1.6451  1.6190
   37CHL1   C23 3903   3.513   1.449   4.795  0.0300  0.1386  0.6345
   37CHL1  H23A 3904   3.585   1.374   4.754 -1.6338 -1.7980  1.0703
   37CHL1  H23B 3905   3.415   1.406   4.824  0.8547 -2.2894  0.1418
   37CHL1   C24 3906   3.505   1.550   4.682 -1.3248  0.0460  0.8168
   37CHL1  H24A 3907   3.428   1.626   4.707 -1.5535 -0.5157  1.8961
   37CHL1  H24B 3908   3.600   1.604   4.664 -0.2747 -1.8176  0.5563
   37CHL1   C25 3909   3.474   1.490   4.537  0.4680 -0.5357  0.6142
   37CHL1   H25 3910   3.549   1.408   4.530  0.5092 -0.3565 -2.0479
   37CHL1   C26 3911   3.338   1.427   4.525 -0.1658  0.6240  0.4485
   37CHL1  H26A 3912   3.260   1.507   4.529 -0.3496  0.5528 -1.1783
   37CHL1  H26B 3913   3.334   1.378   4.426 -0.9786 -0.1693  0.8546
   37CHL1  H26C 3914   3.329   1.352   4.606  0.7316 -1.9145 -1.6765
   37CHL1   C27 3915   3.501   1.598   4.426  0.5034 -0.7348 -1.4906
   37CHL1  H27A 3916   3.422   1.677   4.428  0.9756 -0.2494 -1.6319
   37CHL1  H27B 3917   3.604   1.636   4.443  0.7499 -1.9646  0.0099
   37CHL1  H27C 3918   3.500   1.551   4.326 -0.4199 -2.2407 -0.8086
   38CHL1    C3 3919   3.182   1.307   6.290  0.3256 -0.1995  0.6739
   38CHL1    H3 3920   3.288   1.274   6.292  0.8372  1.3736  1.0944
   38CHL1    O3 3921   3.123   1.266   6.408 -0.0169  0.6029 -0.0823
   38CHL1   H3' 3922   3.032   1.273   6.378 -0.2623  0.6063  0.6379
   38CHL1    C4 3923   3.170   1.459   6.274 -0.3501  0.5983  0.8825
   38CHL1   H4A 3924   3.065   1.478   6.303 -0.8031 -1.9294  1.1360
   38CHL1   H4B 3925   3.233   1.515   6.346  2.0863 -0.8922  0.0350
   38CHL1    C5 3926   3.192   1.516   6.135 -0.2643 -0.9156  0.0397
   38CHL1    C6 3927   3.267   1.622   6.102  0.3360  0.2780 -0.4397
   38CHL1    H6 3928   3.311   1.679   6.185  0.9589 -0.9396  0.0758
   38CHL1    C7 3929   3.285   1.678   5.968 -0.5113 -0.5908 -0.0869
   38CHL1   H7A 3930   3.292   1.788   5.986 -1.5785 -0.9303  2.9994
   38CHL1   H7B 3931   3.386   1.644   5.936 -0.3227  0.3911 -0.5708
   38CHL1    C8 3932   3.181   1.619   5.871  0.0611 -0.6001 -0.5857
   38CHL1    H8 3933   3.081   1.655   5.903 -0.5489 -1.8025 -1.0890
   38CHL1   C14 3934   3.214   1.651   5.730 -0.1720 -0.4405  0.0183
   38CHL1   H14 3935   3.313   1.606   5.709 -0.1342  0.0630 -0.9486
   38CHL1   C15 3936   3.242   1.800   5.698 -0.6244 -0.1643  0.0657
   38CHL1  H15A 3937   3.170   1.860   5.759 -0.3731  3.0036 -2.4700
   38CHL1  H15B 3938   3.346   1.826   5.727  0.5254 -1.0433 -2.9220
   38CHL1   C16 3939   3.221   1.826   5.549 -0.3010 -0.1817 -0.2026
   38CHL1  H16A 3940   3.135   1.895   5.541 -0.7010 -0.7497 -0.9411
   38CHL1  H16B 3941   3.318   1.847   5.498 -0.5699 -0.4868 -0.8576
   38CHL1   C17 3942   3.172   1.690   5.495  0.2710  0.2981 -0.3386
   38CHL1   H17 3943   3.259   1.637   5.452 -0.0152  0.5220 -1.2177
   38CHL1   C13 3944   3.118   1.610   5.622  0.6509  0.3816 -0.0562
   38CHL1   C18 3945   2.973   1.663   5.658  0.1913 -0.0375 -0.8883
   38CHL1  H18A 3946   2.937   1.617   5.753 -0.8517 -1.6050 -2.0128
   38CHL1  H18B 3947   2.983   1.774   5.668 -0.2382 -0.1189  0.7225
   38CHL1  H18C 3948   2.893   1.633   5.588 -2.2486 -0.6018  1.9348
   38CHL1   C12 3949   3.118   1.454   5.618  0.1032 -0.5965 -0.2054
   38CHL1  H12A 3950   3.041   1.417   5.547 -1.6074  2.4782 -0.1619
   38CHL1  H12B 3951   3.219   1.421   5.585 -0.8723 -1.8667 -2.1406
   38CHL1   C11 3952   3.095   1.397   5.759  0.0429 -0.3336  0.7600
   38CHL1  H11A 3953   2.986   1.416   5.774 -0.0705  0.1851 -0.5265
   38CHL1  H11B 3954   3.107   1.287   5.750 -2.2792 -0.6355  0.5832
   38CHL1    C9 3955   3.174   1.468   5.881 -0.0254  1.0851  0.0806
   38CHL1    H9 3956   3.278   1.431   5.868 -0.2364  0.8661 -1.1611
   38CHL1   C10 3957   3.122   1.430   6.019  0.2422  0.9628 -0.6022
   38CHL1   C19 3958   2.966   1.451   6.029 -0.5475  0.2713 -0.4653
   38CHL1  H19A 3959   2.918   1.362   5.984  1.8628 -0.6910 -1.3042
   38CHL1  H19B 3960   2.932   1.464   6.134 -0.3192  0.1269 -0.3722
   38CHL1  H19C 3961   2.931   1.539   5.970 -2.5489  0.2171  0.5375
   38CHL1    C1 3962   3.156   1.275   6.046 -0.3522  0.3170 -0.4028
   38CHL1   H1A 3963   3.102   1.215   5.970 -0.1797 -0.1475 -0.1700
   38CHL1   H1B 3964   3.264   1.258   6.027 -0.2071  1.7982 -1.0080
   38CHL1    C2 3965   3.120   1.231   6.182  0.6334 -0.8180 -0.4132
   38CHL1   H2A 3966   3.137   1.123   6.198 -0.6385 -0.9128  0.4800
   38CHL1   H2B 3967   3.009   1.244   6.187  0.6401 -1.0122  0.2602
   38CHL1   C20 3968   3.070   1.705   5.376  0.4836  0.0191  0.3474
   38CHL1   H20 3969   2.972   1.737   5.417 -0.1033 -1.7399  0.3836
   38CHL1   C21 3970   3.042   1.570   5.310 -0.2736 -0.0725  0.3088
   38CHL1  H21A 3971   2.972   1.594   5.227  0.3721  0.4739 -0.0880
   38CHL1  H21B 3972   2.979   1.507   5.377 -2.4737  0.3213 -1.2757
   38CHL1  H21C 3973   3.126   1.506   5.275  0.0792 -0.1553  1.2683
   38CHL1   C22 3974   3.109   1.810   5.265  0.2334  0.2110  0.4110
   38CHL1  H22A 3975   3.026   1.787   5.195 -0.1163 -0.6145  1.0883
   38CHL1  H22B 3976   3.102   1.913   5.307  1.0774  0.5760 -0.2992
   38CHL1   C23 3977   3.248   1.807   5.198 -0.3406  0.6312  0.4202
   38CHL1  H23A 3978   3.313   1.856   5.274  1.9169 -1.4543 -0.0438
   38CHL1  H23B 3979   3.294   1.708   5.176 -1.2073  0.2571  0.2572
   38CHL1   C24 3980   3.237   1.885   5.066  0.2685  0.1304  0.2167
   38CHL1  H24A 3981   3.149   1.845   5.012  0.9429 -1.0322 -0.0816
   38CHL1  H24B 3982   3.228   1.991   5.095 -2.0185 -0.6249  2.6759
   38CHL1   C25 3983   3.360   1.865   4.975 -0.3556 -0.3782  0.0613
   38CHL1   H25 3984   3.370   1.756   4.957 -1.0343  0.0354 -3.8297
   38CHL1   C26 3985   3.327   1.916   4.833 -0.0683  0.3272  0.0665
   38CHL1  H26A 3986   3.248   1.852   4.788 -0.1431  0.5645 -0.1378
   38CHL1  H26B 3987   3.299   2.023   4.837  0.9086  0.5762  0.7544
   38CHL1  H26C 3988   3.424   1.908   4.779 -0.9199 -1.5871 -1.2747
   38CHL1   C27 3989   3.485   1.940   5.032  0.2330 -0.4095 -0.4626
   38CHL1  H27A 3990   3.519   1.900   5.130 -0.5821 -2.3399 -0.9109
   38CHL1  H27B 3991   3.576   1.930   4.969  0.3775  2.0950 -0.7620
   38CHL1  H27C 3992   3.464   2.047   5.049  0.2822 -0.3883 -0.5340
   39CHL1    C3 3993   0.122   6.050   6.862  0.4799  0.4528  0.3203
   39CHL1    H3 3994   0.233   6.052   6.856  0.5808 -1.5037  0.7370
   39CHL1    O3 3995   0.070   6.103   6.987  0.0751 -0.1656  0.6083
   39CHL1   H3' 3996  -0.018   6.136   6.967  0.2952  0.8519  1.2299
   39CHL1    C4 3997   0.075   6.147   6.755  0.0997  0.5006 -0.6832
   39CHL1   H4A 3998  -0.033   6.165   6.770  0.1678  1.2112 -1.0365
   39CHL1   H4B 3999   0.123   6.244   6.777 -0.3389  0.5648  0.0085
   39CHL1    C5 4000   0.113   6.087   6.618  0.2772 -0.0740 -0.7923
   39CHL1    C6 4001   0.202   6.155   6.541  0.2803  0.1690 -0.0751
   39CHL1    H6 4002   0.259   6.242   6.577  0.9128  0.2911 -1.3037
   39CHL1    C7 4003   0.238   6.111   6.404 -0.1330 -0.2232 -0.8288
   39CHL1   H7A 4004   0.255   6.196   6.335  1.4172 -0.1050 -0.3473
   39CHL1   H7B 4005   0.333   6.053   6.403  0.4124  0.6413 -2.3706
   39CHL1    C8 4006   0.131   6.015   6.338  0.0155  0.6849  0.2422
   39CHL1    H8 4007   0.038   6.074   6.320 -1.4384 -1.4377  0.4082
   39CHL1   C14 4008   0.184   5.951   6.213 -0.1420 -0.1598  0.4037
   39CHL1   H14 4009   0.262   5.881   6.251 -1.2571  0.1871  3.6174
   39CHL1   C15 4010   0.251   6.043   6.100  0.6674  0.4110  0.1792
   39CHL1  H15A 4011   0.171   6.120   6.093 -0.6630 -1.0609 -2.6803
   39CHL1  H15B 4012   0.347   6.084   6.138  2.2005 -1.6678 -1.2248
   39CHL1   C16 4013   0.269   5.951   5.979  0.9124  0.2625  0.4985
   39CHL1  H16A 4014   0.221   6.002   5.892 -2.5500 -0.9676  1.5577
   39CHL1  H16B 4015   0.370   5.912   5.954  0.5441  0.1421 -0.9087
   39CHL1   C17 4016   0.178   5.822   6.006 -0.0517 -0.2476 -0.0413
   39CHL1   H17 4017   0.237   5.734   6.037 -0.0325  0.0310  0.7418
   39CHL1   C13 4018   0.091   5.852   6.136 -0.2657  0.0387 -0.2553
   39CHL1   C18 4019  -0.031   5.938   6.087  1.0562 -0.3016  0.3051
   39CHL1  H18A 4020  -0.101   5.881   6.022  1.1651  1.3483 -1.3651
   39CHL1  H18B 4021  -0.090   5.978   6.172 -0.9889  1.5176 -1.8046
   39CHL1  H18C 4022   0.004   6.026   6.028  2.1864 -1.1514 -0.3277
   39CHL1   C12 4023   0.051   5.742   6.235  0.0813 -0.0695  0.8735
   39CHL1  H12A 4024  -0.024   5.671   6.196  0.5703  0.1353 -0.5032
   39CHL1  H12B 4025   0.142   5.682   6.257  0.4481  0.8097  1.8595
   39CHL1   C11 4026   0.013   5.789   6.374  0.1175  0.3168  0.4585
   39CHL1  H11A 4027  -0.090   5.829   6.360 -0.1805 -1.2314 -2.5781
   39CHL1  H11B 4028   0.014   5.708   6.450  0.8923 -0.2215 -0.1022
   39CHL1    C9 4029   0.100   5.895   6.437  0.4968 -0.4034 -0.7262
   39CHL1    H9 4030   0.197   5.843   6.444  0.0304 -1.0720  2.9823
   39CHL1   C10 4031   0.046   5.955   6.581 -0.4976 -0.1581  0.2380
   39CHL1   C19 4032  -0.108   5.993   6.569  0.0347 -0.2895  0.3115
   39CHL1  H19A 4033  -0.143   6.037   6.665  1.4956 -4.6264  3.1417
   39CHL1  H19B 4034  -0.132   6.062   6.486  1.8868  3.0597  2.3356
   39CHL1  H19C 4035  -0.167   5.900   6.554  0.5915 -0.6724  0.5016
   39CHL1    C1 4036   0.084   5.855   6.695  0.0035  0.6822 -0.2822
   39CHL1   H1A 4037   0.044   5.755   6.667 -0.2202  0.7025 -0.0354
   39CHL1   H1B 4038   0.195   5.849   6.695 -0.0399 -1.1035 -1.2982
   39CHL1    C2 4039   0.052   5.913   6.834  0.3380 -0.0386 -0.0616
   39CHL1   H2A 4040   0.081   5.832   6.904  0.9179  0.8582  0.7749
   39CHL1   H2B 4041  -0.057   5.934   6.833  0.5964  2.0352  2.5477
   39CHL1   C20 4042   0.108   5.780   5.882 -0.1906  0.1399  0.3289
   39CHL1   H20 4043   0.073   5.867   5.822  0.1746 -1.2158 -1.9470
   39CHL1   C21 4044  -0.000   5.664   5.904  0.0232  0.1650 -0.2256
   39CHL1  H21A 4045   0.046   5.570   5.941 -2.6487 -1.4937 -0.8288
   39CHL1  H21B 4046  -0.067   5.645   5.817 -0.3672 -0.3180  0.1742
   39CHL1  H21C 4047  -0.077   5.692   5.980 -1.1508 -2.2131 -0.4574
   39CHL1   C22 4048   0.210   5.718   5.778 -0.3683  0.6006 -0.2538
   39CHL1  H22A 4049   0.292   5.793   5.772  0.0574  0.4027  2.3146
   39CHL1  H22B 4050   0.264   5.625   5.805 -2.1927 -0.6206 -0.5536
   39CHL1   C23 4051   0.149   5.693   5.635 -0.2239  0.5337  0.0179
   39CHL1  H23A 4052   0.084   5.604   5.625  0.3593  0.1385 -0.3800
   39CHL1  H23B 4053   0.093   5.787   5.612  0.5849  0.6423 -1.6620
   39CHL1   C24 4054   0.255   5.675   5.524  0.3987  0.2476 -0.2197
   39CHL1  H24A 4055   0.330   5.754   5.551 -0.0550  0.1276  1.5100
   39CHL1  H24B 4056   0.302   5.575   5.534  2.2333  0.7816 -2.5646
   39CHL1   C25 4057   0.210   5.704   5.381  0.3001  0.3566 -0.7442
   39CHL1   H25 4058   0.127   5.634   5.356 -0.0195  0.3352  0.3154
   39CHL1   C26 4059   0.164   5.850   5.353 -0.4865 -0.2474 -0.7123
   39CHL1  H26A 4060   0.244   5.921   5.381  0.0697 -0.4336 -1.7793
   39CHL1  H26B 4061   0.141   5.867   5.246  1.5761  2.4475 -0.8293
   39CHL1  H26C 4062   0.064   5.875   5.394 -0.3748  0.2000 -0.7165
   39CHL1   C27 4063   0.325   5.659   5.288 -0.1328  0.4253  0.2008
   39CHL1  H27A 4064   0.350   5.733   5.208  0.5161 -1.1801 -1.1336
   39CHL1  H27B 4065   0.422   5.643   5.340  0.7423  0.3582 -1.3791
   39CHL1  H27C 4066   0.306   5.559   5.245 -1.2556  0.4817  0.5468
   40CHL1    C3 4067   4.979   5.263   6.600  0.0503 -0.3585 -0.5220
   40CHL1    H3 4068   5.011   5.164   6.563  0.5460  0.1247 -1.4269
   40CHL1    O3 4069   4.972   5.273   6.745 -0.2750 -0.4536 -0.7666
   40CHL1   H3' 4070   5.013   5.193   6.779 -2.6414 -1.1858  0.6256
   40CHL1    C4 4071   5.080   5.365   6.545 -0.4112  0.0927 -0.4594
   40CHL1   H4A 4072   5.063   5.465   6.590  0.6454  0.6666 -1.3148
   40CHL1   H4B 4073   5.180   5.333   6.580 -0.3261  0.4189 -0.3994
   40CHL1    C5 4074   5.074   5.361   6.394 -0.2380 -0.1730  0.5129
   40CHL1    C6 4075   5.176   5.325   6.312  0.2753  0.7249 -0.9432
   40CHL1    H6 4076   5.274   5.295   6.350  0.9240 -0.8954 -3.6447
   40CHL1    C7 4077   5.172   5.319   6.161  0.3232  0.7733  0.0373
   40CHL1   H7A 4078   5.266   5.357   6.115  0.8510  0.8655  1.1552
   40CHL1   H7B 4079   5.163   5.213   6.129  0.1204  0.6468  0.4962
   40CHL1    C8 4080   5.054   5.389   6.097 -0.0232 -0.3000  0.4072
   40CHL1    H8 4081   5.065   5.499   6.096 -2.0946 -0.0550 -1.5679
   40CHL1   C14 4082   5.037   5.341   5.947  0.2093 -0.3477 -0.4869
   40CHL1   H14 4083   5.017   5.231   5.955  0.3480 -0.3511 -0.1254
   40CHL1   C15 4084   5.167   5.340   5.857  0.7852  0.0735  0.0905
   40CHL1  H15A 4085   5.234   5.428   5.869 -0.3201  0.8504  0.7386
   40CHL1  H15B 4086   5.218   5.243   5.879 -0.9825 -0.6531  1.2633
   40CHL1   C16 4087   5.113   5.343   5.713  0.0618  0.5905 -0.6368
   40CHL1  H16A 4088   5.152   5.438   5.671  2.6847 -0.0284  0.2185
   40CHL1  H16B 4089   5.139   5.255   5.651  2.7630  0.6485  0.2754
   40CHL1   C17 4090   4.958   5.358   5.722 -0.7178  0.6787  1.0830
   40CHL1   H17 4091   4.915   5.256   5.732 -1.6623  1.0885  1.4213
   40CHL1   C13 4092   4.932   5.420   5.868 -0.0771  0.6938 -0.2873
   40CHL1   C18 4093   4.954   5.569   5.866 -0.7919  0.6807  0.1160
   40CHL1  H18A 4094   5.061   5.592   5.844 -0.6941  0.7311  0.6240
   40CHL1  H18B 4095   4.886   5.630   5.803 -1.3516  2.2063  2.1260
   40CHL1  H18C 4096   4.937   5.617   5.964  1.6167  2.0925 -0.0611
   40CHL1   C12 4097   4.796   5.404   5.940  0.0135 -0.5793  0.3313
   40CHL1  H12A 4098   4.721   5.479   5.908 -0.2801  0.3036  2.8805
   40CHL1  H12B 4099   4.751   5.303   5.926 -1.8391 -0.0132  1.8425
   40CHL1   C11 4100   4.798   5.433   6.092 -0.1208  0.2105  0.5470
   40CHL1  H11A 4101   4.804   5.542   6.111  1.7215 -0.1353  2.3064
   40CHL1  H11B 4102   4.701   5.404   6.138 -0.1447  0.1464  0.4569
   40CHL1    C9 4103   4.920   5.366   6.170 -0.4513  0.7428 -0.4019
   40CHL1    H9 4104   4.904   5.257   6.153  1.3702  0.4137 -0.2496
   40CHL1   C10 4105   4.935   5.390   6.327 -0.0913  0.0956  0.6698
   40CHL1   C19 4106   4.898   5.536   6.354  0.4404 -0.1292  0.0886
   40CHL1  H19A 4107   4.975   5.601   6.309 -0.4526  0.0636 -1.2305
   40CHL1  H19B 4108   4.804   5.571   6.306  0.1506  0.5637  1.1381
   40CHL1  H19C 4109   4.893   5.566   6.460  1.3913 -0.5434  0.2632
   40CHL1    C1 4110   4.825   5.303   6.399 -0.4604 -0.4262  0.0037
   40CHL1   H1A 4111   4.723   5.343   6.380 -0.5580  0.0753  1.4622
   40CHL1   H1B 4112   4.831   5.202   6.354  1.0507  0.1254 -1.0801
   40CHL1    C2 4113   4.840   5.298   6.556 -0.1402  0.0601  0.2444
   40CHL1   H2A 4114   4.767   5.221   6.588  1.2885 -0.1367  3.4075
   40CHL1   H2B 4115   4.821   5.397   6.602 -1.7047  0.6843 -1.5788
   40CHL1   C20 4116   4.883   5.424   5.603 -0.0198 -0.1584 -0.2554
   40CHL1   H20 4117   4.887   5.534   5.620 -0.8212  0.0356 -1.2202
   40CHL1   C21 4118   4.730   5.409   5.614 -0.4330  0.8404 -0.8001
   40CHL1  H21A 4119   4.715   5.304   5.647 -0.0770  1.0216 -0.0389
   40CHL1  H21B 4120   4.681   5.430   5.517 -0.4552 -0.1830 -1.0270
   40CHL1  H21C 4121   4.696   5.482   5.691 -1.4082  1.5292 -1.8598
   40CHL1   C22 4122   4.944   5.382   5.469  0.1825 -0.0195 -0.1018
   40CHL1  H22A 4123   5.054   5.391   5.478  0.3237 -1.6410  0.0324
   40CHL1  H22B 4124   4.912   5.278   5.446 -2.0894  0.2516  1.4631
   40CHL1   C23 4125   4.904   5.469   5.348  0.7190 -0.4453  0.4697
   40CHL1  H23A 4126   4.794   5.474   5.339  0.5397  2.1137  2.5508
   40CHL1  H23B 4127   4.914   5.580   5.353 -1.0826 -0.1749 -1.0202
   40CHL1   C24 4128   4.973   5.411   5.216  0.0385 -0.2989 -0.2737
   40CHL1  H24A 4129   5.083   5.420   5.226 -0.1151  0.6071  0.8199
   40CHL1  H24B 4130   4.953   5.301   5.221 -0.0374 -0.2444  1.3020
   40CHL1   C25 4131   4.928   5.478   5.092  0.4956  0.1069 -0.8058
   40CHL1   H25 4132   4.920   5.587   5.113 -3.7671 -0.1480 -0.2924
   40CHL1   C26 4133   5.022   5.451   4.975 -0.1507  0.6340 -0.4492
   40CHL1  H26A 4134   4.983   5.500   4.883 -1.4184  0.1967 -0.1599
   40CHL1  H26B 4135   5.123   5.497   4.985  0.3357 -0.0390 -1.9519
   40CHL1  H26C 4136   5.029   5.341   4.959  1.1554  0.4283  1.2804
   40CHL1   C27 4137   4.784   5.429   5.067  0.0561  0.1833  0.3331
   40CHL1  H27A 4138   4.724   5.495   5.001  1.1343 -0.1641 -1.0269
   40CHL1  H27B 4139   4.775   5.333   5.012  0.6134  0.1567  0.2834
   40CHL1  H27C 4140   4.726   5.407   5.160  0.0589  0.5360  0.4172
   41CHL1    C3 4141   2.612   2.464   6.181  1.0380  0.2264 -0.3437
   41CHL1    H3 4142   2.707   2.407   6.172  1.0786  0.2037  0.2349
   41CHL1    O3 4143   2.566   2.459   6.318  0.3152 -0.0228  0.8065
   41CHL1   H3' 4144   2.493   2.520   6.330  0.5281 -0.1548  3.3017
   41CHL1    C4 4145   2.642   2.608   6.127 -0.1241 -0.1021 -0.5749
   41CHL1   H4A 4146   2.554   2.669   6.157 -0.2011  0.0820 -1.1550
   41CHL1   H4B 4147   2.725   2.655   6.184 -0.3175 -1.1245  0.5699
   41CHL1    C5 4148   2.657   2.597   5.977  0.4117 -0.6467 -0.2254
   41CHL1    C6 4149   2.770   2.653   5.925  0.1674  0.1303  0.5990
   41CHL1    H6 4150   2.834   2.706   5.997  0.2386  2.5867 -1.1558
   41CHL1    C7 4151   2.795   2.684   5.775  0.0626  0.3726 -0.0156
   41CHL1   H7A 4152   2.843   2.782   5.756 -0.0287  0.4453  0.1252
   41CHL1   H7B 4153   2.867   2.611   5.732 -0.7732 -1.1723  1.0885
   41CHL1    C8 4154   2.659   2.664   5.698 -0.3868  0.4214 -0.8567
   41CHL1    H8 4155   2.597   2.753   5.722 -1.2176 -0.0440 -1.2274
   41CHL1   C14 4156   2.689   2.663   5.541  0.0972  0.4044 -0.6652
   41CHL1   H14 4157   2.761   2.579   5.532  1.7395  1.7937 -1.0256
   41CHL1   C15 4158   2.745   2.791   5.475 -0.6266  1.2452 -0.2564
   41CHL1  H15A 4159   2.690   2.884   5.501  2.0984  2.3677  2.1838
   41CHL1  H15B 4160   2.850   2.816   5.504  0.2202 -0.5054 -1.6147
   41CHL1   C16 4161   2.715   2.773   5.324  1.0725  0.1675 -0.1131
   41CHL1  H16A 4162   2.647   2.850   5.280  1.4955  0.1188 -0.8682
   41CHL1  H16B 4163   2.812   2.770   5.270  0.7895 -0.2194 -0.6101
   41CHL1   C17 4164   2.630   2.647   5.312  0.0301  0.0877  0.3475
   41CHL1   H17 4165   2.698   2.561   5.297 -1.7409 -1.8361  2.5538
   41CHL1   C13 4166   2.569   2.635   5.454 -0.6849  0.2214 -0.3415
   41CHL1   C18 4167   2.457   2.743   5.465 -0.0479  0.1419 -0.1883
   41CHL1  H18A 4168   2.372   2.719   5.398  0.7176  0.4824 -1.3218
   41CHL1  H18B 4169   2.413   2.750   5.567  1.0010 -1.7446  0.4489
   41CHL1  H18C 4170   2.498   2.839   5.425  0.4626  0.7491  1.6858
   41CHL1   C12 4171   2.512   2.501   5.506 -0.3774  0.2247 -0.4722
   41CHL1  H12A 4172   2.419   2.469   5.455 -1.5942 -0.8191  2.1750
   41CHL1  H12B 4173   2.588   2.420   5.503  0.3984  0.8252  1.3407
   41CHL1   C11 4174   2.467   2.501   5.651 -0.0536 -0.3795  0.2409
   41CHL1  H11A 4175   2.381   2.571   5.659 -0.4991 -0.8730 -0.1246
   41CHL1  H11B 4176   2.426   2.401   5.675  0.6546 -1.2628 -1.9023
   41CHL1    C9 4177   2.585   2.530   5.745 -0.2679 -0.8534 -0.5938
   41CHL1    H9 4178   2.661   2.449   5.734  2.3815  1.4685 -0.6003
   41CHL1   C10 4179   2.547   2.534   5.899  0.3567  0.4638  0.6044
   41CHL1   C19 4180   2.419   2.626   5.914  0.4098 -0.0697  0.3143
   41CHL1  H19A 4181   2.381   2.631   6.018 -0.6628 -0.3969 -0.0399
   41CHL1  H19B 4182   2.445   2.728   5.880  1.7069 -0.3176  0.4999
   41CHL1  H19C 4183   2.328   2.583   5.867 -0.6189  2.0078  0.3006
   41CHL1    C1 4184   2.515   2.393   5.954  0.3867 -0.5023  0.6918
   41CHL1   H1A 4185   2.420   2.361   5.907 -0.0378  0.1049  1.1257
   41CHL1   H1B 4186   2.603   2.330   5.928  1.7959  1.3245  0.8109
   41CHL1    C2 4187   2.498   2.392   6.107 -0.3251 -0.3798 -0.7058
   41CHL1   H2A 4188   2.478   2.288   6.141 -0.6877 -0.1617 -0.2327
   41CHL1   H2B 4189   2.398   2.434   6.133  0.0056  0.6662 -1.0679
   41CHL1   C20 4190   2.532   2.651   5.191 -0.5410 -0.2632 -0.6893
   41CHL1   H20 4191   2.467   2.737   5.215  0.7014 -0.0469  2.3817
   41CHL1   C21 4192   2.449   2.513   5.173  0.2178 -0.6541  0.5037
   41CHL1  H21A 4193   2.374   2.536   5.095 -1.6746 -1.2037  2.0625
   41CHL1  H21B 4194   2.385   2.486   5.260 -1.0144  3.2050  0.9722
   41CHL1  H21C 4195   2.514   2.433   5.132 -0.0076  1.0377 -3.6406
   41CHL1   C22 4196   2.603   2.691   5.053  0.0527  0.2117 -0.8651
   41CHL1  H22A 4197   2.672   2.776   5.069  1.3779 -0.8170 -0.9150
   41CHL1  H22B 4198   2.662   2.608   5.009 -2.1461  0.0457 -3.8091
   41CHL1   C23 4199   2.496   2.725   4.942 -0.2780 -0.1884  0.5666
   41CHL1  H23A 4200   2.426   2.640   4.930  0.8232 -0.9967 -0.2574
   41CHL1  H23B 4201   2.445   2.819   4.974 -0.7086 -0.7148  1.4869
   41CHL1   C24 4202   2.567   2.744   4.807 -0.1456  0.2300 -0.2128
   41CHL1  H24A 4203   2.632   2.833   4.820 -1.2643  0.9932  0.3096
   41CHL1  H24B 4204   2.629   2.655   4.785 -0.1318 -0.2565  1.7020
   41CHL1   C25 4205   2.460   2.764   4.692  0.6946  0.3281 -0.1574
   41CHL1   H25 4206   2.374   2.696   4.709  1.1168  0.1602  1.4400
   41CHL1   C26 4207   2.413   2.915   4.690 -0.9087  0.2223  0.1001
   41CHL1  H26A 4208   2.327   2.920   4.620 -2.4824 -0.1398  1.9139
   41CHL1  H26B 4209   2.371   2.939   4.790 -1.3364  1.5851 -0.3803
   41CHL1  H26C 4210   2.493   2.987   4.663 -2.1758  1.5166 -0.3223
   41CHL1   C27 4211   2.516   2.732   4.552  0.0801 -0.4539 -0.5437
   41CHL1  H27A 4212   2.543   2.626   4.531  0.0243 -0.6725  0.4124
   41CHL1  H27B 4213   2.442   2.765   4.476  1.1818  1.5325 -0.8138
   41CHL1  H27C 4214   2.608   2.790   4.531  1.3118 -1.7020  1.0957
   42CHL1    C3 4215   3.949   5.155   6.818 -0.1514  0.0298  0.3914
   42CHL1    H3 4216   4.057   5.135   6.802 -0.2229  0.3536 -0.5574
   42CHL1    O3 4217   3.919   5.144   6.952  0.5907  0.5545 -0.1878
   42CHL1   H3' 4218   3.963   5.210   7.006  1.0597 -0.2533  0.4447
   42CHL1    C4 4219   3.916   5.305   6.777  0.5507  0.3131  0.2961
   42CHL1   H4A 4220   3.818   5.327   6.823  0.9973  0.4014  1.2177
   42CHL1   H4B 4221   4.001   5.354   6.829  0.3430  1.1326 -0.1080
   42CHL1    C5 4222   3.918   5.331   6.629 -0.6854 -0.0872  0.2205
   42CHL1    C6 4223   4.001   5.423   6.580 -0.1434  0.0849 -0.1279
   42CHL1    H6 4224   4.055   5.489   6.649 -1.5067  0.0248  1.0330
   42CHL1    C7 4225   4.031   5.457   6.433  0.5663 -0.0242 -0.0882
   42CHL1   H7A 4226   4.027   5.568   6.425  0.3774  0.1572  1.9983
   42CHL1   H7B 4227   4.137   5.437   6.409  0.5057  1.0856 -1.3941
   42CHL1    C8 4228   3.929   5.383   6.337 -0.2129  0.1863  0.2570
   42CHL1    H8 4229   3.837   5.445   6.339 -0.1406  0.2886  0.3713
   42CHL1   C14 4230   3.988   5.376   6.190  0.0229 -1.0160 -0.3115
   42CHL1   H14 4231   4.076   5.309   6.182  1.6121  0.8510  0.6360
   42CHL1   C15 4232   4.045   5.508   6.133  0.0989  0.2507 -0.2202
   42CHL1  H15A 4233   3.980   5.592   6.166  0.0769 -0.0868  0.6051
   42CHL1  H15B 4234   4.149   5.524   6.166  0.2973 -1.9350  0.3252
   42CHL1   C16 4235   4.031   5.492   5.985 -0.2594  0.0928  0.2711
   42CHL1  H16A 4236   3.956   5.566   5.950 -0.4269 -1.0659 -1.9465
   42CHL1  H16B 4237   4.132   5.513   5.942 -0.9836 -1.1323 -2.1808
   42CHL1   C17 4238   3.976   5.347   5.957 -0.1990 -0.3814  1.0456
   42CHL1   H17 4239   4.070   5.290   5.972 -0.2330 -0.6840  0.1343
   42CHL1   C13 4240   3.899   5.318   6.084 -1.2127  0.3440 -0.4745
   42CHL1   C18 4241   3.767   5.407   6.070 -0.0601  0.4037  0.8837
   42CHL1  H18A 4242   3.697   5.373   5.991  0.4259  0.8287  0.2638
   42CHL1  H18B 4243   3.716   5.391   6.168  1.4898  0.2078  1.6832
   42CHL1  H18C 4244   3.778   5.518   6.067 -2.3159  0.6905 -2.5049
   42CHL1   C12 4245   3.880   5.170   6.127 -0.8404 -0.5118 -0.3814
   42CHL1  H12A 4246   3.810   5.125   6.054 -1.3712  2.6288 -2.0085
   42CHL1  H12B 4247   3.976   5.114   6.126  0.0252  0.8926  0.2329
   42CHL1   C11 4248   3.821   5.164   6.270  0.6027 -0.2265  0.4982
   42CHL1  H11A 4249   3.729   5.225   6.257  0.1681 -0.6663  1.4334
   42CHL1  H11B 4250   3.784   5.064   6.302 -1.7094 -0.2031 -1.7930
   42CHL1    C9 4251   3.903   5.240   6.377 -0.0176  0.1662 -0.4770
   42CHL1    H9 4252   4.003   5.192   6.374  0.0530  0.3002 -0.2557
   42CHL1   C10 4253   3.857   5.227   6.528  0.0564 -0.2291  0.2582
   42CHL1   C19 4254   3.704   5.232   6.534 -0.1582 -0.5236 -0.1258
   42CHL1  H19A 4255   3.658   5.159   6.464  0.8682  0.2485 -1.6772
   42CHL1  H19B 4256   3.663   5.217   6.636  1.9376 -0.0186  0.8568
   42CHL1  H19C 4257   3.666   5.329   6.496  0.1939 -0.3688 -0.0937
   42CHL1    C1 4258   3.891   5.083   6.580  0.2618 -0.0752 -0.9212
   42CHL1   H1A 4259   3.818   5.019   6.526 -0.1560 -1.7226  1.4491
   42CHL1   H1B 4260   3.994   5.053   6.549  0.6836 -1.0837  1.2714
   42CHL1    C2 4261   3.861   5.059   6.731  0.2443  0.5219 -0.1885
   42CHL1   H2A 4262   3.885   4.958   6.769 -0.5594  0.5901  0.5147
   42CHL1   H2B 4263   3.754   5.083   6.746  0.2228  2.6511 -2.8441
   42CHL1   C20 4264   3.918   5.319   5.818  0.2956  0.6264 -0.2359
   42CHL1   H20 4265   3.810   5.346   5.819  0.1403  0.0508 -0.8117
   42CHL1   C21 4266   3.928   5.173   5.791  0.3540  0.4699 -0.0989
   42CHL1  H21A 4267   4.036   5.148   5.781  0.1968 -0.4516  0.4603
   42CHL1  H21B 4268   3.875   5.149   5.696  0.4413  2.3301 -0.6736
   42CHL1  H21C 4269   3.868   5.114   5.862  0.6079 -0.8928 -0.9769
   42CHL1   C22 4270   3.987   5.398   5.704 -0.2056  0.3126  0.0273
   42CHL1  H22A 4271   3.969   5.505   5.728 -2.1678  0.0190 -0.0313
   42CHL1  H22B 4272   4.096   5.378   5.710 -0.6556 -2.6606 -0.2170
   42CHL1   C23 4273   3.934   5.380   5.561  0.6362  0.6326  0.4547
   42CHL1  H23A 4274   3.976   5.461   5.497  0.6933 -0.7888 -1.4124
   42CHL1  H23B 4275   3.964   5.276   5.534 -2.3075 -0.6107  1.5513
   42CHL1   C24 4276   3.782   5.401   5.537  0.1480 -0.0982  0.0297
   42CHL1  H24A 4277   3.726   5.314   5.579  2.8501 -2.0803 -0.1989
   42CHL1  H24B 4278   3.759   5.491   5.599 -2.7451  0.5801 -1.8329
   42CHL1   C25 4279   3.752   5.427   5.385 -0.2694  0.3531 -0.1098
   42CHL1   H25 4280   3.832   5.495   5.349  1.8666 -2.0579 -0.1374
   42CHL1   C26 4281   3.762   5.296   5.304 -0.6583  0.0003  0.0571
   42CHL1  H26A 4282   3.840   5.230   5.349 -0.4591  1.0373  1.3015
   42CHL1  H26B 4283   3.664   5.244   5.316 -0.3144 -0.4500  1.0409
   42CHL1  H26C 4284   3.773   5.303   5.194 -0.9067 -1.8984 -0.1300
   42CHL1   C27 4285   3.616   5.494   5.376 -0.0615  0.5947  0.1971
   42CHL1  H27A 4286   3.540   5.425   5.419  1.4747 -1.4159 -0.1425
   42CHL1  H27B 4287   3.621   5.584   5.441  1.1212 -0.2419  1.3323
   42CHL1  H27C 4288   3.583   5.509   5.271  0.0396  0.0912  0.0879
   43CHL1    C3 4289   4.075   1.748   6.045 -0.4190 -0.9467  0.8544
   43CHL1    H3 4290   3.979   1.692   6.045 -0.3225 -1.1132  0.8644
   43CHL1    O3 4291   4.115   1.758   6.178  0.2362 -0.1724  0.0032
   43CHL1   H3' 4292   4.165   1.838   6.201  0.7408 -0.7525  0.9758
   43CHL1    C4 4293   4.180   1.671   5.962 -0.5532  0.0651  0.4816
   43CHL1   H4A 4294   4.279   1.718   5.983  0.9727 -1.0018 -3.4429
   43CHL1   H4B 4295   4.186   1.568   6.003 -0.9663  0.1597  0.7819
   43CHL1    C5 4296   4.160   1.664   5.813  0.1284  0.0578 -0.0365
   43CHL1    C6 4297   4.148   1.550   5.751  0.6856  0.4806 -0.5825
   43CHL1    H6 4298   4.151   1.458   5.812 -0.2771  0.2211 -0.9106
   43CHL1    C7 4299   4.148   1.538   5.602  0.7523 -0.4529 -0.4621
   43CHL1   H7A 4300   4.213   1.453   5.573  1.4070 -1.2112  2.8130
   43CHL1   H7B 4301   4.044   1.506   5.580 -0.2514 -0.8133  3.8656
   43CHL1    C8 4302   4.178   1.664   5.525  0.0481  0.7575 -0.2759
   43CHL1    H8 4303   4.289   1.668   5.532  0.1126  0.7208 -1.2426
   43CHL1   C14 4304   4.126   1.650   5.386 -0.1253 -0.0281  0.0704
   43CHL1   H14 4305   4.018   1.625   5.396  0.1569 -0.7856  1.3877
   43CHL1   C15 4306   4.180   1.536   5.298 -0.2395  0.0057 -0.6785
   43CHL1  H15A 4307   4.288   1.536   5.320 -0.1970  0.2593 -0.8842
   43CHL1  H15B 4308   4.136   1.437   5.324 -2.5276  1.5866  2.0142
   43CHL1   C16 4309   4.156   1.577   5.156  0.0253 -0.4045  0.3938
   43CHL1  H16A 4310   4.246   1.589   5.091 -0.0495  2.4047  0.6765
   43CHL1  H16B 4311   4.088   1.505   5.108 -1.4925  0.8049  0.6558
   43CHL1   C17 4312   4.082   1.716   5.170 -0.3985  0.1266 -0.9272
   43CHL1   H17 4313   3.974   1.691   5.180 -0.1666 -0.2553  1.2378
   43CHL1   C13 4314   4.133   1.774   5.302 -0.6612  0.0050  0.0812
   43CHL1   C18 4315   4.288   1.817   5.282  1.0162 -0.1336  0.3219
   43CHL1  H18A 4316   4.336   1.741   5.217  1.1775 -0.4526  0.8089
   43CHL1  H18B 4317   4.282   1.912   5.224  2.5177  0.3158  0.8518
   43CHL1  H18C 4318   4.331   1.820   5.384  2.1484  1.6295 -0.1656
   43CHL1   C12 4319   4.052   1.881   5.372 -0.7670 -0.7482  1.0878
   43CHL1  H12A 4320   4.062   1.976   5.316 -1.9275 -1.8243 -1.0852
   43CHL1  H12B 4321   3.944   1.858   5.386 -0.6913 -2.1007 -0.2620
   43CHL1   C11 4322   4.097   1.907   5.516  0.3892 -0.3191 -0.2899
   43CHL1  H11A 4323   4.198   1.951   5.508  0.6024 -1.0913 -2.7849
   43CHL1  H11B 4324   4.022   1.973   5.564 -1.2902 -1.4602 -1.2220
   43CHL1    C9 4325   4.101   1.779   5.599  0.7320  0.0043 -0.9543
   43CHL1    H9 4326   3.995   1.748   5.593  0.4414  1.1087 -1.7195
   43CHL1   C10 4327   4.146   1.800   5.746  0.0747 -0.4150 -0.2507
   43CHL1   C19 4328   4.281   1.882   5.754 -0.0721  0.0769 -0.3062
   43CHL1  H19A 4329   4.371   1.843   5.701 -0.3505  0.3574 -0.9977
   43CHL1  H19B 4330   4.266   1.985   5.717 -0.1845  0.3807  0.5528
   43CHL1  H19C 4331   4.302   1.898   5.862 -1.1371 -1.2110  0.1203
   43CHL1    C1 4332   4.030   1.873   5.830 -0.0913  0.3564  0.0523
   43CHL1   H1A 4333   4.025   1.973   5.783 -0.1452  0.5031  0.3729
   43CHL1   H1B 4334   3.936   1.814   5.818  0.3419 -0.1403 -1.0687
   43CHL1    C2 4335   4.056   1.890   5.983 -0.1292  0.3098  0.2506
   43CHL1   H2A 4336   3.968   1.941   6.028 -1.2069 -0.4070 -0.9431
   43CHL1   H2B 4337   4.138   1.962   6.005 -0.8886  0.2593  3.7061
   43CHL1   C20 4338   4.092   1.806   5.050 -0.0212  0.2216 -0.1188
   43CHL1   H20 4339   4.193   1.853   5.046 -0.3240  0.9773  0.8825
   43CHL1   C21 4340   4.003   1.929   5.064 -0.9704  0.1245  0.3313
   43CHL1  H21A 4341   4.068   2.002   5.118  0.0205 -1.5123  1.4179
   43CHL1  H21B 4342   3.912   1.907   5.122 -1.4564  0.6268 -0.2186
   43CHL1  H21C 4343   3.977   1.958   4.960  0.3036  0.5720  0.1184
   43CHL1   C22 4344   4.080   1.729   4.912  0.2857  0.1896 -0.6357
   43CHL1  H22A 4345   4.099   1.802   4.830  1.9360 -1.6257 -1.9485
   43CHL1  H22B 4346   4.168   1.662   4.910 -1.6585 -2.5401 -0.5702
   43CHL1   C23 4347   3.949   1.657   4.887  0.5983  0.2239  0.2601
   43CHL1  H23A 4348   3.919   1.593   4.972  0.7255  1.4364  1.2513
   43CHL1  H23B 4349   3.874   1.738   4.871  3.7935  3.0770 -1.6078
   43CHL1   C24 4350   3.950   1.560   4.767 -0.1860  0.0472  0.3968
   43CHL1  H24A 4351   4.011   1.470   4.790 -2.1164 -1.9527 -1.8901
   43CHL1  H24B 4352   3.851   1.513   4.753  0.8369 -1.5874 -1.9815
   43CHL1   C25 4353   3.994   1.624   4.629  1.0111 -0.4447 -0.4973
   43CHL1   H25 4354   4.095   1.667   4.642  1.2162 -1.0667 -0.0438
   43CHL1   C26 4355   4.012   1.525   4.518  0.1582  0.1747 -0.0225
   43CHL1  H26A 4356   3.909   1.500   4.484 -0.6532  2.6233  0.4494
   43CHL1  H26B 4357   4.075   1.557   4.432  1.1225 -0.8526  0.2745
   43CHL1  H26C 4358   4.058   1.434   4.561  2.3902  2.1695  2.1177
   43CHL1   C27 4359   3.889   1.734   4.590 -0.0834 -0.8566  0.0646
   43CHL1  H27A 4360   3.920   1.781   4.494  0.7984  1.1273  1.2628
   43CHL1  H27B 4361   3.792   1.683   4.570  0.7959 -3.3818  1.7775
   43CHL1  H27C 4362   3.876   1.816   4.664  0.9119 -0.8234  0.2137
   44CHL1    C3 4363   5.527   3.706   6.216 -0.3306  0.2568 -0.7944
   44CHL1    H3 4364   5.416   3.717   6.211 -0.5861 -1.1992  0.8206
   44CHL1    O3 4365   5.558   3.669   6.354  0.1969 -0.1138  0.5086
   44CHL1   H3' 4366   5.559   3.750   6.405  2.6331 -1.7292  3.3444
   44CHL1    C4 4367   5.577   3.602   6.123  0.5595  0.5115  0.3052
   44CHL1   H4A 4368   5.685   3.587   6.139  0.8630  1.0987 -1.0727
   44CHL1   H4B 4369   5.516   3.510   6.140  0.8737  0.5204  1.5163
   44CHL1    C5 4370   5.567   3.637   5.979  0.2819 -0.4700  0.3951
   44CHL1    C6 4371   5.521   3.546   5.890 -0.0648  0.3243  0.0028
   44CHL1    H6 4372   5.488   3.445   5.921 -1.4644  0.6991 -0.1875
   44CHL1    C7 4373   5.521   3.567   5.742  0.3606 -0.4843  0.0771
   44CHL1   H7A 4374   5.553   3.480   5.680 -0.4743  0.7008 -2.1078
   44CHL1   H7B 4375   5.416   3.587   5.713  0.9384  1.4171 -0.8009
   44CHL1    C8 4376   5.612   3.683   5.692 -0.0536  0.3214  0.0329
   44CHL1    H8 4377   5.716   3.642   5.692 -0.6795 -1.3298  0.3262
   44CHL1   C14 4378   5.573   3.730   5.550  0.2227  0.8162 -0.6705
   44CHL1   H14 4379   5.474   3.777   5.565 -0.5498 -1.4179  2.0594
   44CHL1   C15 4380   5.567   3.623   5.438  0.4251  0.0313 -0.2555
   44CHL1  H15A 4381   5.659   3.560   5.440  1.7732  1.8657 -1.0495
   44CHL1  H15B 4382   5.479   3.557   5.448  1.6303 -1.9633 -1.9219
   44CHL1   C16 4383   5.568   3.702   5.305 -0.3738  0.1439  0.3117
   44CHL1  H16A 4384   5.655   3.677   5.240 -0.3373  2.8136 -0.8076
   44CHL1  H16B 4385   5.473   3.686   5.251  1.1414  0.6823 -2.7396
   44CHL1   C17 4386   5.588   3.852   5.350 -0.0679  0.5875  0.3801
   44CHL1   H17 4387   5.482   3.873   5.375  0.0663 -0.0188  1.5318
   44CHL1   C13 4388   5.654   3.844   5.491  0.0757 -1.2597  0.1415
   44CHL1   C18 4389   5.792   3.802   5.466 -0.3562  0.2469  0.1796
   44CHL1  H18A 4390   5.852   3.749   5.543  0.2823  1.6506  0.6808
   44CHL1  H18B 4391   5.809   3.755   5.367 -0.7649  1.2785 -0.3971
   44CHL1  H18C 4392   5.854   3.891   5.445  0.5240 -0.5766 -0.7918
   44CHL1   C12 4393   5.647   3.965   5.585 -0.1651 -0.9394 -0.4932
   44CHL1  H12A 4394   5.721   4.037   5.544 -1.8758  0.4244 -1.2962
   44CHL1  H12B 4395   5.549   4.015   5.570 -0.3526  0.0143  2.9986
   44CHL1   C11 4396   5.677   3.928   5.734  0.0730  0.6640  0.5092
   44CHL1  H11A 4397   5.787   3.917   5.739 -0.0536 -1.0916 -0.0274
   44CHL1  H11B 4398   5.651   4.014   5.800  3.5133  0.3274  2.5049
   44CHL1    C9 4399   5.601   3.804   5.791 -0.4426  0.9540 -0.1956
   44CHL1    H9 4400   5.493   3.831   5.783 -0.0152  2.4542 -1.3332
   44CHL1   C10 4401   5.628   3.769   5.939 -0.1902 -0.1164  0.6519
   44CHL1   C19 4402   5.786   3.761   5.950 -0.0123  0.3904  0.2740
   44CHL1  H19A 4403   5.819   3.680   5.882  1.4381  2.1140 -1.1555
   44CHL1  H19B 4404   5.843   3.854   5.929 -0.4287  1.3429  2.8887
   44CHL1  H19C 4405   5.821   3.735   6.052  1.3826 -0.6278 -0.4360
   44CHL1    C1 4406   5.575   3.874   6.033  0.2373 -0.2699 -0.2801
   44CHL1   H1A 4407   5.627   3.968   6.005  0.6359 -0.4776 -0.2511
   44CHL1   H1B 4408   5.467   3.889   6.013 -0.0410 -0.4436  0.9532
   44CHL1    C2 4409   5.587   3.842   6.182  0.2327 -0.0129 -0.6299
   44CHL1   H2A 4410   5.542   3.918   6.248  1.7356  1.8276 -1.6165
   44CHL1   H2B 4411   5.695   3.829   6.201  0.0866  0.7458  0.8262
   44CHL1   C20 4412   5.642   3.961   5.251  0.4401  0.3535  0.3894
   44CHL1   H20 4413   5.753   3.968   5.237  0.9622  0.6097  3.8043
   44CHL1   C21 4414   5.597   4.105   5.293 -0.1960  0.0566  0.6170
   44CHL1  H21A 4415   5.490   4.109   5.264 -0.6840 -3.6511  1.3682
   44CHL1  H21B 4416   5.648   4.172   5.221 -1.0243  0.8131  0.7273
   44CHL1  H21C 4417   5.621   4.125   5.400  1.2868  0.9001  0.1586
   44CHL1   C22 4418   5.589   3.938   5.109 -0.3042  0.1009  0.2111
   44CHL1  H22A 4419   5.640   3.844   5.080  2.7774  1.8474 -0.4626
   44CHL1  H22B 4420   5.479   3.922   5.111 -0.1961 -0.6818 -0.0020
   44CHL1   C23 4421   5.625   4.028   4.988  0.2572 -0.1514 -0.4174
   44CHL1  H23A 4422   5.594   4.135   4.997  0.4593  0.1014 -2.3570
   44CHL1  H23B 4423   5.735   4.025   4.974  0.0155  0.1954 -2.7970
   44CHL1   C24 4424   5.569   3.985   4.849 -0.0197  0.8613  0.3846
   44CHL1  H24A 4425   5.459   3.975   4.857  0.0931  0.1633  1.1843
   44CHL1  H24B 4426   5.594   4.068   4.779 -0.2656 -0.2876 -1.1331
   44CHL1   C25 4427   5.620   3.848   4.792 -0.6163  0.0242  0.1798
   44CHL1   H25 4428   5.594   3.778   4.875 -0.1182  0.4498  0.6960
   44CHL1   C26 4429   5.525   3.794   4.682 -0.6039  0.7862 -0.2160
   44CHL1  H26A 4430   5.535   3.863   4.596  2.0407  2.1136  0.9982
   44CHL1  H26B 4431   5.566   3.697   4.647  2.8085  1.8037  0.5706
   44CHL1  H26C 4432   5.421   3.780   4.718 -1.4345  0.3410 -2.6597
   44CHL1   C27 4433   5.761   3.850   4.759 -0.1239  1.1280  0.2304
   44CHL1  H27A 4434   5.782   3.891   4.658  1.2637 -2.6655 -1.2217
   44CHL1  H27B 4435   5.828   3.903   4.830  1.2790  0.9306 -0.9043
   44CHL1  H27C 4436   5.800   3.746   4.748 -2.4104  0.3949 -1.7231
   45CHL1    C3 4437   4.417   3.720   6.553  0.1789  0.0470  0.7576
   45CHL1    H3 4438   4.517   3.671   6.553  0.2955  0.2802  0.9118
   45CHL1    O3 4439   4.380   3.736   6.686 -0.8692  0.4295 -0.2206
   45CHL1   H3' 4440   4.460   3.706   6.731 -0.3474  0.3792 -1.1327
   45CHL1    C4 4441   4.419   3.854   6.474 -0.1551 -0.0710 -0.5621
   45CHL1   H4A 4442   4.324   3.904   6.502 -0.3919 -0.4041 -0.7601
   45CHL1   H4B 4443   4.501   3.906   6.529 -1.8151  0.3054  1.7286
   45CHL1    C5 4444   4.432   3.847   6.326  0.8193 -0.1043  0.5993
   45CHL1    C6 4445   4.517   3.914   6.245 -0.0545 -0.3613 -1.2653
   45CHL1    H6 4446   4.584   3.985   6.296 -2.0708 -0.1415  1.2689
   45CHL1    C7 4447   4.519   3.916   6.102  0.2911 -0.2619  0.2570
   45CHL1   H7A 4448   4.511   4.020   6.065 -0.5225 -0.7996 -1.1501
   45CHL1   H7B 4449   4.620   3.886   6.066 -0.2462  1.1165 -2.7220
   45CHL1    C8 4450   4.401   3.850   6.035  0.5962  0.3134  0.1713
   45CHL1    H8 4451   4.319   3.922   6.054  2.8762  2.9232  0.6566
   45CHL1   C14 4452   4.428   3.814   5.892 -0.2991  0.3057 -0.1461
   45CHL1   H14 4453   4.493   3.724   5.901  0.7783  0.6728 -3.1735
   45CHL1   C15 4454   4.493   3.925   5.811 -0.0904 -0.2437  0.4255
   45CHL1  H15A 4455   4.443   4.022   5.834  1.0986  0.3698  0.4755
   45CHL1  H15B 4456   4.600   3.945   5.829 -0.2666  1.3011 -0.0628
   45CHL1   C16 4457   4.460   3.884   5.664 -0.2056 -0.0607  0.0597
   45CHL1  H16A 4458   4.417   3.968   5.606 -0.3346  0.2723  0.6326
   45CHL1  H16B 4459   4.542   3.849   5.596 -1.1954  1.4343 -2.0121
   45CHL1   C17 4460   4.360   3.765   5.670  0.0991  0.9394 -0.2788
   45CHL1   H17 4461   4.426   3.676   5.679 -4.3194 -2.4610  4.4403
   45CHL1   C13 4462   4.303   3.765   5.813  0.3407  0.2216 -0.8540
   45CHL1   C18 4463   4.177   3.858   5.818  0.5373  0.5283  0.5704
   45CHL1  H18A 4464   4.094   3.818   5.756  1.0408  1.2801 -0.6222
   45CHL1  H18B 4465   4.131   3.882   5.916 -3.1698 -1.9250 -0.3541
   45CHL1  H18C 4466   4.208   3.954   5.772  0.7674  0.6170  0.9050
   45CHL1   C12 4467   4.267   3.627   5.875 -0.9722  0.5127 -0.2014
   45CHL1  H12A 4468   4.175   3.583   5.831  0.4407 -1.8206 -1.0475
   45CHL1  H12B 4469   4.346   3.550   5.859  1.6033  3.1150 -0.7598
   45CHL1   C11 4470   4.246   3.644   6.027  0.8230  0.0289 -0.0874
   45CHL1  H11A 4471   4.149   3.697   6.028  0.3618 -0.8056  0.0611
   45CHL1  H11B 4472   4.231   3.554   6.091 -0.5091 -0.1893 -0.6719
   45CHL1    C9 4473   4.359   3.718   6.106 -0.0076 -0.4501 -0.2989
   45CHL1    H9 4474   4.452   3.657   6.107  1.0082  1.0659  0.4197
   45CHL1   C10 4475   4.334   3.748   6.256 -0.4999  0.3080  0.7236
   45CHL1   C19 4476   4.188   3.796   6.272  0.7822 -0.4004 -0.2112
   45CHL1  H19A 4477   4.167   3.882   6.206  0.5964  0.2717  0.6972
   45CHL1  H19B 4478   4.119   3.709   6.267  0.8891 -0.6330  1.5051
   45CHL1  H19C 4479   4.156   3.832   6.373 -0.2567  3.5254 -1.7603
   45CHL1    C1 4480   4.360   3.612   6.339  0.6367  0.3220 -0.0008
   45CHL1   H1A 4481   4.283   3.539   6.304  0.1855  0.1712  1.2510
   45CHL1   H1B 4482   4.462   3.574   6.316  0.7478  0.9644 -0.5918
   45CHL1    C2 4483   4.327   3.622   6.493 -0.2048  0.2632  0.7450
   45CHL1   H2A 4484   4.339   3.516   6.524  0.6195 -0.9190 -3.0565
   45CHL1   H2B 4485   4.222   3.661   6.498 -0.4563 -0.4365  0.9613
   45CHL1   C20 4486   4.267   3.760   5.547 -0.2277 -0.4604  0.4239
   45CHL1   H20 4487   4.198   3.847   5.545 -0.5268 -0.7007  0.3433
   45CHL1   C21 4488   4.181   3.633   5.552  0.0049 -0.3222 -0.4354
   45CHL1  H21A 4489   4.135   3.601   5.456  0.2572  0.5397 -0.8520
   45CHL1  H21B 4490   4.114   3.632   5.640  2.8788 -1.1777  1.9280
   45CHL1  H21C 4491   4.255   3.551   5.568 -0.5248 -0.8424 -0.6340
   45CHL1   C22 4492   4.352   3.759   5.424  0.1386  0.5407  0.0445
   45CHL1  H22A 4493   4.426   3.842   5.426  0.0306  0.7053  3.7350
   45CHL1  H22B 4494   4.404   3.661   5.422 -0.1643  0.3852 -0.2999
   45CHL1   C23 4495   4.276   3.768   5.290  0.0840 -0.6483 -0.0161
   45CHL1  H23A 4496   4.192   3.697   5.299 -0.0581 -0.5133 -0.2541
   45CHL1  H23B 4497   4.238   3.871   5.273  1.7358  0.2990  1.6788
   45CHL1   C24 4498   4.356   3.739   5.159 -0.1796  0.5883  0.2328
   45CHL1  H24A 4499   4.439   3.811   5.143  1.8301 -1.8300 -0.9756
   45CHL1  H24B 4500   4.404   3.639   5.165 -0.9183  0.2235  0.1537
   45CHL1   C25 4501   4.277   3.727   5.027 -0.5582  0.2158  0.5995
   45CHL1   H25 4502   4.230   3.825   5.005  2.7139  2.2470  1.9459
   45CHL1   C26 4503   4.375   3.708   4.906  1.0804  0.1810  0.7911
   45CHL1  H26A 4504   4.439   3.626   4.944  0.5087  0.6783  2.9576
   45CHL1  H26B 4505   4.314   3.675   4.819  0.1881  1.5211  0.8738
   45CHL1  H26C 4506   4.443   3.793   4.883  0.8253  0.6448  1.6950
   45CHL1   C27 4507   4.177   3.614   5.044 -0.2182 -0.6275  0.7475
   45CHL1  H27A 4508   4.128   3.611   4.944  1.7072  1.9954 -0.4229
   45CHL1  H27B 4509   4.230   3.517   5.054  0.0293 -0.8510 -1.8408
   45CHL1  H27C 4510   4.100   3.627   5.123 -1.5021  1.1669 -0.7024
   46CHL1    C3 4511   4.385   5.195   6.669 -0.5969  0.4250  0.2857
   46CHL1    H3 4512   4.484   5.245   6.663 -0.1141 -0.6687 -1.3653
   46CHL1    O3 4513   4.328   5.234   6.795 -0.3359  0.0235  0.2539
   46CHL1   H3' 4514   4.400   5.273   6.844  0.5570 -1.0488 -0.1830
   46CHL1    C4 4515   4.290   5.232   6.558  0.5167 -0.2456 -0.3381
   46CHL1   H4A 4516   4.186   5.193   6.568  0.6583 -0.5540 -0.0207
   46CHL1   H4B 4517   4.281   5.342   6.564 -2.4146 -0.4640  1.1571
   46CHL1    C5 4518   4.342   5.188   6.425  0.5305 -0.3766 -0.1697
   46CHL1    C6 4519   4.364   5.285   6.331  0.2638  0.1500 -0.9868
   46CHL1    H6 4520   4.350   5.393   6.342 -0.1830  0.0630 -0.6654
   46CHL1    C7 4521   4.392   5.251   6.186 -0.3096  0.2669  0.7110
   46CHL1   H7A 4522   4.332   5.313   6.117 -0.2809  0.9539  1.3007
   46CHL1   H7B 4523   4.499   5.275   6.165 -1.0573  3.0880 -0.2815
   46CHL1    C8 4524   4.378   5.102   6.159 -0.2007 -0.6914 -0.3271
   46CHL1    H8 4525   4.268   5.088   6.146 -0.8357  1.4532  1.8566
   46CHL1   C14 4526   4.452   5.066   6.030 -0.2583 -0.0416  0.1687
   46CHL1   H14 4527   4.560   5.057   6.057 -0.6020 -1.5326  1.2354
   46CHL1   C15 4528   4.453   5.170   5.915  0.3223  1.0038  0.1941
   46CHL1  H15A 4529   4.349   5.207   5.902 -0.4741 -0.8850  0.8578
   46CHL1  H15B 4530   4.518   5.261   5.919  1.4023  0.2404  0.5057
   46CHL1   C16 4531   4.499   5.078   5.795  0.2144  0.0083 -0.2890
   46CHL1  H16A 4532   4.411   5.070   5.728 -1.2060  1.2737  1.3313
   46CHL1  H16B 4533   4.588   5.121   5.743 -1.0937  0.2346 -2.4580
   46CHL1   C17 4534   4.515   4.930   5.851  0.3811 -0.1803 -0.5557
   46CHL1   H17 4535   4.617   4.929   5.896  0.6286 -3.7827 -0.8928
   46CHL1   C13 4536   4.430   4.927   5.977  0.9266 -0.5943 -0.1160
   46CHL1   C18 4537   4.283   4.897   5.945  0.1115  0.1735 -0.1500
   46CHL1  H18A 4538   4.261   4.793   5.913  1.9155 -0.1461 -0.4459
   46CHL1  H18B 4539   4.203   4.904   6.023 -2.6266  0.3414 -2.7819
   46CHL1  H18C 4540   4.241   4.955   5.860 -0.0972  0.8380  0.3847
   46CHL1   C12 4541   4.487   4.842   6.089  0.7344 -0.4243 -0.7328
   46CHL1  H12A 4542   4.461   4.737   6.064 -0.5838  0.0247 -1.3514
   46CHL1  H12B 4543   4.596   4.858   6.100  0.8083 -1.2710 -0.1645
   46CHL1   C11 4544   4.426   4.861   6.230 -0.3568 -0.1224 -0.4524
   46CHL1  H11A 4545   4.320   4.829   6.226 -0.1825 -1.0326  1.3062
   46CHL1  H11B 4546   4.474   4.807   6.314 -0.9128  0.4696  0.2610
   46CHL1    C9 4547   4.428   5.013   6.272 -0.5645 -0.2870 -0.7808
   46CHL1    H9 4548   4.535   5.038   6.285 -0.6114 -1.3688  2.5559
   46CHL1   C10 4549   4.357   5.040   6.408  0.3933 -0.3409 -0.8910
   46CHL1   C19 4550   4.219   4.971   6.416  0.1952  0.0505  0.3921
   46CHL1  H19A 4551   4.148   5.008   6.340 -3.1201 -3.0647  1.6897
   46CHL1  H19B 4552   4.226   4.861   6.401 -2.1448 -0.1771  0.6486
   46CHL1  H19C 4553   4.177   4.993   6.516  1.9929  1.6333  0.8643
   46CHL1    C1 4554   4.443   4.989   6.531  0.3470  0.2931  0.2669
   46CHL1   H1A 4555   4.436   4.878   6.519  0.8248  0.3654 -0.8269
   46CHL1   H1B 4556   4.552   4.995   6.511  0.4072 -1.4227 -0.1132
   46CHL1    C2 4557   4.411   5.041   6.672  0.4242 -0.9928  0.2281
   46CHL1   H2A 4558   4.487   5.013   6.748  0.5474 -0.8379  0.1601
   46CHL1   H2B 4559   4.316   4.997   6.712  0.3257 -1.3317 -0.3708
   46CHL1   C20 4560   4.505   4.822   5.752  0.4683  0.6331  0.1688
   46CHL1   H20 4561   4.398   4.795   5.738  0.5039  0.6702 -0.1802
   46CHL1   C21 4562   4.573   4.693   5.804  0.5454 -0.0602 -0.1741
   46CHL1  H21A 4563   4.504   4.652   5.881  2.7698 -0.3603  1.7599
   46CHL1  H21B 4564   4.674   4.715   5.845  0.1134  0.4571  0.6402
   46CHL1  H21C 4565   4.583   4.616   5.725 -2.1604 -1.6078  0.8502
   46CHL1   C22 4566   4.561   4.857   5.614  0.1330 -0.4628 -0.1568
   46CHL1  H22A 4567   4.508   4.941   5.566 -1.0497 -1.3676 -0.4746
   46CHL1  H22B 4568   4.667   4.887   5.633  0.1060  0.4316 -1.3595
   46CHL1   C23 4569   4.539   4.750   5.504 -0.1483 -0.1814 -0.5528
   46CHL1  H23A 4570   4.603   4.663   5.530  1.4965  0.7977 -1.1405
   46CHL1  H23B 4571   4.434   4.716   5.520 -0.7062  0.2465 -2.9381
   46CHL1   C24 4572   4.554   4.806   5.364 -0.4033 -0.5974 -0.0229
   46CHL1  H24A 4573   4.474   4.874   5.327 -1.6232 -0.2949  2.8579
   46CHL1  H24B 4574   4.651   4.860   5.365  0.1686 -1.5897  1.2557
   46CHL1   C25 4575   4.560   4.701   5.248 -0.4790 -0.3451  1.0547
   46CHL1   H25 4576   4.643   4.635   5.281  0.3253  0.0520 -0.1121
   46CHL1   C26 4577   4.432   4.630   5.229  0.6798  0.4290  0.5687
   46CHL1  H26A 4578   4.436   4.560   5.143 -0.7946  1.8880 -0.7515
   46CHL1  H26B 4579   4.382   4.585   5.317  0.3281 -0.7363 -0.1944
   46CHL1  H26C 4580   4.346   4.696   5.208 -1.9717 -2.6374  0.9859
   46CHL1   C27 4581   4.613   4.763   5.112 -0.2201 -0.0746  0.0377
   46CHL1  H27A 4582   4.708   4.818   5.129  0.5635 -1.4289  0.2352
   46CHL1  H27B 4583   4.628   4.684   5.035  0.6821 -0.0032  0.1293
   46CHL1  H27C 4584   4.536   4.834   5.075 -0.4695 -0.9526 -1.2129
   47CHL1    C3 4585   0.487   5.064   6.817  0.0831  0.3739 -0.8526
   47CHL1    H3 4586   0.597   5.046   6.811 -0.3858 -3.2301 -0.8618
   47CHL1    O3 4587   0.429   5.075   6.951 -0.4133  0.4618 -0.2320
   47CHL1   H3' 4588   0.465   5.006   7.007 -0.0479 -0.1183 -1.1464
   47CHL1    C4 4589   0.457   5.186   6.727  0.0536 -0.5002  0.0475
   47CHL1   H4A 4590   0.346   5.184   6.723  0.0882 -1.8046 -0.6989
   47CHL1   H4B 4591   0.487   5.278   6.781 -1.2917  1.1824 -1.9227
   47CHL1    C5 4592   0.519   5.166   6.583  0.5003 -1.1920 -1.1321
   47CHL1    C6 4593   0.603   5.250   6.530  0.0059 -0.2542  0.4850
   47CHL1    H6 4594   0.634   5.338   6.587 -0.2162 -1.1872  2.0839
   47CHL1    C7 4595   0.642   5.241   6.384 -0.7021  0.3241 -0.8357
   47CHL1   H7A 4596   0.620   5.333   6.326  0.2426  1.2738  0.2457
   47CHL1   H7B 4597   0.752   5.224   6.384 -0.4935  1.5170  0.3641
   47CHL1    C8 4598   0.578   5.120   6.309 -0.4415  0.5559 -0.0758
   47CHL1    H8 4599   0.476   5.152   6.277 -0.7293 -0.1740  0.0926
   47CHL1   C14 4600   0.659   5.089   6.188  0.8388  0.9284  0.6817
   47CHL1   H14 4601   0.750   5.035   6.223  0.2231 -1.5326 -1.2299
   47CHL1   C15 4602   0.704   5.206   6.103 -0.2203 -0.2289  0.0810
   47CHL1  H15A 4603   0.627   5.282   6.078  0.8286  0.8660  0.0930
   47CHL1  H15B 4604   0.786   5.259   6.156 -0.2134  0.3949 -0.5399
   47CHL1   C16 4605   0.753   5.138   5.971  0.7007  0.0376 -0.0655
   47CHL1  H16A 4606   0.691   5.192   5.896 -0.3140  1.4634  1.7150
   47CHL1  H16B 4607   0.860   5.161   5.953 -0.1537  1.4640 -4.5180
   47CHL1   C17 4608   0.715   4.994   5.976  0.1184 -0.2453 -0.4697
   47CHL1   H17 4609   0.792   4.936   6.030  1.1274  0.4466 -1.1429
   47CHL1   C13 4610   0.601   4.988   6.086 -0.8890  0.5764  0.4351
   47CHL1   C18 4611   0.472   5.039   6.022  0.5831  0.0611  0.1074
   47CHL1  H18A 4612   0.393   5.043   6.100  2.5317  0.4559  2.1870
   47CHL1  H18B 4613   0.492   5.137   5.972  0.9219 -0.5381 -0.9602
   47CHL1  H18C 4614   0.437   4.967   5.946  2.8825 -1.4313  0.3517
   47CHL1   C12 4615   0.576   4.855   6.162  0.5621  0.0487  0.3465
   47CHL1  H12A 4616   0.520   4.788   6.093  1.1444 -0.7628  0.6433
   47CHL1  H12B 4617   0.671   4.799   6.166 -0.4935 -1.8683 -0.3319
   47CHL1   C11 4618   0.500   4.880   6.297 -0.7416 -0.2156 -0.5096
   47CHL1  H11A 4619   0.396   4.907   6.272 -1.0563  0.0267  0.9508
   47CHL1  H11B 4620   0.487   4.789   6.361  0.1467 -1.4634 -2.0428
   47CHL1    C9 4621   0.560   4.996   6.392  0.0037 -0.2221  0.0187
   47CHL1    H9 4622   0.661   4.960   6.420 -0.0556  0.7550  1.5891
   47CHL1   C10 4623   0.479   5.032   6.521 -0.0399 -0.0361 -0.6665
   47CHL1   C19 4624   0.328   5.049   6.484 -0.3165  0.4881 -0.1187
   47CHL1  H19A 4625   0.304   5.134   6.417 -0.1473  0.4304 -0.2552
   47CHL1  H19B 4626   0.283   4.964   6.427 -1.0575  1.4315 -0.9674
   47CHL1  H19C 4627   0.271   5.054   6.579  0.2622 -0.1441  0.2737
   47CHL1    C1 4628   0.497   4.914   6.617  0.8342  0.3486  0.1836
   47CHL1   H1A 4629   0.453   4.821   6.574 -2.0417  1.7138 -0.0433
   47CHL1   H1B 4630   0.604   4.887   6.608  0.4169 -1.2154 -0.4621
   47CHL1    C2 4631   0.432   4.936   6.754 -0.4953 -0.8129  0.7316
   47CHL1   H2A 4632   0.452   4.844   6.812 -1.8556 -2.1006 -0.7201
   47CHL1   H2B 4633   0.321   4.937   6.748 -0.4247 -0.8980 -1.6650
   47CHL1   C20 4634   0.692   4.945   5.836  0.4733  0.5154  0.4513
   47CHL1   H20 4635   0.616   5.010   5.788 -0.2284  3.1965  4.6568
   47CHL1   C21 4636   0.640   4.801   5.835  0.4342  0.6190 -0.1842
   47CHL1  H21A 4637   0.608   4.766   5.735  0.8793  0.7918 -0.3887
   47CHL1  H21B 4638   0.541   4.792   5.884  0.0098  2.7557 -0.5216
   47CHL1  H21C 4639   0.715   4.733   5.880 -0.3792 -0.5593 -0.5665
   47CHL1   C22 4640   0.825   4.952   5.757  0.2338 -0.2716 -0.2007
   47CHL1  H22A 4641   0.874   5.050   5.773  1.0126 -1.0671  3.1164
   47CHL1  H22B 4642   0.900   4.883   5.801  0.8804  0.8679  0.5403
   47CHL1   C23 4643   0.815   4.902   5.613  0.7139  0.3099 -0.0862
   47CHL1  H23A 4644   0.791   4.794   5.610  2.1401 -0.0205 -2.3561
   47CHL1  H23B 4645   0.740   4.963   5.558  0.3438  2.0837  2.2098
   47CHL1   C24 4646   0.942   4.889   5.533 -0.4201  0.5922 -0.4319
   47CHL1  H24A 4647   0.994   4.985   5.513  1.2490  0.1159  1.2755
   47CHL1  H24B 4648   1.013   4.822   5.586 -0.7422  2.0721  2.0184
   47CHL1   C25 4649   0.908   4.818   5.400 -0.2494 -0.4835 -0.6027
   47CHL1   H25 4650   0.861   4.720   5.423 -1.2234  0.5002  1.9143
   47CHL1   C26 4651   0.825   4.893   5.297 -0.4792 -0.3958 -0.3722
   47CHL1  H26A 4652   0.732   4.939   5.337 -0.5582  2.2588 -3.2547
   47CHL1  H26B 4653   0.897   4.966   5.254 -0.1720 -1.3687 -1.5858
   47CHL1  H26C 4654   0.800   4.829   5.209  2.2691 -0.8671 -0.9138
   47CHL1   C27 4655   1.043   4.772   5.339 -0.0946  0.0369 -0.0872
   47CHL1  H27A 4656   1.013   4.697   5.262 -2.0582  1.4365 -0.7878
   47CHL1  H27B 4657   1.095   4.854   5.284  0.0359 -0.8990 -1.4045
   47CHL1  H27C 4658   1.115   4.726   5.409  1.2066  1.5675 -0.3678
   48CHL1    C3 4659   3.151   6.255   6.659  0.3422  0.3975  0.5150
   48CHL1    H3 4660   3.117   6.360   6.673 -0.5427  0.0260  1.2408
   48CHL1    O3 4661   3.160   6.197   6.794 -0.8304  0.0058 -0.1786
   48CHL1   H3' 4662   3.183   6.105   6.779  0.1159  0.1613  0.2670
   48CHL1    C4 4663   3.043   6.175   6.592 -0.7421 -0.6198  0.3406
   48CHL1   H4A 4664   3.069   6.069   6.614  0.0975 -0.3025  0.9142
   48CHL1   H4B 4665   2.946   6.187   6.646  0.2718  2.2499  1.7062
   48CHL1    C5 4666   3.036   6.200   6.439 -0.4972  0.5835  0.1475
   48CHL1    C6 4667   2.917   6.233   6.381 -0.6158 -0.7690 -0.1379
   48CHL1    H6 4668   2.827   6.247   6.444  0.0514  0.4851  0.5778
   48CHL1    C7 4669   2.898   6.248   6.236 -0.1853  0.4497  0.2630
   48CHL1   H7A 4670   2.800   6.210   6.199  0.6667  0.8855 -2.6793
   48CHL1   H7B 4671   2.907   6.356   6.213 -3.3402  0.7971  0.1690
   48CHL1    C8 4672   3.007   6.166   6.157 -0.3786 -0.1222  0.0755
   48CHL1    H8 4673   2.990   6.057   6.167  1.3069 -0.3078  1.2901
   48CHL1   C14 4674   3.000   6.192   6.007  0.9613  0.7947 -0.0629
   48CHL1   H14 4675   3.007   6.303   5.997 -2.4123  1.1730  0.6982
   48CHL1   C15 4676   2.868   6.171   5.934 -0.5158 -0.0593  0.6959
   48CHL1  H15A 4677   2.831   6.071   5.966 -1.2078 -0.3277 -0.8137
   48CHL1  H15B 4678   2.800   6.256   5.955 -1.2540  0.0712 -1.8505
   48CHL1   C16 4679   2.904   6.162   5.782  0.3431 -0.5820 -0.9207
   48CHL1  H16A 4680   2.845   6.080   5.736 -1.9285 -0.6431  1.7796
   48CHL1  H16B 4681   2.868   6.261   5.748 -2.0912  0.4049  3.6696
   48CHL1   C17 4682   3.059   6.153   5.770 -0.3783 -0.3527  0.1173
   48CHL1   H17 4683   3.097   6.253   5.741  0.6320 -1.2670 -1.9879
   48CHL1   C13 4684   3.101   6.116   5.922  0.8592 -0.1513  0.5247
   48CHL1   C18 4685   3.089   5.967   5.931 -0.3953  0.5100 -0.3505
   48CHL1  H18A 4686   3.089   5.935   6.037  1.5735 -0.9539 -0.7295
   48CHL1  H18B 4687   2.995   5.933   5.882 -2.5027  2.1164  2.2868
   48CHL1  H18C 4688   3.178   5.913   5.894  1.2507  0.3679  3.3993
   48CHL1   C12 4689   3.240   6.165   5.965 -0.0949 -0.5612  0.6432
   48CHL1  H12A 4690   3.321   6.117   5.906  1.2434  1.5961  0.6561
   48CHL1  H12B 4691   3.237   6.273   5.943 -3.4085 -0.8386 -0.8824
   48CHL1   C11 4692   3.266   6.140   6.120 -0.3645  0.3192  0.4805
   48CHL1  H11A 4693   3.258   6.029   6.115  0.1754  0.3122 -3.3088
   48CHL1  H11B 4694   3.365   6.182   6.148 -0.6054  0.9489  0.3988
   48CHL1    C9 4695   3.156   6.202   6.209  0.4202  0.6098  0.0371
   48CHL1    H9 4696   3.168   6.312   6.200 -0.7943  0.8065  0.6232
   48CHL1   C10 4697   3.168   6.172   6.361  0.3265  0.3082 -0.5860
   48CHL1   C19 4698   3.213   6.020   6.370 -0.9021 -0.3787  0.2821
   48CHL1  H19A 4699   3.129   5.974   6.315 -1.2701  3.0809 -2.4335
   48CHL1  H19B 4700   3.310   5.989   6.325 -0.9102 -0.3485  0.2432
   48CHL1  H19C 4701   3.227   5.988   6.476 -0.1922 -3.6009 -0.6874
   48CHL1    C1 4702   3.267   6.262   6.432  0.3161 -0.1265  0.3752
   48CHL1   H1A 4703   3.366   6.243   6.384  0.0009  0.0876 -0.3667
   48CHL1   H1B 4704   3.242   6.369   6.417 -0.9460 -0.3929  0.5058
   48CHL1    C2 4705   3.284   6.245   6.588  0.5712  0.4621  0.1398
   48CHL1   H2A 4706   3.353   6.328   6.615  1.8556 -1.3645  2.9771
   48CHL1   H2B 4707   3.319   6.140   6.598 -0.4820  0.0444 -0.4114
   48CHL1   C20 4708   3.105   6.056   5.658  0.4897 -0.3633 -0.0113
   48CHL1   H20 4709   3.053   5.959   5.674  0.2679 -0.0694  1.0736
   48CHL1   C21 4710   3.254   6.027   5.649  0.2807 -0.4268  0.2052
   48CHL1  H21A 4711   3.293   5.983   5.554  0.1126  0.3813 -0.2531
   48CHL1  H21B 4712   3.298   6.129   5.649 -0.6010 -0.0256 -0.8130
   48CHL1  H21C 4713   3.286   5.954   5.726 -0.2802 -0.5029  0.3732
   48CHL1   C22 4714   3.052   6.104   5.524 -0.2968  0.3103 -0.0922
   48CHL1  H22A 4715   2.948   6.143   5.529 -0.3498  0.1327  0.1738
   48CHL1  H22B 4716   3.112   6.194   5.497  1.4820 -1.3945 -2.3050
   48CHL1   C23 4717   3.065   6.001   5.405  0.3396 -0.3766 -0.4752
   48CHL1  H23A 4718   3.055   6.074   5.322  0.8212  1.0171  0.6541
   48CHL1  H23B 4719   3.158   5.940   5.404 -0.1999 -1.2292  0.1573
   48CHL1   C24 4720   2.952   5.894   5.410 -0.3325  0.1887 -0.3024
   48CHL1  H24A 4721   2.958   5.837   5.505  1.9783  2.5821  1.1490
   48CHL1  H24B 4722   2.857   5.952   5.419 -0.2834  0.5434 -1.7436
   48CHL1   C25 4723   2.947   5.788   5.305  0.4079 -0.0522  0.3701
   48CHL1   H25 4724   3.045   5.737   5.288  0.3417  0.4550 -1.9292
   48CHL1   C26 4725   2.854   5.668   5.348 -0.7620 -0.3500  0.0411
   48CHL1  H26A 4726   2.760   5.710   5.390 -0.5242  0.8736 -0.5866
   48CHL1  H26B 4727   2.840   5.590   5.271 -0.9866 -0.9130  0.6440
   48CHL1  H26C 4728   2.898   5.609   5.431 -1.5930  0.6080  1.1868
   48CHL1   C27 4729   2.906   5.838   5.158  0.1393  0.3850  0.1569
   48CHL1  H27A 4730   2.896   5.743   5.100  1.5862 -0.5846  1.4156
   48CHL1  H27B 4731   2.802   5.878   5.149 -0.1122 -0.2850  0.0083
   48CHL1  H27C 4732   2.990   5.905   5.131  0.0763  0.7018  0.7272
   49CHL1    C3 4733   4.701   0.740   3.098 -1.3584  0.1402  0.1494
   49CHL1    H3 4734   4.794   0.682   3.114 -0.9010  0.7817 -0.1620
   49CHL1    O3 4735   4.688   0.752   2.959  0.4043  0.4004 -0.2473
   49CHL1   H3' 4736   4.769   0.790   2.924  0.5858 -0.6995 -1.0513
   49CHL1    C4 4737   4.581   0.666   3.160  0.2459  0.1615 -0.4032
   49CHL1   H4A 4738   4.486   0.717   3.131  0.0071  0.0877  0.2341
   49CHL1   H4B 4739   4.579   0.570   3.104 -0.0558 -0.2100  0.2333
   49CHL1    C5 4740   4.582   0.654   3.313  0.6627  0.3520  0.6229
   49CHL1    C6 4741   4.571   0.537   3.370  0.0221  0.7489 -0.9082
   49CHL1    H6 4742   4.560   0.444   3.312  0.7829  0.3830 -0.4708
   49CHL1    C7 4743   4.566   0.517   3.527  0.1138 -0.0605  0.5052
   49CHL1   H7A 4744   4.491   0.451   3.574 -0.2108  1.0155  1.5366
   49CHL1   H7B 4745   4.661   0.464   3.550 -0.5214 -0.7163  1.7098
   49CHL1    C8 4746   4.562   0.654   3.600  0.7040  0.3175  0.6512
   49CHL1    H8 4747   4.456   0.686   3.592  0.3721 -0.4537  1.6414
   49CHL1   C14 4748   4.613   0.643   3.745  0.2446 -0.0659 -0.0802
   49CHL1   H14 4749   4.722   0.628   3.737  0.2561 -0.0313  0.0060
   49CHL1   C15 4750   4.575   0.513   3.829 -0.5458 -0.4766 -0.2907
   49CHL1  H15A 4751   4.472   0.471   3.829 -0.1817 -1.4145  0.8874
   49CHL1  H15B 4752   4.651   0.440   3.795  1.0652  1.8512 -1.9757
   49CHL1   C16 4753   4.609   0.557   3.976  0.0989  0.8745  0.1200
   49CHL1  H16A 4754   4.511   0.563   4.028 -0.2276  0.0104 -0.3754
   49CHL1  H16B 4755   4.669   0.479   4.028  1.1186  0.1928 -1.9936
   49CHL1   C17 4756   4.668   0.701   3.966  0.0472 -0.4512 -0.6046
   49CHL1   H17 4757   4.777   0.690   3.947 -0.3689 -1.6837 -2.4774
   49CHL1   C13 4758   4.607   0.762   3.835  0.5243  0.0271 -0.7264
   49CHL1   C18 4759   4.453   0.792   3.851 -0.5602  0.4259  0.4533
   49CHL1  H18A 4760   4.407   0.707   3.906 -0.4642 -0.1113 -0.2772
   49CHL1  H18B 4761   4.441   0.889   3.904  0.1167 -0.7721  2.9559
   49CHL1  H18C 4762   4.406   0.804   3.751 -3.0994  2.7172  1.7801
   49CHL1   C12 4763   4.680   0.879   3.776 -0.5241  0.0009  0.6217
   49CHL1  H12A 4764   4.654   0.971   3.833 -1.4469 -0.0178  0.2475
   49CHL1  H12B 4765   4.787   0.851   3.780 -0.7214 -0.6733  1.3847
   49CHL1   C11 4766   4.648   0.892   3.625 -0.1796 -0.3002  0.3633
   49CHL1  H11A 4767   4.548   0.941   3.613  0.3864  0.5701 -1.1572
   49CHL1  H11B 4768   4.711   0.973   3.582  0.6887 -1.3216 -0.3501
   49CHL1    C9 4769   4.639   0.764   3.535 -0.3448 -0.2774  0.4406
   49CHL1    H9 4770   4.740   0.719   3.534  1.0760  2.6909  0.6643
   49CHL1   C10 4771   4.608   0.792   3.384  0.1767  0.4036 -0.5638
   49CHL1   C19 4772   4.472   0.868   3.370 -0.3425  0.1400  0.5196
   49CHL1  H19A 4773   4.407   0.822   3.448 -0.0923 -1.2653 -0.0751
   49CHL1  H19B 4774   4.492   0.972   3.403 -4.6599  0.5091  2.8020
   49CHL1  H19C 4775   4.430   0.860   3.268  0.9234 -2.3393  0.1215
   49CHL1    C1 4776   4.724   0.867   3.315 -0.4467  0.9370 -0.6579
   49CHL1   H1A 4777   4.736   0.967   3.361  1.1637 -0.4235  2.1275
   49CHL1   H1B 4778   4.817   0.808   3.332  0.1095  0.5076 -4.4001
   49CHL1    C2 4779   4.722   0.876   3.161  0.2384 -0.4834 -0.4543
   49CHL1   H2A 4780   4.815   0.926   3.128 -1.0517  0.4695 -2.9059
   49CHL1   H2B 4781   4.639   0.944   3.133 -0.4614 -1.3256 -0.4825
   49CHL1   C20 4782   4.645   0.779   4.105  0.2495 -0.3801  1.4998
   49CHL1   H20 4783   4.541   0.819   4.107  0.0420 -0.8769  0.8591
   49CHL1   C21 4784   4.738   0.908   4.103  0.0799  0.1364  0.1312
   49CHL1  H21A 4785   4.845   0.880   4.112 -0.3813 -1.1259  2.4029
   49CHL1  H21B 4786   4.712   0.974   4.188 -1.5101  0.0767 -0.2699
   49CHL1  H21C 4787   4.713   0.979   4.021  0.8402  1.7349  1.2465
   49CHL1   C22 4788   4.663   0.692   4.233  0.4494 -0.1042 -0.2892
   49CHL1  H22A 4789   4.616   0.593   4.220 -0.5655  0.2660  0.4557
   49CHL1  H22B 4790   4.773   0.674   4.239  0.6193 -0.0336 -2.4528
   49CHL1   C23 4791   4.592   0.753   4.358 -1.7232 -0.3752  0.2421
   49CHL1  H23A 4792   4.637   0.717   4.454  0.5983 -2.5648 -1.5078
   49CHL1  H23B 4793   4.621   0.859   4.347  0.2711 -1.0849 -2.5133
   49CHL1   C24 4794   4.439   0.744   4.371 -0.0053 -0.4739  0.1615
   49CHL1  H24A 4795   4.396   0.801   4.287  1.7570 -0.7495 -0.9736
   49CHL1  H24B 4796   4.411   0.636   4.365 -2.1346 -0.1517  2.4286
   49CHL1   C25 4797   4.378   0.806   4.499  0.8856 -0.5796  0.5430
   49CHL1   H25 4798   4.269   0.809   4.478  1.0973 -1.8292 -0.9397
   49CHL1   C26 4799   4.403   0.719   4.625  0.2046  0.4633  0.5906
   49CHL1  H26A 4800   4.508   0.698   4.655  0.5309  0.6359 -0.3836
   49CHL1  H26B 4801   4.354   0.778   4.705  2.1123 -0.2201  2.3570
   49CHL1  H26C 4802   4.358   0.619   4.607 -0.9599  1.3408 -1.7979
   49CHL1   C27 4803   4.430   0.953   4.522  0.4059  0.5992  0.4601
   49CHL1  H27A 4804   4.406   1.007   4.428  0.8179 -0.6314 -0.3777
   49CHL1  H27B 4805   4.388   0.995   4.616  0.3491 -0.7421  1.0643
   49CHL1  H27C 4806   4.540   0.946   4.532  0.3423 -2.7039 -0.0669
   50CHL1    C3 4807   0.418   2.103   3.153 -0.1727 -0.6155 -0.1323
   50CHL1    H3 4808   0.395   1.994   3.152 -1.5972 -0.3391  0.1338
   50CHL1    O3 4809   0.453   2.159   3.027  0.0039 -0.0749  0.3263
   50CHL1   H3' 4810   0.483   2.086   2.973 -1.2599  0.5913 -1.3826
   50CHL1    C4 4811   0.291   2.173   3.192 -0.2282  0.0382  0.2855
   50CHL1   H4A 4812   0.318   2.280   3.182 -0.0770  0.0481  0.7744
   50CHL1   H4B 4813   0.215   2.145   3.116  1.3505  0.3346 -1.4851
   50CHL1    C5 4814   0.257   2.144   3.335 -0.0077 -0.2201 -0.2548
   50CHL1    C6 4815   0.142   2.098   3.363  0.1134  0.9798 -0.0210
   50CHL1    H6 4816   0.069   2.102   3.281  1.4562  1.3367 -1.2332
   50CHL1    C7 4817   0.091   2.055   3.496 -0.1931 -0.5026 -0.3719
   50CHL1   H7A 4818  -0.014   2.083   3.516  0.9649  2.4275  2.5780
   50CHL1   H7B 4819   0.088   1.944   3.502  2.0539 -0.6254 -0.5250
   50CHL1    C8 4820   0.176   2.107   3.611  0.3358 -0.2006  0.3145
   50CHL1    H8 4821   0.140   2.209   3.634 -4.1542 -2.1217  3.2906
   50CHL1   C14 4822   0.144   2.040   3.740 -0.6926  0.8076  0.1305
   50CHL1   H14 4823   0.181   1.937   3.723  1.2883  1.3536  0.7719
   50CHL1   C15 4824  -0.006   2.032   3.780 -0.1825  0.3264  0.3578
   50CHL1  H15A 4825  -0.053   2.132   3.794  1.1396  0.8896  0.9655
   50CHL1  H15B 4826  -0.061   1.959   3.717  0.6674  0.3061 -0.3677
   50CHL1   C16 4827   0.006   1.972   3.919  0.0245  0.7208 -0.8641
   50CHL1  H16A 4828  -0.065   2.024   3.987  0.5497  1.2548 -0.7251
   50CHL1  H16B 4829  -0.016   1.864   3.931  0.1583  0.8348  0.5498
   50CHL1   C17 4830   0.159   1.988   3.967  0.0093 -0.9249 -0.0047
   50CHL1   H17 4831   0.203   1.887   3.953  0.0449 -1.0086  0.6872
   50CHL1   C13 4832   0.217   2.083   3.862  1.0165 -0.2455  0.2566
   50CHL1   C18 4833   0.190   2.231   3.897 -0.3138  0.2597 -0.2425
   50CHL1  H18A 4834   0.228   2.288   3.809 -0.1957  0.0172 -0.3493
   50CHL1  H18B 4835   0.088   2.264   3.925 -0.0500 -0.6001  1.9916
   50CHL1  H18C 4836   0.237   2.268   3.991 -1.5557  1.0073  0.1134
   50CHL1   C12 4837   0.361   2.053   3.825 -0.9123 -0.3974 -0.4783
   50CHL1  H12A 4838   0.434   2.070   3.907 -1.6982 -1.3241  0.4392
   50CHL1  H12B 4839   0.373   1.944   3.804 -1.7807 -0.5200 -0.3718
   50CHL1   C11 4840   0.416   2.124   3.702  0.3015 -0.2514  0.3903
   50CHL1  H11A 4841   0.415   2.231   3.731  0.2554  0.0465 -0.6446
   50CHL1  H11B 4842   0.521   2.093   3.686  1.0811  1.7805  1.2481
   50CHL1    C9 4843   0.323   2.097   3.583 -0.5197 -0.3439  0.5915
   50CHL1    H9 4844   0.327   1.988   3.563 -1.5198 -0.3765  0.5030
   50CHL1   C10 4845   0.365   2.162   3.443 -0.5152 -0.6698  0.1538
   50CHL1   C19 4846   0.383   2.314   3.475  0.1898  0.1296  0.8356
   50CHL1  H19A 4847   0.403   2.363   3.377 -1.5487  0.3554  0.5610
   50CHL1  H19B 4848   0.289   2.353   3.521 -0.8453 -2.5992  1.1938
   50CHL1  H19C 4849   0.469   2.333   3.543  1.6840  1.3332 -1.2507
   50CHL1    C1 4850   0.496   2.096   3.399  0.0332  0.7908  0.1573
   50CHL1   H1A 4851   0.580   2.126   3.465  0.4592  0.0068 -0.0030
   50CHL1   H1B 4852   0.488   1.985   3.400 -1.3448  0.8363 -1.4917
   50CHL1    C2 4853   0.532   2.127   3.254  0.1913 -0.1740  0.5202
   50CHL1   H2A 4854   0.623   2.068   3.228 -0.2919 -1.9946  2.6489
   50CHL1   H2B 4855   0.556   2.236   3.254  1.4225 -0.4207  0.0568
   50CHL1   C20 4856   0.165   2.017   4.121 -0.0586  0.7479  0.5349
   50CHL1   H20 4857   0.169   2.128   4.132  0.2021  0.8052 -0.0772
   50CHL1   C21 4858   0.300   1.978   4.168  0.5676  0.4089  0.3319
   50CHL1  H21A 4859   0.330   1.873   4.152  1.2050 -0.1532  4.2787
   50CHL1  H21B 4860   0.309   1.988   4.278 -0.6639 -1.1123  0.6008
   50CHL1  H21C 4861   0.375   2.039   4.112 -1.1785  2.3189 -0.0674
   50CHL1   C22 4862   0.063   1.925   4.199  0.0250  0.2421 -0.3459
   50CHL1  H22A 4863  -0.043   1.936   4.170  0.5750  2.1272 -1.7892
   50CHL1  H22B 4864   0.095   1.819   4.188 -0.0149  0.0119  1.4705
   50CHL1   C23 4865   0.056   1.956   4.348 -0.0841 -0.2944  0.8839
   50CHL1  H23A 4866   0.151   1.928   4.398  0.7492 -1.4256 -1.2344
   50CHL1  H23B 4867   0.040   2.066   4.348 -2.6992 -0.6070  0.1354
   50CHL1   C24 4868  -0.068   1.893   4.419 -0.3735  0.7112 -0.0172
   50CHL1  H24A 4869  -0.161   1.954   4.414  0.2617  1.6837 -0.3997
   50CHL1  H24B 4870  -0.090   1.798   4.365 -0.4538 -0.2457  1.6414
   50CHL1   C25 4871  -0.051   1.869   4.575  0.5841 -0.0691 -0.4288
   50CHL1   H25 4872   0.033   1.800   4.597  1.8880  1.4122 -0.5346
   50CHL1   C26 4873  -0.016   2.004   4.642 -0.1119 -0.3366 -0.1325
   50CHL1  H26A 4874   0.081   2.042   4.604 -0.1277 -1.6266 -1.5620
   50CHL1  H26B 4875  -0.090   2.086   4.627 -1.6319 -1.3846  1.2208
   50CHL1  H26C 4876  -0.014   1.992   4.753 -0.3032  0.1453 -0.0751
   50CHL1   C27 4877  -0.180   1.805   4.632  0.0898 -0.4012 -0.5349
   50CHL1  H27A 4878  -0.268   1.866   4.601 -1.5827 -2.3668  0.0869
   50CHL1  H27B 4879  -0.189   1.703   4.589  1.1758 -1.3166  1.2980
   50CHL1  H27C 4880  -0.171   1.799   4.742  3.3098  0.0210 -0.6920
   51CHL1    C3 4881   4.620   3.652   2.966  0.1745  0.0143 -0.2973
   51CHL1    H3 4882   4.663   3.553   2.991 -2.0007 -0.1764  3.4372
   51CHL1    O3 4883   4.605   3.684   2.830 -0.7795  0.0100 -0.1279
   51CHL1   H3' 4884   4.555   3.764   2.813 -1.7002 -0.5690 -0.2098
   51CHL1    C4 4885   4.481   3.638   3.035  0.1606  0.0708 -0.2148
   51CHL1   H4A 4886   4.431   3.735   3.013  0.6861 -0.3762 -4.1049
   51CHL1   H4B 4887   4.415   3.572   2.974  0.7147 -0.5842 -0.1175
   51CHL1    C5 4888   4.477   3.601   3.179 -0.2697 -0.3875  0.8403
   51CHL1    C6 4889   4.410   3.493   3.223  0.9498 -0.0881  0.1544
   51CHL1    H6 4890   4.347   3.428   3.160 -0.2765  0.0515  1.1949
   51CHL1    C7 4891   4.413   3.449   3.370 -0.4191  0.5708  0.2532
   51CHL1   H7A 4892   4.313   3.429   3.414 -0.0558  0.6161  1.1365
   51CHL1   H7B 4893   4.476   3.358   3.386 -0.9182  0.3361  0.9562
   51CHL1    C8 4894   4.470   3.565   3.454  0.4405  0.0176 -0.2974
   51CHL1    H8 4895   4.394   3.646   3.452  0.2370 -0.1794 -0.7001
   51CHL1   C14 4896   4.501   3.505   3.592  1.2545 -0.3483 -0.5889
   51CHL1   H14 4897   4.568   3.418   3.576  0.9110 -0.3344 -2.2934
   51CHL1   C15 4898   4.382   3.441   3.673 -0.4479  0.5290 -0.1566
   51CHL1  H15A 4899   4.293   3.507   3.663 -0.4855  0.6316  0.7512
   51CHL1  H15B 4900   4.356   3.340   3.636  0.7571  0.0475  0.2774
   51CHL1   C16 4901   4.436   3.434   3.820  0.0635 -0.0838 -0.7966
   51CHL1  H16A 4902   4.360   3.470   3.892  0.8429  0.3216 -0.1621
   51CHL1  H16B 4903   4.462   3.329   3.846  1.5261  0.7189  1.3079
   51CHL1   C17 4904   4.568   3.512   3.831 -0.3675 -0.4145 -0.2866
   51CHL1   H17 4905   4.646   3.434   3.820  0.0802 -0.2228  1.1814
   51CHL1   C13 4906   4.570   3.588   3.696  1.0714  0.7413 -0.0871
   51CHL1   C18 4907   4.475   3.714   3.723  0.7345 -0.1947 -0.1984
   51CHL1  H18A 4908   4.383   3.687   3.779  1.0486  0.8413  0.8683
   51CHL1  H18B 4909   4.523   3.797   3.780 -3.3175  1.7511  0.7859
   51CHL1  H18C 4910   4.433   3.768   3.636 -2.1049  2.7329  2.6721
   51CHL1   C12 4911   4.703   3.627   3.631 -0.8394  0.3931  0.5296
   51CHL1  H12A 4912   4.765   3.691   3.698  0.2361 -1.0365  0.9424
   51CHL1  H12B 4913   4.760   3.535   3.606  0.6489  1.4273 -0.0048
   51CHL1   C11 4914   4.675   3.712   3.501 -0.4607 -0.1449  0.4415
   51CHL1  H11A 4915   4.617   3.805   3.521  1.2464  1.1673 -0.4049
   51CHL1  H11B 4916   4.769   3.737   3.447 -1.3348 -0.7436 -1.4509
   51CHL1    C9 4917   4.599   3.623   3.399 -0.8804  0.0741  0.2843
   51CHL1    H9 4918   4.666   3.536   3.381 -1.6554 -1.1104  2.6439
   51CHL1   C10 4919   4.574   3.690   3.264 -0.3782 -0.1866  0.5094
   51CHL1   C19 4920   4.499   3.822   3.278 -0.1429  0.1467  0.5705
   51CHL1  H19A 4921   4.391   3.806   3.300 -0.4662 -1.0457 -1.6136
   51CHL1  H19B 4922   4.547   3.882   3.358  1.9756 -1.6371  0.7138
   51CHL1  H19C 4923   4.501   3.865   3.175 -1.9614 -2.5813 -0.7171
   51CHL1    C1 4924   4.712   3.709   3.196 -0.7030  0.0984  1.2479
   51CHL1   H1A 4925   4.766   3.792   3.245 -1.8139  1.4871  0.2304
   51CHL1   H1B 4926   4.771   3.616   3.199 -4.0972 -2.4461 -1.7272
   51CHL1    C2 4927   4.705   3.749   3.040 -0.2188 -0.1697  0.2528
   51CHL1   H2A 4928   4.810   3.749   3.003 -0.0622  2.3949  0.5330
   51CHL1   H2B 4929   4.674   3.855   3.031  1.8166  0.4868  0.4503
   51CHL1   C20 4930   4.588   3.594   3.956  0.4166  0.4779 -0.9643
   51CHL1   H20 4931   4.514   3.675   3.973  0.7872  0.2521  2.3381
   51CHL1   C21 4932   4.724   3.656   3.957 -0.3586 -0.1965 -0.1695
   51CHL1  H21A 4933   4.806   3.593   3.916  0.3059  1.3151 -1.2305
   51CHL1  H21B 4934   4.756   3.709   4.049  0.2639 -2.5662  1.0705
   51CHL1  H21C 4935   4.716   3.737   3.882 -0.8041  0.0863  0.1814
   51CHL1   C22 4936   4.565   3.502   4.085 -0.2916 -0.1487 -0.3274
   51CHL1  H22A 4937   4.594   3.564   4.172 -1.3701  0.6402 -0.5033
   51CHL1  H22B 4938   4.457   3.484   4.099 -0.5629  0.1964 -1.7641
   51CHL1   C23 4939   4.644   3.366   4.091  0.3871 -1.0160  0.3269
   51CHL1  H23A 4940   4.607   3.304   4.007 -0.1027  0.0594 -0.2820
   51CHL1  H23B 4941   4.754   3.383   4.087  0.7277 -3.0573  0.3354
   51CHL1   C24 4942   4.615   3.273   4.214  0.0742  0.3353 -0.3212
   51CHL1  H24A 4943   4.506   3.251   4.217  0.7395 -3.8512  1.2225
   51CHL1  H24B 4944   4.656   3.170   4.204 -0.4431 -0.0613  1.3203
   51CHL1   C25 4945   4.657   3.338   4.347 -0.2773 -0.2853  0.2300
   51CHL1   H25 4946   4.633   3.447   4.343 -0.8978 -0.4387 -0.4203
   51CHL1   C26 4947   4.570   3.295   4.471 -1.4561  0.6989  0.6314
   51CHL1  H26A 4948   4.461   3.302   4.452 -1.4165  0.1716  0.1858
   51CHL1  H26B 4949   4.602   3.193   4.499  1.2682  0.8135 -1.5811
   51CHL1  H26C 4950   4.597   3.370   4.548 -1.5142 -0.7923  2.1670
   51CHL1   C27 4951   4.806   3.325   4.367 -0.2505  0.1777 -0.5945
   51CHL1  H27A 4952   4.824   3.216   4.371 -1.0377  0.0525 -0.2989
   51CHL1  H27B 4953   4.873   3.360   4.285  0.5583 -1.3213 -0.6028
   51CHL1  H27C 4954   4.835   3.355   4.470 -0.2354  0.3314 -0.6433
   52CHL1    C3 4955   4.991   4.045   3.060 -0.3021 -0.8813  0.4519
   52CHL1    H3 4956   4.957   3.940   3.068 -0.5815 -0.8692 -0.4779
   52CHL1    O3 4957   4.973   4.096   2.929  0.2067  0.2413  0.1900
   52CHL1   H3' 4958   4.951   4.019   2.876  0.9580 -0.1368  0.4216
   52CHL1    C4 4959   4.912   4.138   3.149 -0.0556  0.7926 -1.2666
   52CHL1   H4A 4960   4.943   4.242   3.128  3.3646 -0.0138 -0.8220
   52CHL1   H4B 4961   4.807   4.149   3.114  0.1980  2.4479 -1.5987
   52CHL1    C5 4962   4.936   4.115   3.296 -0.0753 -0.0523 -0.2885
   52CHL1    C6 4963   4.828   4.092   3.378  0.7492  0.4645  0.8148
   52CHL1    H6 4964   4.726   4.106   3.339  0.8408  0.4191  0.5632
   52CHL1    C7 4965   4.829   4.053   3.523  0.1191  0.3135  0.0638
   52CHL1   H7A 4966   4.745   4.102   3.576  1.1251  3.1084 -0.7249
   52CHL1   H7B 4967   4.819   3.943   3.512  0.9854  0.4726 -3.7977
   52CHL1    C8 4968   4.970   4.079   3.585 -0.4330  0.2557  0.8807
   52CHL1    H8 4969   4.984   4.189   3.597  0.4403  0.3148 -0.4697
   52CHL1   C14 4970   4.983   4.012   3.717 -1.0829  0.7629  0.8026
   52CHL1   H14 4971   4.986   3.902   3.703  0.0550  0.7809  0.8212
   52CHL1   C15 4972   4.874   4.042   3.819 -0.7159  0.0381  0.0014
   52CHL1  H15A 4973   4.853   4.151   3.814 -0.9502  0.0070  0.2801
   52CHL1  H15B 4974   4.786   3.975   3.810 -0.1745 -0.6315 -0.3841
   52CHL1   C16 4975   4.934   3.999   3.954  0.2040 -0.0126  0.0870
   52CHL1  H16A 4976   4.917   4.077   4.031 -0.0787 -0.6193  0.6452
   52CHL1  H16B 4977   4.873   3.918   3.999 -3.0567  2.4619  0.5768
   52CHL1   C17 4978   5.082   3.977   3.933 -0.4559 -0.2199  0.1922
   52CHL1   H17 4979   5.102   3.872   3.902 -0.0044 -0.0203 -0.2101
   52CHL1   C13 4980   5.115   4.037   3.787  0.1008  0.5513 -0.8408
   52CHL1   C18 4981   5.132   4.189   3.818 -0.3965 -0.3133 -0.1287
   52CHL1  H18A 4982   5.233   4.229   3.840 -0.4714  0.1111 -0.5433
   52CHL1  H18B 4983   5.094   4.252   3.735  1.3421  0.9883 -0.0028
   52CHL1  H18C 4984   5.062   4.223   3.898  0.1765 -0.1574  0.3136
   52CHL1   C12 4985   5.221   3.974   3.702 -1.0057  0.5952  0.1048
   52CHL1  H12A 4986   5.314   3.985   3.761 -0.9258  0.9121 -0.0812
   52CHL1  H12B 4987   5.190   3.867   3.694 -3.1024  1.2001 -0.4577
   52CHL1   C11 4988   5.222   4.038   3.560  0.1272 -0.4392 -0.0788
   52CHL1  H11A 4989   5.256   4.142   3.578  1.1438 -0.4021 -1.9911
   52CHL1  H11B 4990   5.295   3.996   3.487 -0.9474  0.8695 -1.9853
   52CHL1    C9 4991   5.080   4.026   3.490 -0.1125 -0.1199  0.6028
   52CHL1    H9 4992   5.050   3.922   3.469 -0.8889  0.4099 -1.0227
   52CHL1   C10 4993   5.082   4.094   3.347  0.2730 -0.1529 -0.4980
   52CHL1   C19 4994   5.152   4.230   3.345  0.5226 -0.3832  0.5456
   52CHL1  H19A 4995   5.170   4.287   3.252 -1.4849  1.0515  0.9816
   52CHL1  H19B 4996   5.099   4.301   3.411 -0.4878 -0.6477  0.0264
   52CHL1  H19C 4997   5.257   4.217   3.380  0.4631  0.9843  1.2961
   52CHL1    C1 4998   5.154   3.994   3.247  1.2395 -0.0954 -0.9559
   52CHL1   H1A 4999   5.258   3.969   3.277  1.8600  0.3265 -2.6494
   52CHL1   H1B 5000   5.109   3.893   3.257  0.1163  0.5032  0.3303
   52CHL1    C2 5001   5.141   4.042   3.098 -0.5807  0.7375  0.6907
   52CHL1   H2A 5002   5.199   3.970   3.036 -1.6616 -0.1329  0.6412
   52CHL1   H2B 5003   5.200   4.135   3.090  0.1770  0.1832 -0.5354
   52CHL1   C20 5004   5.167   4.027   4.054  0.3482  0.2083 -0.5863
   52CHL1   H20 5005   5.139   4.130   4.083 -0.9841 -0.9084  2.5269
   52CHL1   C21 5006   5.316   4.014   4.029  0.4555  0.0114  0.7069
   52CHL1  H21A 5007   5.378   4.045   4.115 -2.0818  0.4725  2.5059
   52CHL1  H21B 5008   5.346   4.088   3.951  0.0846 -0.0733  0.4819
   52CHL1  H21C 5009   5.338   3.911   3.995 -0.7001 -0.3560  1.0078
   52CHL1   C22 5010   5.133   3.944   4.185  0.3212 -0.2033 -0.5503
   52CHL1  H22A 5011   5.022   3.937   4.184  0.2866  0.3174 -0.7985
   52CHL1  H22B 5012   5.166   3.838   4.172  0.8188 -0.1555  0.2708
   52CHL1   C23 5013   5.200   3.987   4.315 -0.7553 -0.0569 -0.5510
   52CHL1  H23A 5014   5.306   3.959   4.299 -0.6932 -0.0426 -0.1744
   52CHL1  H23B 5015   5.196   4.098   4.315 -2.1995 -0.0195  1.9817
   52CHL1   C24 5016   5.123   3.943   4.441 -0.0180 -0.2313 -0.0109
   52CHL1  H24A 5017   5.026   3.997   4.451  0.6854  1.6414 -2.4985
   52CHL1  H24B 5018   5.099   3.835   4.432 -0.1284 -0.2557  0.5589
   52CHL1   C25 5019   5.209   3.948   4.569  0.4089 -0.0853  0.6902
   52CHL1   H25 5020   5.295   3.878   4.562  0.7206  0.3824 -0.3138
   52CHL1   C26 5021   5.270   4.085   4.592  0.1278  0.2254  0.3400
   52CHL1  H26A 5022   5.196   4.163   4.618  1.7196  1.4433  1.3407
   52CHL1  H26B 5023   5.340   4.096   4.677  0.9444 -1.0445 -0.1393
   52CHL1  H26C 5024   5.311   4.121   4.495 -0.7983  0.9059  0.1878
   52CHL1   C27 5025   5.124   3.906   4.692 -0.0199  0.5885  0.3227
   52CHL1  H27A 5026   5.048   3.984   4.714 -1.4250 -0.9971  1.3707
   52CHL1  H27B 5027   5.073   3.808   4.678  0.7036 -0.0508  1.9516
   52CHL1  H27C 5028   5.199   3.891   4.772  0.1256  2.0023  0.4787
   53CHL1    C3 5029   1.865   4.292   3.227  0.2557 -0.7749 -0.2025
   53CHL1    H3 5030   1.772   4.341   3.262  1.8502  1.5757  1.0437
   53CHL1    O3 5031   1.876   4.274   3.080  0.3425  0.1047 -0.4949
   53CHL1   H3' 5032   1.813   4.204   3.062 -0.5507  1.3613 -2.7151
   53CHL1    C4 5033   1.985   4.372   3.271  0.3706 -0.5850 -0.0712
   53CHL1   H4A 5034   2.073   4.325   3.220 -1.7691 -1.7709 -2.9284
   53CHL1   H4B 5035   1.972   4.467   3.214 -2.3562 -1.3364 -0.8102
   53CHL1    C5 5036   1.994   4.404   3.414  0.6064 -0.1427  0.3054
   53CHL1    C6 5037   2.005   4.525   3.463  0.1286 -0.2079  0.3160
   53CHL1    H6 5038   2.033   4.600   3.387  2.3007 -0.5352  0.7282
   53CHL1    C7 5039   2.017   4.560   3.612  0.7209 -0.6477 -0.0079
   53CHL1   H7A 5040   2.113   4.609   3.640 -0.2644 -0.1936  2.8914
   53CHL1   H7B 5041   1.934   4.628   3.640  0.8585  0.3610 -1.8846
   53CHL1    C8 5042   2.020   4.437   3.707 -0.0115  0.0014  0.5625
   53CHL1    H8 5043   2.126   4.405   3.702  0.4411  1.6526 -2.4325
   53CHL1   C14 5044   1.985   4.475   3.850 -0.5907  0.1342  0.4726
   53CHL1   H14 5045   1.879   4.503   3.832 -0.1209 -0.0783 -3.3587
   53CHL1   C15 5046   2.069   4.589   3.913 -0.3819 -0.2848 -0.1123
   53CHL1  H15A 5047   2.180   4.587   3.909 -0.2954  1.9437 -0.1062
   53CHL1  H15B 5048   2.029   4.689   3.891  3.0803  1.7935  2.0106
   53CHL1   C16 5049   2.044   4.572   4.065 -0.3327 -0.2619  0.3620
   53CHL1  H16A 5050   2.143   4.555   4.113  0.0377 -0.0181 -0.3115
   53CHL1  H16B 5051   1.999   4.661   4.113 -1.9134  0.9728 -3.0868
   53CHL1   C17 5052   1.951   4.443   4.077 -0.5435 -0.9132  0.4528
   53CHL1   H17 5053   1.852   4.486   4.054  0.9285  1.9834 -0.9659
   53CHL1   C13 5054   1.986   4.361   3.952 -0.9739  0.3457 -0.0766
   53CHL1   C18 5055   2.124   4.289   3.956 -0.0297 -0.0359  0.1937
   53CHL1  H18A 5056   2.205   4.360   3.985  0.2600 -0.3860  0.2367
   53CHL1  H18B 5057   2.126   4.212   4.036 -0.5906  1.0055  1.2471
   53CHL1  H18C 5058   2.143   4.238   3.859 -1.2580 -0.1715  0.0107
   53CHL1   C12 5059   1.878   4.260   3.903 -0.5083  0.2713  0.0283
   53CHL1  H12A 5060   1.882   4.170   3.968  0.2921  1.5049  1.7673
   53CHL1  H12B 5061   1.784   4.317   3.914  1.0069  2.8974  0.3628
   53CHL1   C11 5062   1.892   4.210   3.765  0.1982  0.1712  0.3689
   53CHL1  H11A 5063   1.960   4.122   3.762 -2.4071 -1.9689  0.0409
   53CHL1  H11B 5064   1.800   4.157   3.733  0.9731 -1.4762  0.7503
   53CHL1    C9 5065   1.924   4.322   3.658 -0.5926 -0.4806  0.1853
   53CHL1    H9 5066   1.827   4.376   3.648 -0.8800 -1.1024 -0.4037
   53CHL1   C10 5067   1.973   4.276   3.512  0.6581 -0.7373  0.3023
   53CHL1   C19 5068   2.107   4.194   3.516  0.2723 -0.6420  0.2196
   53CHL1  H19A 5069   2.108   4.118   3.597 -1.1953  0.7614  1.6278
   53CHL1  H19B 5070   2.116   4.146   3.416  0.7564  0.0122 -0.0541
   53CHL1  H19C 5071   2.196   4.259   3.527  1.0908 -1.1082 -2.7821
   53CHL1    C1 5072   1.864   4.182   3.447  0.0644 -0.1774 -0.1252
   53CHL1   H1A 5073   1.868   4.086   3.502 -1.3763  0.4816  1.2096
   53CHL1   H1B 5074   1.766   4.229   3.469  0.3033 -0.2395  1.1545
   53CHL1    C2 5075   1.877   4.155   3.297  0.1230  0.5890 -0.1477
   53CHL1   H2A 5076   1.787   4.100   3.262  1.2350 -1.6122  0.2476
   53CHL1   H2B 5077   1.976   4.107   3.281 -0.6098 -1.3250  0.6953
   53CHL1   C20 5078   1.956   4.363   4.212 -0.1250 -0.0803  0.5502
   53CHL1   H20 5079   1.997   4.261   4.192 -0.2967 -0.1619  0.6173
   53CHL1   C21 5080   1.808   4.349   4.267 -0.0970 -0.5534 -0.1007
   53CHL1  H21A 5081   1.756   4.309   4.178  0.6786  1.2523 -1.4350
   53CHL1  H21B 5082   1.754   4.438   4.307  1.3489  0.5173 -0.4402
   53CHL1  H21C 5083   1.804   4.277   4.351  2.8248  0.9592  1.4881
   53CHL1   C22 5084   2.044   4.428   4.315 -0.4873 -0.0489  0.4120
   53CHL1  H22A 5085   2.149   4.433   4.279 -0.2983  0.4579  1.0020
   53CHL1  H22B 5086   2.003   4.531   4.323 -1.2385 -0.4186  1.8914
   53CHL1   C23 5087   2.045   4.381   4.462 -0.0668 -0.3872  0.3666
   53CHL1  H23A 5088   1.944   4.388   4.509  0.0421  0.0097  0.5503
   53CHL1  H23B 5089   2.087   4.278   4.466 -0.0264 -0.3880 -0.0550
   53CHL1   C24 5090   2.142   4.469   4.552  0.1632 -0.4863  0.0739
   53CHL1  H24A 5091   2.231   4.506   4.496  0.5000  0.8548  1.4158
   53CHL1  H24B 5092   2.081   4.559   4.576 -0.6518 -1.2063  0.8002
   53CHL1   C25 5093   2.180   4.389   4.682 -0.7504 -0.1269  0.3839
   53CHL1   H25 5094   2.245   4.303   4.655 -1.0330 -0.6423  1.3087
   53CHL1   C26 5095   2.266   4.474   4.780 -0.3183  0.2126  0.4121
   53CHL1  H26A 5096   2.273   4.423   4.878  0.5843 -1.1749 -0.3461
   53CHL1  H26B 5097   2.371   4.475   4.744  0.4258 -0.9446  2.4123
   53CHL1  H26C 5098   2.232   4.578   4.800 -0.8706 -0.0856  1.0480
   53CHL1   C27 5099   2.053   4.340   4.748 -0.9736  0.2363 -0.2866
   53CHL1  H27A 5100   2.078   4.295   4.847 -2.4240  1.2405  0.5728
   53CHL1  H27B 5101   1.993   4.425   4.786 -0.4035 -0.5814  2.7403
   53CHL1  H27C 5102   1.985   4.271   4.694  0.1791 -0.7842 -0.4958
   54CHL1    C3 5103   4.389   1.928   2.546  0.6306 -0.7614  0.1586
   54CHL1    H3 5104   4.283   1.954   2.525  0.8483 -0.0321 -0.0515
   54CHL1    O3 5105   4.462   1.959   2.425  0.4407  0.8615  0.9919
   54CHL1   H3' 5106   4.540   1.903   2.414  0.5710  0.9962  1.2329
   54CHL1    C4 5107   4.435   2.026   2.654 -0.7006 -0.1495  0.1692
   54CHL1   H4A 5108   4.546   2.015   2.656 -0.7521 -1.2774 -1.1339
   54CHL1   H4B 5109   4.415   2.129   2.617  0.2141  0.2662  0.8090
   54CHL1    C5 5110   4.381   1.989   2.787 -1.0297  0.0010  0.6405
   54CHL1    C6 5111   4.319   2.077   2.868  0.5044 -0.4141 -0.0304
   54CHL1    H6 5112   4.310   2.176   2.821 -0.8974 -0.9679 -1.0193
   54CHL1    C7 5113   4.281   2.055   3.010  0.0094 -0.2796  0.3790
   54CHL1   H7A 5114   4.312   2.138   3.077 -0.8125 -0.9056  1.5677
   54CHL1   H7B 5115   4.170   2.052   3.015 -0.2052  2.2159 -1.1040
   54CHL1    C8 5116   4.333   1.922   3.064  0.1639  0.7962 -0.3772
   54CHL1    H8 5117   4.442   1.928   3.086  0.0583  0.1389  0.3724
   54CHL1   C14 5118   4.261   1.897   3.193 -0.7957 -0.7291 -0.1842
   54CHL1   H14 5119   4.154   1.887   3.165 -0.3588  0.4521 -2.5249
   54CHL1   C15 5120   4.265   2.010   3.299  0.1867  0.4978  0.5353
   54CHL1  H15A 5121   4.370   2.042   3.316  1.0681 -2.3881  1.0799
   54CHL1  H15B 5122   4.200   2.095   3.267 -0.5064 -0.8735 -1.9239
   54CHL1   C16 5123   4.230   1.939   3.428 -0.3180 -0.2329 -0.3642
   54CHL1  H16A 5124   4.312   1.939   3.503 -1.9673 -2.0308  1.5880
   54CHL1  H16B 5125   4.136   1.965   3.481  0.5497 -0.2007  1.2060
   54CHL1   C17 5126   4.215   1.784   3.389 -0.1604 -0.8049 -0.3313
   54CHL1   H17 5127   4.108   1.763   3.369  0.0925 -1.8659 -0.6818
   54CHL1   C13 5128   4.304   1.773   3.267 -0.3755 -0.3936  0.7031
   54CHL1   C18 5129   4.448   1.784   3.319  0.3675  0.6569 -0.2738
   54CHL1  H18A 5130   4.521   1.813   3.240  0.5400 -2.2487 -1.2951
   54CHL1  H18B 5131   4.470   1.854   3.403  1.4264  1.2863 -1.0491
   54CHL1  H18C 5132   4.476   1.686   3.363 -1.0312  0.2914 -0.1493
   54CHL1   C12 5133   4.276   1.658   3.167  0.0261  0.2239  0.5027
   54CHL1  H12A 5134   4.307   1.561   3.212 -0.3155 -0.5888 -0.9677
   54CHL1  H12B 5135   4.166   1.650   3.155 -0.4405  0.4913  3.7270
   54CHL1   C11 5136   4.336   1.675   3.028  0.1374  0.1713  0.0094
   54CHL1  H11A 5137   4.447   1.671   3.039  0.3448  3.2952 -0.0845
   54CHL1  H11B 5138   4.297   1.589   2.969 -0.9459  1.3252 -0.9991
   54CHL1    C9 5139   4.307   1.811   2.963 -0.5152 -0.2220  0.3023
   54CHL1    H9 5140   4.203   1.819   2.927 -0.3864  1.1941  0.1808
   54CHL1   C10 5141   4.401   1.843   2.828  0.5535  0.0354 -0.2249
   54CHL1   C19 5142   4.548   1.800   2.854 -0.3686  0.5003 -0.4041
   54CHL1  H19A 5143   4.617   1.825   2.771  0.3823  1.3886  0.4579
   54CHL1  H19B 5144   4.585   1.855   2.943 -1.0167  0.3691 -0.0475
   54CHL1  H19C 5145   4.563   1.691   2.868  1.9468  0.6240 -1.4901
   54CHL1    C1 5146   4.335   1.756   2.714  0.1554 -0.0456  0.0416
   54CHL1   H1A 5147   4.340   1.649   2.743 -3.2659 -0.3207  0.0068
   54CHL1   H1B 5148   4.225   1.771   2.709  0.2056  1.4734  2.2633
   54CHL1    C2 5149   4.399   1.775   2.577 -0.3208  0.7271  0.3209
   54CHL1   H2A 5150   4.350   1.714   2.499 -0.6358  0.0563  1.0384
   54CHL1   H2B 5151   4.509   1.755   2.578 -0.0305  1.9660 -1.5547
   54CHL1   C20 5152   4.239   1.696   3.514 -1.3157  0.2813  0.0037
   54CHL1   H20 5153   4.341   1.693   3.557 -1.4577 -2.3563  0.3102
   54CHL1   C21 5154   4.206   1.553   3.478 -0.6282  0.2260 -0.0399
   54CHL1  H21A 5155   4.282   1.507   3.411  0.1476  0.6536  0.5331
   54CHL1  H21B 5156   4.103   1.532   3.443 -0.3293 -0.0483 -0.7730
   54CHL1  H21C 5157   4.211   1.485   3.566 -0.4496 -0.4883 -0.5881
   54CHL1   C22 5158   4.148   1.737   3.635 -0.8074  0.5236 -0.0337
   54CHL1  H22A 5159   4.166   1.842   3.666  0.3033  0.1553  0.6478
   54CHL1  H22B 5160   4.043   1.745   3.600 -0.9121 -0.0232  0.1366
   54CHL1   C23 5161   4.158   1.648   3.757  0.1513  0.3800 -0.3657
   54CHL1  H23A 5162   4.093   1.558   3.745 -2.8840  2.5214 -1.2377
   54CHL1  H23B 5163   4.260   1.612   3.779 -1.2335 -1.8379  3.3523
   54CHL1   C24 5164   4.100   1.709   3.881 -0.0449  0.9271 -0.1240
   54CHL1  H24A 5165   4.162   1.796   3.911 -0.2962  0.2224  2.7337
   54CHL1  H24B 5166   3.999   1.748   3.855 -0.0717 -0.5723 -2.5002
   54CHL1   C25 5167   4.088   1.610   4.000 -0.5652 -0.6429 -0.1185
   54CHL1   H25 5168   4.048   1.676   4.080 -0.3045 -1.4358  0.6789
   54CHL1   C26 5169   3.978   1.503   3.983 -0.1238 -0.4106 -0.2585
   54CHL1  H26A 5170   3.964   1.450   4.079  0.3938  2.2779  1.4071
   54CHL1  H26B 5171   3.883   1.552   3.953 -0.3737  0.2533  1.5102
   54CHL1  H26C 5172   4.004   1.436   3.898 -1.3639  0.3788 -1.3167
   54CHL1   C27 5173   4.227   1.554   4.046 -0.8827  0.1609 -0.0169
   54CHL1  H27A 5174   4.308   1.628   4.025 -0.4608  0.0636  1.1699
   54CHL1  H27B 5175   4.209   1.529   4.153 -2.5968  3.7593  0.7097
   54CHL1  H27C 5176   4.253   1.460   3.994  0.8412  0.5548  0.0785
   55CHL1    C3 5177   1.630   0.598   3.416 -0.7615  0.5136  0.0859
   55CHL1    H3 5178   1.725   0.656   3.419 -0.0937 -0.4106 -1.6690
   55CHL1    O3 5179   1.609   0.553   3.281  0.2605  0.2640 -0.3233
   55CHL1   H3' 5180   1.517   0.530   3.264  0.6938 -0.3928 -2.0280
   55CHL1    C4 5181   1.636   0.476   3.515 -1.0549  0.6787  0.8392
   55CHL1   H4A 5182   1.534   0.433   3.516 -0.8827  0.1878 -0.4584
   55CHL1   H4B 5183   1.714   0.412   3.469 -0.1913  1.8600  0.6198
   55CHL1    C5 5184   1.666   0.522   3.652 -1.0679  0.5064 -0.6788
   55CHL1    C6 5185   1.775   0.466   3.716 -0.3595 -0.1895  0.2302
   55CHL1    H6 5186   1.838   0.395   3.661 -0.9567 -1.8578  1.6126
   55CHL1    C7 5187   1.824   0.521   3.850 -0.4416 -0.0385  0.7877
   55CHL1   H7A 5188   1.855   0.441   3.920  1.2929 -0.2348 -0.1528
   55CHL1   H7B 5189   1.913   0.587   3.852 -0.7126  0.3162  2.1640
   55CHL1    C8 5190   1.716   0.604   3.924 -0.4448 -0.6403  0.4092
   55CHL1    H8 5191   1.642   0.532   3.965 -3.0826  2.8962  2.4513
   55CHL1   C14 5192   1.778   0.668   4.050  0.0330 -0.8424  0.1005
   55CHL1   H14 5193   1.850   0.738   4.003 -0.1098 -1.6659 -1.4325
   55CHL1   C15 5194   1.857   0.586   4.149  0.0565 -0.2313 -0.0392
   55CHL1  H15A 5195   1.800   0.494   4.173 -2.0648  0.5568 -1.7267
   55CHL1  H15B 5196   1.962   0.561   4.121  0.0253  1.5429 -2.0140
   55CHL1   C16 5197   1.859   0.665   4.278 -0.0121  0.0960  0.7338
   55CHL1  H16A 5198   1.826   0.607   4.367  1.2588 -0.8527  0.6124
   55CHL1  H16B 5199   1.962   0.697   4.303  0.1823 -0.0132  0.1023
   55CHL1   C17 5200   1.765   0.787   4.246 -0.5215  0.8388  0.3450
   55CHL1   H17 5201   1.834   0.867   4.211  0.1684  0.5157  0.9407
   55CHL1   C13 5202   1.676   0.750   4.133 -0.1798  0.4004  0.1278
   55CHL1   C18 5203   1.564   0.657   4.185 -0.6132 -0.5429  0.4689
   55CHL1  H18A 5204   1.513   0.606   4.101 -0.5139 -2.3998  1.4808
   55CHL1  H18B 5205   1.613   0.580   4.249  3.3011  0.7125 -0.6991
   55CHL1  H18C 5206   1.493   0.713   4.249 -1.2210 -0.7007 -0.0563
   55CHL1   C12 5207   1.624   0.861   4.040  1.0171 -0.2048  0.3291
   55CHL1  H12A 5208   1.547   0.915   4.100  0.7154  1.4695 -1.4690
   55CHL1  H12B 5209   1.711   0.923   4.011 -0.9751  1.1005 -3.5003
   55CHL1   C11 5210   1.558   0.808   3.901  0.3461 -0.0362  0.2891
   55CHL1  H11A 5211   1.460   0.767   3.931  0.2924  0.2476  0.5144
   55CHL1  H11B 5212   1.547   0.890   3.827  0.5541 -3.1247 -3.4621
   55CHL1    C9 5213   1.652   0.702   3.829  0.3801 -0.1372 -0.5439
   55CHL1    H9 5214   1.738   0.766   3.799  0.6563  0.6830  1.7167
   55CHL1   C10 5215   1.578   0.637   3.708 -0.6100  0.5103 -0.0660
   55CHL1   C19 5216   1.436   0.573   3.748  0.5198 -0.1056  0.6589
   55CHL1  H19A 5217   1.438   0.497   3.829  1.1371 -0.9721 -0.1484
   55CHL1  H19B 5218   1.359   0.649   3.774  0.0950 -0.1389 -0.4642
   55CHL1  H19C 5219   1.385   0.519   3.666  0.5471  2.8412 -1.4587
   55CHL1    C1 5220   1.549   0.741   3.601  0.3322  0.0591  0.3387
   55CHL1   H1A 5221   1.458   0.793   3.638 -0.8500 -1.5708 -0.1870
   55CHL1   H1B 5222   1.630   0.817   3.594  2.2050 -1.9876 -4.2568
   55CHL1    C2 5223   1.519   0.689   3.462 -0.0812 -0.7037 -0.8560
   55CHL1   H2A 5224   1.494   0.768   3.388 -0.9353  1.4749  1.6328
   55CHL1   H2B 5225   1.423   0.635   3.475 -2.2394  2.4341 -2.4832
   55CHL1   C20 5226   1.701   0.838   4.372  0.3333  0.1136 -0.0401
   55CHL1   H20 5227   1.640   0.751   4.406 -1.1050  1.1107  0.0492
   55CHL1   C21 5228   1.616   0.961   4.349 -0.1635 -0.3520 -0.7082
   55CHL1  H21A 5229   1.587   1.020   4.439 -1.3316 -1.3997 -0.3697
   55CHL1  H21B 5230   1.527   0.927   4.293 -0.0951 -0.3869 -0.7966
   55CHL1  H21C 5231   1.683   1.034   4.299  2.1725 -0.7821  1.5261
   55CHL1   C22 5232   1.806   0.862   4.483  0.2536 -0.2802  0.2796
   55CHL1  H22A 5233   1.893   0.793   4.477 -0.6703 -1.4310 -0.0591
   55CHL1  H22B 5234   1.849   0.964   4.468  0.1650 -0.2470  0.2538
   55CHL1   C23 5235   1.747   0.862   4.630 -0.0380  0.1692  0.3498
   55CHL1  H23A 5236   1.662   0.933   4.627 -0.9131 -0.8867 -2.1470
   55CHL1  H23B 5237   1.705   0.765   4.666 -0.8262  0.7297  0.9633
   55CHL1   C24 5238   1.861   0.900   4.727 -0.8993 -1.1254  0.3003
   55CHL1  H24A 5239   1.948   0.834   4.707  0.1487  0.9031 -2.5200
   55CHL1  H24B 5240   1.885   1.007   4.706 -0.0802 -0.9469  1.9664
   55CHL1   C25 5241   1.835   0.887   4.878 -1.0799 -0.0336 -0.0369
   55CHL1   H25 5242   1.743   0.941   4.910 -1.1757  0.0826 -0.4991
   55CHL1   C26 5243   1.834   0.740   4.920  0.6750 -0.6750 -0.3221
   55CHL1  H26A 5244   1.801   0.738   5.026  1.0981  1.7410 -0.0883
   55CHL1  H26B 5245   1.759   0.677   4.868  1.0699  0.8990 -2.9816
   55CHL1  H26C 5246   1.936   0.696   4.911  1.4146  0.8185  0.3877
   55CHL1   C27 5247   1.953   0.958   4.943  0.6205  0.3255  0.0681
   55CHL1  H27A 5248   2.044   0.926   4.888  0.0903  0.1896 -0.7319
   55CHL1  H27B 5249   1.918   1.063   4.937 -1.2714 -0.2913 -0.1537
   55CHL1  H27C 5250   1.966   0.920   5.047 -1.7438  1.2818  0.7682
   56CHL1    C3 5251   1.666   1.937   3.183  0.0936  0.0126 -0.2957
   56CHL1    H3 5252   1.768   1.979   3.195  0.0768  0.3720 -1.2605
   56CHL1    O3 5253   1.650   1.930   3.040 -0.2552  0.1126 -0.1694
   56CHL1   H3' 5254   1.558   1.951   3.021 -0.7493  0.6854  2.5287
   56CHL1    C4 5255   1.649   1.801   3.252  0.3885 -0.0509 -0.4384
   56CHL1   H4A 5256   1.548   1.757   3.240  0.9646 -1.5392 -0.0521
   56CHL1   H4B 5257   1.724   1.732   3.207  0.2067  0.8651 -2.1966
   56CHL1    C5 5258   1.660   1.817   3.404  0.2472  0.4658 -0.2660
   56CHL1    C6 5259   1.752   1.750   3.472 -0.2462  0.4623 -0.7188
   56CHL1    H6 5260   1.826   1.685   3.424  2.6109  3.4953 -0.7905
   56CHL1    C7 5261   1.765   1.750   3.623 -0.5650 -0.5459  0.9856
   56CHL1   H7A 5262   1.779   1.654   3.678 -0.7994 -0.4369  1.2421
   56CHL1   H7B 5263   1.858   1.805   3.648 -0.1668 -1.3914  1.3996
   56CHL1    C8 5264   1.645   1.815   3.689  0.2250 -0.2723 -0.7662
   56CHL1    H8 5265   1.557   1.747   3.688  0.0053 -0.0121 -0.0244
   56CHL1   C14 5266   1.684   1.846   3.835  0.1727  0.4820  0.1386
   56CHL1   H14 5267   1.776   1.908   3.839  1.4415 -1.1162 -1.8778
   56CHL1   C15 5268   1.733   1.724   3.926  0.1676  0.1702 -0.4604
   56CHL1  H15A 5269   1.648   1.652   3.933 -0.9968  1.3553 -1.5695
   56CHL1  H15B 5270   1.830   1.681   3.895  0.2223  0.1501 -0.2551
   56CHL1   C16 5271   1.734   1.804   4.065 -0.0928  0.2201  0.1412
   56CHL1  H16A 5272   1.675   1.738   4.133 -1.7100 -0.8562 -2.1574
   56CHL1  H16B 5273   1.839   1.805   4.101  1.3945  0.0164 -3.6959
   56CHL1   C17 5274   1.666   1.939   4.047  0.5453  0.3278 -0.3999
   56CHL1   H17 5275   1.745   2.012   4.018 -0.2625  0.7893 -1.5254
   56CHL1   C13 5276   1.581   1.928   3.919 -0.3731  0.4824  0.2803
   56CHL1   C18 5277   1.449   1.850   3.958 -1.7221 -0.0926  0.0707
   56CHL1  H18A 5278   1.403   1.813   3.864  0.0705  1.4491 -1.5187
   56CHL1  H18B 5279   1.463   1.761   4.023  0.0978  0.1001  0.0128
   56CHL1  H18C 5280   1.379   1.914   4.016 -0.7455  1.0815  0.0093
   56CHL1   C12 5281   1.555   2.058   3.848  0.3869 -0.5273 -0.8061
   56CHL1  H12A 5282   1.463   2.098   3.896 -0.0410 -2.1638 -0.2059
   56CHL1  H12B 5283   1.644   2.123   3.838  0.8844 -1.4883 -3.1603
   56CHL1   C11 5284   1.502   2.032   3.702  0.1433 -0.4649  0.0235
   56CHL1  H11A 5285   1.411   1.969   3.706  0.8494 -1.4649  0.8612
   56CHL1  H11B 5286   1.487   2.121   3.637 -1.4627 -2.2329 -2.1670
   56CHL1    C9 5287   1.604   1.957   3.627  0.3076  0.2700 -0.8390
   56CHL1    H9 5288   1.699   2.013   3.612  0.4686 -0.2088 -1.7163
   56CHL1   C10 5289   1.570   1.921   3.471 -0.0666  0.4434 -0.7225
   56CHL1   C19 5290   1.424   1.869   3.461 -0.5001  0.1669  0.3232
   56CHL1  H19A 5291   1.399   1.851   3.355 -1.7326  3.0170  0.0432
   56CHL1  H19B 5292   1.408   1.776   3.519  0.2346 -0.2694 -0.1701
   56CHL1  H19C 5293   1.350   1.943   3.500  1.6565  2.5961  0.1187
   56CHL1    C1 5294   1.576   2.058   3.389  0.0371 -0.0104 -0.1742
   56CHL1   H1A 5295   1.496   2.122   3.430  1.8424  2.3201 -0.0800
   56CHL1   H1B 5296   1.672   2.110   3.407 -1.2260  3.2394 -1.9559
   56CHL1    C2 5297   1.567   2.043   3.236 -0.3689  0.2522 -0.7821
   56CHL1   H2A 5298   1.592   2.137   3.183  0.3494  0.3423 -0.3036
   56CHL1   H2B 5299   1.467   2.008   3.206  0.5035 -0.7110 -2.7092
   56CHL1   C20 5300   1.597   1.989   4.180  0.1407  0.3332  0.3634
   56CHL1   H20 5301   1.526   1.907   4.205  1.4824 -1.2191 -0.6687
   56CHL1   C21 5302   1.510   2.115   4.161 -0.6147 -0.3585  0.0208
   56CHL1  H21A 5303   1.417   2.092   4.105 -0.4740 -1.4039  0.2052
   56CHL1  H21B 5304   1.574   2.190   4.109 -0.6187 -0.2396  0.1861
   56CHL1  H21C 5305   1.470   2.150   4.259 -3.4883  4.0206 -2.3834
   56CHL1   C22 5306   1.686   2.018   4.301 -0.2654 -0.2557 -0.1314
   56CHL1  H22A 5307   1.615   2.045   4.382  0.0637  2.0626 -0.5372
   56CHL1  H22B 5308   1.733   1.921   4.326  0.2585 -0.2294 -0.9548
   56CHL1   C23 5309   1.796   2.119   4.286  0.1199  0.5880  0.8456
   56CHL1  H23A 5310   1.852   2.085   4.196  1.0213 -0.3851  1.7435
   56CHL1  H23B 5311   1.747   2.215   4.261 -2.1534 -0.7364 -0.1981
   56CHL1   C24 5312   1.888   2.119   4.412  0.1319  0.3841 -0.1478
   56CHL1  H24A 5313   1.926   2.014   4.418  0.6106  0.1958 -3.7280
   56CHL1  H24B 5314   1.977   2.181   4.386  1.0394 -1.0732 -0.7047
   56CHL1   C25 5315   1.828   2.158   4.543 -0.4689  0.0107 -0.2197
   56CHL1   H25 5316   1.751   2.081   4.562 -0.7216  0.9649  3.2834
   56CHL1   C26 5317   1.920   2.148   4.661 -0.5318 -0.0978 -0.0458
   56CHL1  H26A 5318   1.877   2.175   4.760 -0.2930 -1.8273  0.5764
   56CHL1  H26B 5319   1.958   2.047   4.687 -0.6249  0.3344  1.9482
   56CHL1  H26C 5320   2.010   2.211   4.644  1.4115 -2.6472  0.1995
   56CHL1   C27 5321   1.758   2.292   4.528 -0.3268 -0.3616  0.2851
   56CHL1  H27A 5322   1.738   2.327   4.631 -0.2247  2.1672 -0.4796
   56CHL1  H27B 5323   1.823   2.367   4.478  0.0830 -0.9905 -0.1524
   56CHL1  H27C 5324   1.668   2.285   4.463  0.1332  3.1605 -0.9579
   57CHL1    C3 5325   0.724   0.658   3.347 -0.7368  0.0450  0.3606
   57CHL1    H3 5326   0.832   0.669   3.372 -1.2396  1.1977  2.2381
   57CHL1    O3 5327   0.709   0.633   3.205  0.0945 -0.5845  0.1533
   57CHL1   H3' 5328   0.766   0.556   3.194 -2.2228 -2.5999  1.2633
   57CHL1    C4 5329   0.669   0.538   3.422  0.0703  0.3603  0.3233
   57CHL1   H4A 5330   0.564   0.521   3.391  0.5881 -1.8536 -0.4400
   57CHL1   H4B 5331   0.723   0.450   3.381  1.6466  1.0813  0.7745
   57CHL1    C5 5332   0.676   0.552   3.569  0.4536 -0.0112  0.3472
   57CHL1    C6 5333   0.733   0.461   3.639  0.0816  0.3694  0.0788
   57CHL1    H6 5334   0.772   0.373   3.585 -2.1004 -0.2925 -0.4844
   57CHL1    C7 5335   0.750   0.471   3.785 -0.1009 -0.2195  0.6514
   57CHL1   H7A 5336   0.726   0.373   3.832  1.2192 -0.2567  1.2960
   57CHL1   H7B 5337   0.854   0.496   3.816  0.0522 -0.1853  0.1166
   57CHL1    C8 5338   0.667   0.580   3.851 -0.0528  0.1817  0.0125
   57CHL1    H8 5339   0.564   0.539   3.858  0.1815 -0.2046  1.7836
   57CHL1   C14 5340   0.729   0.613   3.984  0.2238  0.2203  0.4628
   57CHL1   H14 5341   0.826   0.663   3.967  0.5222 -0.8144 -1.1430
   57CHL1   C15 5342   0.739   0.492   4.083  0.1182 -0.4465  0.3186
   57CHL1  H15A 5343   0.640   0.446   4.059 -0.3193  1.2516 -1.3128
   57CHL1  H15B 5344   0.814   0.413   4.064  3.1975  2.5149 -0.7352
   57CHL1   C16 5345   0.745   0.546   4.219  0.4402  0.0704 -0.6952
   57CHL1  H16A 5346   0.690   0.483   4.293  0.3847  4.0633  3.0550
   57CHL1  H16B 5347   0.848   0.544   4.259 -0.2669  3.2306  1.6890
   57CHL1   C17 5348   0.706   0.701   4.209 -0.0104 -0.8773  0.3174
   57CHL1   H17 5349   0.804   0.750   4.191 -1.0134  0.9913 -0.3080
   57CHL1   C13 5350   0.636   0.711   4.069 -0.8498  0.2758  0.8071
   57CHL1   C18 5351   0.487   0.669   4.084  0.0775  0.4034  0.6907
   57CHL1  H18A 5352   0.466   0.583   4.151  0.3542 -0.6599 -0.5435
   57CHL1  H18B 5353   0.432   0.754   4.128 -1.6377  0.6877 -1.7679
   57CHL1  H18C 5354   0.451   0.644   3.981  2.7386 -1.3194  0.0846
   57CHL1   C12 5355   0.636   0.840   3.987  0.1376 -0.6622 -0.2030
   57CHL1  H12A 5356   0.567   0.914   4.032  0.0444  1.2154 -3.1330
   57CHL1  H12B 5357   0.740   0.881   3.988 -0.2427  0.3157  0.6342
   57CHL1   C11 5358   0.585   0.822   3.842  0.0251 -0.5800 -0.3717
   57CHL1  H11A 5359   0.478   0.801   3.861  0.5049 -0.1763  3.4908
   57CHL1  H11B 5360   0.599   0.917   3.786 -1.4574 -0.5326 -0.6983
   57CHL1    C9 5361   0.662   0.707   3.768 -0.0304 -0.2119 -0.4333
   57CHL1    H9 5362   0.768   0.740   3.764  0.2614 -0.9948  0.4336
   57CHL1   C10 5363   0.624   0.697   3.623  0.3249 -0.6037  0.5023
   57CHL1   C19 5364   0.473   0.666   3.607  0.0384  0.1873 -0.3175
   57CHL1  H19A 5365   0.414   0.752   3.645 -1.5841 -1.3872  0.8810
   57CHL1  H19B 5366   0.442   0.643   3.504  2.2774  0.6005 -1.1484
   57CHL1  H19C 5367   0.446   0.584   3.677  0.4893 -0.5272 -0.9700
   57CHL1    C1 5368   0.669   0.812   3.535 -0.3362  0.2722  0.0485
   57CHL1   H1A 5369   0.626   0.912   3.560  0.3542  0.3058  1.1706
   57CHL1   H1B 5370   0.778   0.816   3.555 -0.3127 -1.0247  0.2739
   57CHL1    C2 5371   0.662   0.787   3.381  0.3569 -0.2101 -0.0953
   57CHL1   H2A 5372   0.708   0.866   3.318  0.5422 -0.1649  0.0958
   57CHL1   H2B 5373   0.556   0.776   3.350  0.4881 -0.6137 -0.4208
   57CHL1   C20 5374   0.646   0.763   4.340 -0.1304 -0.4095  0.2102
   57CHL1   H20 5375   0.548   0.711   4.352 -0.5502  0.5939  1.3974
   57CHL1   C21 5376   0.623   0.917   4.308  0.0306 -0.1446 -0.3580
   57CHL1  H21A 5377   0.718   0.959   4.268  0.2367  1.1116  1.3253
   57CHL1  H21B 5378   0.609   0.977   4.400  3.5204 -0.6915  0.6974
   57CHL1  H21C 5379   0.532   0.932   4.246 -1.4071 -2.0435  1.1569
   57CHL1   C22 5380   0.708   0.739   4.472  0.2293  0.1094  0.5886
   57CHL1  H22A 5381   0.745   0.635   4.483  1.4584  0.4610 -0.0930
   57CHL1  H22B 5382   0.796   0.805   4.490  0.9137 -0.8823  1.0309
   57CHL1   C23 5383   0.612   0.765   4.594 -0.4071  0.5188  0.2771
   57CHL1  H23A 5384   0.561   0.864   4.594 -2.2884 -0.4054  0.2813
   57CHL1  H23B 5385   0.535   0.685   4.601 -0.9242  0.7884 -1.7464
   57CHL1   C24 5386   0.693   0.753   4.725 -0.0676 -0.1373  0.6859
   57CHL1  H24A 5387   0.725   0.647   4.718 -0.6546 -0.4609  2.3810
   57CHL1  H24B 5388   0.778   0.824   4.720 -0.9560  0.9380  0.2530
   57CHL1   C25 5389   0.620   0.789   4.850  0.5599 -0.0247 -0.4002
   57CHL1   H25 5390   0.515   0.758   4.832  0.2517  1.4989 -1.3861
   57CHL1   C26 5391   0.671   0.712   4.979  0.3556  1.0330  0.5403
   57CHL1  H26A 5392   0.780   0.728   4.993  0.9304 -0.1119 -2.0714
   57CHL1  H26B 5393   0.613   0.750   5.066 -0.1461  2.3500 -0.3474
   57CHL1  H26C 5394   0.641   0.607   4.959  1.8796  0.4351  1.2413
   57CHL1   C27 5395   0.603   0.948   4.867 -0.3875  0.7617  0.1712
   57CHL1  H27A 5396   0.548   0.985   4.778  1.2914 -0.6246 -1.5387
   57CHL1  H27B 5397   0.545   0.981   4.955  1.2631  0.6787  1.3471
   57CHL1  H27C 5398   0.704   0.995   4.869  0.3799 -0.5846 -2.1593
   58CHL1    C3 5399   6.407   1.871   2.850  0.0011 -0.9180  0.0612
   58CHL1    H3 5400   6.357   1.772   2.852 -1.1019 -0.3679  0.7896
   58CHL1    O3 5401   6.495   1.867   2.740  0.0928 -0.7508 -0.2081
   58CHL1   H3' 5402   6.565   1.932   2.754  0.5425 -1.2843  0.0839
   58CHL1    C4 5403   6.298   1.977   2.833  0.1114 -0.4121 -0.1860
   58CHL1   H4A 5404   6.340   2.070   2.790  1.4444  0.2390  2.3321
   58CHL1   H4B 5405   6.227   1.950   2.751 -2.8391  1.9362  1.3988
   58CHL1    C5 5406   6.218   2.004   2.961 -0.6210  0.2689 -0.1700
   58CHL1    C6 5407   6.083   2.007   2.963  0.6740 -0.0703  0.0261
   58CHL1    H6 5408   6.026   1.980   2.872 -0.0259 -1.0717  0.7431
   58CHL1    C7 5409   6.002   2.056   3.082  0.0180  0.0267 -0.2626
   58CHL1   H7A 5410   5.923   2.127   3.051 -1.8290 -0.6521  2.5985
   58CHL1   H7B 5411   5.948   1.967   3.119 -2.0351  1.5637  0.5710
   58CHL1    C8 5412   6.084   2.112   3.196  0.4373 -0.2488  0.2733
   58CHL1    H8 5413   6.098   2.218   3.166 -1.8674  0.4000  1.3175
   58CHL1   C14 5414   6.001   2.111   3.322 -0.1329 -0.8302  0.3087
   58CHL1   H14 5415   5.983   2.004   3.346  0.0721 -0.7446  0.8726
   58CHL1   C15 5416   5.861   2.175   3.315 -0.2921  0.0887 -0.0170
   58CHL1  H15A 5417   5.869   2.269   3.256 -2.6902 -0.8636 -2.0301
   58CHL1  H15B 5418   5.790   2.108   3.262  0.3926  0.7842 -1.8752
   58CHL1   C16 5419   5.817   2.184   3.462 -0.6708  0.8110  0.1824
   58CHL1  H16A 5420   5.771   2.284   3.477 -1.2590  0.5672  0.0154
   58CHL1  H16B 5421   5.742   2.107   3.490 -2.2899  2.1098 -0.4248
   58CHL1   C17 5422   5.946   2.155   3.545 -0.1410 -0.3349  0.3815
   58CHL1   H17 5423   5.936   2.047   3.569  1.3983 -1.1115 -2.0545
   58CHL1   C13 5424   6.067   2.174   3.448 -0.5769 -0.2037  0.3255
   58CHL1   C18 5425   6.098   2.325   3.419  0.4880 -0.4938 -0.2187
   58CHL1  H18A 5426   6.151   2.336   3.323 -2.1231 -1.1163 -1.8462
   58CHL1  H18B 5427   6.006   2.388   3.420 -0.7745 -2.2391 -0.5637
   58CHL1  H18C 5428   6.165   2.368   3.496 -0.5171  0.8193 -0.0308
   58CHL1   C12 5429   6.204   2.094   3.470  0.6304 -0.0673 -0.0673
   58CHL1  H12A 5430   6.256   2.148   3.553 -3.2058  4.5754 -0.2485
   58CHL1  H12B 5431   6.176   1.997   3.516  0.0839 -0.1744 -0.6228
   58CHL1   C11 5432   6.288   2.080   3.338 -0.7798 -0.4452 -0.6472
   58CHL1  H11A 5433   6.335   2.179   3.325  1.1022 -1.2790 -0.4511
   58CHL1  H11B 5434   6.371   2.011   3.364  0.1209  0.6288 -0.6350
   58CHL1    C9 5435   6.216   2.035   3.212  0.3281 -0.5483 -0.3380
   58CHL1    H9 5436   6.182   1.931   3.230  2.3787 -1.0348  1.1007
   58CHL1   C10 5437   6.293   2.031   3.082  0.0411 -0.2450 -0.3767
   58CHL1   C19 5438   6.364   2.169   3.059  0.3373 -0.2255 -0.2408
   58CHL1  H19A 5439   6.434   2.192   3.143 -0.3342  1.2422 -0.0568
   58CHL1  H19B 5440   6.435   2.170   2.974  0.9472  0.6128  0.2586
   58CHL1  H19C 5441   6.291   2.252   3.055  0.7217  0.1948  0.8860
   58CHL1    C1 5442   6.403   1.922   3.099 -0.6320  0.5014 -0.3213
   58CHL1   H1A 5443   6.472   1.962   3.177 -0.1886  0.3529 -0.6359
   58CHL1   H1B 5444   6.351   1.829   3.132 -1.2657  1.4402  1.4555
   58CHL1    C2 5445   6.490   1.895   2.972 -0.3806 -0.0635 -0.0655
   58CHL1   H2A 5446   6.549   1.803   2.995 -0.1657 -0.5886 -2.4634
   58CHL1   H2B 5447   6.554   1.983   2.953 -0.6216  0.2340  0.4658
   58CHL1   C20 5448   5.938   2.221   3.679  0.1308 -0.1871  0.2055
   58CHL1   H20 5449   5.920   2.330   3.667  0.8589 -0.2052 -1.3954
   58CHL1   C21 5450   6.071   2.207   3.752  0.5898  0.2268  0.0775
   58CHL1  H21A 5451   6.096   2.100   3.738  2.2747  0.7751 -1.5523
   58CHL1  H21B 5452   6.085   2.238   3.858  2.3420 -0.4961  0.0917
   58CHL1  H21C 5453   6.154   2.258   3.699  1.2478 -0.1718  0.6970
   58CHL1   C22 5454   5.816   2.167   3.766 -0.3323  0.2742 -0.3513
   58CHL1  H22A 5455   5.721   2.177   3.709 -1.2834 -2.3875  0.6196
   58CHL1  H22B 5456   5.824   2.061   3.797 -1.7358 -0.0822 -1.1277
   58CHL1   C23 5457   5.788   2.254   3.891  0.1739  0.5466  0.2002
   58CHL1  H23A 5458   5.872   2.244   3.963  3.0275 -0.2980 -2.9961
   58CHL1  H23B 5459   5.771   2.357   3.855 -2.5930  0.1308  0.0810
   58CHL1   C24 5460   5.660   2.189   3.951  0.3868  0.2363 -0.1425
   58CHL1  H24A 5461   5.594   2.145   3.874  0.2102 -1.0776  0.7419
   58CHL1  H24B 5462   5.702   2.099   4.001 -2.0162 -1.2964 -0.7232
   58CHL1   C25 5463   5.575   2.265   4.063  0.2506  0.3532 -0.3212
   58CHL1   H25 5464   5.513   2.338   4.007 -0.6739  0.3990  0.7282
   58CHL1   C26 5465   5.480   2.154   4.116 -0.1404 -0.1025 -0.4247
   58CHL1  H26A 5466   5.387   2.204   4.150 -0.1216  0.1756 -0.7732
   58CHL1  H26B 5467   5.435   2.097   4.032 -2.9244  0.4737  0.5910
   58CHL1  H26C 5468   5.537   2.090   4.187  1.1049  0.1108 -1.1976
   58CHL1   C27 5469   5.652   2.330   4.177 -0.4345  0.3531  0.2509
   58CHL1  H27A 5470   5.586   2.371   4.255 -1.1006 -0.8671  0.3564
   58CHL1  H27B 5471   5.731   2.261   4.215  2.0293  1.0362 -3.1811
   58CHL1  H27C 5472   5.709   2.421   4.150 -0.4204  0.6431  1.2262
   59CHL1    C3 5473   6.181   2.286   2.603 -0.0020  0.5253 -0.4356
   59CHL1    H3 5474   6.137   2.210   2.672  2.2005 -0.4398 -0.0277
   59CHL1    O3 5475   6.225   2.233   2.481  0.2292 -0.1757  0.6978
   59CHL1   H3' 5476   6.152   2.210   2.423  0.1956  2.2777 -0.3481
   59CHL1    C4 5477   6.079   2.396   2.579  0.3271  0.0247 -0.2025
   59CHL1   H4A 5478   6.135   2.475   2.526  0.4040 -0.3586 -0.7083
   59CHL1   H4B 5479   5.999   2.348   2.518 -1.0402  0.7023  1.0091
   59CHL1    C5 5480   6.021   2.445   2.712 -0.0012 -0.4984  0.3607
   59CHL1    C6 5481   5.889   2.444   2.745  0.3105 -0.2169  0.0186
   59CHL1    H6 5482   5.818   2.405   2.670 -0.0343  3.5054 -1.8508
   59CHL1    C7 5483   5.828   2.494   2.868 -0.3712  0.5353 -0.8067
   59CHL1   H7A 5484   5.739   2.553   2.838 -0.1299  1.4554  0.2002
   59CHL1   H7B 5485   5.800   2.413   2.939 -0.5592  1.0901 -0.2325
   59CHL1    C8 5486   5.919   2.593   2.938  0.0365 -0.2058 -0.7703
   59CHL1    H8 5487   5.921   2.684   2.875  0.5127  1.0564  0.9933
   59CHL1   C14 5488   5.873   2.630   3.078  0.4380  0.2003  0.0484
   59CHL1   H14 5489   5.844   2.534   3.125  2.5249  0.0584  1.1583
   59CHL1   C15 5490   5.734   2.702   3.082 -0.4264  0.0183 -0.5490
   59CHL1  H15A 5491   5.731   2.773   2.996 -3.2335  1.0388  0.2855
   59CHL1  H15B 5492   5.651   2.630   3.070 -0.7528 -0.0437  1.6349
   59CHL1   C16 5493   5.732   2.749   3.230 -0.2504  0.1069 -0.6031
   59CHL1  H16A 5494   5.699   2.856   3.228 -0.1670  0.1288 -0.8357
   59CHL1  H16B 5495   5.650   2.698   3.285 -0.1302  0.9886  0.4376
   59CHL1   C17 5496   5.876   2.728   3.288 -0.1476  0.6696  0.6362
   59CHL1   H17 5497   5.886   2.626   3.332  1.0826  0.4845 -0.0425
   59CHL1   C13 5498   5.968   2.714   3.162  1.2464  0.0611 -0.5642
   59CHL1   C18 5499   6.002   2.858   3.113  0.3833  0.3575  0.1356
   59CHL1  H18A 5500   6.093   2.887   3.170  1.4505 -2.1852 -0.1309
   59CHL1  H18B 5501   6.027   2.857   3.005  1.1727 -1.2963  0.3033
   59CHL1  H18C 5502   5.919   2.929   3.132 -2.3381 -2.4902 -0.2657
   59CHL1   C12 5503   6.095   2.629   3.187 -0.4677 -0.4898 -0.0005
   59CHL1  H12A 5504   6.173   2.673   3.251  0.5955 -3.0048  0.5184
   59CHL1  H12B 5505   6.052   2.530   3.215 -4.1848  0.9565 -0.0053
   59CHL1   C11 5506   6.161   2.605   3.045 -0.0043 -0.6269 -0.1397
   59CHL1  H11A 5507   6.183   2.704   3.001  0.8651 -0.3448  0.8984
   59CHL1  H11B 5508   6.263   2.562   3.053 -0.2072 -0.8628  1.5221
   59CHL1    C9 5509   6.060   2.531   2.950 -0.4326 -0.2360 -1.1390
   59CHL1    H9 5510   6.040   2.435   3.001  0.7683  0.0669 -0.0439
   59CHL1   C10 5511   6.120   2.498   2.810 -0.2264 -0.1913  0.3269
   59CHL1   C19 5512   6.171   2.636   2.750  0.5398  0.0985 -0.2324
   59CHL1  H19A 5513   6.092   2.713   2.755  1.7880  1.4191 -0.1949
   59CHL1  H19B 5514   6.256   2.683   2.804  1.2450  1.0032 -2.0274
   59CHL1  H19C 5515   6.204   2.633   2.644  0.8053 -2.1866 -0.1441
   59CHL1    C1 5516   6.238   2.390   2.819  0.3936 -0.0315  0.3652
   59CHL1   H1A 5517   6.328   2.424   2.876  1.4160  1.1670 -1.8221
   59CHL1   H1B 5518   6.197   2.299   2.868  2.9025 -1.8607 -0.7306
   59CHL1    C2 5519   6.293   2.347   2.685 -0.0399  0.4097  0.4177
   59CHL1   H2A 5520   6.380   2.278   2.684 -0.8498 -0.6363 -0.7636
   59CHL1   H2B 5521   6.319   2.442   2.635 -2.4852  0.8557 -0.1005
   59CHL1   C20 5522   5.916   2.812   3.406  0.7161  0.0790 -0.3467
   59CHL1   H20 5523   5.890   2.916   3.379 -0.3961 -1.0031 -4.1297
   59CHL1   C21 5524   6.065   2.807   3.449  0.6580  0.5010  0.1659
   59CHL1  H21A 5525   6.103   2.703   3.446 -1.4084 -0.2965  0.3611
   59CHL1  H21B 5526   6.089   2.857   3.545 -1.4286 -0.7026  1.3754
   59CHL1  H21C 5527   6.120   2.860   3.368  1.6752 -0.2728  0.3244
   59CHL1   C22 5528   5.822   2.779   3.527 -0.5581  0.6888 -0.2760
   59CHL1  H22A 5529   5.837   2.849   3.612 -0.3825  0.5140 -0.1616
   59CHL1  H22B 5530   5.715   2.791   3.500 -0.5420  2.1816  0.2397
   59CHL1   C23 5531   5.833   2.637   3.583 -0.1500 -0.3699 -0.8444
   59CHL1  H23A 5532   5.783   2.565   3.514  0.8410 -0.5270 -1.4134
   59CHL1  H23B 5533   5.939   2.606   3.585 -0.2639 -0.7556 -0.4950
   59CHL1   C24 5534   5.778   2.620   3.726  0.8230 -0.3975 -0.3005
   59CHL1  H24A 5535   5.809   2.518   3.757 -2.2060 -1.0472  0.9469
   59CHL1  H24B 5536   5.830   2.686   3.798 -1.8479 -0.4442  1.8427
   59CHL1   C25 5537   5.627   2.655   3.757 -1.0037  0.1584  0.1575
   59CHL1   H25 5538   5.605   2.752   3.708 -1.2272  0.1746  0.2917
   59CHL1   C26 5539   5.532   2.541   3.716 -0.4918 -0.7169  0.0768
   59CHL1  H26A 5540   5.504   2.532   3.609  0.2863  0.6806 -0.2688
   59CHL1  H26B 5541   5.586   2.449   3.749  1.6143 -0.5105 -2.4520
   59CHL1  H26C 5542   5.445   2.533   3.784 -1.9878 -3.2765 -1.9580
   59CHL1   C27 5543   5.603   2.701   3.895  0.0658  0.6990 -0.3467
   59CHL1  H27A 5544   5.623   2.609   3.955  1.5017  2.0007  1.2879
   59CHL1  H27B 5545   5.682   2.776   3.916  0.3250  0.7863 -1.5825
   59CHL1  H27C 5546   5.501   2.744   3.907 -0.8700 -1.3080 -0.6574
   60CHL1    C3 5547   5.892   6.049   3.086  0.0562  0.7153  0.0535
   60CHL1    H3 5548   5.881   6.159   3.100  3.2267  1.1015  0.3514
   60CHL1    O3 5549   5.876   6.026   2.945  0.3127  0.0758 -0.1184
   60CHL1   H3' 5550   5.969   6.015   2.921  0.6163 -2.1782  1.7016
   60CHL1    C4 5551   6.014   6.004   3.140 -0.3306  0.3772  0.3011
   60CHL1   H4A 5552   6.028   5.902   3.097 -1.5441  0.1122  0.4922
   60CHL1   H4B 5553   6.102   6.062   3.104 -0.3873  0.0757 -0.3441
   60CHL1    C5 5554   6.014   6.001   3.293  0.3256 -0.5605 -0.6077
   60CHL1    C6 5555   6.121   6.049   3.359 -0.5329  0.3175  0.5003
   60CHL1    H6 5556   6.198   6.101   3.300 -0.6022  0.8075  0.8390
   60CHL1    C7 5557   6.127   6.058   3.509  0.5494  0.4028  0.4840
   60CHL1   H7A 5558   6.235   6.044   3.534  0.7522  1.6819  0.3966
   60CHL1   H7B 5559   6.097   6.160   3.539 -2.1117 -0.3944  0.7323
   60CHL1    C8 5560   6.035   5.956   3.579 -0.6426 -0.2200  0.0882
   60CHL1    H8 5561   6.083   5.856   3.581  0.8500  0.4758  0.3286
   60CHL1   C14 5562   6.022   6.004   3.725  0.6802 -0.2055 -0.3015
   60CHL1   H14 5563   5.980   6.107   3.724  0.2037 -0.3949 -0.2198
   60CHL1   C15 5564   6.158   6.023   3.801  0.3399 -0.2757  0.3395
   60CHL1  H15A 5565   6.217   5.931   3.781 -0.7303 -1.0690  0.7391
   60CHL1  H15B 5566   6.206   6.117   3.769 -0.4729 -0.2551 -0.8605
   60CHL1   C16 5567   6.106   6.044   3.944  0.1712 -0.1234 -0.2548
   60CHL1  H16A 5568   6.176   5.983   4.005  0.5328  1.5076  1.0166
   60CHL1  H16B 5569   6.104   6.148   3.982  1.2708 -0.3116  0.3575
   60CHL1   C17 5570   5.956   6.001   3.941  0.1402 -0.0623 -0.5260
   60CHL1   H17 5571   5.898   6.095   3.925  2.1708  1.2960 -0.2374
   60CHL1   C13 5572   5.921   5.925   3.809 -0.5733  0.3485  0.2841
   60CHL1   C18 5573   5.965   5.774   3.825  0.0700  0.0505 -0.4144
   60CHL1  H18A 5574   5.895   5.709   3.882  0.1905  0.0716 -0.2437
   60CHL1  H18B 5575   5.975   5.736   3.721  1.3520  1.0986 -0.6994
   60CHL1  H18C 5576   6.062   5.771   3.878  0.5236  0.2163 -1.2255
   60CHL1   C12 5577   5.784   5.943   3.746  0.0152  0.7290  0.1586
   60CHL1  H12A 5578   5.717   5.869   3.797  2.4765 -0.9255  1.1616
   60CHL1  H12B 5579   5.754   6.050   3.744 -1.1286  0.4345  0.5109
   60CHL1   C11 5580   5.785   5.900   3.592 -0.4520  0.2119 -0.3872
   60CHL1  H11A 5581   5.801   5.790   3.592 -3.0520 -0.2226 -0.3945
   60CHL1  H11B 5582   5.684   5.917   3.549 -0.8366  0.3608  0.5485
   60CHL1    C9 5583   5.901   5.963   3.513 -0.0411 -0.5028  0.1557
   60CHL1    H9 5584   5.890   6.073   3.508  0.8748 -0.4499 -1.7524
   60CHL1   C10 5585   5.895   5.937   3.365  0.3366  0.3263  1.0285
   60CHL1   C19 5586   5.903   5.788   3.339 -0.3382  0.4466  0.0389
   60CHL1  H19A 5587   5.961   5.728   3.413 -3.7624 -1.8243  1.1127
   60CHL1  H19B 5588   5.803   5.741   3.345 -1.0062  2.0169  2.5493
   60CHL1  H19C 5589   5.937   5.758   3.238  2.0740  0.4120  0.7987
   60CHL1    C1 5590   5.772   5.995   3.293 -0.4407 -0.5909  0.4313
   60CHL1   H1A 5591   5.682   5.947   3.338 -0.7569  1.1759  1.7906
   60CHL1   H1B 5592   5.763   6.102   3.321 -2.4896 -0.8892  1.0771
   60CHL1    C2 5593   5.762   5.977   3.147 -0.1952  0.6430 -0.2765
   60CHL1   H2A 5594   5.667   6.023   3.113  0.3462  0.9513 -1.4332
   60CHL1   H2B 5595   5.761   5.869   3.122 -0.0723  0.6155 -0.1655
   60CHL1   C20 5596   5.909   5.937   4.073 -0.1006  0.4516  0.2816
   60CHL1   H20 5597   5.979   5.855   4.101  0.2709  0.9439  0.7927
   60CHL1   C21 5598   5.762   5.887   4.063 -0.7361 -0.3841  0.2189
   60CHL1  H21A 5599   5.755   5.797   3.998 -1.9270 -0.6555  0.6964
   60CHL1  H21B 5600   5.694   5.963   4.019 -0.7260 -1.3520 -1.5723
   60CHL1  H21C 5601   5.712   5.859   4.159  1.4174  0.5551  1.6799
   60CHL1   C22 5602   5.927   6.028   4.198  0.0477 -0.0316 -0.4808
   60CHL1  H22A 5603   6.033   6.064   4.197  0.2137 -0.3996  1.4037
   60CHL1  H22B 5604   5.862   6.117   4.188 -0.2054  0.3131  3.0932
   60CHL1   C23 5605   5.901   5.967   4.332 -0.0881 -0.0524  0.4768
   60CHL1  H23A 5606   5.798   5.926   4.335  0.1331 -0.6305  0.2993
   60CHL1  H23B 5607   5.978   5.888   4.345 -0.0524  0.1752  1.8094
   60CHL1   C24 5608   5.942   6.069   4.441 -0.1601  0.4792  0.3523
   60CHL1  H24A 5609   6.053   6.080   4.433 -0.1927  1.8152  1.4936
   60CHL1  H24B 5610   5.897   6.165   4.408 -1.3696  0.4102  1.7151
   60CHL1   C25 5611   5.895   6.029   4.582 -0.4917  0.1679  0.2053
   60CHL1   H25 5612   5.784   6.021   4.583 -0.4399 -0.8717  1.9823
   60CHL1   C26 5613   5.932   5.883   4.627 -0.6118  0.2226  0.4272
   60CHL1  H26A 5614   5.926   5.813   4.540  2.5067  0.7995 -0.3734
   60CHL1  H26B 5615   6.033   5.886   4.674 -1.0405  2.8427  1.3741
   60CHL1  H26C 5616   5.854   5.843   4.696 -1.0447 -1.5672 -1.0204
   60CHL1   C27 5617   5.926   6.130   4.682  0.3295 -0.9622  0.0440
   60CHL1  H27A 5618   5.894   6.229   4.644  0.9463 -0.9700 -0.4988
   60CHL1  H27B 5619   5.876   6.114   4.780  0.2446 -0.1789  0.1315
   60CHL1  H27C 5620   6.032   6.136   4.713  0.9690 -3.6967 -1.2812
   61CHL1    C3 5621   1.196   0.898   3.454 -0.1593 -0.5048 -0.1678
   61CHL1    H3 5622   1.284   0.830   3.456 -0.5324 -0.9896  0.1687
   61CHL1    O3 5623   1.162   0.916   3.320 -0.3295 -0.0162 -0.5651
   61CHL1   H3' 5624   1.142   1.009   3.306  0.7619  0.1415 -1.2100
   61CHL1    C4 5625   1.086   0.828   3.537  0.0813  0.0467 -0.4306
   61CHL1   H4A 5626   0.986   0.857   3.499  0.7515 -0.2102 -2.4970
   61CHL1   H4B 5627   1.086   0.722   3.506  0.4043 -0.3451  0.8313
   61CHL1    C5 5628   1.096   0.821   3.688  0.1064 -0.4129 -0.3745
   61CHL1    C6 5629   1.092   0.710   3.755  0.3260 -0.0649  0.2814
   61CHL1    H6 5630   1.057   0.621   3.702 -1.2631  1.7802 -1.9956
   61CHL1    C7 5631   1.104   0.696   3.903 -0.2811 -0.5296  0.5954
   61CHL1   H7A 5632   1.033   0.618   3.937 -2.2018  0.0690 -1.7619
   61CHL1   H7B 5633   1.208   0.657   3.909 -0.1938 -0.1641  1.8666
   61CHL1    C8 5634   1.099   0.831   3.974  0.0231  0.3622  0.5695
   61CHL1    H8 5635   0.996   0.872   3.974 -0.3108 -0.1755  3.7674
   61CHL1   C14 5636   1.165   0.817   4.106  0.4182 -0.1152  0.0430
   61CHL1   H14 5637   1.273   0.792   4.094  0.3697 -1.1477  1.5087
   61CHL1   C15 5638   1.112   0.698   4.195  0.9027  0.2635  0.6311
   61CHL1  H15A 5639   1.003   0.699   4.173  0.4173  0.4667  2.7788
   61CHL1  H15B 5640   1.161   0.599   4.188  0.9766  0.2870  0.8050
   61CHL1   C16 5641   1.142   0.747   4.340 -0.1603  0.2339  0.0950
   61CHL1  H16A 5642   1.049   0.768   4.398 -0.3664  1.7408 -0.7483
   61CHL1  H16B 5643   1.212   0.679   4.394 -1.4401 -1.2548 -0.0424
   61CHL1   C17 5644   1.211   0.891   4.324 -0.0379  0.2073 -1.0149
   61CHL1   H17 5645   1.318   0.875   4.299  0.6852  1.1539  1.2353
   61CHL1   C13 5646   1.158   0.949   4.191 -0.5612 -0.0090  0.2496
   61CHL1   C18 5647   1.012   1.008   4.205 -0.2369  0.4619  0.2225
   61CHL1  H18A 5648   1.022   1.102   4.263  1.1325  0.2215  0.4277
   61CHL1  H18B 5649   0.967   1.031   4.107 -1.3704 -2.6275 -0.0903
   61CHL1  H18C 5650   0.947   0.954   4.278 -1.6433 -0.4222 -1.6133
   61CHL1   C12 5651   1.257   1.042   4.121  0.9379  0.5883  0.2830
   61CHL1  H12A 5652   1.261   1.144   4.165 -1.8175  1.1365 -0.5471
   61CHL1  H12B 5653   1.357   0.996   4.139  0.2706 -1.6171 -1.2728
   61CHL1   C11 5654   1.219   1.067   3.974  0.7230  0.0033 -0.0195
   61CHL1  H11A 5655   1.130   1.133   3.980  1.3584  0.7415  3.7854
   61CHL1  H11B 5656   1.309   1.115   3.931  0.4351  0.0586 -0.5828
   61CHL1    C9 5657   1.188   0.929   3.897 -0.1414  0.0031 -0.0969
   61CHL1    H9 5658   1.285   0.876   3.893  0.1863  0.6453 -0.8811
   61CHL1   C10 5659   1.146   0.955   3.750 -0.1905  0.5596  0.1016
   61CHL1   C19 5660   1.022   1.044   3.728  0.3304 -0.1686 -0.5230
   61CHL1  H19A 5661   1.050   1.149   3.752  0.2950  0.3867 -2.7477
   61CHL1  H19B 5662   0.987   1.045   3.623 -0.9612 -2.2836 -0.1775
   61CHL1  H19C 5663   0.937   1.006   3.789 -0.4278  2.6840  0.3845
   61CHL1    C1 5664   1.265   1.017   3.669 -0.1014 -0.6462  0.2772
   61CHL1   H1A 5665   1.273   1.120   3.710  0.0744  0.1946 -1.7531
   61CHL1   H1B 5666   1.352   0.954   3.697 -0.1623 -1.6913 -1.7048
   61CHL1    C2 5667   1.239   1.033   3.518  0.0618  0.7059  0.1088
   61CHL1   H2A 5668   1.330   1.076   3.472  0.3176  0.1835  0.1193
   61CHL1   H2B 5669   1.157   1.107   3.510 -0.2357  0.1999 -2.3693
   61CHL1   C20 5670   1.206   0.979   4.448  0.1901  0.4894 -0.1854
   61CHL1   H20 5671   1.101   0.995   4.482 -0.1609  0.8897 -1.4206
   61CHL1   C21 5672   1.270   1.119   4.421  0.0051  0.1173 -0.4944
   61CHL1  H21A 5673   1.284   1.173   4.517 -0.3649 -1.2133  0.3367
   61CHL1  H21B 5674   1.206   1.194   4.370  0.1285 -0.2687 -1.2280
   61CHL1  H21C 5675   1.365   1.101   4.366  0.0082 -0.1130 -0.4173
   61CHL1   C22 5676   1.273   0.901   4.568  0.8682  0.6777  0.6912
   61CHL1  H22A 5677   1.218   0.807   4.591  4.3685 -1.3078  1.6552
   61CHL1  H22B 5678   1.376   0.867   4.542  1.0767  0.3087  1.9222
   61CHL1   C23 5679   1.299   0.989   4.692  0.0784 -0.0146  0.5945
   61CHL1  H23A 5680   1.370   1.072   4.670 -0.4451 -0.2985 -2.5077
   61CHL1  H23B 5681   1.199   1.029   4.719  0.7096  1.7354  0.5344
   61CHL1   C24 5682   1.348   0.897   4.804  0.6815  0.3179 -0.0299
   61CHL1  H24A 5683   1.295   0.803   4.828 -0.8644  1.0624 -0.3423
   61CHL1  H24B 5684   1.444   0.853   4.769 -0.7246 -3.9946  0.9398
   61CHL1   C25 5685   1.379   0.975   4.937 -0.2415 -0.2905  0.0149
   61CHL1   H25 5686   1.284   0.998   4.992  0.2459  3.7568 -0.4969
   61CHL1   C26 5687   1.452   0.873   5.038  0.2977 -0.0929  1.0333
   61CHL1  H26A 5688   1.391   0.781   5.046 -1.3125  0.8824  0.4176
   61CHL1  H26B 5689   1.556   0.849   5.009  0.7250  1.7387  0.8841
   61CHL1  H26C 5690   1.463   0.925   5.136  1.3132  0.6751  0.5334
   61CHL1   C27 5691   1.461   1.104   4.929 -0.4810 -0.1422 -0.6307
   61CHL1  H27A 5692   1.560   1.078   4.888 -1.1893 -2.7299 -0.8822
   61CHL1  H27B 5693   1.409   1.180   4.867  0.4898 -0.3619 -1.7443
   61CHL1  H27C 5694   1.473   1.145   5.032  0.5506 -0.2819 -0.6910
   62CHL1    C3 5695   3.655   0.138   3.127 -0.2830  0.3557  0.0215
   62CHL1    H3 5696   3.747   0.075   3.119  1.0795  2.2507  0.0118
   62CHL1    O3 5697   3.608   0.161   2.996 -0.7953 -0.4731 -0.1092
   62CHL1   H3' 5698   3.651   0.246   2.979 -1.0044 -0.5900 -1.3230
   62CHL1    C4 5699   3.541   0.064   3.197 -0.5751  0.0408  0.2465
   62CHL1   H4A 5700   3.448   0.122   3.178  0.7070  2.5472  1.1583
   62CHL1   H4B 5701   3.525  -0.035   3.149 -1.7851  0.8216 -1.0424
   62CHL1    C5 5702   3.566   0.051   3.354 -0.2352  0.4968  0.1958
   62CHL1    C6 5703   3.559  -0.061   3.421  0.9651 -0.0411 -0.4313
   62CHL1    H6 5704   3.521  -0.151   3.370 -1.4949  0.2805  0.7007
   62CHL1    C7 5705   3.578  -0.062   3.569 -0.7717 -0.0273 -0.3205
   62CHL1   H7A 5706   3.520  -0.146   3.613  0.4569  0.0756  1.5722
   62CHL1   H7B 5707   3.679  -0.106   3.580 -0.5162  0.7645  0.6524
   62CHL1    C8 5708   3.567   0.069   3.651  0.2777  0.4196 -0.6368
   62CHL1    H8 5709   3.460   0.097   3.664 -0.1794 -0.5684 -2.0553
   62CHL1   C14 5710   3.631   0.044   3.788  0.1083 -0.2644  0.5107
   62CHL1   H14 5711   3.733   0.004   3.768  1.0857  2.4358 -0.3774
   62CHL1   C15 5712   3.568  -0.069   3.885  0.3477  0.1660  0.0932
   62CHL1  H15A 5713   3.458  -0.053   3.883  0.3324  0.0512 -2.1361
   62CHL1  H15B 5714   3.603  -0.170   3.855 -0.8199 -0.9015  2.0953
   62CHL1   C16 5715   3.619  -0.024   4.026  0.4087 -0.3623  0.7320
   62CHL1  H16A 5716   3.528  -0.006   4.087 -0.0868 -0.5807  0.0737
   62CHL1  H16B 5717   3.688  -0.096   4.075  1.5903  0.4262  0.2672
   62CHL1   C17 5718   3.702   0.110   3.998  0.7874  0.0213 -0.5201
   62CHL1   H17 5719   3.801   0.060   3.983  1.2424  1.0248 -0.9555
   62CHL1   C13 5720   3.642   0.167   3.870  0.4572 -0.5372  0.7105
   62CHL1   C18 5721   3.496   0.225   3.894 -1.0655  0.1963  0.3725
   62CHL1  H18A 5722   3.445   0.167   3.974  2.6161 -2.7366  0.8769
   62CHL1  H18B 5723   3.510   0.324   3.942  0.3989 -0.4448  1.3728
   62CHL1  H18C 5724   3.438   0.245   3.802 -0.3237  2.4904  0.3614
   62CHL1   C12 5725   3.739   0.261   3.799  0.1285  1.2464  0.0589
   62CHL1  H12A 5726   3.752   0.357   3.853 -1.2767  1.3010  0.3454
   62CHL1  H12B 5727   3.834   0.203   3.792  1.0290  2.4816  1.4653
   62CHL1   C11 5728   3.686   0.286   3.657  0.2186  0.8009  0.5113
   62CHL1  H11A 5729   3.600   0.355   3.659 -2.1955 -1.9652 -0.9190
   62CHL1  H11B 5730   3.772   0.332   3.603 -0.2549 -0.0982 -1.0764
   62CHL1    C9 5731   3.663   0.157   3.577 -0.0084 -0.4348 -0.2246
   62CHL1    H9 5732   3.756   0.098   3.566  1.4744  1.7890 -0.2272
   62CHL1   C10 5733   3.620   0.182   3.423  0.3102 -0.1144 -0.1792
   62CHL1   C19 5734   3.503   0.282   3.424  0.9501  0.4826 -0.0330
   62CHL1  H19A 5735   3.477   0.311   3.320  0.6540  1.2744  0.2566
   62CHL1  H19B 5736   3.417   0.239   3.479  0.9509  1.9404  1.1611
   62CHL1  H19C 5737   3.531   0.379   3.470  0.5715  1.5749 -2.0110
   62CHL1    C1 5738   3.743   0.242   3.341  0.1474 -0.1772 -0.2166
   62CHL1   H1A 5739   3.786   0.335   3.386  0.1411  0.7007 -1.9387
   62CHL1   H1B 5740   3.837   0.184   3.349 -0.4584 -1.2850 -0.9762
   62CHL1    C2 5741   3.702   0.265   3.196 -0.5322 -0.3111 -0.0917
   62CHL1   H2A 5742   3.784   0.315   3.140 -0.2885 -0.2117  0.3514
   62CHL1   H2B 5743   3.622   0.342   3.195 -1.1635 -0.7054  4.0159
   62CHL1   C20 5744   3.724   0.212   4.107  0.0050 -0.2337  0.5791
   62CHL1   H20 5745   3.687   0.313   4.079  0.6827 -0.0331  0.4031
   62CHL1   C21 5746   3.878   0.227   4.129  0.5083 -0.6338  0.1173
   62CHL1  H21A 5747   3.923   0.278   4.041  1.2203  0.9989  1.3796
   62CHL1  H21B 5748   3.918   0.125   4.149 -2.5558 -1.7836  0.8813
   62CHL1  H21C 5749   3.889   0.304   4.208 -2.2071  0.4581 -0.4764
   62CHL1   C22 5750   3.644   0.193   4.238  0.3999 -0.6915  0.8035
   62CHL1  H22A 5751   3.647   0.293   4.285  1.3181  0.1299 -0.9108
   62CHL1  H22B 5752   3.538   0.173   4.211  1.1320 -0.4428 -2.7238
   62CHL1   C23 5753   3.691   0.090   4.340 -0.0135  0.2266  0.2079
   62CHL1  H23A 5754   3.751   0.013   4.287 -0.1080 -0.0718  0.5360
   62CHL1  H23B 5755   3.769   0.130   4.408  1.1201  1.6549 -1.8266
   62CHL1   C24 5756   3.578   0.035   4.429 -0.1319  0.3605  0.0963
   62CHL1  H24A 5757   3.533   0.124   4.479 -0.3236  0.9036 -1.0080
   62CHL1  H24B 5758   3.505  -0.009   4.359  1.5091 -0.4405 -1.1801
   62CHL1   C25 5759   3.622  -0.054   4.542 -0.3721  0.0737  0.7697
   62CHL1   H25 5760   3.698   0.008   4.594  1.6289 -1.1491 -0.5436
   62CHL1   C26 5761   3.507  -0.100   4.635 -0.1691  0.1316 -0.1305
   62CHL1  H26A 5762   3.537  -0.143   4.733 -0.5549  1.1177  0.4344
   62CHL1  H26B 5763   3.459  -0.004   4.663  0.0104  0.5862 -1.3056
   62CHL1  H26C 5764   3.425  -0.160   4.590 -0.5317 -0.3716  1.1478
   62CHL1   C27 5765   3.710  -0.180   4.505 -0.5943 -0.3249  1.1592
   62CHL1  H27A 5766   3.780  -0.148   4.424 -0.7373 -1.5409  0.5409
   62CHL1  H27B 5767   3.775  -0.214   4.589 -0.2259 -1.5018  0.4262
   62CHL1  H27C 5768   3.656  -0.264   4.457  1.7428 -2.2070  1.6083
   63CHL1    C3 5769   4.898   5.637   3.157 -0.8424  0.3229  0.4743
   63CHL1    H3 5770   4.941   5.734   3.190 -0.3399 -0.3096  1.7480
   63CHL1    O3 5771   4.901   5.614   3.015  0.3255 -0.1159 -0.1254
   63CHL1   H3' 5772   4.849   5.535   2.998  1.5835 -1.6366  2.4110
   63CHL1    C4 5773   4.967   5.514   3.218 -0.5473 -0.3513 -0.5964
   63CHL1   H4A 5774   4.912   5.421   3.193 -0.4406 -0.9915  1.3496
   63CHL1   H4B 5775   5.071   5.499   3.182 -0.1036 -2.1286  1.2408
   63CHL1    C5 5776   4.956   5.523   3.375  0.4169 -0.2573  0.3637
   63CHL1    C6 5777   5.073   5.520   3.444  0.3573 -0.9190  0.0548
   63CHL1    H6 5778   5.173   5.518   3.399  0.0047 -0.6456 -0.7476
   63CHL1    C7 5779   5.088   5.536   3.586  0.2802  0.0431  0.4690
   63CHL1   H7A 5780   5.157   5.462   3.632  1.5501  0.6319 -0.4060
   63CHL1   H7B 5781   5.117   5.643   3.597  0.4800  0.0112  0.2512
   63CHL1    C8 5782   4.948   5.515   3.655 -0.0083 -0.2267 -1.2772
   63CHL1    H8 5783   4.917   5.408   3.661 -0.7276  0.0463  0.0359
   63CHL1   C14 5784   4.968   5.572   3.795  0.2580  0.5500  0.2021
   63CHL1   H14 5785   4.992   5.679   3.783  1.2753  0.4610  1.2464
   63CHL1   C15 5786   5.071   5.508   3.887  0.9664 -0.4228  0.6998
   63CHL1  H15A 5787   5.071   5.397   3.888  1.1324 -0.4287  0.0624
   63CHL1  H15B 5788   5.171   5.548   3.859 -0.2898  1.8598 -0.8486
   63CHL1   C16 5789   5.032   5.545   4.033  0.4070  0.1369  0.7983
   63CHL1  H16A 5790   5.017   5.459   4.102 -0.6130 -0.7291 -0.4487
   63CHL1  H16B 5791   5.104   5.614   4.082  0.2906  0.7065  0.1795
   63CHL1   C17 5792   4.893   5.623   4.017 -0.4405  0.4307  0.0392
   63CHL1   H17 5793   4.919   5.730   3.998  0.2511  0.2315 -0.1590
   63CHL1   C13 5794   4.837   5.574   3.878  0.6054  0.2023 -0.3017
   63CHL1   C18 5795   4.777   5.434   3.909  0.6083 -0.8491 -0.1593
   63CHL1  H18A 5796   4.850   5.385   3.977  0.2077  2.6267  3.0982
   63CHL1  H18B 5797   4.685   5.450   3.970  0.4995 -2.1811  0.0466
   63CHL1  H18C 5798   4.753   5.383   3.813 -0.1758  1.3848 -1.2291
   63CHL1   C12 5799   4.736   5.661   3.807  1.0169  0.0630 -0.3847
   63CHL1  H12A 5800   4.638   5.670   3.857  0.0867  0.9441 -2.2696
   63CHL1  H12B 5801   4.778   5.764   3.809 -0.8998  0.8899 -0.8296
   63CHL1   C11 5802   4.703   5.609   3.671  0.6425 -0.3433  0.4742
   63CHL1  H11A 5803   4.650   5.511   3.668 -2.6556  1.3288 -0.9651
   63CHL1  H11B 5804   4.628   5.673   3.619  1.0377 -0.0170  0.3043
   63CHL1    C9 5805   4.833   5.597   3.585  0.0837 -0.0602  0.1141
   63CHL1    H9 5806   4.877   5.698   3.571 -0.8749  0.4073  0.3746
   63CHL1   C10 5807   4.812   5.548   3.433  0.5070  0.4706  0.2306
   63CHL1   C19 5808   4.727   5.420   3.437  0.7986 -0.6598  0.5505
   63CHL1  H19A 5809   4.762   5.349   3.516 -0.3143 -0.9144  0.8246
   63CHL1  H19B 5810   4.621   5.445   3.455  1.2428  3.5708 -1.6362
   63CHL1  H19C 5811   4.733   5.358   3.345  0.9558 -1.5481  1.1403
   63CHL1    C1 5812   4.733   5.656   3.358 -0.2402  0.4618  0.3833
   63CHL1   H1A 5813   4.624   5.650   3.382  0.0635 -0.4295  1.6689
   63CHL1   H1B 5814   4.778   5.755   3.379 -0.7990  0.2471  3.0543
   63CHL1    C2 5815   4.753   5.637   3.204  0.0815 -0.1167  0.7238
   63CHL1   H2A 5816   4.693   5.722   3.165 -0.6501 -0.0013  2.0094
   63CHL1   H2B 5817   4.689   5.559   3.160 -1.6537  1.7437 -0.2202
   63CHL1   C20 5818   4.813   5.619   4.144 -0.2480 -0.6998  0.0284
   63CHL1   H20 5819   4.790   5.516   4.178 -3.0055  0.0594  0.7214
   63CHL1   C21 5820   4.678   5.688   4.127  0.4732  0.2981  0.0272
   63CHL1  H21A 5821   4.693   5.787   4.079 -1.0557 -0.4836 -2.2262
   63CHL1  H21B 5822   4.631   5.702   4.227 -0.6146  0.4231 -0.4813
   63CHL1  H21C 5823   4.603   5.636   4.064  1.1508 -1.7707  0.8609
   63CHL1   C22 5824   4.892   5.681   4.260 -0.3246  0.3555  0.1447
   63CHL1  H22A 5825   4.994   5.638   4.270  0.8313  2.9519  0.3766
   63CHL1  H22B 5826   4.902   5.791   4.258 -1.5108  0.5625  2.4596
   63CHL1   C23 5827   4.825   5.655   4.405  0.4486  0.4771 -0.2234
   63CHL1  H23A 5828   4.730   5.712   4.410 -0.7311 -1.3756 -0.6548
   63CHL1  H23B 5829   4.791   5.550   4.403 -2.0333  1.2065  0.3476
   63CHL1   C24 5830   4.924   5.680   4.518 -0.4635 -0.5405 -0.0037
   63CHL1  H24A 5831   5.005   5.604   4.516 -0.2910 -0.3448 -0.8764
   63CHL1  H24B 5832   4.966   5.777   4.484  1.4220 -0.9586  1.0128
   63CHL1   C25 5833   4.868   5.698   4.658 -0.3762  0.3637  0.5473
   63CHL1   H25 5834   4.788   5.775   4.648 -2.7517 -1.5258  3.3600
   63CHL1   C26 5835   4.807   5.570   4.704  0.4108  0.0240  1.3079
   63CHL1  H26A 5836   4.777   5.591   4.809  0.1196  1.3411  0.9841
   63CHL1  H26B 5837   4.732   5.537   4.630  0.3997 -0.1910  1.4150
   63CHL1  H26C 5838   4.879   5.486   4.703  1.6826  1.0421 -0.9626
   63CHL1   C27 5839   4.973   5.751   4.765 -0.0863 -0.2470  0.3346
   63CHL1  H27A 5840   4.935   5.736   4.868  1.4542 -0.5239  0.8896
   63CHL1  H27B 5841   5.068   5.693   4.755 -0.7565 -1.4171  0.5185
   63CHL1  H27C 5842   4.980   5.860   4.745 -1.3937 -0.0183  1.0509
   64CHL1    C3 5843   4.446   5.349   3.169 -0.0885  0.2899  0.0444
   64CHL1    H3 5844   4.552   5.371   3.190 -0.3550  0.9100  0.8217
   64CHL1    O3 5845   4.434   5.340   3.034  0.1816 -0.0242 -0.1462
   64CHL1   H3' 5846   4.353   5.289   3.025  0.9514 -1.3236  0.0125
   64CHL1    C4 5847   4.426   5.211   3.235 -0.4661  0.0563 -0.0694
   64CHL1   H4A 5848   4.328   5.169   3.203 -0.0767  0.9670 -2.7308
   64CHL1   H4B 5849   4.510   5.147   3.199 -0.1629  0.1261  0.5106
   64CHL1    C5 5850   4.434   5.222   3.387  0.0589  0.0294  0.3014
   64CHL1    C6 5851   4.530   5.157   3.453  0.6420  0.3829 -0.0787
   64CHL1    H6 5852   4.598   5.094   3.394 -0.8767 -0.7094 -0.7310
   64CHL1    C7 5853   4.546   5.160   3.607  0.0987  0.7141 -0.0539
   64CHL1   H7A 5854   4.573   5.062   3.651  2.6766  1.5010  0.2721
   64CHL1   H7B 5855   4.627   5.232   3.634  1.6244 -1.5173  1.7406
   64CHL1    C8 5856   4.413   5.209   3.668  0.5529 -0.0197 -0.5550
   64CHL1    H8 5857   4.341   5.125   3.676 -0.0518  0.4719 -0.7723
   64CHL1   C14 5858   4.443   5.245   3.813  0.6540 -0.3051  0.2855
   64CHL1   H14 5859   4.515   5.330   3.809  0.4674 -0.0198  2.0825
   64CHL1   C15 5860   4.518   5.151   3.908  0.4406  0.5321 -0.1559
   64CHL1  H15A 5861   4.485   5.045   3.901  1.2339  0.3838 -2.6838
   64CHL1  H15B 5862   4.626   5.138   3.884  0.4445 -0.0269  0.1463
   64CHL1   C16 5863   4.505   5.216   4.046  0.0330  0.3052 -0.1440
   64CHL1  H16A 5864   4.462   5.136   4.111 -0.9700  0.6344 -0.3831
   64CHL1  H16B 5865   4.598   5.258   4.091  0.5859 -0.7723 -0.2580
   64CHL1   C17 5866   4.396   5.332   4.043 -0.1707 -1.7275 -0.3321
   64CHL1   H17 5867   4.463   5.419   4.027  0.2558 -1.8308  0.7716
   64CHL1   C13 5868   4.330   5.309   3.902  0.3577  0.1708  0.0743
   64CHL1   C18 5869   4.218   5.203   3.932 -0.8342 -0.1428 -0.7828
   64CHL1  H18A 5870   4.257   5.114   3.985 -0.2990 -0.5503 -1.8436
   64CHL1  H18B 5871   4.133   5.249   3.987  0.7677  0.9252  0.9218
   64CHL1  H18C 5872   4.176   5.163   3.837 -2.8946 -0.7570  0.3388
   64CHL1   C12 5873   4.285   5.430   3.827 -0.3441 -1.1811 -0.1978
   64CHL1  H12A 5874   4.198   5.477   3.877  0.6521  1.1343 -0.5187
   64CHL1  H12B 5875   4.364   5.508   3.824 -0.7128 -0.8203 -0.6713
   64CHL1   C11 5876   4.245   5.393   3.683  1.1563 -0.0265 -0.2843
   64CHL1  H11A 5877   4.144   5.347   3.677  0.4300  1.6170 -1.5810
   64CHL1  H11B 5878   4.231   5.488   3.627  1.3702 -0.1105 -0.4811
   64CHL1    C9 5879   4.355   5.326   3.596 -0.0439  0.8512 -0.0658
   64CHL1    H9 5880   4.432   5.406   3.598  2.0272 -1.0456 -0.4384
   64CHL1   C10 5881   4.329   5.314   3.447 -0.2622  0.2888 -0.3679
   64CHL1   C19 5882   4.188   5.255   3.427  0.1760  0.1750 -0.0616
   64CHL1  H19A 5883   4.173   5.176   3.503  0.7532 -0.8934 -1.0169
   64CHL1  H19B 5884   4.109   5.332   3.441  0.5201  0.2716  1.4533
   64CHL1  H19C 5885   4.168   5.205   3.329  1.1842  0.4815 -0.4384
   64CHL1    C1 5886   4.348   5.461   3.375  0.0384  0.1399 -0.2821
   64CHL1   H1A 5887   4.272   5.537   3.402 -0.7740 -1.2451  1.5440
   64CHL1   H1B 5888   4.442   5.506   3.413  0.6607  0.6990 -2.3673
   64CHL1    C2 5889   4.347   5.451   3.220 -0.0390  0.5702 -0.2515
   64CHL1   H2A 5890   4.380   5.547   3.176  2.1669 -0.5998 -1.3085
   64CHL1   H2B 5891   4.248   5.421   3.179  0.5914 -0.6171 -0.9945
   64CHL1   C20 5892   4.318   5.355   4.173 -0.6814 -0.0138  0.0195
   64CHL1   H20 5893   4.262   5.260   4.189  1.3384 -1.6264 -1.8558
   64CHL1   C21 5894   4.214   5.464   4.166  0.6121  0.0768 -0.7945
   64CHL1  H21A 5895   4.142   5.423   4.091  1.1285  0.7415 -1.6670
   64CHL1  H21B 5896   4.266   5.557   4.134  1.1961  0.8880  2.2557
   64CHL1  H21C 5897   4.170   5.486   4.266  1.4485 -0.3182 -0.3346
   64CHL1   C22 5898   4.415   5.383   4.291  0.7660  0.6877 -0.8003
   64CHL1  H22A 5899   4.498   5.316   4.260  0.0970  0.1669 -1.5322
   64CHL1  H22B 5900   4.455   5.486   4.289  0.6764  0.7189 -1.0714
   64CHL1   C23 5901   4.350   5.354   4.428 -0.0005  0.0162  0.4580
   64CHL1  H23A 5902   4.260   5.418   4.444 -1.4379 -1.7624 -0.1404
   64CHL1  H23B 5903   4.320   5.248   4.439  0.4014 -0.0354  1.0998
   64CHL1   C24 5904   4.443   5.394   4.545 -0.2593  0.3715  0.9562
   64CHL1  H24A 5905   4.531   5.329   4.528 -1.1935 -0.9464  0.9983
   64CHL1  H24B 5906   4.475   5.500   4.541  3.3209 -0.5605 -2.6189
   64CHL1   C25 5907   4.389   5.364   4.680 -0.4334  0.6955  0.8610
   64CHL1   H25 5908   4.339   5.265   4.682  0.1251  0.3986  0.4099
   64CHL1   C26 5909   4.500   5.353   4.788 -0.2427  0.0083  0.2806
   64CHL1  H26A 5910   4.553   5.448   4.810 -0.0524 -0.2573  0.9687
   64CHL1  H26B 5911   4.456   5.320   4.884 -3.0624 -0.7976 -1.1756
   64CHL1  H26C 5912   4.585   5.289   4.757  1.3831  1.5407  1.3884
   64CHL1   C27 5913   4.286   5.467   4.727  0.0149  0.0133 -0.4553
   64CHL1  H27A 5914   4.210   5.497   4.652 -2.7580 -3.2410  0.7886
   64CHL1  H27B 5915   4.243   5.436   4.825  0.7647  0.7908  0.1415
   64CHL1  H27C 5916   4.338   5.560   4.762 -0.3979  0.3625 -0.7684
   65CHL1    C3 5917   4.024   0.424   2.910  0.1885  0.3956  0.4162
   65CHL1    H3 5918   3.945   0.364   2.959  0.5175 -0.3684  0.0314
   65CHL1    O3 5919   4.023   0.391   2.771  0.7912 -0.5528 -0.0363
   65CHL1   H3' 5920   4.084   0.455   2.733  0.5346  0.2904  0.9190
   65CHL1    C4 5921   3.996   0.570   2.937 -0.3545  0.2709 -0.0400
   65CHL1   H4A 5922   4.081   0.626   2.893  1.9223 -2.3933  0.7398
   65CHL1   H4B 5923   3.898   0.595   2.891 -0.2166  0.3590 -0.2851
   65CHL1    C5 5924   3.993   0.585   3.087  0.4161 -0.1298  0.1764
   65CHL1    C6 5925   3.885   0.642   3.144 -0.7931 -0.3926  0.8316
   65CHL1    H6 5926   3.807   0.678   3.074  0.4820  1.1873  0.1540
   65CHL1    C7 5927   3.858   0.683   3.289 -0.0833 -0.5333 -0.3707
   65CHL1   H7A 5928   3.816   0.785   3.306  0.2892 -0.3521 -0.5380
   65CHL1   H7B 5929   3.779   0.612   3.321  0.8838 -1.2911  0.3954
   65CHL1    C8 5930   3.982   0.660   3.380  0.0082  0.1108  0.6636
   65CHL1    H8 5931   4.045   0.750   3.390  0.1725  0.1701 -0.7256
   65CHL1   C14 5932   3.943   0.630   3.529 -0.1655 -0.4419  0.0952
   65CHL1   H14 5933   3.891   0.532   3.516  0.2130 -0.6895  0.4445
   65CHL1   C15 5934   3.841   0.729   3.589  0.6253  0.4233 -1.1065
   65CHL1  H15A 5935   3.865   0.834   3.563  0.3682  1.4281  2.2316
   65CHL1  H15B 5936   3.738   0.711   3.553 -0.3791  3.6692 -0.1971
   65CHL1   C16 5937   3.854   0.705   3.739 -0.0230  0.8464  0.3307
   65CHL1  H16A 5938   3.877   0.803   3.785  1.9462  0.8315 -0.5364
   65CHL1  H16B 5939   3.758   0.675   3.786 -0.3532 -0.1175 -0.9067
   65CHL1   C17 5940   3.968   0.598   3.765  0.8688  0.3028 -0.0918
   65CHL1   H17 5941   3.907   0.507   3.751  0.0422  0.9812 -1.0736
   65CHL1   C13 5942   4.056   0.604   3.632 -0.2580  0.0267 -0.2607
   65CHL1   C18 5943   4.155   0.727   3.643  0.6080 -1.1580  0.7020
   65CHL1  H18A 5944   4.226   0.709   3.726  0.6955 -2.4025  0.3749
   65CHL1  H18B 5945   4.197   0.757   3.545 -0.6759 -0.2004  0.4161
   65CHL1  H18C 5946   4.093   0.812   3.678  0.9422 -1.0924  1.1490
   65CHL1   C12 5947   4.126   0.481   3.577  0.2492  0.2602 -0.6958
   65CHL1  H12A 5948   4.209   0.453   3.646 -1.4459 -0.7121  1.0289
   65CHL1  H12B 5949   4.057   0.394   3.584 -0.9145  1.2532  0.9929
   65CHL1   C11 5950   4.176   0.507   3.438 -0.3125  0.8463  0.0310
   65CHL1  H11A 5951   4.263   0.576   3.437  1.3492 -1.1300 -1.2003
   65CHL1  H11B 5952   4.222   0.410   3.408  0.2876  1.6785 -1.9490
   65CHL1    C9 5953   4.066   0.546   3.330 -0.3780  0.5052 -0.5148
   65CHL1    H9 5954   3.999   0.457   3.331  0.3917 -0.1400 -2.0615
   65CHL1   C10 5955   4.111   0.545   3.181  0.4272  0.1940  0.3652
   65CHL1   C19 5956   4.225   0.651   3.171  0.1905 -0.1716 -1.0570
   65CHL1  H19A 5957   4.310   0.610   3.230  1.0959  2.2417 -0.5782
   65CHL1  H19B 5958   4.260   0.658   3.066  0.3646 -2.1980 -1.1824
   65CHL1  H19C 5959   4.197   0.753   3.205  0.6514 -0.1223 -0.8215
   65CHL1    C1 5960   4.160   0.401   3.128  0.3629 -0.6352  0.4602
   65CHL1   H1A 5961   4.261   0.379   3.168 -0.3537  0.0487  2.8410
   65CHL1   H1B 5962   4.092   0.323   3.170 -0.6388 -0.3012 -0.4856
   65CHL1    C2 5963   4.161   0.382   2.973 -0.6400  0.4533  0.9832
   65CHL1   H2A 5964   4.180   0.275   2.952 -1.5323  0.8527 -2.6013
   65CHL1   H2B 5965   4.244   0.442   2.931  0.3052 -0.8788  0.8998
   65CHL1   C20 5966   4.023   0.605   3.901  0.1208  0.6899 -0.0995
   65CHL1   H20 5967   4.070   0.704   3.922 -0.6002  0.6132  2.1833
   65CHL1   C21 5968   4.135   0.500   3.925  0.2413 -0.4027 -0.2343
   65CHL1  H21A 5969   4.089   0.399   3.916 -0.1138 -0.2553 -0.1261
   65CHL1  H21B 5970   4.182   0.519   4.024 -0.0397 -1.2984  0.0822
   65CHL1  H21C 5971   4.215   0.520   3.851  1.3426  0.5743  1.1632
   65CHL1   C22 5972   3.915   0.592   4.010 -0.3661 -0.5436 -0.2012
   65CHL1  H22A 5973   3.830   0.660   3.991  0.3111  0.4977  0.3874
   65CHL1  H22B 5974   3.873   0.489   4.007  0.7688 -1.1636  2.2538
   65CHL1   C23 5975   3.965   0.625   4.149 -0.2317  0.1717 -0.9917
   65CHL1  H23A 5976   4.046   0.567   4.197 -2.1230 -0.5170  1.6181
   65CHL1  H23B 5977   4.005   0.728   4.147 -0.6674  0.3337 -2.2571
   65CHL1   C24 5978   3.842   0.612   4.248  0.1387  0.8623 -0.6927
   65CHL1  H24A 5979   3.790   0.709   4.262 -1.3601 -0.4006  4.7731
   65CHL1  H24B 5980   3.777   0.537   4.198  0.8186 -1.4210  1.6112
   65CHL1   C25 5981   3.883   0.564   4.388  0.6008  0.0179 -0.6627
   65CHL1   H25 5982   3.921   0.459   4.385 -0.1286 -0.2960  0.4312
   65CHL1   C26 5983   3.989   0.660   4.444 -0.2423  0.1646  0.8831
   65CHL1  H26A 5984   4.022   0.642   4.548  0.0984  1.5735  1.0463
   65CHL1  H26B 5985   4.082   0.644   4.386 -0.0311  1.4264  0.8482
   65CHL1  H26C 5986   3.964   0.767   4.425 -0.5083 -0.2389 -1.4501
   65CHL1   C27 5987   3.755   0.563   4.481 -0.2558  0.3292 -0.1940
   65CHL1  H27A 5988   3.699   0.658   4.493 -0.9165 -0.3568  2.9251
   65CHL1  H27B 5989   3.692   0.473   4.464  1.8510 -1.8649  2.6476
   65CHL1  H27C 5990   3.799   0.539   4.580 -1.6920  0.2289  0.4577
   66CHL1    C3 5991   2.064   3.253   3.009  0.1949 -0.0971  0.4027
   66CHL1    H3 5992   2.154   3.189   3.018  0.0877 -0.3064 -0.0374
   66CHL1    O3 5993   2.020   3.264   2.877 -0.0524  0.3497 -0.1844
   66CHL1   H3' 5994   1.926   3.244   2.881 -0.1664  1.0793  1.3045
   66CHL1    C4 5995   1.963   3.183   3.100 -0.2392 -0.2134  0.0533
   66CHL1   H4A 5996   1.870   3.243   3.099 -0.2771 -0.2646  0.5131
   66CHL1   H4B 5997   1.932   3.080   3.072 -0.6808 -0.0625 -0.0163
   66CHL1    C5 5998   2.015   3.189   3.247 -0.2280 -0.2288 -0.3505
   66CHL1    C6 5999   2.027   3.075   3.320  0.3467 -0.4938 -0.5830
   66CHL1    H6 6000   1.994   2.979   3.280 -2.7744  0.1579  0.1307
   66CHL1    C7 6001   2.052   3.075   3.468 -0.0032 -0.5550 -0.1473
   66CHL1   H7A 6002   1.988   3.002   3.521 -2.9209  1.9446  0.0712
   66CHL1   H7B 6003   2.156   3.036   3.471  0.0114 -1.1013 -3.6569
   66CHL1    C8 6004   2.043   3.216   3.527 -0.3847 -0.5299 -0.3311
   66CHL1    H8 6005   1.938   3.253   3.536 -0.5301  0.2715 -3.7636
   66CHL1   C14 6006   2.111   3.219   3.673 -0.6448  0.4896  0.3986
   66CHL1   H14 6007   2.221   3.208   3.657 -1.0008 -1.4117 -1.0982
   66CHL1   C15 6008   2.069   3.109   3.767 -0.0426  0.1899 -0.3303
   66CHL1  H15A 6009   1.962   3.082   3.758  0.0834 -1.2275  1.7493
   66CHL1  H15B 6010   2.130   3.017   3.753 -0.2157  0.2320 -1.5092
   66CHL1   C16 6011   2.092   3.163   3.911  0.7475 -0.4918 -0.1064
   66CHL1  H16A 6012   1.990   3.170   3.954 -0.5389  0.1394 -3.0539
   66CHL1  H16B 6013   2.157   3.093   3.968 -1.6835 -2.0403  0.9533
   66CHL1   C17 6014   2.149   3.313   3.889  0.1132 -0.1641  0.2078
   66CHL1   H17 6015   2.255   3.290   3.867  0.4231 -0.2960  1.7049
   66CHL1   C13 6016   2.091   3.354   3.746  0.5334  0.6467 -0.1795
   66CHL1   C18 6017   1.945   3.389   3.766  0.6641 -0.1901 -0.5248
   66CHL1  H18A 6018   1.899   3.310   3.830  1.4332 -0.5192 -0.3675
   66CHL1  H18B 6019   1.933   3.485   3.821 -1.4163 -0.0990 -1.0681
   66CHL1  H18C 6020   1.885   3.396   3.673 -0.0919  1.9951  0.0736
   66CHL1   C12 6021   2.173   3.450   3.670  0.5945  0.5151 -0.8455
   66CHL1  H12A 6022   2.174   3.548   3.723  1.4632  0.2372 -0.3434
   66CHL1  H12B 6023   2.280   3.422   3.671  0.2831 -0.7782  1.1727
   66CHL1   C11 6024   2.125   3.465   3.525  0.2916 -0.3251  0.5784
   66CHL1  H11A 6025   2.029   3.520   3.523 -0.0479 -0.9210  0.0194
   66CHL1  H11B 6026   2.192   3.541   3.478 -1.4522  1.4038  0.7785
   66CHL1    C9 6027   2.119   3.328   3.449 -0.3722  0.1053  0.3847
   66CHL1    H9 6028   2.224   3.294   3.434 -0.2390  0.9955 -0.8783
   66CHL1   C10 6029   2.048   3.333   3.306 -0.0283  0.0355  0.6760
   66CHL1   C19 6030   1.911   3.411   3.318 -0.2524 -0.5480  0.0661
   66CHL1  H19A 6031   1.862   3.412   3.218 -1.9224 -1.0812  0.8563
   66CHL1  H19B 6032   1.842   3.356   3.384 -1.0642  1.5713  1.0815
   66CHL1  H19C 6033   1.926   3.515   3.354 -0.5877 -0.3430 -0.3809
   66CHL1    C1 6034   2.144   3.399   3.205  0.1168  0.3128  0.6245
   66CHL1   H1A 6035   2.163   3.504   3.236  3.4493 -0.1775  0.6663
   66CHL1   H1B 6036   2.240   3.344   3.216  0.8655  1.1714 -1.2684
   66CHL1    C2 6037   2.102   3.395   3.057  0.1708 -0.1754  0.4638
   66CHL1   H2A 6038   2.181   3.441   2.994  0.0436 -0.0208  0.4145
   66CHL1   H2B 6039   2.014   3.460   3.040  0.5451 -0.2586 -2.2687
   66CHL1   C20 6040   2.122   3.418   3.998 -0.5833 -0.1467 -0.5281
   66CHL1   H20 6041   2.052   3.498   3.966  1.8057  1.0952 -3.0238
   66CHL1   C21 6042   2.245   3.504   4.009 -0.1580  0.0879 -0.4430
   66CHL1  H21A 6043   2.331   3.434   4.021 -1.4082 -1.2522  1.0939
   66CHL1  H21B 6044   2.248   3.569   4.099  0.7377 -1.2378  0.5173
   66CHL1  H21C 6045   2.272   3.571   3.924 -1.1211  0.8888 -0.1333
   66CHL1   C22 6046   2.079   3.350   4.140 -0.6312  0.5724  0.3036
   66CHL1  H22A 6047   1.980   3.302   4.123 -1.1399  1.6445  0.1444
   66CHL1  H22B 6048   2.154   3.269   4.151 -1.1992  0.1926  1.5875
   66CHL1   C23 6049   2.083   3.446   4.259 -0.1669 -1.5256 -0.4736
   66CHL1  H23A 6050   2.186   3.482   4.280 -1.0675  0.7679  0.3757
   66CHL1  H23B 6051   2.032   3.537   4.220  2.3048  0.0915 -0.1681
   66CHL1   C24 6052   2.024   3.397   4.390 -0.6756  0.0100 -1.0346
   66CHL1  H24A 6053   1.942   3.324   4.372  0.2664 -0.8251 -2.1156
   66CHL1  H24B 6054   2.107   3.343   4.442  0.6344  1.6854 -1.2894
   66CHL1   C25 6055   1.973   3.512   4.483 -0.6715 -0.5649 -0.4869
   66CHL1   H25 6056   1.903   3.571   4.420  0.2881 -0.1799 -1.2185
   66CHL1   C26 6057   1.894   3.460   4.606 -1.4216  0.1522 -0.4331
   66CHL1  H26A 6058   1.789   3.434   4.581 -1.1043 -0.6476 -0.9553
   66CHL1  H26B 6059   1.956   3.381   4.655 -0.8260  0.3224 -0.9135
   66CHL1  H26C 6060   1.885   3.546   4.676  1.8828 -0.0685  0.4322
   66CHL1   C27 6061   2.089   3.604   4.539  0.4691 -0.0310 -0.1664
   66CHL1  H27A 6062   2.175   3.546   4.578 -0.5670 -0.9362  0.8536
   66CHL1  H27B 6063   2.052   3.673   4.619 -0.1142  2.0249 -2.0856
   66CHL1  H27C 6064   2.131   3.669   4.459  1.5041 -0.6543 -0.1368
   67CHL1    C3 6065   6.005   0.402   3.277 -0.9327 -0.3678  0.1588
   67CHL1    H3 6066   5.908   0.455   3.284 -1.4405 -1.5046  3.2739
   67CHL1    O3 6067   6.030   0.377   3.136  0.3157  0.2534 -0.4796
   67CHL1   H3' 6068   6.116   0.336   3.129  0.7274  0.9267  0.4044
   67CHL1    C4 6069   6.116   0.491   3.341 -0.2365  0.1949 -0.1026
   67CHL1   H4A 6070   6.219   0.451   3.336 -0.6777 -0.9345 -0.6335
   67CHL1   H4B 6071   6.105   0.585   3.283 -0.1726  1.3771  1.7628
   67CHL1    C5 6072   6.075   0.520   3.483  0.1463  0.5510  0.3103
   67CHL1    C6 6073   6.049   0.641   3.532  0.2010  0.2555  1.4994
   67CHL1    H6 6074   6.042   0.722   3.457 -1.1811 -0.5856  0.6756
   67CHL1    C7 6075   6.019   0.675   3.677  0.1614  0.4175 -0.0599
   67CHL1   H7A 6076   6.079   0.764   3.705 -0.0951  0.8333 -0.8067
   67CHL1   H7B 6077   5.909   0.693   3.683  0.1911  0.7831 -0.5170
   67CHL1    C8 6078   6.060   0.560   3.768  0.2239 -0.3348 -0.1942
   67CHL1    H8 6079   6.171   0.554   3.769  0.2149 -0.6685  1.3686
   67CHL1   C14 6080   6.015   0.594   3.907 -0.1895 -0.6944 -0.0745
   67CHL1   H14 6081   5.905   0.605   3.897 -0.0816  0.1873 -0.3574
   67CHL1   C15 6082   6.061   0.727   3.969  0.0833  0.0632 -0.2149
   67CHL1  H15A 6083   6.171   0.733   3.955 -0.1609  0.6451 -2.0843
   67CHL1  H15B 6084   6.014   0.815   3.920 -2.7687 -1.4884 -0.4859
   67CHL1   C16 6085   6.011   0.699   4.119 -0.1483 -0.1692  0.6685
   67CHL1  H16A 6086   6.094   0.727   4.188  0.1493  2.5964 -0.7039
   67CHL1  H16B 6087   5.933   0.770   4.154 -0.0365 -0.8110  2.3489
   67CHL1   C17 6088   5.981   0.546   4.136 -0.5446  0.4400  0.5393
   67CHL1   H17 6089   5.870   0.543   4.129 -0.7675  4.3228  0.6457
   67CHL1   C13 6090   6.039   0.480   4.008 -0.0063  0.1813 -0.1312
   67CHL1   C18 6091   6.187   0.452   4.019 -0.6221 -1.1081  0.3577
   67CHL1  H18A 6092   6.242   0.437   3.924  0.7422  1.7091  0.6082
   67CHL1  H18B 6093   6.235   0.539   4.069  1.4094 -0.0504 -3.0575
   67CHL1  H18C 6094   6.213   0.361   4.077 -0.4951 -1.1936  0.1676
   67CHL1   C12 6095   5.959   0.361   3.957  0.0817 -0.7744 -0.2140
   67CHL1  H12A 6096   5.953   0.273   4.025 -2.8593 -0.7426 -0.2801
   67CHL1  H12B 6097   5.853   0.395   3.960 -0.3480 -2.0163 -0.4791
   67CHL1   C11 6098   6.002   0.314   3.817 -0.2029 -0.4505  0.0944
   67CHL1  H11A 6099   6.112   0.298   3.825 -0.2872 -0.4440  1.5906
   67CHL1  H11B 6100   5.932   0.232   3.789 -2.4496  0.6239  2.1768
   67CHL1    C9 6101   5.991   0.427   3.712 -0.4397 -0.3091 -0.2120
   67CHL1    H9 6102   5.883   0.453   3.703 -0.3442 -0.3154 -1.5091
   67CHL1   C10 6103   6.053   0.391   3.573  0.4268 -0.1324 -0.0620
   67CHL1   C19 6104   6.194   0.318   3.580  0.3371 -1.0164 -0.3164
   67CHL1  H19A 6105   6.234   0.303   3.478 -1.1566  1.4113 -1.3430
   67CHL1  H19B 6106   6.263   0.391   3.629 -1.1127 -0.0151  0.2937
   67CHL1  H19C 6107   6.188   0.221   3.633  0.4920 -0.8603 -0.0067
   67CHL1    C1 6108   5.947   0.302   3.507  0.3451  0.1344 -0.0640
   67CHL1   H1A 6109   5.932   0.205   3.560  0.3722 -0.7747 -1.6453
   67CHL1   H1B 6110   5.846   0.346   3.510 -0.0298 -0.5491 -1.6389
   67CHL1    C2 6111   5.979   0.270   3.360 -0.9380  0.2381  0.2573
   67CHL1   H2A 6112   5.883   0.227   3.325 -1.8197  0.1081  2.6587
   67CHL1   H2B 6113   6.051   0.186   3.346 -1.6948 -0.8926  2.6920
   67CHL1   C20 6114   6.017   0.496   4.273 -0.6272 -0.0804  0.3097
   67CHL1   H20 6115   6.123   0.525   4.286 -1.0427  1.5656  0.2487
   67CHL1   C21 6116   6.000   0.337   4.279  0.0539 -0.7137 -0.0334
   67CHL1  H21A 6117   6.065   0.296   4.199 -0.3039  1.2423 -1.3861
   67CHL1  H21B 6118   5.891   0.321   4.263 -0.8871  0.8792  3.5999
   67CHL1  H21C 6119   6.021   0.296   4.381  0.0742  0.0435  0.2692
   67CHL1   C22 6120   5.924   0.568   4.378 -0.0527  0.4828 -0.4903
   67CHL1  H22A 6121   5.916   0.678   4.369  2.9794  0.9941  1.6444
   67CHL1  H22B 6122   5.822   0.529   4.357  0.4716 -0.6646 -0.9610
   67CHL1   C23 6123   5.956   0.538   4.528  0.4547  0.0220  0.6786
   67CHL1  H23A 6124   5.972   0.430   4.544  1.2351 -0.5901 -3.1905
   67CHL1  H23B 6125   6.052   0.589   4.548  0.8673 -0.3822 -0.2169
   67CHL1   C24 6126   5.840   0.577   4.617  0.4281 -0.2643 -0.3588
   67CHL1  H24A 6127   5.811   0.682   4.597  0.7333 -0.4419 -1.8504
   67CHL1  H24B 6128   5.753   0.513   4.588 -0.2109  0.6451 -0.4782
   67CHL1   C25 6129   5.872   0.582   4.769  0.6650  0.0013  0.3573
   67CHL1   H25 6130   5.781   0.627   4.813  0.0347 -0.2539 -0.6536
   67CHL1   C26 6131   5.869   0.443   4.835  0.6040  0.1747  0.1099
   67CHL1  H26A 6132   5.832   0.447   4.939  0.4484  2.5173  0.0064
   67CHL1  H26B 6133   5.800   0.372   4.785 -3.7864  1.9082  3.1635
   67CHL1  H26C 6134   5.974   0.412   4.854  0.6652  1.8780  2.9369
   67CHL1   C27 6135   6.005   0.657   4.808  0.2905 -0.2366  0.7281
   67CHL1  H27A 6136   6.013   0.667   4.918  1.9100 -2.0868  0.8421
   67CHL1  H27B 6137   6.089   0.594   4.773 -2.2785 -2.5560 -1.8354
   67CHL1  H27C 6138   6.013   0.756   4.757 -0.7307 -1.3277 -1.7274
   68CHL1    C3 6139   2.331   6.049   3.463 -0.3484  0.0925 -0.0185
   68CHL1    H3 6140   2.437   6.080   3.456  0.5862 -2.6639  0.8298
   68CHL1    O3 6141   2.292   6.020   3.327 -0.6732  0.4403 -0.3063
   68CHL1   H3' 6142   2.281   5.925   3.318  0.3211  0.2290  0.5018
   68CHL1    C4 6143   2.335   5.920   3.547  0.0374  0.3126  0.2247
   68CHL1   H4A 6144   2.236   5.873   3.530 -0.4377  1.6899 -0.9919
   68CHL1   H4B 6145   2.401   5.848   3.493 -3.2802 -2.2038 -0.7881
   68CHL1    C5 6146   2.367   5.946   3.694  0.4607  0.5010 -0.0998
   68CHL1    C6 6147   2.458   5.885   3.769 -0.1882 -0.7020 -0.3491
   68CHL1    H6 6148   2.518   5.812   3.713 -0.0389  0.8904 -2.4224
   68CHL1    C7 6149   2.485   5.907   3.914  0.3632 -0.3940  0.2649
   68CHL1   H7A 6150   2.515   5.816   3.969 -0.2955 -0.1732  0.9925
   68CHL1   H7B 6151   2.572   5.976   3.916 -0.5960  0.9707 -1.5963
   68CHL1    C8 6152   2.364   5.966   3.987  0.0848  0.1125 -0.0014
   68CHL1    H8 6153   2.277   5.897   4.001 -1.7658  2.1267 -0.9379
   68CHL1   C14 6154   2.409   6.007   4.129  0.3113  0.1652 -1.1174
   68CHL1   H14 6155   2.494   6.075   4.110  0.7873  0.3940  1.5115
   68CHL1   C15 6156   2.477   5.907   4.216 -0.2290 -0.0889  0.3560
   68CHL1  H15A 6157   2.423   5.810   4.212 -3.5421  1.6676 -3.1789
   68CHL1  H15B 6158   2.585   5.900   4.189 -0.9115  0.5730 -2.9435
   68CHL1   C16 6159   2.469   5.967   4.359  0.8327  0.5347 -0.1040
   68CHL1  H16A 6160   2.413   5.891   4.417  0.3636  2.1271  1.6364
   68CHL1  H16B 6161   2.565   5.990   4.410  1.0610  1.2564 -0.8462
   68CHL1   C17 6162   2.379   6.099   4.343  0.0030  0.3264 -0.9756
   68CHL1   H17 6163   2.449   6.183   4.326 -1.4512  1.0876 -3.8930
   68CHL1   C13 6164   2.302   6.082   4.210  0.8160 -0.5901 -0.8859
   68CHL1   C18 6165   2.189   5.982   4.242  0.5064 -0.4713  0.3968
   68CHL1  H18A 6166   2.138   5.951   4.149 -1.0898  1.4726  0.5411
   68CHL1  H18B 6167   2.230   5.887   4.282 -0.3216 -0.5697  1.0620
   68CHL1  H18C 6168   2.105   6.014   4.308  0.7147 -0.6747  0.7671
   68CHL1   C12 6169   2.252   6.203   4.132 -0.4482 -0.0532 -0.1140
   68CHL1  H12A 6170   2.182   6.265   4.192  0.6063 -0.3092  1.4673
   68CHL1  H12B 6171   2.342   6.263   4.107  0.0397 -0.9943 -0.6817
   68CHL1   C11 6172   2.204   6.164   3.992  0.2491  0.3008  0.0819
   68CHL1  H11A 6173   2.110   6.107   4.008  0.7902 -0.1970  1.6647
   68CHL1  H11B 6174   2.194   6.254   3.927  0.5284  0.2418 -0.0467
   68CHL1    C9 6175   2.310   6.085   3.913  0.0797 -0.1115  0.2373
   68CHL1    H9 6176   2.400   6.149   3.899  0.1817 -0.6634 -2.0085
   68CHL1   C10 6177   2.270   6.054   3.757 -0.5851 -0.6888 -0.2811
   68CHL1   C19 6178   2.128   5.991   3.773 -0.4508 -0.3827 -0.1461
   68CHL1  H19A 6179   2.086   5.961   3.674 -1.8053  1.1012 -0.0550
   68CHL1  H19B 6180   2.137   5.902   3.839  3.0480  1.4514  2.1349
   68CHL1  H19C 6181   2.064   6.071   3.814  1.5302  1.2165 -0.0049
   68CHL1    C1 6182   2.263   6.188   3.672 -0.3827  0.4748  0.6978
   68CHL1   H1A 6183   2.180   6.252   3.710 -0.1522  0.4762  1.2108
   68CHL1   H1B 6184   2.358   6.246   3.676 -0.6593  0.8777  1.7255
   68CHL1    C2 6185   2.245   6.168   3.518 -0.4053  1.2479 -0.7339
   68CHL1   H2A 6186   2.260   6.260   3.457  2.0247  2.0886  0.9745
   68CHL1   H2B 6187   2.140   6.134   3.504 -0.3081  0.4246  0.4366
   68CHL1   C20 6188   2.307   6.137   4.475  0.2970 -0.0067  0.7071
   68CHL1   H20 6189   2.211   6.080   4.474  0.0982  0.3298  0.3513
   68CHL1   C21 6190   2.265   6.284   4.468  0.3306 -0.2025 -0.0895
   68CHL1  H21A 6191   2.215   6.310   4.373  0.8754 -0.4468 -0.4447
   68CHL1  H21B 6192   2.360   6.340   4.477 -0.3973  0.8561  1.3748
   68CHL1  H21C 6193   2.192   6.314   4.547 -1.9400  0.3786 -2.2896
   68CHL1   C22 6194   2.385   6.108   4.601 -0.6993  0.2327 -0.4940
   68CHL1  H22A 6195   2.433   6.008   4.610  0.8713  0.9584 -0.5375
   68CHL1  H22B 6196   2.469   6.180   4.604  0.4787 -0.9393 -2.8329
   68CHL1   C23 6197   2.296   6.123   4.728  0.2017 -0.1738  0.6771
   68CHL1  H23A 6198   2.267   6.230   4.739  1.3907  0.4951 -1.8247
   68CHL1  H23B 6199   2.211   6.054   4.710 -0.9877  1.1729  0.9963
   68CHL1   C24 6200   2.379   6.078   4.855  0.3286  0.7278  0.1004
   68CHL1  H24A 6201   2.303   6.058   4.933 -1.6767 -1.4969 -2.2290
   68CHL1  H24B 6202   2.425   5.981   4.829 -0.2101  0.4817  0.0367
   68CHL1   C25 6203   2.479   6.177   4.912  0.2646  0.3614 -0.5257
   68CHL1   H25 6204   2.541   6.227   4.833  0.8795  1.3906  0.5740
   68CHL1   C26 6205   2.412   6.294   4.982  0.3808 -0.3669 -0.2352
   68CHL1  H26A 6206   2.483   6.375   5.009  0.9181 -0.2509 -1.8517
   68CHL1  H26B 6207   2.329   6.337   4.921  1.9610  0.9023 -1.6049
   68CHL1  H26C 6208   2.366   6.255   5.075 -1.1308 -1.3857 -1.3539
   68CHL1   C27 6209   2.584   6.109   4.999 -0.4163  0.4535 -0.8493
   68CHL1  H27A 6210   2.529   6.037   5.062  0.4559  1.0615  0.6517
   68CHL1  H27B 6211   2.657   6.048   4.941  0.8264  1.3541 -0.2922
   68CHL1  H27C 6212   2.647   6.179   5.058 -0.0528  1.1980 -2.0814
   69CHL1    C3 6213   1.743   5.958   3.619 -0.5574 -0.1433  0.2934
   69CHL1    H3 6214   1.852   5.977   3.619  0.0455 -2.6906 -2.7601
   69CHL1    O3 6215   1.700   5.918   3.494  0.5529 -0.2440  0.7347
   69CHL1   H3' 6216   1.606   5.901   3.505 -0.1773  2.6949 -0.0450
   69CHL1    C4 6217   1.706   5.851   3.726  0.3152  0.3283  0.1763
   69CHL1   H4A 6218   1.600   5.825   3.705  0.3304  0.3515  0.0665
   69CHL1   H4B 6219   1.757   5.757   3.696 -2.3416 -0.8422 -0.9892
   69CHL1    C5 6220   1.730   5.892   3.871  0.3469  0.2675  0.3880
   69CHL1    C6 6221   1.811   5.815   3.957 -0.4399 -0.2428  0.6885
   69CHL1    H6 6222   1.839   5.716   3.919 -0.4401  0.6100 -1.7667
   69CHL1    C7 6223   1.843   5.863   4.094 -0.0622  0.3026 -0.6310
   69CHL1   H7A 6224   1.817   5.787   4.171  0.0486 -0.1197 -1.0086
   69CHL1   H7B 6225   1.946   5.885   4.129 -0.7032  0.1129  1.5680
   69CHL1    C8 6226   1.764   5.980   4.152  0.1178  0.1200 -0.3633
   69CHL1    H8 6227   1.664   5.945   4.185  0.0834  0.5540  0.0143
   69CHL1   C14 6228   1.832   6.039   4.274 -0.2619  0.1025  1.3927
   69CHL1   H14 6229   1.927   6.075   4.230 -0.6333 -0.2945  0.2337
   69CHL1   C15 6230   1.871   5.949   4.392  0.8844 -0.0874 -0.4652
   69CHL1  H15A 6231   1.779   5.891   4.415 -0.5792  2.6668  1.1899
   69CHL1  H15B 6232   1.960   5.884   4.377  1.5640  0.5367  0.6816
   69CHL1   C16 6233   1.895   6.050   4.505  0.2840 -0.5455 -0.1741
   69CHL1  H16A 6234   1.835   6.029   4.597  2.1947  0.4741  1.3873
   69CHL1  H16B 6235   2.003   6.043   4.529  0.0639 -1.2567  0.7037
   69CHL1   C17 6236   1.850   6.193   4.450 -0.7462 -0.5330  0.0634
   69CHL1   H17 6237   1.943   6.247   4.423 -0.8688  1.0081  2.4141
   69CHL1   C13 6238   1.767   6.163   4.327  0.4101  0.5846  0.2328
   69CHL1   C18 6239   1.619   6.134   4.369  0.8565 -0.1116 -0.7680
   69CHL1  H18A 6240   1.555   6.090   4.290  0.9490 -1.6752 -0.0018
   69CHL1  H18B 6241   1.617   6.065   4.456 -1.7491  0.7150 -0.0972
   69CHL1  H18C 6242   1.559   6.224   4.393  0.4031 -0.3166 -1.1320
   69CHL1   C12 6243   1.757   6.269   4.219 -0.2749  0.3577  0.5931
   69CHL1  H12A 6244   1.718   6.364   4.260 -1.1780 -0.2944  1.3032
   69CHL1  H12B 6245   1.861   6.283   4.183 -0.0979 -0.3279  0.8118
   69CHL1   C11 6246   1.671   6.216   4.097 -0.5241 -0.6086 -0.5460
   69CHL1  H11A 6247   1.561   6.208   4.114 -0.4159 -0.7344  0.1295
   69CHL1  H11B 6248   1.680   6.281   4.008 -0.5257 -1.1020 -0.9138
   69CHL1    C9 6249   1.744   6.087   4.044  0.4800  0.5842  1.6908
   69CHL1    H9 6250   1.848   6.116   4.017  0.6614 -1.4824 -0.1364
   69CHL1   C10 6251   1.676   6.032   3.912  0.8484  0.2917 -0.3991
   69CHL1   C19 6252   1.526   6.001   3.935  0.2261 -0.0946 -0.5718
   69CHL1  H19A 6253   1.524   5.946   4.032  1.8489 -1.2614 -1.1437
   69CHL1  H19B 6254   1.468   6.096   3.936 -1.1449 -0.8883 -1.5785
   69CHL1  H19C 6255   1.472   5.938   3.861 -1.2333  0.2842  0.1491
   69CHL1    C1 6256   1.705   6.136   3.798 -0.0419 -0.1023 -0.2472
   69CHL1   H1A 6257   1.654   6.233   3.818 -2.8909 -0.8871 -2.8362
   69CHL1   H1B 6258   1.813   6.162   3.802  0.5686 -2.4112 -0.3140
   69CHL1    C2 6259   1.673   6.090   3.653  0.4226 -0.6615  0.2639
   69CHL1   H2A 6260   1.692   6.173   3.581  1.3440 -0.8560  0.2713
   69CHL1   H2B 6261   1.564   6.071   3.658 -0.0557  1.7574  0.6094
   69CHL1   C20 6262   1.791   6.285   4.559 -0.3855 -0.0720 -0.5290
   69CHL1   H20 6263   1.699   6.249   4.609 -0.7486  1.2181 -0.2132
   69CHL1   C21 6264   1.755   6.420   4.497  0.3003 -0.1031 -0.1113
   69CHL1  H21A 6265   1.665   6.428   4.433 -0.0517 -3.3210 -0.1541
   69CHL1  H21B 6266   1.831   6.457   4.424 -0.0592  0.6875 -0.0936
   69CHL1  H21C 6267   1.744   6.503   4.570  0.3449 -0.5151  0.3679
   69CHL1   C22 6268   1.890   6.305   4.680 -0.3755  0.2640  0.1875
   69CHL1  H22A 6269   1.920   6.208   4.725  0.9187  0.8909  0.7124
   69CHL1  H22B 6270   1.989   6.342   4.647 -0.3720 -0.8406 -1.1568
   69CHL1   C23 6271   1.834   6.389   4.797 -0.1535 -0.0213 -0.8046
   69CHL1  H23A 6272   1.793   6.487   4.766  0.3932  0.1650 -0.9457
   69CHL1  H23B 6273   1.753   6.331   4.845  0.0226  2.0291  2.2879
   69CHL1   C24 6274   1.937   6.422   4.909 -0.1607 -0.0039 -0.3771
   69CHL1  H24A 6275   2.010   6.344   4.937  0.7677  1.1177  0.4420
   69CHL1  H24B 6276   1.999   6.509   4.878 -1.4904  0.9167 -0.5636
   69CHL1   C25 6277   1.869   6.487   5.035  0.0550 -0.0572  0.1355
   69CHL1   H25 6278   1.805   6.570   4.999  0.8194 -0.6369 -2.8712
   69CHL1   C26 6279   1.784   6.380   5.112 -0.5594 -0.0633  0.0427
   69CHL1  H26A 6280   1.848   6.293   5.137 -0.4169 -0.1475 -0.5940
   69CHL1  H26B 6281   1.744   6.430   5.202  0.3231  1.8891 -0.5979
   69CHL1  H26C 6282   1.693   6.351   5.054 -0.4153 -1.0042  0.2754
   69CHL1   C27 6283   1.965   6.534   5.141  0.2498 -0.0195 -0.3859
   69CHL1  H27A 6284   1.910   6.598   5.213  1.0251  1.6109 -1.1921
   69CHL1  H27B 6285   2.018   6.455   5.198 -0.0332 -0.8479 -1.2438
   69CHL1  H27C 6286   2.041   6.602   5.097  0.2966  0.4584  0.4216
   70CHL1    C3 6287   4.072   6.516   3.218 -0.0751  0.2368  0.3239
   70CHL1    H3 6288   4.000   6.598   3.237 -0.2304 -0.0439  0.9666
   70CHL1    O3 6289   4.076   6.506   3.082  0.1669  0.6645  0.0473
   70CHL1   H3' 6290   4.149   6.447   3.060  0.5370  1.1868 -0.1417
   70CHL1    C4 6291   4.215   6.552   3.266 -0.1432 -1.1575 -0.8726
   70CHL1   H4A 6292   4.283   6.476   3.221  2.7407  1.6399 -1.6380
   70CHL1   H4B 6293   4.230   6.654   3.225  3.5719 -1.0141  0.4861
   70CHL1    C5 6294   4.229   6.552   3.420  0.0312 -0.2626  0.0807
   70CHL1    C6 6295   4.264   6.660   3.488  0.0172  0.1082 -0.1240
   70CHL1    H6 6296   4.306   6.753   3.447  0.7259 -1.1111 -2.3494
   70CHL1    C7 6297   4.270   6.673   3.639  0.1599  1.5822  0.0295
   70CHL1   H7A 6298   4.375   6.703   3.661  1.1530  1.2972 -3.7126
   70CHL1   H7B 6299   4.195   6.745   3.679 -1.8096  0.5636 -1.6153
   70CHL1    C8 6300   4.255   6.526   3.707  0.0380  0.1869  1.3646
   70CHL1    H8 6301   4.354   6.476   3.697  1.0733  2.0150  2.0406
   70CHL1   C14 6302   4.221   6.542   3.854  0.1445  0.0584  0.5284
   70CHL1   H14 6303   4.125   6.597   3.864 -0.2150 -0.4709  0.0123
   70CHL1   C15 6304   4.325   6.627   3.928  0.0640  0.0646 -0.4544
   70CHL1  H15A 6305   4.427   6.587   3.913  0.6021  0.5183  1.6055
   70CHL1  H15B 6306   4.313   6.737   3.912 -1.2016 -0.3253 -2.6034
   70CHL1   C16 6307   4.293   6.585   4.077 -0.2179 -1.0611 -0.3522
   70CHL1  H16A 6308   4.384   6.544   4.126  1.1240  1.2075 -0.8406
   70CHL1  H16B 6309   4.278   6.672   4.144  0.6715 -1.1066 -0.0909
   70CHL1   C17 6310   4.181   6.478   4.069 -0.4591 -0.3516  0.4653
   70CHL1   H17 6311   4.084   6.531   4.066 -1.3855 -2.0022  0.5144
   70CHL1   C13 6312   4.196   6.416   3.928 -0.1533  0.1734 -0.2435
   70CHL1   C18 6313   4.316   6.326   3.937  0.8634 -0.4029 -0.4114
   70CHL1  H18A 6314   4.391   6.365   4.010  2.5039 -1.1340 -1.6449
   70CHL1  H18B 6315   4.278   6.229   3.975 -0.8014  0.4989  0.3862
   70CHL1  H18C 6316   4.365   6.305   3.840  0.2336  0.5797 -0.9611
   70CHL1   C12 6317   4.078   6.342   3.864  0.1373  0.2006  0.3079
   70CHL1  H12A 6318   4.068   6.239   3.904 -0.2390 -1.2859 -3.2737
   70CHL1  H12B 6319   3.985   6.401   3.881 -0.1454  1.3505 -4.1091
   70CHL1   C11 6320   4.098   6.314   3.712  0.6208 -0.2254  0.3882
   70CHL1  H11A 6321   4.188   6.249   3.716  1.2703  0.5948 -0.4571
   70CHL1  H11B 6322   4.021   6.252   3.661  1.5328 -3.2279  2.4490
   70CHL1    C9 6323   4.149   6.441   3.631 -0.1827 -0.4166  0.0052
   70CHL1    H9 6324   4.064   6.512   3.634 -1.5668 -1.9069 -1.6077
   70CHL1   C10 6325   4.169   6.420   3.476 -1.0471  0.7165 -0.4178
   70CHL1   C19 6326   4.261   6.298   3.445 -0.4382  0.0999  0.0571
   70CHL1  H19A 6327   4.208   6.205   3.474  0.0548  0.4247  2.1829
   70CHL1  H19B 6328   4.278   6.296   3.335  1.7366  0.9083  0.3254
   70CHL1  H19C 6329   4.357   6.297   3.502 -0.2105  1.8137 -0.2297
   70CHL1    C1 6330   4.030   6.387   3.418 -0.2344  0.2334  0.0387
   70CHL1   H1A 6331   3.997   6.286   3.450  1.0731  0.2472  1.5342
   70CHL1   H1B 6332   3.958   6.460   3.459 -0.0095 -0.0995  1.0396
   70CHL1    C2 6333   4.020   6.383   3.265 -0.7842 -0.4289  0.1733
   70CHL1   H2A 6334   3.916   6.368   3.232 -1.5082  1.5632  1.3541
   70CHL1   H2B 6335   4.098   6.314   3.225  1.2598  0.8393  1.7163
   70CHL1   C20 6336   4.177   6.393   4.203 -0.6635  0.4886  0.0631
   70CHL1   H20 6337   4.271   6.337   4.225 -0.7060  0.2338 -0.4002
   70CHL1   C21 6338   4.066   6.291   4.188 -0.1067  0.6384  0.1379
   70CHL1  H21A 6339   3.972   6.349   4.186  1.3525  3.1088 -1.4690
   70CHL1  H21B 6340   4.069   6.218   4.272 -0.6850 -1.5622 -1.6506
   70CHL1  H21C 6341   4.079   6.232   4.095  0.2889 -0.9759  1.1601
   70CHL1   C22 6342   4.150   6.485   4.333 -0.3024 -0.4210 -0.1348
   70CHL1  H22A 6343   4.238   6.553   4.332  1.0166 -2.0523 -1.4404
   70CHL1  H22B 6344   4.049   6.532   4.326 -0.3774 -0.7762 -2.8729
   70CHL1   C23 6345   4.155   6.403   4.461  0.0309  1.1474 -0.0986
   70CHL1  H23A 6346   4.076   6.325   4.455  1.8606 -0.8178  0.1640
   70CHL1  H23B 6347   4.258   6.362   4.464 -0.5981 -0.5329 -0.3554
   70CHL1   C24 6348   4.132   6.485   4.590  0.3765 -0.6817  0.0119
   70CHL1  H24A 6349   4.214   6.560   4.596 -1.3447  1.4756 -1.7204
   70CHL1  H24B 6350   4.047   6.550   4.562  0.0473 -1.3163 -0.4983
   70CHL1   C25 6351   4.091   6.405   4.712  0.2493  0.0559 -0.1659
   70CHL1   H25 6352   4.000   6.350   4.680  1.9198 -3.2161  0.3269
   70CHL1   C26 6353   4.197   6.307   4.760  0.5212 -0.3701 -0.9092
   70CHL1  H26A 6354   4.287   6.368   4.781  0.0259  0.3369 -0.8103
   70CHL1  H26B 6355   4.151   6.269   4.853  0.5566  2.6297  0.4522
   70CHL1  H26C 6356   4.208   6.226   4.684  3.2261 -2.5813  1.5935
   70CHL1   C27 6357   4.051   6.513   4.816 -0.1197 -0.0714  0.3699
   70CHL1  H27A 6358   3.974   6.471   4.883  0.5501  0.8244  1.7515
   70CHL1  H27B 6359   4.143   6.550   4.866  0.3137  0.8150 -0.9966
   70CHL1  H27C 6360   4.006   6.598   4.760 -1.1919  0.6533  2.2478
   71CHL1    C3 6361   1.112   6.394   3.851  0.7629 -0.0716 -0.2112
   71CHL1    H3 6362   1.081   6.499   3.871 -2.4031 -0.6258 -1.7375
   71CHL1    O3 6363   1.106   6.386   3.707  0.2292  0.1852 -0.2565
   71CHL1   H3' 6364   1.189   6.350   3.676  1.1564  1.1706  0.9624
   71CHL1    C4 6365   1.252   6.362   3.901 -0.1927 -0.1201  0.0313
   71CHL1   H4A 6366   1.272   6.263   3.856  0.5929  0.0388  0.0245
   71CHL1   H4B 6367   1.321   6.429   3.845 -0.1090  0.0671  0.3518
   71CHL1    C5 6368   1.270   6.373   4.050  0.1548  0.4636 -0.2224
   71CHL1    C6 6369   1.362   6.449   4.108 -0.1267 -0.1610  0.3652
   71CHL1    H6 6370   1.426   6.507   4.040 -1.1414  0.0329 -0.4605
   71CHL1    C7 6371   1.389   6.468   4.256  0.3541 -0.6890  0.0725
   71CHL1   H7A 6372   1.493   6.455   4.291  0.2491  1.6907  1.4715
   71CHL1   H7B 6373   1.366   6.575   4.272 -0.7349 -0.8810 -0.1293
   71CHL1    C8 6374   1.295   6.367   4.337 -0.6766 -0.1774 -0.3259
   71CHL1    H8 6375   1.344   6.267   4.332  0.5109  0.3211  0.8655
   71CHL1   C14 6376   1.284   6.410   4.484 -1.0774 -0.3474 -0.2021
   71CHL1   H14 6377   1.226   6.503   4.467  0.7080  0.7094 -0.7291
   71CHL1   C15 6378   1.410   6.454   4.570 -1.2528  0.2469 -0.5904
   71CHL1  H15A 6379   1.492   6.380   4.551 -0.2644  1.4901 -1.3527
   71CHL1  H15B 6380   1.438   6.553   4.527  1.1946 -0.1375 -0.0707
   71CHL1   C16 6381   1.364   6.441   4.715 -0.0711  0.1942  0.0038
   71CHL1  H16A 6382   1.433   6.373   4.769 -1.6657 -1.5425 -0.0442
   71CHL1  H16B 6383   1.354   6.541   4.761 -0.3668  0.9819 -1.6787
   71CHL1   C17 6384   1.215   6.377   4.710  0.1552 -0.2552 -0.8374
   71CHL1   H17 6385   1.148   6.465   4.708  0.1628 -0.2373 -0.5038
   71CHL1   C13 6386   1.204   6.315   4.573  0.0575  0.5950  0.0390
   71CHL1   C18 6387   1.260   6.171   4.567 -0.2250  0.3288 -0.3966
   71CHL1  H18A 6388   1.201   6.113   4.642 -0.2457  1.1573  0.2307
   71CHL1  H18B 6389   1.270   6.124   4.467  1.0764 -0.1103 -0.0809
   71CHL1  H18C 6390   1.364   6.171   4.605 -0.5825  0.7544  0.6128
   71CHL1   C12 6391   1.056   6.303   4.522 -0.2365 -0.2943  0.2535
   71CHL1  H12A 6392   0.999   6.230   4.584  0.8897 -1.8516 -0.4741
   71CHL1  H12B 6393   1.013   6.405   4.535  1.2736  0.2098  1.7787
   71CHL1   C11 6394   1.057   6.272   4.374 -0.3051  0.1283  0.2444
   71CHL1  H11A 6395   1.079   6.163   4.364  3.6229  0.7415  0.5963
   71CHL1  H11B 6396   0.952   6.291   4.341 -0.1107 -0.3757 -0.7260
   71CHL1    C9 6397   1.152   6.351   4.280 -0.4042 -0.6265  0.2577
   71CHL1    H9 6398   1.108   6.453   4.272  1.7456  0.2221 -3.6901
   71CHL1   C10 6399   1.157   6.303   4.134 -0.6533  0.3025 -0.9308
   71CHL1   C19 6400   1.195   6.153   4.125 -0.4678  0.5152  0.5650
   71CHL1  H19A 6401   1.114   6.085   4.160 -0.3890  0.2136  0.1660
   71CHL1  H19B 6402   1.199   6.124   4.018 -0.3335  1.6459  0.2547
   71CHL1  H19C 6403   1.293   6.135   4.173  0.9484  0.6968 -2.1193
   71CHL1    C1 6404   1.016   6.339   4.077  0.5365 -0.6174 -0.4625
   71CHL1   H1A 6405   0.935   6.281   4.125 -0.7524 -0.2810 -2.1090
   71CHL1   H1B 6406   0.998   6.446   4.101 -1.6868 -1.0753  0.1002
   71CHL1    C2 6407   1.004   6.315   3.929 -0.7369 -0.2417  0.7882
   71CHL1   H2A 6408   0.904   6.343   3.890 -1.0062 -2.9927 -0.7307
   71CHL1   H2B 6409   1.029   6.207   3.919 -0.3972 -0.3894  2.7694
   71CHL1   C20 6410   1.178   6.295   4.835 -0.2736 -0.1707  0.1370
   71CHL1   H20 6411   1.227   6.195   4.823  2.5823  1.2019 -0.6705
   71CHL1   C21 6412   1.029   6.267   4.858 -0.2623 -0.8701 -0.3659
   71CHL1  H21A 6413   1.001   6.253   4.965  1.8553  0.9539  0.4950
   71CHL1  H21B 6414   0.993   6.178   4.802  0.8333 -1.1730 -0.6135
   71CHL1  H21C 6415   0.964   6.348   4.819 -1.9012 -3.2245 -2.9714
   71CHL1   C22 6416   1.235   6.355   4.967  0.1144  0.2143 -0.3081
   71CHL1  H22A 6417   1.208   6.279   5.044  0.7127 -0.1869 -0.4834
   71CHL1  H22B 6418   1.346   6.357   4.979  0.0150 -0.5379  0.8902
   71CHL1   C23 6419   1.176   6.487   5.016 -0.0376  0.0616  0.4159
   71CHL1  H23A 6420   1.187   6.565   4.938  0.2344  1.4648  1.8064
   71CHL1  H23B 6421   1.065   6.482   5.022  0.0622 -0.6731  2.3554
   71CHL1   C24 6422   1.243   6.535   5.144 -0.5678 -0.5037  0.0893
   71CHL1  H24A 6423   1.271   6.447   5.207 -2.3336  0.2498  2.0283
   71CHL1  H24B 6424   1.338   6.591   5.131 -0.2442 -0.4406  2.3186
   71CHL1   C25 6425   1.151   6.619   5.230  0.2622  0.3424  0.4200
   71CHL1   H25 6426   1.072   6.559   5.279  1.8543 -1.6007  0.7288
   71CHL1   C26 6427   1.228   6.673   5.355 -0.1186 -0.2562 -1.2277
   71CHL1  H26A 6428   1.156   6.722   5.424  0.7699 -0.6613  0.0319
   71CHL1  H26B 6429   1.285   6.591   5.405 -0.4603 -0.5988 -1.3969
   71CHL1  H26C 6430   1.301   6.749   5.320 -0.4965 -0.2085 -1.9344
   71CHL1   C27 6431   1.096   6.728   5.153  0.0002  0.4174 -0.1268
   71CHL1  H27A 6432   1.034   6.794   5.217  0.0648  3.4679 -2.9098
   71CHL1  H27B 6433   1.179   6.785   5.105 -0.0489  0.7851  0.2205
   71CHL1  H27C 6434   1.034   6.694   5.068 -1.5203  0.5799  0.8749
   72CHL1    C3 6435   1.600   4.611   3.261 -0.1063 -0.6890 -0.0202
   72CHL1    H3 6436   1.707   4.583   3.260 -0.1215 -0.7591  0.2811
   72CHL1    O3 6437   1.554   4.620   3.125  0.5001  0.5503  0.8924
   72CHL1   H3' 6438   1.467   4.658   3.137 -0.4568 -1.0480 -0.5321
   72CHL1    C4 6439   1.511   4.513   3.342  0.5821  0.0672 -0.0713
   72CHL1   H4A 6440   1.409   4.537   3.306  1.0897  0.4813 -1.3148
   72CHL1   H4B 6441   1.534   4.412   3.299  0.1105 -1.0484  2.1832
   72CHL1    C5 6442   1.517   4.527   3.491 -0.2546  0.5997  0.1711
   72CHL1    C6 6443   1.543   4.415   3.572  0.4620 -0.2834  0.5389
   72CHL1    H6 6444   1.550   4.318   3.520  1.7899 -0.0740  0.2754
   72CHL1    C7 6445   1.548   4.416   3.721  0.4906  0.0899  0.1955
   72CHL1   H7A 6446   1.502   4.329   3.773  0.7344 -0.0353  0.2016
   72CHL1   H7B 6447   1.653   4.409   3.757  0.0051  1.4173  1.9920
   72CHL1    C8 6448   1.489   4.552   3.776 -0.5817  0.4839  0.2422
   72CHL1    H8 6449   1.378   4.545   3.766 -0.5858  1.9986 -1.1868
   72CHL1   C14 6450   1.533   4.572   3.921 -0.0712 -0.4761 -0.7983
   72CHL1   H14 6451   1.644   4.573   3.925 -0.0968 -0.9364  0.8915
   72CHL1   C15 6452   1.497   4.458   4.017  0.0913  0.1532  0.2603
   72CHL1  H15A 6453   1.407   4.406   3.979 -0.2521  0.7482  0.2550
   72CHL1  H15B 6454   1.587   4.392   4.013  0.9613  1.3651 -1.6427
   72CHL1   C16 6455   1.487   4.531   4.152 -0.9161 -0.3882  0.0449
   72CHL1  H16A 6456   1.382   4.533   4.187 -0.2839 -1.0270  2.1447
   72CHL1  H16B 6457   1.551   4.491   4.234 -1.7488 -0.1948  0.8062
   72CHL1   C17 6458   1.531   4.678   4.131 -0.4893 -0.2952 -0.0272
   72CHL1   H17 6459   1.642   4.673   4.128 -0.3887  0.7685  1.0663
   72CHL1   C13 6460   1.491   4.708   3.988  0.4314  0.1187  0.3191
   72CHL1   C18 6461   1.332   4.721   3.971 -0.1479  0.0722  0.5075
   72CHL1  H18A 6462   1.324   4.731   3.861  0.3836  1.7238  0.5801
   72CHL1  H18B 6463   1.270   4.634   3.999 -1.4594  0.9280  0.3381
   72CHL1  H18C 6464   1.296   4.821   4.005  1.4686  0.5121  1.0566
   72CHL1   C12 6465   1.568   4.819   3.920  0.8279  0.6046 -0.6047
   72CHL1  H12A 6466   1.526   4.911   3.963  0.3421 -0.4060  1.1718
   72CHL1  H12B 6467   1.677   4.818   3.943  0.4048 -1.6219  1.8660
   72CHL1   C11 6468   1.546   4.816   3.770  0.0351 -0.0905  0.1686
   72CHL1  H11A 6469   1.450   4.866   3.746  0.1694  0.3787  0.5860
   72CHL1  H11B 6470   1.623   4.883   3.727 -2.9304  2.2369 -2.0383
   72CHL1    C9 6471   1.544   4.677   3.695  0.1230 -0.8041 -0.3564
   72CHL1    H9 6472   1.652   4.654   3.689  0.1699 -0.2398 -1.9374
   72CHL1   C10 6473   1.510   4.671   3.546  0.0522 -0.4415  0.1089
   72CHL1   C19 6474   1.355   4.717   3.545 -0.1606 -0.3393  0.2283
   72CHL1  H19A 6475   1.331   4.816   3.588 -0.6317  0.4105 -1.6450
   72CHL1  H19B 6476   1.313   4.719   3.442 -1.6312  0.1592  0.8207
   72CHL1  H19C 6477   1.302   4.646   3.611 -2.1082  0.0016 -0.8832
   72CHL1    C1 6478   1.608   4.761   3.468  0.2158 -0.2855 -0.3511
   72CHL1   H1A 6479   1.592   4.868   3.495 -0.7772  0.5539 -3.7348
   72CHL1   H1B 6480   1.714   4.736   3.489  0.3167 -0.9043 -1.4964
   72CHL1    C2 6481   1.581   4.751   3.317 -0.2969 -0.5709  0.0930
   72CHL1   H2A 6482   1.652   4.820   3.269  0.0215 -0.0850  1.2205
   72CHL1   H2B 6483   1.479   4.791   3.297 -0.2108 -0.2962  0.1992
   72CHL1   C20 6484   1.492   4.781   4.239  0.4396  0.1517 -0.8165
   72CHL1   H20 6485   1.392   4.817   4.209  1.3195  1.1377 -2.7518
   72CHL1   C21 6486   1.593   4.900   4.240 -0.1824 -0.6157 -0.6092
   72CHL1  H21A 6487   1.692   4.869   4.279 -0.1487 -1.4562 -1.3368
   72CHL1  H21B 6488   1.556   4.974   4.315 -0.7974 -1.1544 -0.3684
   72CHL1  H21C 6489   1.588   4.954   4.143  0.3874 -2.0552 -1.4725
   72CHL1   C22 6490   1.487   4.724   4.378 -0.1110  0.4198  0.4196
   72CHL1  H22A 6491   1.436   4.799   4.443  0.0862 -1.0264  2.3374
   72CHL1  H22B 6492   1.412   4.643   4.377 -0.8270  1.0302  1.5193
   72CHL1   C23 6493   1.614   4.682   4.444 -0.5567  0.2654  0.3643
   72CHL1  H23A 6494   1.665   4.628   4.362 -2.3656 -1.2801  0.1805
   72CHL1  H23B 6495   1.669   4.774   4.472  0.1615  0.1484 -0.6225
   72CHL1   C24 6496   1.592   4.582   4.557  0.2838  0.1711 -0.5561
   72CHL1  H24A 6497   1.514   4.619   4.626 -0.0653  0.3526 -1.0486
   72CHL1  H24B 6498   1.541   4.492   4.517  1.2965 -0.3784 -0.6610
   72CHL1   C25 6499   1.715   4.528   4.626 -0.5439 -0.1047 -0.4183
   72CHL1   H25 6500   1.786   4.480   4.555 -0.0292 -1.6829  1.0695
   72CHL1   C26 6501   1.780   4.650   4.702 -0.3632  0.5172  0.2659
   72CHL1  H26A 6502   1.823   4.728   4.635 -1.6567  1.4229  0.4291
   72CHL1  H26B 6503   1.714   4.697   4.778 -0.3089  0.4149  0.3767
   72CHL1  H26C 6504   1.870   4.614   4.756 -0.3382  0.7286  0.3691
   72CHL1   C27 6505   1.685   4.431   4.743  0.4668 -0.3287 -0.3380
   72CHL1  H27A 6506   1.768   4.358   4.758  0.5277  0.0810  1.6648
   72CHL1  H27B 6507   1.663   4.490   4.834  0.5670 -0.2548 -0.3611
   72CHL1  H27C 6508   1.595   4.370   4.719  0.2492 -0.2765  0.3224
   73CHL1    C3 6509   2.511   5.408   3.700  0.0821 -0.1627 -0.1305
   73CHL1    H3 6510   2.587   5.489   3.711  0.9409 -1.1202  1.3386
   73CHL1    O3 6511   2.535   5.338   3.584  0.3772  0.1872  0.8983
   73CHL1   H3' 6512   2.458   5.350   3.528  1.1204  3.5838  0.4331
   73CHL1    C4 6513   2.538   5.307   3.819 -0.5491 -0.4115  0.3782
   73CHL1   H4A 6514   2.503   5.207   3.788 -2.5900  0.8059 -1.4873
   73CHL1   H4B 6515   2.649   5.307   3.813 -0.5556  0.0395  0.1870
   73CHL1    C5 6516   2.484   5.346   3.952 -0.2439 -0.3374  0.3771
   73CHL1    C6 6517   2.558   5.349   4.061 -0.1361 -0.5609 -0.3118
   73CHL1    H6 6518   2.662   5.311   4.059 -0.7317 -2.2719 -1.9079
   73CHL1    C7 6519   2.513   5.389   4.199  0.2662 -0.5154 -0.3002
   73CHL1   H7A 6520   2.542   5.307   4.268 -0.2784 -0.8937 -0.5233
   73CHL1   H7B 6521   2.564   5.481   4.236  2.4649 -2.7146  2.5689
   73CHL1    C8 6522   2.356   5.405   4.205  0.3999 -0.3815  1.0128
   73CHL1    H8 6523   2.307   5.305   4.206  0.8149 -0.5968  0.3018
   73CHL1   C14 6524   2.313   5.478   4.330 -0.2520  0.2559 -0.0787
   73CHL1   H14 6525   2.348   5.580   4.304 -0.3606  0.0969 -0.8539
   73CHL1   C15 6526   2.382   5.436   4.467 -0.2672  0.4268  0.1729
   73CHL1  H15A 6527   2.390   5.326   4.478 -2.7379  0.0483 -1.0255
   73CHL1  H15B 6528   2.484   5.477   4.454  0.6781 -1.8802 -0.1230
   73CHL1   C16 6529   2.293   5.510   4.571 -0.3003 -0.7818  0.3196
   73CHL1  H16A 6530   2.249   5.439   4.644  1.3473  0.5575  2.7433
   73CHL1  H16B 6531   2.348   5.591   4.623  2.2739  0.0890 -3.3177
   73CHL1   C17 6532   2.173   5.586   4.485  0.1414  0.1477 -0.0020
   73CHL1   H17 6533   2.216   5.682   4.449 -1.7440  1.4192  0.9725
   73CHL1   C13 6534   2.166   5.505   4.351 -0.4265 -0.4478 -1.1104
   73CHL1   C18 6535   2.102   5.365   4.372  0.3466  0.2959  0.1834
   73CHL1  H18A 6536   1.993   5.371   4.390 -0.1813 -1.5214 -2.0209
   73CHL1  H18B 6537   2.110   5.302   4.281  0.5173  0.0604  0.3608
   73CHL1  H18C 6538   2.148   5.309   4.456 -1.8748 -2.5409 -0.3611
   73CHL1   C12 6539   2.103   5.577   4.231  0.5632  0.2971 -0.0516
   73CHL1  H12A 6540   1.992   5.570   4.239  0.4806  0.9827 -0.5237
   73CHL1  H12B 6541   2.126   5.685   4.219 -1.5616  0.5846 -2.8369
   73CHL1   C11 6542   2.143   5.505   4.094 -0.1549  0.6510 -0.2610
   73CHL1  H11A 6543   2.082   5.414   4.077 -0.1623  0.2081  1.8049
   73CHL1  H11B 6544   2.112   5.573   4.012  2.1587  1.8355 -0.2330
   73CHL1    C9 6545   2.296   5.476   4.081 -1.2543 -0.4561  0.8701
   73CHL1    H9 6546   2.343   5.576   4.079  0.7768 -1.3816  0.5046
   73CHL1   C10 6547   2.340   5.401   3.946 -0.6915  0.2729  0.1596
   73CHL1   C19 6548   2.256   5.282   3.920 -0.1835 -0.0811 -0.0066
   73CHL1  H19A 6549   2.250   5.215   4.007 -0.2770 -0.6760 -0.4664
   73CHL1  H19B 6550   2.152   5.306   3.887  0.0610 -1.3966 -1.9426
   73CHL1  H19C 6551   2.290   5.225   3.831  0.8592 -1.1988  1.0805
   73CHL1    C1 6552   2.331   5.506   3.835 -1.0730 -0.4611  0.3470
   73CHL1   H1A 6553   2.223   5.529   3.821 -0.4125  1.6662 -2.1938
   73CHL1   H1B 6554   2.379   5.600   3.869  2.8071 -2.3698  0.6850
   73CHL1    C2 6555   2.372   5.466   3.694 -0.4936 -0.4239  0.3213
   73CHL1   H2A 6556   2.378   5.556   3.629 -0.3249 -1.0270 -0.5071
   73CHL1   H2B 6557   2.296   5.401   3.648 -1.8793  0.9451  0.6081
   73CHL1   C20 6558   2.040   5.617   4.556  0.0893  0.5142 -0.6023
   73CHL1   H20 6559   1.956   5.626   4.483  0.2051 -1.0357 -0.9551
   73CHL1   C21 6560   2.062   5.749   4.636 -0.3322  0.0567 -0.0315
   73CHL1  H21A 6561   2.071   5.839   4.572 -1.9022  0.3434  0.1143
   73CHL1  H21B 6562   2.154   5.731   4.696  0.6937  0.8089 -1.3250
   73CHL1  H21C 6563   1.976   5.771   4.703 -1.3101 -1.6851 -0.6432
   73CHL1   C22 6564   1.985   5.505   4.653 -0.3059  0.0181  0.0827
   73CHL1  H22A 6565   1.984   5.400   4.618 -0.9902  0.0988 -0.1573
   73CHL1  H22B 6566   2.060   5.503   4.736 -0.0896  0.5015 -0.0963
   73CHL1   C23 6567   1.848   5.532   4.724  0.2445 -0.6097  0.0007
   73CHL1  H23A 6568   1.826   5.639   4.744 -2.5487 -1.2982  1.0310
   73CHL1  H23B 6569   1.778   5.512   4.640  0.8987  0.0395 -0.7221
   73CHL1   C24 6570   1.824   5.439   4.839  0.4966  0.5324 -0.2216
   73CHL1  H24A 6571   1.794   5.339   4.801  0.7366 -0.8494  2.9178
   73CHL1  H24B 6572   1.912   5.417   4.902 -0.9023  0.3788  1.7514
   73CHL1   C25 6573   1.703   5.480   4.922 -0.4156  0.1418  0.4552
   73CHL1   H25 6574   1.619   5.508   4.855  1.2052  2.1391 -0.8468
   73CHL1   C26 6575   1.664   5.362   5.020  0.5392  0.2457  0.1226
   73CHL1  H26A 6576   1.646   5.271   4.960  1.3577  0.2574 -0.1397
   73CHL1  H26B 6577   1.742   5.346   5.097  1.0322 -1.5973 -0.7167
   73CHL1  H26C 6578   1.573   5.382   5.081  0.6147 -3.4442  1.7284
   73CHL1   C27 6579   1.739   5.599   5.012 -0.5057  0.1005 -0.3395
   73CHL1  H27A 6580   1.810   5.566   5.091  0.9030  0.6176 -1.3363
   73CHL1  H27B 6581   1.787   5.682   4.955  1.9109 -0.0658  1.2740
   73CHL1  H27C 6582   1.642   5.630   5.055 -1.8976 -2.1643 -1.6433
   74CHL1    C3 6583   3.946   4.477   3.116  0.9048 -0.0468 -0.2276
   74CHL1    H3 6584   3.963   4.370   3.094  0.6887  0.2125 -1.8477
   74CHL1    O3 6585   3.935   4.531   2.983 -0.0962  0.1676  0.0948
   74CHL1   H3' 6586   3.914   4.625   2.978  0.3991  0.2516 -0.5390
   74CHL1    C4 6587   3.820   4.503   3.190 -0.2453  0.1670  0.0105
   74CHL1   H4A 6588   3.800   4.613   3.194  0.5155  0.2994  0.2798
   74CHL1   H4B 6589   3.739   4.450   3.135  2.5739 -1.6674 -2.6519
   74CHL1    C5 6590   3.822   4.432   3.328 -0.9176 -0.9119  1.0223
   74CHL1    C6 6591   3.738   4.338   3.370  0.0010 -0.2157  0.9564
   74CHL1    H6 6592   3.656   4.306   3.304  2.4053  0.4521 -2.6384
   74CHL1    C7 6593   3.730   4.281   3.509  0.2142  0.3413  0.4690
   74CHL1   H7A 6594   3.624   4.290   3.540 -0.2977 -1.6724 -0.5508
   74CHL1   H7B 6595   3.752   4.172   3.512  0.9595  0.4496 -0.5344
   74CHL1    C8 6596   3.823   4.353   3.608 -0.5117  0.7936  0.2877
   74CHL1    H8 6597   3.776   4.449   3.638 -2.0990  0.0047  0.4086
   74CHL1   C14 6598   3.848   4.270   3.737 -0.7163  0.5269  0.1114
   74CHL1   H14 6599   3.911   4.187   3.698  0.6734  0.4690  2.2651
   74CHL1   C15 6600   3.726   4.209   3.813 -0.3707  0.6656  0.1714
   74CHL1  H15A 6601   3.642   4.281   3.814  1.6757  3.2222 -0.5755
   74CHL1  H15B 6602   3.696   4.116   3.761 -0.1901  0.9403 -0.4261
   74CHL1   C16 6603   3.777   4.183   3.958 -0.4776 -0.6237 -0.2416
   74CHL1  H16A 6604   3.714   4.246   4.025  0.9982 -0.4801  1.0436
   74CHL1  H16B 6605   3.768   4.078   3.991  1.0818 -0.7205 -0.0723
   74CHL1   C17 6606   3.930   4.222   3.950 -0.1322 -0.7999  0.1861
   74CHL1   H17 6607   3.981   4.132   3.909  1.5152  0.7872 -1.4730
   74CHL1   C13 6608   3.936   4.332   3.844  0.4693 -0.3277  0.1339
   74CHL1   C18 6609   3.870   4.458   3.907  0.7594  0.6237  0.0384
   74CHL1  H18A 6610   3.768   4.441   3.950  1.0399 -2.2379 -0.2510
   74CHL1  H18B 6611   3.937   4.506   3.980 -0.1783  2.2550 -0.1328
   74CHL1  H18C 6612   3.868   4.543   3.836  0.3944  1.2522  0.7963
   74CHL1   C12 6613   4.070   4.368   3.781  0.6717 -0.1331  0.2671
   74CHL1  H12A 6614   4.133   4.427   3.852  0.0251  1.4643 -0.4274
   74CHL1  H12B 6615   4.120   4.271   3.760 -0.5997 -1.2079  1.9817
   74CHL1   C11 6616   4.063   4.446   3.649  0.3814 -0.0274 -0.2000
   74CHL1  H11A 6617   4.037   4.550   3.679  0.7549  0.1099 -0.3499
   74CHL1  H11B 6618   4.159   4.452   3.594  0.1020 -2.4458 -1.0795
   74CHL1    C9 6619   3.963   4.390   3.542  0.1225  0.5302  0.1378
   74CHL1    H9 6620   4.009   4.295   3.506  0.4284  1.1004 -1.0267
   74CHL1   C10 6621   3.946   4.478   3.414 -0.9854 -0.0185  0.0539
   74CHL1   C19 6622   3.901   4.620   3.464 -0.3435  0.5907  0.3824
   74CHL1  H19A 6623   3.986   4.663   3.521  0.8315 -2.4888  1.1979
   74CHL1  H19B 6624   3.887   4.696   3.385 -0.8312  2.0560  1.8335
   74CHL1  H19C 6625   3.805   4.609   3.519 -1.3237  0.0241 -1.3728
   74CHL1    C1 6626   4.081   4.488   3.322  0.4096 -0.0525 -0.0827
   74CHL1   H1A 6627   4.167   4.530   3.379  1.0416 -2.1542  0.5813
   74CHL1   H1B 6628   4.111   4.382   3.307  1.3648 -0.0214  1.4715
   74CHL1    C2 6629   4.062   4.547   3.186 -0.4244 -0.1818 -0.2927
   74CHL1   H2A 6630   4.159   4.538   3.132  0.3625  3.4533  0.2389
   74CHL1   H2B 6631   4.039   4.656   3.190 -1.5454 -0.4373  2.3251
   74CHL1   C20 6632   3.989   4.253   4.086 -0.3812 -0.3569 -0.4979
   74CHL1   H20 6633   3.956   4.350   4.127 -0.2806  0.3421 -2.0040
   74CHL1   C21 6634   4.142   4.254   4.075  0.1055 -0.1901  0.9111
   74CHL1  H21A 6635   4.186   4.160   4.037 -0.2753  0.3732 -1.0658
   74CHL1  H21B 6636   4.178   4.280   4.176 -0.7049  1.0550  0.9075
   74CHL1  H21C 6637   4.182   4.336   4.011 -2.0107 -0.6746 -1.2084
   74CHL1   C22 6638   3.958   4.141   4.193  0.9406 -0.7764 -0.0684
   74CHL1  H22A 6639   3.847   4.137   4.189  0.8935 -0.7386  0.9221
   74CHL1  H22B 6640   3.993   4.048   4.143  0.8046  0.3749 -2.4553
   74CHL1   C23 6641   3.996   4.178   4.341  0.0465  0.1652  0.3610
   74CHL1  H23A 6642   4.106   4.172   4.350  0.0247 -0.7925  0.0929
   74CHL1  H23B 6643   3.972   4.285   4.359  2.1263  0.6460  0.5176
   74CHL1   C24 6644   3.912   4.099   4.441 -0.2862  0.2051 -0.9420
   74CHL1  H24A 6645   3.807   4.137   4.442 -0.7334 -0.9498  0.5565
   74CHL1  H24B 6646   3.902   3.990   4.422  1.8235  0.4820 -4.3747
   74CHL1   C25 6647   3.968   4.107   4.585  0.2801 -0.3901  0.6079
   74CHL1   H25 6648   4.061   4.047   4.582  1.7420  1.8016 -0.5647
   74CHL1   C26 6649   4.014   4.248   4.625 -1.0517  0.5662  0.8825
   74CHL1  H26A 6650   3.943   4.323   4.584  0.2867  1.4554  0.1559
   74CHL1  H26B 6651   4.029   4.250   4.735 -0.4754 -2.2964  0.9411
   74CHL1  H26C 6652   4.113   4.265   4.578 -1.2355 -0.9800 -0.1201
   74CHL1   C27 6653   3.865   4.051   4.684 -0.3447 -0.0934 -0.3695
   74CHL1  H27A 6654   3.784   4.125   4.702  1.1638  1.8663 -1.2978
   74CHL1  H27B 6655   3.824   3.952   4.654 -2.7609  1.2367 -1.8015
   74CHL1  H27C 6656   3.906   4.031   4.785  0.5731  0.2069 -0.6718
   75CHL1    C3 6657   2.933   4.893   3.308 -0.6824 -0.3662 -0.7350
   75CHL1    H3 6658   3.009   4.821   3.272 -1.3610 -0.6088 -1.7259
   75CHL1    O3 6659   2.879   4.961   3.194 -0.2207 -0.5499  0.1039
   75CHL1   H3' 6660   2.786   4.974   3.215 -0.6736 -0.1404 -1.9941
   75CHL1    C4 6661   2.816   4.827   3.389  0.6432  0.3056 -0.7891
   75CHL1   H4A 6662   2.753   4.915   3.414  0.5983 -0.3261  1.5656
   75CHL1   H4B 6663   2.772   4.756   3.316 -0.3075  2.3576 -2.3035
   75CHL1    C5 6664   2.873   4.761   3.515 -0.0412  0.5239 -0.1958
   75CHL1    C6 6665   2.865   4.629   3.540 -0.6704 -0.0194  0.8616
   75CHL1    H6 6666   2.814   4.558   3.473  0.7063  0.1524 -0.4332
   75CHL1    C7 6667   2.921   4.570   3.670 -0.1700  0.0861  0.1512
   75CHL1   H7A 6668   2.855   4.486   3.701  0.5742 -0.9200 -0.8719
   75CHL1   H7B 6669   3.026   4.534   3.658 -0.1190  0.2020  0.2437
   75CHL1    C8 6670   2.918   4.674   3.789 -0.4387 -0.2375  0.6186
   75CHL1    H8 6671   2.816   4.714   3.812  0.5869  1.2543  2.9236
   75CHL1   C14 6672   2.982   4.611   3.905 -0.5379  0.2983 -0.1739
   75CHL1   H14 6673   3.086   4.580   3.883 -0.6110 -0.7562  0.8284
   75CHL1   C15 6674   2.925   4.487   3.966  0.8995  0.7272  0.5482
   75CHL1  H15A 6675   2.815   4.484   3.947  1.2634 -0.6521 -1.7511
   75CHL1  H15B 6676   2.966   4.398   3.913  0.1087  0.4960  0.3038
   75CHL1   C16 6677   2.958   4.481   4.112  0.0139 -0.7183 -0.6632
   75CHL1  H16A 6678   2.863   4.491   4.169  1.1308  0.7371  1.0678
   75CHL1  H16B 6679   3.020   4.394   4.141  0.7868 -0.1007 -0.4246
   75CHL1   C17 6680   3.049   4.610   4.137 -0.6328  0.8938 -0.3260
   75CHL1   H17 6681   3.152   4.578   4.110 -0.8373 -0.9640  0.9170
   75CHL1   C13 6682   2.998   4.710   4.026 -0.0030  0.9601 -0.1376
   75CHL1   C18 6683   2.859   4.765   4.076  0.5084  0.2581  0.0843
   75CHL1  H18A 6684   2.821   4.837   4.000 -1.8516  0.1396  1.0521
   75CHL1  H18B 6685   2.784   4.685   4.094 -0.0267  0.9185  0.8406
   75CHL1  H18C 6686   2.864   4.815   4.175 -3.9338 -1.5857  1.5119
   75CHL1   C12 6687   3.101   4.817   3.979  0.6804  0.0588  0.3400
   75CHL1  H12A 6688   3.096   4.895   4.059 -0.0725  1.6194 -1.1713
   75CHL1  H12B 6689   3.204   4.778   3.970  1.7409  1.7440  3.4762
   75CHL1   C11 6690   3.050   4.895   3.857 -0.3552  0.2725 -0.1156
   75CHL1  H11A 6691   2.976   4.964   3.901 -0.9101 -1.3076  1.5698
   75CHL1  H11B 6692   3.136   4.950   3.813 -0.2587 -0.4581 -0.8696
   75CHL1    C9 6693   3.011   4.795   3.741  0.7593  0.3839 -0.2681
   75CHL1    H9 6694   3.103   4.753   3.695  0.2342 -0.7128 -0.3632
   75CHL1   C10 6695   2.942   4.862   3.618 -0.6628  0.3030 -0.3166
   75CHL1   C19 6696   2.835   4.963   3.670  0.1239 -0.2256  0.3637
   75CHL1  H19A 6697   2.766   4.923   3.747 -1.2497  0.2920 -0.5724
   75CHL1  H19B 6698   2.896   5.045   3.715  0.1847  0.9812 -1.7827
   75CHL1  H19C 6699   2.780   5.014   3.588  0.8513  1.7164  1.0004
   75CHL1    C1 6700   3.050   4.938   3.536  0.4765 -0.0509  0.1104
   75CHL1   H1A 6701   3.090   5.026   3.591 -0.3071  1.3717 -1.4845
   75CHL1   H1B 6702   3.125   4.859   3.514 -2.0817 -2.1879 -1.4641
   75CHL1    C2 6703   3.003   4.994   3.398  0.2536  0.1596 -0.2248
   75CHL1   H2A 6704   3.080   5.046   3.338 -0.2118 -0.6110 -1.5319
   75CHL1   H2B 6705   2.933   5.079   3.412 -1.1757 -0.7742 -1.3818
   75CHL1   C20 6706   3.062   4.652   4.286 -0.8404 -0.0043  0.3305
   75CHL1   H20 6707   2.964   4.694   4.316  0.3892  0.4558  4.2472
   75CHL1   C21 6708   3.176   4.757   4.303  0.7472  0.5181  0.0639
   75CHL1  H21A 6709   3.189   4.771   4.413  0.2330 -0.2677  0.2314
   75CHL1  H21B 6710   3.152   4.855   4.257  0.8434 -0.0745 -1.2814
   75CHL1  H21C 6711   3.271   4.722   4.259 -0.3339 -0.1985 -1.8378
   75CHL1   C22 6712   3.087   4.527   4.374 -0.8856 -0.0297  0.4319
   75CHL1  H22A 6713   3.010   4.450   4.350 -0.0264 -0.0562 -2.6219
   75CHL1  H22B 6714   3.180   4.474   4.345 -1.8409 -3.1693  2.5654
   75CHL1   C23 6715   3.096   4.553   4.527 -0.4423 -0.0991  0.1043
   75CHL1  H23A 6716   3.166   4.635   4.552 -0.2290  0.2539 -1.5313
   75CHL1  H23B 6717   2.995   4.593   4.550  0.7185  1.7651  2.3346
   75CHL1   C24 6718   3.119   4.431   4.604 -0.2345 -0.1459 -0.9876
   75CHL1  H24A 6719   3.030   4.366   4.587 -0.0402 -0.7828  0.2616
   75CHL1  H24B 6720   3.216   4.386   4.577  0.3981  1.6556 -1.8409
   75CHL1   C25 6721   3.120   4.461   4.759 -1.0410  0.1487 -1.2294
   75CHL1   H25 6722   3.048   4.545   4.775 -0.6895  0.2825 -0.2352
   75CHL1   C26 6723   3.077   4.337   4.841 -0.2641 -0.5634 -0.0962
   75CHL1  H26A 6724   3.086   4.354   4.951  1.6143 -1.0985 -0.1258
   75CHL1  H26B 6725   2.972   4.311   4.818 -0.1639 -0.3307 -0.8254
   75CHL1  H26C 6726   3.144   4.249   4.826  0.5269  0.3902 -2.6349
   75CHL1   C27 6727   3.256   4.509   4.795  0.3962 -0.9423  0.4512
   75CHL1  H27A 6728   3.331   4.433   4.763  0.8238 -0.8489  1.2140
   75CHL1  H27B 6729   3.275   4.603   4.740 -2.2999 -1.4189 -1.4616
   75CHL1  H27C 6730   3.260   4.532   4.904  2.1727  1.9591 -0.1310
   76CHL1    C3 6731   6.394   6.492   3.503 -0.1314  0.2158  0.3195
   76CHL1    H3 6732   6.290   6.525   3.520 -0.1221  0.8746 -0.7883
   76CHL1    O3 6733   6.426   6.486   3.366  0.1763 -0.3252  0.5521
   76CHL1   H3' 6734   6.513   6.447   3.352  0.6216  1.3845 -2.2489
   76CHL1    C4 6735   6.493   6.582   3.573 -0.0522 -0.7470 -0.3705
   76CHL1   H4A 6736   6.596   6.556   3.538  0.6809  0.0539  1.0898
   76CHL1   H4B 6737   6.486   6.687   3.537 -0.6947 -0.2251  1.1965
   76CHL1    C5 6738   6.468   6.577   3.719  0.2640 -0.1110 -0.5192
   76CHL1    C6 6739   6.443   6.691   3.791  0.2684 -0.0795  0.5621
   76CHL1    H6 6740   6.452   6.789   3.743  1.4101  0.6783  2.2245
   76CHL1    C7 6741   6.435   6.692   3.939  0.0587  0.2312 -0.0117
   76CHL1   H7A 6742   6.516   6.754   3.983  1.3389 -2.3453  1.4813
   76CHL1   H7B 6743   6.338   6.733   3.974  0.4153 -0.0373  1.3381
   76CHL1    C8 6744   6.462   6.558   4.006 -0.6806  0.1415 -0.0542
   76CHL1    H8 6745   6.572   6.547   4.013 -0.6587  0.4475  0.1135
   76CHL1   C14 6746   6.412   6.551   4.145 -0.2987  0.6530  0.3539
   76CHL1   H14 6747   6.301   6.557   4.138 -0.4615  0.8505  2.4752
   76CHL1   C15 6748   6.433   6.670   4.240 -0.3968  0.2064 -0.1314
   76CHL1  H15A 6749   6.540   6.699   4.241  0.4863 -2.1119 -4.2140
   76CHL1  H15B 6750   6.360   6.753   4.229 -0.7304 -0.1478 -0.6076
   76CHL1   C16 6751   6.400   6.604   4.381 -0.6536 -0.0864 -0.2253
   76CHL1  H16A 6752   6.497   6.607   4.436 -0.8965  0.8767  0.1619
   76CHL1  H16B 6753   6.313   6.649   4.432  0.2185  1.0651  0.2938
   76CHL1   C17 6754   6.371   6.457   4.361 -0.3887  0.3835  1.0002
   76CHL1   H17 6755   6.266   6.463   4.327  0.2262  2.6826 -0.7323
   76CHL1   C13 6756   6.437   6.421   4.223 -0.9323  0.4323  0.0450
   76CHL1   C18 6757   6.587   6.402   4.237 -0.9369 -0.4450 -0.0823
   76CHL1  H18A 6758   6.611   6.313   4.299  1.2391 -0.2112 -0.4876
   76CHL1  H18B 6759   6.623   6.368   4.138  2.9499  1.0555  0.6304
   76CHL1  H18C 6760   6.640   6.492   4.274 -1.6975 -0.5496  1.3527
   76CHL1   C12 6761   6.375   6.299   4.151 -0.0070 -0.7162  0.5358
   76CHL1  H12A 6762   6.414   6.209   4.204  0.9037  0.4132  1.8522
   76CHL1  H12B 6763   6.265   6.311   4.156  0.0005 -0.4520  0.0940
   76CHL1   C11 6764   6.415   6.298   4.001 -0.4588  0.1018 -0.1443
   76CHL1  H11A 6765   6.521   6.265   4.005  0.1985  2.1802  0.9432
   76CHL1  H11B 6766   6.353   6.219   3.953 -0.6855  0.2122 -0.0299
   76CHL1    C9 6767   6.399   6.438   3.927  0.2242  0.0472  0.0753
   76CHL1    H9 6768   6.292   6.465   3.911  0.1375 -1.0050 -1.3290
   76CHL1   C10 6769   6.451   6.442   3.783 -0.1669  0.4878  0.1013
   76CHL1   C19 6770   6.594   6.377   3.780 -0.0108  0.8243 -0.2683
   76CHL1  H19A 6771   6.588   6.268   3.799  1.3569  0.7096 -0.3979
   76CHL1  H19B 6772   6.639   6.390   3.679 -0.0651 -1.4838 -0.6393
   76CHL1  H19C 6773   6.663   6.423   3.854  0.5467  0.3866 -0.5087
   76CHL1    C1 6774   6.358   6.351   3.697 -0.0789  0.0837  0.5453
   76CHL1   H1A 6775   6.359   6.247   3.735 -0.7902  0.2069  0.9044
   76CHL1   H1B 6776   6.255   6.391   3.698  0.3843  1.3480  2.2601
   76CHL1    C2 6777   6.398   6.352   3.552 -0.0350  0.2789 -0.3580
   76CHL1   H2A 6778   6.339   6.281   3.490  0.1788  0.2276 -0.5040
   76CHL1   H2B 6779   6.496   6.302   3.549 -0.9182 -1.6970  1.3693
   76CHL1   C20 6780   6.395   6.349   4.471  0.3215  0.0380  0.1407
   76CHL1   H20 6781   6.430   6.262   4.412  1.7661 -0.0393  1.0759
   76CHL1   C21 6782   6.252   6.323   4.532 -0.2323  1.0054  0.3277
   76CHL1  H21A 6783   6.207   6.411   4.583  0.6600  0.8877  1.3294
   76CHL1  H21B 6784   6.256   6.248   4.613 -0.0266  1.1719  0.4706
   76CHL1  H21C 6785   6.181   6.279   4.458  0.2667 -1.4421  1.2298
   76CHL1   C22 6786   6.504   6.387   4.577 -0.3031 -0.3493  0.6108
   76CHL1  H22A 6787   6.600   6.415   4.528  0.0164 -3.4061 -0.7201
   76CHL1  H22B 6788   6.475   6.471   4.644 -1.4925 -1.6811  1.8355
   76CHL1   C23 6789   6.531   6.277   4.681  0.5488  0.2913  0.2528
   76CHL1  H23A 6790   6.433   6.256   4.728 -0.1810  0.6802 -1.0668
   76CHL1  H23B 6791   6.575   6.182   4.643  3.0968  0.3667  2.6670
   76CHL1   C24 6792   6.616   6.318   4.802 -0.4362 -1.0544 -0.7286
   76CHL1  H24A 6793   6.720   6.338   4.767 -1.4355  2.2113 -2.2408
   76CHL1  H24B 6794   6.575   6.408   4.851  3.4472  0.1669  0.6482
   76CHL1   C25 6795   6.638   6.211   4.907  0.5114  0.7852  0.2665
   76CHL1   H25 6796   6.693   6.125   4.863  1.9000  0.7279  2.0022
   76CHL1   C26 6797   6.744   6.262   5.003  0.2904 -0.0843 -0.0901
   76CHL1  H26A 6798   6.770   6.190   5.083 -1.0816 -0.7824 -0.2298
   76CHL1  H26B 6799   6.841   6.281   4.954  2.4961 -0.6761  3.6427
   76CHL1  H26C 6800   6.701   6.357   5.040  2.3985  1.0007 -0.3467
   76CHL1   C27 6801   6.501   6.166   4.974 -0.1723 -0.1022 -0.3370
   76CHL1  H27A 6802   6.435   6.127   4.893  1.0459 -1.1654 -0.8534
   76CHL1  H27B 6803   6.534   6.084   5.042 -0.3556 -1.0599 -1.3627
   76CHL1  H27C 6804   6.461   6.253   5.031  0.3236  1.2397 -1.9668
   77SOPE     N 6805   0.987   4.165   7.072  0.4575  0.3645  0.9200
   77SOPE   HN1 6806   1.052   4.174   7.153  1.7510 -0.0821 -0.0230
   77SOPE   HN2 6807   0.930   4.078   7.071 -2.5269  2.1933  0.1229
   77SOPE   HN3 6808   1.045   4.165   6.986 -0.8630 -2.0186 -0.0902
   77SOPE   C12 6809   0.882   4.271   7.056 -0.4973  1.0559 -0.6223
   77SOPE  H12A 6810   0.928   4.372   7.063  0.8391  0.3345  3.1840
   77SOPE  H12B 6811   0.804   4.258   7.133 -0.0099  1.7552 -0.0030
   77SOPE   C11 6812   0.807   4.253   6.920  0.7406  0.1237  0.3341
   77SOPE  H11A 6813   0.846   4.311   6.834 -0.2295 -2.2827 -1.8345
   77SOPE  H11B 6814   0.711   4.305   6.941  0.0437 -0.9075 -0.2169
   77SOPE     P 6815   0.659   4.050   6.897 -0.3963  0.2408  0.1290
   77SOPE   O13 6816   0.562   4.130   6.819  0.2865 -0.5760  0.3692
   77SOPE   O14 6817   0.631   4.030   7.043  0.3743  0.9405 -0.1735
   77SOPE   O12 6818   0.797   4.123   6.878  0.4663 -0.6162 -0.5663
   77SOPE   O11 6819   0.683   3.906   6.835  0.6298  0.2842  0.2694
   77SOPE    C1 6820   0.802   3.843   6.796 -0.1020 -0.0770  0.1774
   77SOPE    HA 6821   0.799   3.739   6.834 -0.1270 -0.1687 -0.0777
   77SOPE    HB 6822   0.895   3.891   6.834 -0.1353  0.4780 -0.4333
   77SOPE    C2 6823   0.824   3.839   6.644 -0.4137  0.1222 -0.0542
   77SOPE    HS 6824   0.924   3.795   6.623  0.6991  2.2990  0.3609
   77SOPE   O21 6825   0.817   3.969   6.585  0.2253  0.1112  0.0571
   77SOPE   C21 6826   0.930   4.038   6.589 -0.2968 -0.3570 -0.6247
   77SOPE   O22 6827   1.033   4.007   6.652  0.5308  0.3476 -0.2082
   77SOPE   C22 6828   0.905   4.167   6.518 -0.8069  0.1363  0.2377
   77SOPE   H2R 6829   0.874   4.247   6.588  2.4882  1.5844  0.2227
   77SOPE   H2S 6830   0.827   4.157   6.439  0.3581 -0.7445 -0.8426
   77SOPE    C3 6831   0.706   3.763   6.587  0.5022  0.6253 -0.3683
   77SOPE    HX 6832   0.620   3.813   6.637  1.7535  0.3252  2.2478
   77SOPE    HY 6833   0.706   3.656   6.615 -1.3360  0.8684  0.7264
   77SOPE   O31 6834   0.682   3.785   6.447 -0.3230  0.2845  0.0320
   77SOPE   C31 6835   0.770   3.745   6.359  0.3469  0.2530  0.3818
   77SOPE   O32 6836   0.878   3.694   6.379 -0.4390 -0.1904 -0.1669
   77SOPE   C32 6837   0.701   3.771   6.224  0.4467 -0.0505 -0.3893
   77SOPE   H2X 6838   0.694   3.882   6.233  0.2356 -0.1629  1.1041
   77SOPE   H2Y 6839   0.603   3.720   6.229  0.8089 -0.6351  2.0357
   77SOPE   C23 6840   1.024   4.227   6.439 -0.1013 -0.0295 -0.0196
   77SOPE   H3R 6841   1.108   4.250   6.508 -1.4497 -0.3208  1.7972
   77SOPE   H3S 6842   0.993   4.322   6.390  0.6676 -1.0131 -2.5537
   77SOPE   C24 6843   1.076   4.139   6.320 -0.2186 -0.4723  0.0704
   77SOPE   H4R 6844   1.171   4.187   6.288 -0.0501  0.0440  1.2912
   77SOPE   H4S 6845   1.118   4.040   6.349  2.5777 -0.3012 -2.8790
   77SOPE   C25 6846   0.997   4.146   6.189 -0.1694  0.2116  0.0975
   77SOPE   H5R 6847   0.895   4.109   6.211 -0.4747  1.6067  1.2577
   77SOPE   H5S 6848   0.965   4.249   6.164 -2.2492 -0.7695 -1.5243
   77SOPE   C26 6849   1.063   4.076   6.074 -0.2996  0.0668 -0.2578
   77SOPE   H6R 6850   1.152   4.132   6.038  0.4627  0.4564  2.1258
   77SOPE   H6S 6851   1.090   3.973   6.106 -1.4165  0.3164  1.6572
   77SOPE   C27 6852   0.958   4.067   5.954  0.0097 -0.5780 -0.1907
   77SOPE   H7R 6853   0.888   3.987   5.986  1.1178 -0.9925  1.3110
   77SOPE   H7S 6854   0.894   4.157   5.944 -0.5295 -0.8016  1.0645
   77SOPE   C28 6855   1.027   4.010   5.834 -0.9362 -0.0865 -0.7834
   77SOPE   H8R 6856   1.117   4.074   5.816  0.1141 -0.5189  2.2859
   77SOPE   H8S 6857   1.077   3.914   5.859  0.6216  1.3542  2.1676
   77SOPE   C29 6858   0.950   3.991   5.701 -0.4077 -0.8428  0.0672
   77SOPE   H91 6859   0.844   3.965   5.709 -0.3501 -0.9547  0.4872
   77SOPE  C210 6860   1.002   3.997   5.577 -0.2497 -0.2587  0.2059
   77SOPE  H101 6861   0.939   3.999   5.488  0.7110  0.0330 -0.4838
   77SOPE  C211 6862   1.145   4.005   5.541  0.0046  0.1033 -0.3537
   77SOPE  H11R 6863   1.205   3.997   5.634 -4.1700  0.3291  2.6531
   77SOPE  H11S 6864   1.163   4.106   5.499 -0.0751  0.1989 -0.1589
   77SOPE  C212 6865   1.180   3.890   5.451 -0.5331 -0.0524  0.1988
   77SOPE  H12R 6866   1.120   3.803   5.486 -0.0478 -0.2631  0.5216
   77SOPE  H12S 6867   1.286   3.860   5.468 -0.1252 -0.3831 -2.5807
   77SOPE  C213 6868   1.146   3.904   5.300  0.5304  0.1112 -0.6782
   77SOPE  H13R 6869   1.178   4.005   5.267 -3.8950  1.4604 -1.4351
   77SOPE  H13S 6870   1.036   3.901   5.309  0.6533 -0.6722  0.9482
   77SOPE  C214 6871   1.193   3.798   5.211 -0.0217  0.5592  0.7589
   77SOPE  H14R 6872   1.154   3.704   5.256 -0.4105  0.6013  0.5181
   77SOPE  H14S 6873   1.304   3.805   5.218 -0.0495  0.9565  0.8487
   77SOPE  C215 6874   1.148   3.812   5.070 -0.3338  0.3627  0.6736
   77SOPE  H15R 6875   1.065   3.885   5.055  1.1467  2.1792  0.9984
   77SOPE  H15S 6876   1.112   3.714   5.032  1.1803 -0.5477  1.4804
   77SOPE  C216 6877   1.265   3.844   4.978  0.0204  0.1590 -0.1894
   77SOPE  H16R 6878   1.338   3.762   4.994  0.5354  0.6821  0.2014
   77SOPE  H16S 6879   1.310   3.942   5.005  0.4009 -0.0212 -0.1602
   77SOPE  C217 6880   1.223   3.865   4.827 -0.4492 -0.5263  0.0895
   77SOPE  H17R 6881   1.142   3.940   4.815 -2.2447 -2.5286 -1.0171
   77SOPE  H17S 6882   1.192   3.763   4.795  3.0881 -1.0520 -2.2482
   77SOPE  C218 6883   1.335   3.900   4.729 -0.3482 -0.4198  0.4534
   77SOPE  H18R 6884   1.317   3.861   4.627  2.2968 -0.0028 -0.2449
   77SOPE  H18S 6885   1.424   3.838   4.753 -0.4253  0.0155  1.9486
   77SOPE  H18T 6886   1.360   4.008   4.720 -0.8760 -0.1972  1.5005
   77SOPE   C33 6887   0.783   3.716   6.100 -0.4270  0.5910  0.2591
   77SOPE   H3X 6888   0.821   3.615   6.125  0.5521  1.1665  1.1806
   77SOPE   H3Y 6889   0.872   3.781   6.080  1.1755 -1.5815 -0.0460
   77SOPE   C34 6890   0.703   3.700   5.971 -0.0205  0.1280  0.5952
   77SOPE   H4X 6891   0.662   3.801   5.947  0.3790 -0.0791 -1.0837
   77SOPE   H4Y 6892   0.618   3.632   5.988 -0.1991  0.3491  0.5878
   77SOPE   C35 6893   0.788   3.660   5.858 -0.0204  0.6548 -0.2711
   77SOPE   H5X 6894   0.838   3.561   5.871 -1.6524  0.0130  1.7318
   77SOPE   H5Y 6895   0.862   3.739   5.834 -1.8119  2.7513  0.8148
   77SOPE   C36 6896   0.709   3.645   5.725 -0.2616 -0.2225 -0.0650
   77SOPE   H6X 6897   0.684   3.752   5.706 -1.7719 -0.2603  1.5299
   77SOPE   H6Y 6898   0.624   3.575   5.734 -0.9989  0.6109 -0.4823
   77SOPE   C37 6899   0.789   3.619   5.596 -0.2449  0.0671 -1.0200
   77SOPE   H7X 6900   0.866   3.540   5.610  0.0072  0.5541  0.5011
   77SOPE   H7Y 6901   0.852   3.709   5.581 -1.4857  1.3734  1.1393
   77SOPE   C38 6902   0.711   3.610   5.462  0.5432 -0.5734  0.2948
   77SOPE   H8X 6903   0.613   3.659   5.480  0.8692  0.0259  0.4818
   77SOPE   H8Y 6904   0.689   3.503   5.440  0.8959 -1.2258  2.8114
   77SOPE   C39 6905   0.784   3.677   5.342 -0.0155 -0.3700 -0.3859
   77SOPE   H9X 6906   0.880   3.623   5.328  0.0376  0.4118 -3.7213
   77SOPE   H9Y 6907   0.787   3.786   5.364  0.6283 -0.3095 -0.7438
   77SOPE  C310 6908   0.699   3.681   5.214 -0.4397  0.2703  0.3607
   77SOPE  H10X 6909   0.760   3.744   5.145 -0.5060 -1.1734 -1.0788
   77SOPE  H10Y 6910   0.600   3.728   5.231 -0.7635  0.0524 -0.8139
   77SOPE  C311 6911   0.656   3.544   5.153 -1.2893  0.1336  0.8879
   77SOPE  H11X 6912   0.591   3.562   5.065  0.9773 -1.7726 -1.3258
   77SOPE  H11Y 6913   0.606   3.493   5.238 -1.0500  1.1703  1.6648
   77SOPE  C312 6914   0.780   3.471   5.107  0.2296 -0.4002 -1.0349
   77SOPE  H12X 6915   0.761   3.365   5.080 -2.0579 -0.2630 -0.1737
   77SOPE  H12Y 6916   0.853   3.463   5.190 -1.6401  0.3879  0.7750
   77SOPE  C313 6917   0.849   3.533   4.983 -0.2247 -0.0876 -0.4681
   77SOPE  H13X 6918   0.895   3.631   5.007  1.3608 -0.0517 -3.3112
   77SOPE  H13Y 6919   0.771   3.546   4.905 -1.5187  0.9723  0.9340
   77SOPE  C314 6920   0.960   3.442   4.924  0.1995 -0.4939  0.1386
   77SOPE  H14X 6921   0.910   3.357   4.872 -0.0364 -0.4961  0.3656
   77SOPE  H14Y 6922   1.015   3.390   5.005 -1.7786 -1.3821  0.9856
   77SOPE  C315 6923   1.068   3.514   4.843 -0.3117  0.8007  0.7583
   77SOPE  H15X 6924   1.149   3.545   4.912  0.2452 -2.7655  1.8846
   77SOPE  H15Y 6925   1.032   3.609   4.799 -1.7341  0.2794  0.7443
   77SOPE  C316 6926   1.110   3.417   4.730 -0.0890 -0.7924 -0.4319
   77SOPE  H16X 6927   1.023   3.383   4.670 -0.3510 -0.0468 -0.4813
   77SOPE  H16Y 6928   1.157   3.327   4.776 -1.6597 -0.5944  1.6928
   77SOPE  C317 6929   1.215   3.481   4.639  0.2942 -0.6032 -0.5492
   77SOPE  H17X 6930   1.290   3.513   4.715  1.5609 -3.2898 -0.5309
   77SOPE  H17Y 6931   1.165   3.563   4.584 -1.4097 -1.7685 -0.8100
   77SOPE  C318 6932   1.271   3.385   4.539  0.0673  0.2064  0.4529
   77SOPE  H18X 6933   1.299   3.285   4.579  1.0435  0.6275  0.8358
   77SOPE  H18Y 6934   1.360   3.428   4.489  1.2363  0.0544  2.3070
   77SOPE  H18Z 6935   1.191   3.362   4.465  0.7506 -0.4916 -0.0753
   78SOPE     N 6936   6.195   2.966   6.855  0.3149  0.0445  0.1652
   78SOPE   HN1 6937   6.195   2.886   6.921 -2.5659  0.7470  1.1814
   78SOPE   HN2 6938   6.247   3.045   6.899  1.3277 -1.7954  2.4629
   78SOPE   HN3 6939   6.095   2.986   6.835  0.2167  2.1805  2.3388
   78SOPE   C12 6940   6.272   2.934   6.730  0.5648  0.0345  0.1509
   78SOPE  H12A 6941   6.272   3.027   6.670 -0.4911  1.8221  2.7662
   78SOPE  H12B 6942   6.223   2.847   6.681  4.0370 -2.4890  0.7035
   78SOPE   C11 6943   6.415   2.893   6.766  0.1149 -0.5364 -0.2993
   78SOPE  H11A 6944   6.473   2.865   6.676  1.1562 -0.5665  0.3617
   78SOPE  H11B 6945   6.402   2.799   6.824 -0.9628 -0.9709 -1.1933
   78SOPE     P 6946   6.619   2.962   6.916 -0.0770 -0.1173  0.1686
   78SOPE   O13 6947   6.664   2.828   6.868  0.0376  0.4030  0.0588
   78SOPE   O14 6948   6.594   2.974   7.065 -0.1692 -0.0803 -0.3286
   78SOPE   O12 6949   6.483   3.000   6.837  0.2680 -0.0051  0.2127
   78SOPE   O11 6950   6.719   3.073   6.870  0.5323  0.0524  0.0553
   78SOPE    C1 6951   6.707   3.204   6.909  0.2002 -0.0393 -0.5453
   78SOPE    HA 6952   6.808   3.250   6.911 -0.5655  1.7254 -0.5900
   78SOPE    HB 6953   6.674   3.217   7.014  3.0238 -0.7864  0.5299
   78SOPE    C2 6954   6.598   3.281   6.830  0.1370  0.2341  0.1429
   78SOPE    HS 6955   6.502   3.233   6.858 -0.5276  0.5295 -1.5289
   78SOPE   O21 6956   6.635   3.273   6.690 -0.0091 -0.1046  0.0933
   78SOPE   C21 6957   6.531   3.272   6.602  0.1730 -0.2292  0.1381
   78SOPE   O22 6958   6.413   3.272   6.641 -0.3682  0.3101  0.3854
   78SOPE   C22 6959   6.572   3.285   6.452 -0.0419 -0.8686  0.1260
   78SOPE   H2R 6960   6.663   3.223   6.440 -0.1308 -1.1388  0.7769
   78SOPE   H2S 6961   6.599   3.392   6.438  0.3172 -0.9916 -0.1175
   78SOPE    C3 6962   6.604   3.428   6.877  0.4014 -0.0429  0.0457
   78SOPE    HX 6963   6.709   3.454   6.900 -0.5437  1.4361  3.3470
   78SOPE    HY 6964   6.542   3.437   6.969 -2.8449 -3.1572 -1.5934
   78SOPE   O31 6965   6.567   3.530   6.779 -0.2470  0.5357  0.0510
   78SOPE   C31 6966   6.444   3.582   6.788  0.1981 -0.0323  0.1750
   78SOPE   O32 6967   6.355   3.544   6.866 -0.7001 -0.1624  0.0168
   78SOPE   C32 6968   6.426   3.689   6.691  0.4555 -0.0616  0.2303
   78SOPE   H2X 6969   6.525   3.722   6.654 -0.6037  0.5465 -2.3265
   78SOPE   H2Y 6970   6.363   3.771   6.731  0.5951  0.4697 -0.6140
   78SOPE   C23 6971   6.455   3.258   6.353  0.0174  0.6552  0.2513
   78SOPE   H3R 6972   6.362   3.309   6.386 -0.2098 -0.6820  1.8293
   78SOPE   H3S 6973   6.434   3.149   6.352 -0.6433  0.7808 -0.0012
   78SOPE   C24 6974   6.494   3.302   6.213  0.4665  0.0231 -0.2335
   78SOPE   H4R 6975   6.481   3.411   6.201 -2.0715  0.2539  3.0691
   78SOPE   H4S 6976   6.595   3.264   6.187  1.2565  1.9643 -0.1357
   78SOPE   C25 6977   6.400   3.239   6.105 -0.0918  0.6933 -0.1876
   78SOPE   H5R 6978   6.417   3.129   6.108  0.7759  0.7629  4.0011
   78SOPE   H5S 6979   6.300   3.270   6.141  0.5683 -0.8410  3.4573
   78SOPE   C26 6980   6.441   3.296   5.968 -0.5212  0.1341 -0.0888
   78SOPE   H6R 6981   6.440   3.407   5.968 -0.3887  0.2197 -2.8905
   78SOPE   H6S 6982   6.546   3.274   5.939 -0.2137  1.1396  0.2278
   78SOPE   C27 6983   6.356   3.237   5.862  0.4724  0.1203  1.2002
   78SOPE   H7R 6984   6.382   3.130   5.853 -2.2777 -0.6287  1.3249
   78SOPE   H7S 6985   6.249   3.252   5.890 -0.5831  0.2144 -2.3378
   78SOPE   C28 6986   6.372   3.314   5.731 -0.3514  0.1614  0.1242
   78SOPE   H8R 6987   6.319   3.410   5.747  0.0527  0.5857 -0.9696
   78SOPE   H8S 6988   6.478   3.333   5.704 -0.3454  0.1599  0.1480
   78SOPE   C29 6989   6.307   3.239   5.617  0.5794  0.0023 -0.7980
   78SOPE   H91 6990   6.267   3.139   5.643  1.9752 -0.3330  0.1991
   78SOPE  C210 6991   6.316   3.269   5.484  0.3553  0.8228 -0.2997
   78SOPE  H101 6992   6.252   3.206   5.420  1.7415 -2.4809  1.3404
   78SOPE  C211 6993   6.389   3.383   5.424 -0.8008  1.1683 -0.4162
   78SOPE  H11R 6994   6.464   3.422   5.495  0.0937  0.4167 -0.9306
   78SOPE  H11S 6995   6.314   3.461   5.397  0.4670  2.4713 -0.2607
   78SOPE  C212 6996   6.459   3.350   5.289 -0.2092 -0.2827 -0.2710
   78SOPE  H12R 6997   6.543   3.278   5.302  0.8563  0.8308 -0.7136
   78SOPE  H12S 6998   6.515   3.441   5.257  0.6263  0.1705  2.2415
   78SOPE  C213 6999   6.356   3.328   5.175 -0.2121 -0.3257 -0.4058
   78SOPE  H13R 7000   6.294   3.421   5.173 -2.1840 -1.5849 -0.1807
   78SOPE  H13S 7001   6.275   3.253   5.184  0.1987 -1.0701 -2.3675
   78SOPE  C214 7002   6.418   3.308   5.037 -0.5607 -0.1828  0.1380
   78SOPE  H14R 7003   6.480   3.216   5.043 -1.0650 -0.5467 -0.2167
   78SOPE  H14S 7004   6.497   3.386   5.029  1.1000 -1.7933  0.2408
   78SOPE  C215 7005   6.314   3.298   4.918  0.1382 -0.0279 -0.6294
   78SOPE  H15R 7006   6.279   3.402   4.899  1.0857  0.6009  0.8875
   78SOPE  H15S 7007   6.235   3.232   4.959  0.8305  0.1222  1.0164
   78SOPE  C216 7008   6.364   3.247   4.782 -0.1059  0.0348  0.0293
   78SOPE  H16R 7009   6.275   3.243   4.716 -0.1889 -2.1710  0.2080
   78SOPE  H16S 7010   6.402   3.144   4.800 -1.4537 -0.5227 -0.2238
   78SOPE  C217 7011   6.475   3.340   4.723 -0.4731 -0.6840 -0.5469
   78SOPE  H17R 7012   6.551   3.359   4.801 -2.8814  1.1250  1.5328
   78SOPE  H17S 7013   6.436   3.442   4.700 -1.8006 -1.2608 -0.9633
   78SOPE  C218 7014   6.547   3.282   4.598 -0.0595  0.1136 -0.0610
   78SOPE  H18R 7015   6.615   3.198   4.624 -2.8403 -1.2099  3.9009
   78SOPE  H18S 7016   6.606   3.366   4.555 -0.9260  3.2750  4.2219
   78SOPE  H18T 7017   6.476   3.257   4.517 -0.6330 -0.7431  0.6862
   78SOPE   C33 7018   6.359   3.634   6.563 -0.9574 -0.1593 -0.0771
   78SOPE   H3X 7019   6.261   3.585   6.577 -1.7202  0.9670 -1.2368
   78SOPE   H3Y 7020   6.431   3.561   6.519  0.7818  0.9160  0.8921
   78SOPE   C34 7021   6.342   3.736   6.448 -0.6196 -0.3249  0.0851
   78SOPE   H4X 7022   6.441   3.780   6.424 -1.1325  1.4722  1.0942
   78SOPE   H4Y 7023   6.287   3.823   6.490  0.1174  0.5893 -0.7905
   78SOPE   C35 7024   6.271   3.678   6.324  0.1883  0.1741 -0.5335
   78SOPE   H5X 7025   6.164   3.663   6.347  0.9451 -0.6878  3.0598
   78SOPE   H5Y 7026   6.311   3.576   6.306 -1.7476 -0.0678 -4.2774
   78SOPE   C36 7027   6.295   3.747   6.191 -0.2672 -0.0650 -0.2924
   78SOPE   H6X 7028   6.401   3.749   6.157 -0.1837  0.6146 -0.0127
   78SOPE   H6Y 7029   6.256   3.849   6.207 -1.6983 -0.5029 -0.8795
   78SOPE   C37 7030   6.208   3.698   6.081 -0.6751  0.5926 -0.2976
   78SOPE   H7X 7031   6.099   3.700   6.104 -0.2494  0.1971  2.0318
   78SOPE   H7Y 7032   6.228   3.590   6.063  0.9901  0.2780  2.7013
   78SOPE   C38 7033   6.224   3.774   5.947 -0.6206 -0.2917 -0.0388
   78SOPE   H8X 7034   6.334   3.763   5.935 -0.7300 -0.6763 -0.7565
   78SOPE   H8Y 7035   6.203   3.883   5.944 -1.9498 -0.5575 -1.3354
   78SOPE   C39 7036   6.163   3.710   5.822  0.3132  0.4991  0.0490
   78SOPE   H9X 7037   6.053   3.705   5.835  0.2283 -0.2651 -0.8137
   78SOPE   H9Y 7038   6.194   3.604   5.812  1.6733  0.7355  1.5163
   78SOPE  C310 7039   6.205   3.799   5.701  0.4532 -0.3460  0.5081
   78SOPE  H10X 7040   6.304   3.847   5.716  0.4378 -0.9187  2.7214
   78SOPE  H10Y 7041   6.135   3.885   5.689  1.7743  1.0293  2.1737
   78SOPE  C311 7042   6.202   3.719   5.569  0.2076  0.4276 -0.0031
   78SOPE  H11X 7043   6.121   3.643   5.574  1.3021 -0.7231  0.6838
   78SOPE  H11Y 7044   6.298   3.665   5.554  0.0036  0.0531  0.0330
   78SOPE  C312 7045   6.179   3.806   5.445 -0.8071 -0.5849  0.2262
   78SOPE  H12X 7046   6.261   3.879   5.427 -1.1820 -0.2640 -0.2227
   78SOPE  H12Y 7047   6.084   3.861   5.464  0.2828  0.8446  1.8298
   78SOPE  C313 7048   6.149   3.710   5.326  0.7534 -0.2771 -0.0999
   78SOPE  H13X 7049   6.056   3.653   5.346 -0.4026  1.5631  0.0075
   78SOPE  H13Y 7050   6.234   3.639   5.316  0.8913 -0.3742  1.5655
   78SOPE  C314 7051   6.127   3.794   5.202  0.3423  0.3283 -0.0591
   78SOPE  H14X 7052   6.225   3.844   5.185  0.9049 -0.3471  1.0118
   78SOPE  H14Y 7053   6.050   3.872   5.215  0.6883  0.9352 -1.4150
   78SOPE  C315 7054   6.111   3.710   5.078 -0.4860  0.4703 -0.9134
   78SOPE  H15X 7055   6.015   3.655   5.073 -0.8805  1.0597 -0.0607
   78SOPE  H15Y 7056   6.191   3.634   5.068  0.7229  1.2471  1.8712
   78SOPE  C316 7057   6.133   3.803   4.961  0.7399 -0.6007  0.0932
   78SOPE  H16X 7058   6.225   3.865   4.967 -0.6103  1.5026  0.0681
   78SOPE  H16Y 7059   6.048   3.874   4.962  0.1981 -1.2430  0.6131
   78SOPE  C317 7060   6.144   3.722   4.826  0.5186  0.0617 -0.6683
   78SOPE  H17X 7061   6.054   3.657   4.823 -0.1075  0.9077 -0.3772
   78SOPE  H17Y 7062   6.230   3.651   4.833  0.5316  0.0740 -0.7023
   78SOPE  C318 7063   6.161   3.804   4.700  0.0221 -0.7780 -1.0725
   78SOPE  H18X 7064   6.263   3.848   4.701  0.1760 -1.1397 -0.7111
   78SOPE  H18Y 7065   6.081   3.881   4.695 -0.5969 -1.3190  0.0507
   78SOPE  H18Z 7066   6.143   3.733   4.616 -1.5597 -3.1033  1.0900
   79SOPE     N 7067   5.180   2.507   7.063 -0.0811 -0.0958 -0.3694
   79SOPE   HN1 7068   5.129   2.416   7.072  0.1005 -0.1806 -0.1925
   79SOPE   HN2 7069   5.269   2.473   7.021  0.1588  1.2155 -0.9470
   79SOPE   HN3 7070   5.195   2.550   7.156 -1.3794 -0.1731 -0.1103
   79SOPE   C12 7071   5.117   2.601   6.962 -0.3726  0.0074  0.1066
   79SOPE  H12A 7072   5.167   2.591   6.864 -1.0165 -0.0839 -0.2181
   79SOPE  H12B 7073   5.126   2.706   6.998  0.2304 -0.0788  0.2264
   79SOPE   C11 7074   4.969   2.567   6.925  0.1721  0.6675  0.5500
   79SOPE  H11A 7075   4.940   2.626   6.836  0.6914  0.2317  0.0867
   79SOPE  H11B 7076   4.895   2.586   7.006 -1.6940  0.7586 -1.1086
   79SOPE     P 7077   4.915   2.316   6.974  0.0657  0.3206 -0.4773
   79SOPE   O13 7078   4.784   2.345   7.038  0.2075  0.2952 -0.2791
   79SOPE   O14 7079   5.027   2.284   7.068  0.2785  0.3460 -0.2114
   79SOPE   O12 7080   4.963   2.429   6.874  0.7101 -0.7474 -0.3391
   79SOPE   O11 7081   4.914   2.191   6.880  0.1506  0.6111  0.0380
   79SOPE    C1 7082   5.042   2.139   6.828  0.5010  0.4714  0.1494
   79SOPE    HA 7083   5.070   2.048   6.885 -0.7101  0.2299  0.3883
   79SOPE    HB 7084   5.130   2.200   6.857  1.8259 -2.1963  2.2586
   79SOPE    C2 7085   5.038   2.123   6.674 -0.3716 -0.1368 -0.4786
   79SOPE    HS 7086   5.142   2.094   6.649 -0.4918 -0.8250 -0.1930
   79SOPE   O21 7087   5.005   2.246   6.614  0.5902  0.2468  0.3465
   79SOPE   C21 7088   5.087   2.342   6.623 -0.1951  0.1058 -0.2112
   79SOPE   O22 7089   5.196   2.353   6.672 -0.1851  0.2861 -0.1646
   79SOPE   C22 7090   5.026   2.458   6.546 -0.0537 -0.3592 -0.0856
   79SOPE   H2R 7091   5.107   2.532   6.526  0.1041 -0.7155 -0.7849
   79SOPE   H2S 7092   4.941   2.496   6.607  0.1844 -1.1276  0.7509
   79SOPE    C3 7093   4.940   2.009   6.624 -0.0697  0.0044 -0.3302
   79SOPE    HX 7094   4.841   2.033   6.669  0.0817 -0.9588  0.5679
   79SOPE    HY 7095   4.969   1.909   6.662  1.2239 -0.0882 -1.5103
   79SOPE   O31 7096   4.927   2.003   6.484 -0.6649  0.1329  0.0560
   79SOPE   C31 7097   5.031   1.949   6.424  0.0708  0.3863  0.7236
   79SOPE   O32 7098   5.137   1.918   6.476 -0.9811  0.3433 -0.5199
   79SOPE   C32 7099   5.000   1.930   6.273 -0.2362  0.1133 -0.6075
   79SOPE   H2X 7100   5.073   1.996   6.222  1.8956 -0.5464  1.3781
   79SOPE   H2Y 7101   4.898   1.967   6.251  0.8474  2.7151 -1.6550
   79SOPE   C23 7102   4.967   2.415   6.409 -0.3945  0.1633  0.4581
   79SOPE   H3R 7103   4.916   2.499   6.357 -1.3142 -0.7858 -0.1995
   79SOPE   H3S 7104   4.886   2.340   6.419  0.7311 -1.2913 -0.6585
   79SOPE   C24 7105   5.080   2.362   6.307  0.0405  0.6859  0.3644
   79SOPE   H4R 7106   5.157   2.442   6.313  1.6368 -0.8519  1.9069
   79SOPE   H4S 7107   5.127   2.272   6.354  0.3093  0.0956 -0.9878
   79SOPE   C25 7108   5.025   2.331   6.169  0.2986  0.0865  0.7781
   79SOPE   H5R 7109   4.956   2.245   6.179 -0.2670  0.3283 -0.7565
   79SOPE   H5S 7110   4.956   2.410   6.132  0.5601  0.3956  0.9474
   79SOPE   C26 7111   5.125   2.295   6.064 -0.2562  0.2293 -0.2310
   79SOPE   H6R 7112   5.204   2.374   6.061 -1.4351  1.4098 -1.2891
   79SOPE   H6S 7113   5.166   2.195   6.087 -0.6683  0.4242  1.5023
   79SOPE   C27 7114   5.054   2.292   5.926 -0.1825  0.7752  0.3328
   79SOPE   H7R 7115   4.960   2.235   5.945 -0.1712  0.2966 -0.9426
   79SOPE   H7S 7116   5.018   2.386   5.878  1.5060  0.5521 -1.4850
   79SOPE   C28 7117   5.135   2.213   5.825 -0.1581 -0.3939 -0.2341
   79SOPE   H8R 7118   5.233   2.263   5.814  0.2258 -1.3985 -1.7035
   79SOPE   H8S 7119   5.165   2.114   5.865 -1.4839 -0.3069  1.0942
   79SOPE   C29 7120   5.067   2.204   5.687 -0.0764 -0.1771 -0.4644
   79SOPE   H91 7121   5.013   2.109   5.670  1.3265 -1.2790  0.8773
   79SOPE  C210 7122   5.049   2.306   5.600 -0.3321 -0.1586 -0.5266
   79SOPE  H101 7123   5.002   2.271   5.507 -3.7566  1.7831  0.3269
   79SOPE  C211 7124   5.111   2.443   5.597 -0.2928 -0.1534 -0.2844
   79SOPE  H11R 7125   5.186   2.461   5.676  1.5019 -0.8614 -1.7629
   79SOPE  H11S 7126   5.017   2.502   5.606 -0.8725 -1.2029  0.7628
   79SOPE  C212 7127   5.175   2.468   5.464 -0.3825 -0.1936 -0.4552
   79SOPE  H12R 7128   5.117   2.429   5.378  1.1272 -1.1277 -1.0772
   79SOPE  H12S 7129   5.273   2.417   5.470  0.1790  0.8506 -0.5533
   79SOPE  C213 7130   5.196   2.617   5.427  0.7130  0.2309 -0.5726
   79SOPE  H13R 7131   5.278   2.651   5.494  0.1598  0.2718  0.1032
   79SOPE  H13S 7132   5.107   2.674   5.463  2.0875  2.4210 -0.4615
   79SOPE  C214 7133   5.225   2.651   5.276 -0.3647  0.5596 -0.5036
   79SOPE  H14R 7134   5.327   2.612   5.259 -0.1042  1.2209 -0.4572
   79SOPE  H14S 7135   5.231   2.761   5.268 -2.4674  0.7988  0.3763
   79SOPE  C215 7136   5.124   2.591   5.177  0.0444 -0.7182  0.7886
   79SOPE  H15R 7137   5.023   2.607   5.222  0.2226  1.0853  0.6142
   79SOPE  H15S 7138   5.151   2.484   5.164 -0.3705 -0.7201 -0.1168
   79SOPE  C216 7139   5.134   2.664   5.040  0.7387 -0.0092 -0.5030
   79SOPE  H16R 7140   5.104   2.771   5.046  3.7975  0.8585  0.7126
   79SOPE  H16S 7141   5.054   2.620   4.976  1.4903 -2.8003  0.3335
   79SOPE  C217 7142   5.261   2.657   4.963  0.8297 -0.1895  0.5234
   79SOPE  H17R 7143   5.274   2.549   4.943 -1.1729 -0.1631 -1.2378
   79SOPE  H17S 7144   5.348   2.689   5.025 -0.4213  1.1430  1.6659
   79SOPE  C218 7145   5.251   2.727   4.828 -0.1036  0.7483 -0.2499
   79SOPE  H18R 7146   5.147   2.716   4.790 -0.8157 -0.2047  1.7912
   79SOPE  H18S 7147   5.313   2.684   4.747 -2.1741 -0.9991 -1.0222
   79SOPE  H18T 7148   5.268   2.835   4.849  0.4695  0.5685  0.2336
   79SOPE   C33 7149   5.043   1.791   6.222  0.4001 -0.0166  0.0956
   79SOPE   H3X 7150   5.013   1.718   6.300 -2.0562  1.8260  1.0008
   79SOPE   H3Y 7151   5.153   1.784   6.211  0.6708  2.8298  0.2527
   79SOPE   C34 7152   4.976   1.746   6.093 -0.0553  0.5590  0.5699
   79SOPE   H4X 7153   4.873   1.787   6.092 -0.7871 -1.1436  1.3733
   79SOPE   H4Y 7154   4.968   1.636   6.081  0.8587  0.5420 -0.0598
   79SOPE   C35 7155   5.064   1.778   5.968 -0.0488 -0.4150 -0.1879
   79SOPE   H5X 7156   5.160   1.722   5.961  0.6623  1.0195 -3.7689
   79SOPE   H5Y 7157   5.086   1.886   5.956 -1.1806 -0.1622 -0.1494
   79SOPE   C36 7158   4.973   1.765   5.847  0.4544  0.6938  0.3870
   79SOPE   H6X 7159   4.887   1.835   5.850  0.0193  0.3977 -2.3278
   79SOPE   H6Y 7160   4.926   1.665   5.854  1.2480  0.2192 -0.7863
   79SOPE   C37 7161   5.044   1.784   5.714 -0.2186  0.0094  0.4634
   79SOPE   H7X 7162   5.112   1.696   5.713 -1.5789 -1.0748  0.2029
   79SOPE   H7Y 7163   5.095   1.883   5.720 -0.6561  0.2516  0.2321
   79SOPE   C38 7164   4.947   1.780   5.590  0.5570  0.2076 -0.0768
   79SOPE   H8X 7165   4.855   1.840   5.601 -1.9551 -3.3642 -0.0484
   79SOPE   H8Y 7166   4.913   1.675   5.576  0.1625  0.3324 -0.0603
   79SOPE   C39 7167   5.020   1.838   5.470  0.4475 -0.2945 -0.2380
   79SOPE   H9X 7168   5.046   1.942   5.501 -3.8115  0.2279  2.4476
   79SOPE   H9Y 7169   4.958   1.850   5.379  0.9136  1.4723 -0.3698
   79SOPE  C310 7170   5.131   1.760   5.413  0.1586 -0.3692 -0.1395
   79SOPE  H10X 7171   5.089   1.662   5.382  1.7300 -1.5175  1.2173
   79SOPE  H10Y 7172   5.216   1.752   5.485  0.1047  0.8210  0.0784
   79SOPE  C311 7173   5.192   1.840   5.291 -0.2952  0.1880 -0.0298
   79SOPE  H11X 7174   5.244   1.933   5.323 -1.4307  0.5284  0.9037
   79SOPE  H11Y 7175   5.112   1.887   5.230  0.8983  1.8630 -0.3626
   79SOPE  C312 7176   5.271   1.745   5.203  0.1288  0.3503 -0.8778
   79SOPE  H12X 7177   5.197   1.691   5.139  1.7204 -1.0583 -1.6117
   79SOPE  H12Y 7178   5.320   1.670   5.269 -1.0752 -0.6422 -1.0552
   79SOPE  C313 7179   5.373   1.829   5.119  0.7098 -0.4514 -0.0915
   79SOPE  H13X 7180   5.427   1.889   5.196  3.1694  0.6876 -2.5477
   79SOPE  H13Y 7181   5.314   1.896   5.052  0.6031 -0.4934 -0.0405
   79SOPE  C314 7182   5.460   1.743   5.029 -0.0422 -0.1480  0.6405
   79SOPE  H14X 7183   5.503   1.657   5.085 -1.5476 -1.1366  0.3453
   79SOPE  H14Y 7184   5.546   1.804   4.993  0.1520 -0.2872  0.8608
   79SOPE  C315 7185   5.386   1.683   4.904 -0.6579 -0.3123 -0.6099
   79SOPE  H15X 7186   5.410   1.750   4.819  0.8872  0.7238  0.5752
   79SOPE  H15Y 7187   5.278   1.687   4.932 -0.7576  0.9467 -1.1033
   79SOPE  C316 7188   5.404   1.535   4.879 -0.4977 -0.0075  0.0196
   79SOPE  H16X 7189   5.333   1.512   4.798  0.4624  1.5838 -1.3411
   79SOPE  H16Y 7190   5.382   1.484   4.976 -1.8638 -2.2195 -1.3661
   79SOPE  C317 7191   5.541   1.497   4.829  0.0675 -0.1568  0.7499
   79SOPE  H17X 7192   5.534   1.391   4.795 -2.2920 -0.4224  1.8571
   79SOPE  H17Y 7193   5.616   1.506   4.910 -0.8204 -1.2110  1.7255
   79SOPE  C318 7194   5.584   1.583   4.705 -0.5167 -0.7519  0.1648
   79SOPE  H18X 7195   5.494   1.589   4.640  0.6657  1.6330 -1.4010
   79SOPE  H18Y 7196   5.680   1.551   4.659  0.7339  1.6944  0.9444
   79SOPE  H18Z 7197   5.600   1.680   4.757 -0.6860  0.6134 -2.1920
   80SOPE     N 7198   0.711   3.901   7.263 -0.2136 -0.4787  0.0306
   80SOPE   HN1 7199   0.688   3.948   7.353  0.7043 -0.7855  0.4327
   80SOPE   HN2 7200   0.812   3.910   7.240  0.2017 -1.4299  1.3744
   80SOPE   HN3 7201   0.662   3.948   7.184 -1.6490  1.8887  2.1670
   80SOPE   C12 7202   0.690   3.757   7.272 -0.2496 -0.8506  0.5518
   80SOPE  H12A 7203   0.581   3.736   7.279 -1.0641  2.3928 -0.3810
   80SOPE  H12B 7204   0.746   3.717   7.359 -0.5596  0.8502  1.5629
   80SOPE   C11 7205   0.752   3.679   7.149  0.8648  0.5213  0.5702
   80SOPE  H11A 7206   0.715   3.729   7.057  0.0158  0.2899  0.7759
   80SOPE  H11B 7207   0.706   3.579   7.155  0.6376  0.5701 -0.2697
   80SOPE     P 7208   0.998   3.767   7.100  0.2884 -0.4236  0.2823
   80SOPE   O13 7209   1.124   3.739   7.173 -0.2130 -0.1386 -0.0406
   80SOPE   O14 7210   0.945   3.903   7.105  0.0664  0.8478  0.8273
   80SOPE   O12 7211   0.896   3.666   7.162 -0.5098  0.0632  0.2590
   80SOPE   O11 7212   1.005   3.705   6.957  0.0724  0.3323 -0.8066
   80SOPE    C1 7213   1.109   3.605   6.932 -0.4388 -0.2604 -0.3094
   80SOPE    HA 7214   1.110   3.525   7.010  1.9175  0.8012  0.8713
   80SOPE    HB 7215   1.205   3.661   6.940 -0.9099  0.2828  2.4633
   80SOPE    C2 7216   1.095   3.535   6.790 -0.0473 -0.6228 -0.1706
   80SOPE    HS 7217   1.181   3.464   6.785  1.5504  1.2666 -0.8382
   80SOPE   O21 7218   1.098   3.627   6.679  0.6472 -0.7867  0.8961
   80SOPE   C21 7219   1.219   3.661   6.648  1.0559 -0.1595  0.5090
   80SOPE   O22 7220   1.320   3.616   6.691 -0.0278  0.2010  0.3525
   80SOPE   C22 7221   1.204   3.766   6.539  0.3403  0.1764  0.5900
   80SOPE   H2R 7222   1.225   3.864   6.587 -1.0677 -0.0907  1.8567
   80SOPE   H2S 7223   1.104   3.766   6.490  1.1044 -2.3485 -1.1905
   80SOPE    C3 7224   0.959   3.464   6.782 -0.6141 -0.1603 -0.1462
   80SOPE    HX 7225   0.883   3.524   6.838  0.2116  0.5938  0.1877
   80SOPE    HY 7226   0.969   3.373   6.844  1.2763 -0.6867 -1.1699
   80SOPE   O31 7227   0.909   3.437   6.656 -0.0350 -0.7353  0.1944
   80SOPE   C31 7228   0.961   3.342   6.580 -0.0029  0.3499 -0.1778
   80SOPE   O32 7229   1.061   3.278   6.613  0.4125 -0.4984  0.2905
   80SOPE   C32 7230   0.869   3.329   6.457 -0.3254  0.3336 -0.3063
   80SOPE   H2X 7231   0.803   3.418   6.459 -0.9893 -0.1394 -0.8141
   80SOPE   H2Y 7232   0.802   3.245   6.484 -1.4347  1.6585  1.2513
   80SOPE   C23 7233   1.293   3.732   6.424 -0.0408  0.5489  0.5490
   80SOPE   H3R 7234   1.393   3.693   6.449  0.0330  1.3383  1.5414
   80SOPE   H3S 7235   1.306   3.818   6.355  0.1019 -2.0269 -2.9123
   80SOPE   C24 7236   1.225   3.618   6.347 -0.5212 -0.3800 -0.0792
   80SOPE   H4R 7237   1.228   3.528   6.411 -3.4297 -1.3076 -1.0984
   80SOPE   H4S 7238   1.119   3.634   6.317  0.0498 -0.9936 -2.7658
   80SOPE   C25 7239   1.312   3.581   6.223 -0.6256  0.2514  0.0495
   80SOPE   H5R 7240   1.421   3.599   6.231 -0.7915  0.9432  0.9355
   80SOPE   H5S 7241   1.304   3.471   6.206 -0.9402  0.3547 -0.5058
   80SOPE   C26 7242   1.248   3.636   6.098  0.4659  0.1360  0.1522
   80SOPE   H6R 7243   1.147   3.590   6.084  0.1115  0.8658  0.2605
   80SOPE   H6S 7244   1.236   3.746   6.099 -0.3657  0.0553  1.4799
   80SOPE   C27 7245   1.315   3.594   5.962  0.2871 -0.0002  0.0249
   80SOPE   H7R 7246   1.419   3.631   5.972  0.3049  0.5112 -1.7333
   80SOPE   H7S 7247   1.311   3.483   5.969 -0.4060  0.0764  1.2616
   80SOPE   C28 7248   1.238   3.636   5.839 -0.4753 -0.1724 -0.4173
   80SOPE   H8R 7249   1.139   3.587   5.852  0.2270 -1.2299  1.2813
   80SOPE   H8S 7250   1.231   3.747   5.843  1.8227  0.0048  0.0855
   80SOPE   C29 7251   1.312   3.603   5.707 -0.1278 -0.2338 -0.3166
   80SOPE   H91 7252   1.400   3.663   5.684  0.2531 -0.8415 -0.4570
   80SOPE  C210 7253   1.281   3.507   5.623  0.3317  0.0117 -0.4978
   80SOPE  H101 7254   1.348   3.477   5.541 -0.4133 -1.4960 -0.5989
   80SOPE  C211 7255   1.168   3.406   5.635  0.6486  0.0353 -0.3399
   80SOPE  H11R 7256   1.074   3.465   5.639  1.4941  1.3649  1.3493
   80SOPE  H11S 7257   1.184   3.351   5.731  0.7828 -0.5991 -0.7183
   80SOPE  C212 7258   1.158   3.294   5.530 -0.1834  0.0298  0.1220
   80SOPE  H12R 7259   1.097   3.206   5.560  2.2429 -1.6532  0.4239
   80SOPE  H12S 7260   1.257   3.255   5.497 -0.8066  0.0609 -1.9788
   80SOPE  C213 7261   1.084   3.342   5.404  0.5833 -0.0184 -0.1291
   80SOPE  H13R 7262   1.133   3.438   5.378  0.7122  0.5020  1.8964
   80SOPE  H13S 7263   0.980   3.366   5.434  1.0318 -1.3544  2.7945
   80SOPE  C214 7264   1.086   3.246   5.279 -0.3359  0.2837 -0.0780
   80SOPE  H14R 7265   1.009   3.278   5.206 -0.1169 -3.0024 -1.9351
   80SOPE  H14S 7266   1.055   3.149   5.325 -1.0550  0.8982  0.7642
   80SOPE  C215 7267   1.220   3.229   5.210 -0.1682 -0.0066 -0.2788
   80SOPE  H15R 7268   1.291   3.192   5.287 -1.8064  2.1368  2.4133
   80SOPE  H15S 7269   1.248   3.336   5.198  0.4111 -0.0132  0.9175
   80SOPE  C216 7270   1.208   3.152   5.077 -0.6479  0.4981  0.0505
   80SOPE  H16R 7271   1.167   3.212   4.992 -0.1054  1.0689  0.1792
   80SOPE  H16S 7272   1.152   3.057   5.089  1.4050 -0.7616  0.1545
   80SOPE  C217 7273   1.337   3.101   5.016  0.6678 -0.1198 -0.5268
   80SOPE  H17R 7274   1.375   3.026   5.089 -1.4871 -0.5694  0.2074
   80SOPE  H17S 7275   1.413   3.181   5.017  3.3872 -2.4876  1.5364
   80SOPE  C218 7276   1.333   3.036   4.878  0.4717 -0.6098  0.6813
   80SOPE  H18R 7277   1.432   2.998   4.846  1.3450  1.2924  1.0492
   80SOPE  H18S 7278   1.315   3.117   4.805 -0.3521  0.6420  2.2162
   80SOPE  H18T 7279   1.252   2.959   4.885 -0.8723  0.9056  2.9300
   80SOPE   C33 7280   0.944   3.338   6.324 -0.1627  0.1609  1.2432
   80SOPE   H3X 7281   1.024   3.262   6.315  0.8922  1.3964 -0.6764
   80SOPE   H3Y 7282   0.990   3.438   6.306 -0.2768  0.0705  0.3911
   80SOPE   C34 7283   0.847   3.320   6.210  0.3645  0.2878  0.1697
   80SOPE   H4X 7284   0.776   3.404   6.222  0.7030  0.3243  2.1874
   80SOPE   H4Y 7285   0.795   3.225   6.231 -1.9352  1.3624 -0.3887
   80SOPE   C35 7286   0.905   3.316   6.063  0.4534 -0.4128 -0.2327
   80SOPE   H5X 7287   0.981   3.235   6.051 -1.8914 -2.7168 -0.3479
   80SOPE   H5Y 7288   0.954   3.414   6.044  0.2252 -0.3083 -0.2726
   80SOPE   C36 7289   0.798   3.280   5.962  0.3185  0.1246  0.4912
   80SOPE   H6X 7290   0.726   3.365   5.960  0.8748  0.5887 -1.0294
   80SOPE   H6Y 7291   0.759   3.183   6.002  1.5914  0.5203  2.8430
   80SOPE   C37 7292   0.841   3.264   5.816  0.0001  0.5806  0.2961
   80SOPE   H7X 7293   0.918   3.184   5.818 -1.3651 -0.7591  1.0267
   80SOPE   H7Y 7294   0.878   3.363   5.781 -0.0244  0.0407 -1.3354
   80SOPE   C38 7295   0.727   3.205   5.732 -0.1903 -0.4981 -0.4989
   80SOPE   H8X 7296   0.659   3.293   5.735  0.0943 -0.3038  1.4882
   80SOPE   H8Y 7297   0.680   3.121   5.788  0.6275  0.8388  2.3820
   80SOPE   C39 7298   0.766   3.168   5.589 -0.0832  0.1796  0.4401
   80SOPE   H9X 7299   0.812   3.068   5.578  0.9616  0.6906 -0.0202
   80SOPE   H9Y 7300   0.835   3.248   5.552 -1.4916  0.9610 -0.5716
   80SOPE  C310 7301   0.649   3.181   5.485  0.3801 -0.4387  0.0849
   80SOPE  H10X 7302   0.607   3.283   5.481  2.2230  0.3172 -2.8762
   80SOPE  H10Y 7303   0.573   3.102   5.506 -0.2270  0.2387  0.5166
   80SOPE  C311 7304   0.690   3.166   5.335 -0.6974  0.3266 -0.1765
   80SOPE  H11X 7305   0.769   3.240   5.312 -1.5979  2.0107  1.8124
   80SOPE  H11Y 7306   0.614   3.201   5.262  0.2179  2.1264 -0.3121
   80SOPE  C312 7307   0.713   3.021   5.299  0.4606 -0.2421  0.9503
   80SOPE  H12X 7308   0.616   2.968   5.298 -0.1763  0.8926  0.9707
   80SOPE  H12Y 7309   0.764   2.976   5.387 -1.2312  0.1902  2.2028
   80SOPE  C313 7310   0.809   2.997   5.179  0.4990  0.5397  0.2315
   80SOPE  H13X 7311   0.912   3.021   5.211 -0.1679  1.6731  1.6529
   80SOPE  H13Y 7312   0.784   3.065   5.094  1.3423 -0.6474 -1.0081
   80SOPE  C314 7313   0.797   2.853   5.125  0.9394  0.5437 -0.1191
   80SOPE  H14X 7314   0.705   2.849   5.064 -0.8858 -0.9236  2.5211
   80SOPE  H14Y 7315   0.784   2.782   5.210 -2.1506  0.6679 -0.3797
   80SOPE  C315 7316   0.925   2.802   5.057  0.7190 -0.3066  0.4884
   80SOPE  H15X 7317   0.930   2.691   5.064  3.3812 -0.1925  1.5269
   80SOPE  H15Y 7318   0.998   2.843   5.130  0.3499  1.9696 -0.3407
   80SOPE  C316 7319   0.958   2.855   4.913  0.0844 -0.1344  1.0350
   80SOPE  H16X 7320   1.065   2.886   4.909 -0.0584  0.2481 -2.1910
   80SOPE  H16Y 7321   0.901   2.945   4.883 -1.6128 -2.1438 -2.2585
   80SOPE  C317 7322   0.933   2.749   4.801 -0.1010 -0.0601 -0.3532
   80SOPE  H17X 7323   0.823   2.729   4.806 -0.2720  1.0336  1.0190
   80SOPE  H17Y 7324   1.000   2.667   4.835  0.7476  0.5633 -0.5178
   80SOPE  C318 7325   0.979   2.802   4.667  0.2502 -1.0210 -0.0194
   80SOPE  H18X 7326   1.085   2.836   4.667  0.1868 -0.7327  1.5292
   80SOPE  H18Y 7327   0.915   2.886   4.631  0.9825 -0.6308 -0.4246
   80SOPE  H18Z 7328   0.978   2.717   4.596 -2.3801  0.2296 -1.6506
   81SOPE     N 7329   2.287   4.926   7.625  0.6066 -0.3922 -0.4051
   81SOPE   HN1 7330   2.389   4.943   7.626  0.2021  2.6778 -0.7620
   81SOPE   HN2 7331   2.258   4.899   7.721 -1.8447 -3.6398 -1.8353
   81SOPE   HN3 7332   2.265   4.838   7.574 -2.5432  0.7942 -1.3817
   81SOPE   C12 7333   2.233   5.055   7.562  0.0103 -0.3850 -1.1247
   81SOPE  H12A 7334   2.125   5.038   7.541 -0.8182  3.0701 -0.1537
   81SOPE  H12B 7335   2.288   5.085   7.470 -2.4384 -0.8658 -2.8711
   81SOPE   C11 7336   2.222   5.174   7.663 -0.0562  0.7085  0.7690
   81SOPE  H11A 7337   2.178   5.129   7.754 -0.9796  0.3246  0.1433
   81SOPE  H11B 7338   2.145   5.242   7.622  1.3427  1.8840  0.0048
   81SOPE     P 7339   2.365   5.384   7.676 -0.5465  0.6972 -0.3647
   81SOPE   O13 7340   2.510   5.423   7.675 -0.2791  0.5257 -0.2876
   81SOPE   O14 7341   2.281   5.465   7.759  0.2967  0.1047 -0.3295
   81SOPE   O12 7342   2.350   5.231   7.694 -0.8343  0.1366  0.3425
   81SOPE   O11 7343   2.309   5.405   7.535 -0.1677 -0.3220 -0.0255
   81SOPE    C1 7344   2.373   5.428   7.412 -0.5183  0.5703  0.2749
   81SOPE    HA 7345   2.428   5.336   7.382 -0.1465  1.1216 -0.7923
   81SOPE    HB 7346   2.436   5.520   7.423  0.4043 -0.1163  0.8790
   81SOPE    C2 7347   2.273   5.463   7.299  0.8031  0.0079  0.8468
   81SOPE    HS 7348   2.215   5.556   7.316  0.7126  0.4944 -1.7867
   81SOPE   O21 7349   2.179   5.357   7.272  0.0063  0.4293  0.6630
   81SOPE   C21 7350   2.054   5.366   7.317 -0.0198 -0.2260 -0.7196
   81SOPE   O22 7351   2.000   5.469   7.363 -0.1074  0.1741 -0.3227
   81SOPE   C22 7352   1.993   5.228   7.314 -0.3431 -0.0092  0.6859
   81SOPE   H2R 7353   1.911   5.227   7.389 -0.9333  0.2516  0.0538
   81SOPE   H2S 7354   2.074   5.155   7.336 -0.3116 -0.1437  0.1389
   81SOPE    C3 7355   2.355   5.479   7.169  0.3667  0.7574  0.2671
   81SOPE    HX 7356   2.419   5.388   7.169 -2.8215 -1.6496 -0.0257
   81SOPE    HY 7357   2.429   5.559   7.191  1.9291 -0.8552  1.1471
   81SOPE   O31 7358   2.288   5.506   7.041  0.0398  0.1933  0.1250
   81SOPE   C31 7359   2.322   5.437   6.942  0.5370  0.0011  0.1318
   81SOPE   O32 7360   2.389   5.337   6.940 -1.0194  0.1420  0.0663
   81SOPE   C32 7361   2.258   5.504   6.819 -0.2198 -0.4965 -0.4569
   81SOPE   H2X 7362   2.321   5.595   6.806  2.2086 -1.7267  1.8049
   81SOPE   H2Y 7363   2.158   5.537   6.855 -0.0813 -1.0828  0.5092
   81SOPE   C23 7364   1.930   5.196   7.174  0.0165  0.5287 -0.5162
   81SOPE   H3R 7365   2.013   5.195   7.101 -0.9364 -0.5736 -1.6124
   81SOPE   H3S 7366   1.855   5.271   7.142 -1.2441 -0.9650 -1.1394
   81SOPE   C24 7367   1.859   5.060   7.161  0.3786  0.1701 -0.2530
   81SOPE   H4R 7368   1.775   5.054   7.233 -0.5728  1.3660 -1.2230
   81SOPE   H4S 7369   1.810   5.046   7.062  1.5558  0.8244 -0.9517
   81SOPE   C25 7370   1.952   4.935   7.188 -0.5240 -0.5669  0.3217
   81SOPE   H5R 7371   2.045   4.939   7.128  0.3682  0.7146  1.7096
   81SOPE   H5S 7372   1.995   4.938   7.291  2.2703 -0.2885 -0.7706
   81SOPE   C26 7373   1.885   4.803   7.154 -0.1420 -0.0886  0.0242
   81SOPE   H6R 7374   1.962   4.723   7.156 -0.9953 -0.9284  0.2534
   81SOPE   H6S 7375   1.819   4.777   7.239 -0.9562 -0.2708 -0.6498
   81SOPE   C27 7376   1.819   4.800   7.018 -0.0062 -0.3484 -0.3063
   81SOPE   H7R 7377   1.773   4.699   7.006 -0.0476 -0.4500  0.6264
   81SOPE   H7S 7378   1.724   4.856   7.001 -0.2102 -1.2597 -2.5909
   81SOPE   C28 7379   1.910   4.835   6.907  0.2366  0.0857  0.1112
   81SOPE   H8R 7380   1.952   4.936   6.922 -0.7862  0.3470  1.3616
   81SOPE   H8S 7381   1.995   4.763   6.899  2.1923  1.7920  3.3883
   81SOPE   C29 7382   1.828   4.827   6.784  0.4541  0.4299  0.3580
   81SOPE   H91 7383   1.766   4.915   6.764 -1.3371 -1.2171 -1.8175
   81SOPE  C210 7384   1.809   4.729   6.692 -0.2586 -0.2460  0.3019
   81SOPE  H101 7385   1.750   4.741   6.600 -0.1794 -1.2971  0.1040
   81SOPE  C211 7386   1.884   4.598   6.700 -0.9605 -0.0061  0.5821
   81SOPE  H11R 7387   1.811   4.514   6.690 -1.7908  0.7426  0.2792
   81SOPE  H11S 7388   1.932   4.575   6.797 -0.7101 -1.7546  0.0960
   81SOPE  C212 7389   1.997   4.585   6.601  0.3988  0.7131 -0.1016
   81SOPE  H12R 7390   2.018   4.476   6.607  1.2944  0.8731 -0.2784
   81SOPE  H12S 7391   2.089   4.643   6.623  0.1536  1.1888 -0.3157
   81SOPE  C213 7392   1.958   4.618   6.455 -0.0723  0.0048 -0.2731
   81SOPE  H13R 7393   1.932   4.726   6.445  0.0925  0.1622  0.8742
   81SOPE  H13S 7394   1.865   4.559   6.442 -0.1454 -0.3560  1.6759
   81SOPE  C214 7395   2.071   4.574   6.365  1.0221 -0.3087  0.0359
   81SOPE  H14R 7396   2.088   4.465   6.378 -0.1539 -0.5800 -0.5454
   81SOPE  H14S 7397   2.164   4.629   6.391  2.1033 -0.4625 -3.0332
   81SOPE  C215 7398   2.030   4.606   6.220  0.2812  0.5139  0.8935
   81SOPE  H15R 7399   2.037   4.716   6.209 -0.2387  0.6546  1.9085
   81SOPE  H15S 7400   1.931   4.562   6.195  0.7184 -0.1886  0.3376
   81SOPE  C216 7401   2.130   4.543   6.128  0.3979  0.0463 -0.3404
   81SOPE  H16R 7402   2.120   4.433   6.128  0.4743  0.0401 -0.2003
   81SOPE  H16S 7403   2.232   4.565   6.167  1.0033 -0.7635 -1.4035
   81SOPE  C217 7404   2.125   4.596   5.979 -0.3611  0.2501  0.2940
   81SOPE  H17R 7405   2.024   4.634   5.952  0.2677  0.6785 -1.5667
   81SOPE  H17S 7406   2.143   4.500   5.926  1.5649 -0.9037  2.7965
   81SOPE  C218 7407   2.220   4.710   5.947 -0.0961  0.2545  0.2044
   81SOPE  H18R 7408   2.325   4.689   5.975  0.1063  1.3291  0.3183
   81SOPE  H18S 7409   2.185   4.801   6.001  1.4454  1.6898 -1.0769
   81SOPE  H18T 7410   2.225   4.734   5.838  1.4689 -0.6326  0.0648
   81SOPE   C33 7411   2.241   5.403   6.702  0.0956  0.8858  0.1849
   81SOPE   H3X 7412   2.161   5.330   6.726  0.7599 -0.5217 -1.6896
   81SOPE   H3Y 7413   2.334   5.347   6.678 -0.5581 -0.0048 -0.3247
   81SOPE   C34 7414   2.200   5.471   6.574 -0.7013 -0.3864 -0.0277
   81SOPE   H4X 7415   2.107   5.519   6.613  0.0129 -0.5894  2.0334
   81SOPE   H4Y 7416   2.177   5.389   6.503  0.0570 -2.1903  1.6974
   81SOPE   C35 7417   2.302   5.576   6.511  0.2389 -0.2939 -0.2918
   81SOPE   H5X 7418   2.395   5.519   6.488  0.7409  1.4017 -2.9082
   81SOPE   H5Y 7419   2.327   5.657   6.583 -1.0689  1.0207 -1.2759
   81SOPE   C36 7420   2.240   5.650   6.398  0.2100  0.5878  0.0159
   81SOPE   H6X 7421   2.264   5.758   6.388  0.2748  0.7463  1.6627
   81SOPE   H6Y 7422   2.130   5.643   6.402  0.3586 -2.4925  1.8827
   81SOPE   C37 7423   2.257   5.592   6.262 -0.1884 -0.1457 -0.0369
   81SOPE   H7X 7424   2.227   5.485   6.254 -3.2948  0.2180  3.7786
   81SOPE   H7Y 7425   2.365   5.591   6.234  0.2314  2.1865  1.2617
   81SOPE   C38 7426   2.182   5.667   6.143  0.0496  0.1075 -0.7913
   81SOPE   H8X 7427   2.225   5.770   6.142  3.0440 -0.9233  2.6391
   81SOPE   H8Y 7428   2.073   5.671   6.164  0.2037  0.3540 -0.0223
   81SOPE   C39 7429   2.192   5.589   6.012  0.1656 -0.6871  0.8237
   81SOPE   H9X 7430   2.136   5.495   6.030  0.7658 -0.9852  1.1947
   81SOPE   H9Y 7431   2.299   5.564   5.996 -0.2960 -1.5506 -1.1526
   81SOPE  C310 7432   2.130   5.663   5.895  0.4013  0.0950 -0.3246
   81SOPE  H10X 7433   2.204   5.745   5.882 -0.1699  1.2925  2.8335
   81SOPE  H10Y 7434   2.029   5.703   5.919  0.5998 -0.3469  1.3786
   81SOPE  C311 7435   2.107   5.575   5.774 -0.2767  0.1866  0.3297
   81SOPE  H11X 7436   2.033   5.495   5.798  1.2441 -1.2385  0.4773
   81SOPE  H11Y 7437   2.202   5.518   5.760 -0.0690  0.6265 -0.0637
   81SOPE  C312 7438   2.073   5.650   5.639 -0.3956 -0.6918 -0.1314
   81SOPE  H12X 7439   2.092   5.759   5.644 -1.7873 -0.4820  2.2191
   81SOPE  H12Y 7440   1.963   5.641   5.626 -0.2255  0.0428 -2.5904
   81SOPE  C313 7441   2.141   5.576   5.518  0.7268  0.0054 -0.1348
   81SOPE  H13X 7442   2.109   5.470   5.528 -0.0538 -0.0757 -2.7594
   81SOPE  H13Y 7443   2.250   5.598   5.513  0.2882  2.0995 -2.2452
   81SOPE  C314 7444   2.090   5.626   5.383  0.2437 -0.2055  0.5935
   81SOPE  H14X 7445   2.112   5.734   5.367 -1.3745  0.3172  1.6393
   81SOPE  H14Y 7446   1.979   5.614   5.386  0.1915  0.3217  0.8576
   81SOPE  C315 7447   2.143   5.540   5.271  0.6208  0.3767  0.1798
   81SOPE  H15X 7448   2.097   5.440   5.257  3.4500 -0.9171 -0.5246
   81SOPE  H15Y 7449   2.252   5.519   5.270  1.1391  2.3144 -3.3303
   81SOPE  C316 7450   2.123   5.619   5.139  0.1420 -0.1989 -0.0744
   81SOPE  H16X 7451   2.181   5.714   5.141 -0.2444  0.0241  1.5249
   81SOPE  H16Y 7452   2.015   5.647   5.140  0.6471  1.9178  0.3587
   81SOPE  C317 7453   2.148   5.542   5.014  0.0773 -0.0202  1.4100
   81SOPE  H17X 7454   2.133   5.621   4.937  0.4426  0.8514  2.2061
   81SOPE  H17Y 7455   2.075   5.459   5.004 -1.1349  1.2210 -0.9089
   81SOPE  C318 7456   2.288   5.488   4.981 -0.0012  1.1156  0.1838
   81SOPE  H18X 7457   2.305   5.395   5.039  1.7749  1.0817 -0.3369
   81SOPE  H18Y 7458   2.361   5.566   5.012 -0.5695  1.8537 -0.2947
   81SOPE  H18Z 7459   2.314   5.467   4.875 -0.1157 -1.0647  0.5429
   82SOPE     N 7460   5.500   5.258   7.100  0.4706  0.2194 -0.0412
   82SOPE   HN1 7461   5.543   5.353   7.106  1.7865 -0.3269 -0.4393
   82SOPE   HN2 7462   5.550   5.211   7.022 -0.5370  1.4548 -1.4835
   82SOPE   HN3 7463   5.397   5.265   7.088  0.2524  1.0565  1.9035
   82SOPE   C12 7464   5.530   5.196   7.239  0.4075  0.0908 -0.4009
   82SOPE  H12A 7465   5.501   5.090   7.224  1.6438 -0.3589  0.2782
   82SOPE  H12B 7466   5.469   5.250   7.315  0.5624 -0.4070  0.0835
   82SOPE   C11 7467   5.679   5.210   7.273 -0.8268  0.2832 -0.4265
   82SOPE  H11A 7468   5.712   5.167   7.370 -2.2963 -0.8103 -0.3733
   82SOPE  H11B 7469   5.699   5.319   7.272 -2.5548  0.6863  1.4956
   82SOPE     P 7470   5.780   4.989   7.169  0.5592  0.0480 -0.1035
   82SOPE   O13 7471   5.653   4.931   7.127 -0.4791 -0.2066 -0.1102
   82SOPE   O14 7472   5.837   4.944   7.298  0.4328 -0.2156 -0.1481
   82SOPE   O12 7473   5.759   5.149   7.167 -0.1516  0.1787  0.1643
   82SOPE   O11 7474   5.884   4.963   7.060 -0.3678  0.7139 -0.1367
   82SOPE    C1 7475   5.959   5.075   6.998  0.1146  0.3036 -0.7187
   82SOPE    HA 7476   6.055   5.042   6.953  0.2972 -1.5547  0.8730
   82SOPE    HB 7477   5.988   5.153   7.071 -1.8406 -0.3161  0.8197
   82SOPE    C2 7478   5.885   5.135   6.879 -0.0407  0.5740  1.2259
   82SOPE    HS 7479   5.778   5.143   6.908 -0.0620  1.0950  1.0084
   82SOPE   O21 7480   5.904   5.046   6.771  0.0748 -0.0234  0.6424
   82SOPE   C21 7481   5.816   5.059   6.670  0.0685 -0.5095  0.0630
   82SOPE   O22 7482   5.713   5.123   6.682 -0.2130  0.1879  0.6539
   82SOPE   C22 7483   5.860   4.979   6.544  0.0799 -0.2234  0.5906
   82SOPE   H2R 7484   5.778   4.908   6.518  0.5556 -0.2283 -1.0186
   82SOPE   H2S 7485   5.958   4.930   6.557  1.3713  2.4699  1.7288
   82SOPE    C3 7486   5.939   5.274   6.842  0.0100 -0.0707 -0.4121
   82SOPE    HX 7487   6.049   5.267   6.823 -0.1051  0.5895 -1.3595
   82SOPE    HY 7488   5.937   5.332   6.937  0.6399 -0.0155 -0.4236
   82SOPE   O31 7489   5.879   5.334   6.728  0.6323  0.1816  0.0160
   82SOPE   C31 7490   5.853   5.472   6.742  0.0770  0.7383  0.4536
   82SOPE   O32 7491   5.883   5.541   6.838  0.4966 -0.0626 -0.0203
   82SOPE   C32 7492   5.771   5.525   6.622  0.1496  0.0776 -0.2779
   82SOPE   H2X 7493   5.816   5.623   6.597 -0.5249  0.7106  0.8391
   82SOPE   H2Y 7494   5.675   5.550   6.673  0.8304 -1.8361  2.1710
   82SOPE   C23 7495   5.876   5.080   6.422 -0.1710  0.1873 -0.3099
   82SOPE   H3R 7496   5.962   5.150   6.429  1.9522 -2.1178 -1.6726
   82SOPE   H3S 7497   5.779   5.133   6.418 -0.0616  0.4708  0.5239
   82SOPE   C24 7498   5.891   5.002   6.287 -0.0473 -0.3370  0.5389
   82SOPE   H4R 7499   5.988   4.950   6.274  1.9969  2.4623  3.1276
   82SOPE   H4S 7500   5.812   4.924   6.284  0.2672 -0.7030  1.5044
   82SOPE   C25 7501   5.866   5.080   6.155  0.2807 -0.2578 -0.5970
   82SOPE   H5R 7502   5.759   5.087   6.127  0.5731  2.2126 -1.4314
   82SOPE   H5S 7503   5.893   5.182   6.190  1.4486 -0.6289 -0.3579
   82SOPE   C26 7504   5.953   5.047   6.036  0.5324 -0.0200  0.2619
   82SOPE   H6R 7505   6.062   5.059   6.050  0.5730  1.5569 -1.0642
   82SOPE   H6S 7506   5.929   4.943   6.002  0.2312  1.2324 -3.9791
   82SOPE   C27 7507   5.911   5.128   5.914  0.2890 -0.0664 -0.7422
   82SOPE   H7R 7508   5.801   5.123   5.898 -0.0758  3.3605 -0.2200
   82SOPE   H7S 7509   5.926   5.238   5.925  0.3611  0.0464 -1.8290
   82SOPE   C28 7510   5.988   5.076   5.794 -0.2514  0.5282  0.6068
   82SOPE   H8R 7511   6.080   5.131   5.764  0.0135  0.0881  0.6004
   82SOPE   H8S 7512   6.046   4.984   5.818  0.5754  1.3702  1.9946
   82SOPE   C29 7513   5.901   5.060   5.669 -0.6227  1.1059 -1.0890
   82SOPE   H91 7514   5.877   4.954   5.647 -0.4327  0.7990  0.1155
   82SOPE  C210 7515   5.886   5.147   5.571  0.6474  0.1626  0.0581
   82SOPE  H101 7516   5.816   5.116   5.492  1.5665 -1.5361 -0.1430
   82SOPE  C211 7517   5.943   5.283   5.569 -0.1312 -0.7316  0.0573
   82SOPE  H11R 7518   6.019   5.298   5.649 -0.3457 -0.0179  0.1346
   82SOPE  H11S 7519   5.859   5.354   5.582  1.2153  1.0533 -0.4794
   82SOPE  C212 7520   6.020   5.325   5.439  0.2074  0.1805  0.1089
   82SOPE  H12R 7521   6.101   5.249   5.430  0.2458 -0.4022  3.9589
   82SOPE  H12S 7522   6.067   5.425   5.445 -2.6260  1.5630  0.7959
   82SOPE  C213 7523   5.927   5.302   5.316  0.1294 -0.1356  0.4454
   82SOPE  H13R 7524   5.844   5.374   5.331 -0.2165 -0.7507  1.6363
   82SOPE  H13S 7525   5.888   5.199   5.307  0.8526 -0.3880  0.1441
   82SOPE  C214 7526   6.004   5.328   5.191 -0.2433 -0.3797  0.0496
   82SOPE  H14R 7527   6.088   5.255   5.201 -0.9935 -1.0537  2.1157
   82SOPE  H14S 7528   6.057   5.426   5.197  0.9556 -1.0854  2.1439
   82SOPE  C215 7529   5.927   5.322   5.059  0.8442  0.2618 -0.3849
   82SOPE  H15R 7530   5.839   5.389   5.066  0.0369 -0.6427 -1.5816
   82SOPE  H15S 7531   5.883   5.223   5.036  1.7086  0.0117 -1.0441
   82SOPE  C216 7532   6.003   5.371   4.933  0.1425  0.6860  0.6164
   82SOPE  H16R 7533   6.090   5.312   4.897  0.6443  2.2791 -0.9603
   82SOPE  H16S 7534   6.034   5.476   4.954  0.3849  0.6509  0.4350
   82SOPE  C217 7535   5.913   5.386   4.810 -0.2494  0.1188 -0.3486
   82SOPE  H17R 7536   5.953   5.459   4.737  2.1574 -0.6473  0.1202
   82SOPE  H17S 7537   5.819   5.436   4.843  0.0893  0.2765  0.3963
   82SOPE  C218 7538   5.889   5.257   4.736 -0.6215  0.0177 -0.7823
   82SOPE  H18R 7539   5.858   5.175   4.804 -0.3434 -0.5634 -1.3429
   82SOPE  H18S 7540   5.986   5.227   4.689  1.9094  3.2927  1.8655
   82SOPE  H18T 7541   5.809   5.265   4.659 -0.3302  2.2354 -0.9137
   82SOPE   C33 7542   5.749   5.427   6.503 -0.0978 -0.0311  0.3904
   82SOPE   H3X 7543   5.688   5.337   6.528 -2.3284  0.5889 -2.2715
   82SOPE   H3Y 7544   5.844   5.393   6.457 -0.3405 -0.1703 -0.0154
   82SOPE   C34 7545   5.668   5.488   6.388 -0.3502  0.6289 -0.1978
   82SOPE   H4X 7546   5.715   5.587   6.370 -3.0819  1.8011 -1.3984
   82SOPE   H4Y 7547   5.569   5.522   6.423  1.0062  1.6382  3.0276
   82SOPE   C35 7548   5.663   5.399   6.257 -1.1031 -0.6413 -0.3079
   82SOPE   H5X 7549   5.613   5.303   6.283  0.1602 -0.9148  1.2721
   82SOPE   H5Y 7550   5.768   5.378   6.228 -0.9091 -0.2628  0.1071
   82SOPE   C36 7551   5.586   5.462   6.144  0.4054 -0.0606 -0.3089
   82SOPE   H6X 7552   5.623   5.565   6.124  0.7330 -0.2310 -0.5945
   82SOPE   H6Y 7553   5.482   5.466   6.183  1.1114  1.2893  1.5660
   82SOPE   C37 7554   5.607   5.389   6.008 -0.6601 -0.4944 -0.3352
   82SOPE   H7X 7555   5.550   5.293   6.011 -1.2280 -0.1482  0.3542
   82SOPE   H7Y 7556   5.713   5.358   5.997 -0.0977  0.5327  1.6440
   82SOPE   C38 7557   5.551   5.459   5.881 -0.0749 -0.4262 -0.3317
   82SOPE   H8X 7558   5.617   5.544   5.853  1.9371 -0.4217  3.7254
   82SOPE   H8Y 7559   5.447   5.493   5.898 -0.0849  0.1528 -1.4201
   82SOPE   C39 7560   5.546   5.356   5.767 -0.2498 -1.1171  0.1533
   82SOPE   H9X 7561   5.463   5.290   5.800 -0.4063  0.1556  2.5396
   82SOPE   H9Y 7562   5.643   5.303   5.765  0.6156  0.3919  0.8967
   82SOPE  C310 7563   5.524   5.411   5.621 -0.3070  0.3550 -0.0566
   82SOPE  H10X 7564   5.608   5.475   5.586  1.3697 -1.5249  0.3645
   82SOPE  H10Y 7565   5.429   5.469   5.620 -1.1265 -0.9310  0.2033
   82SOPE  C311 7566   5.508   5.298   5.518  0.0066  0.1393  0.5728
   82SOPE  H11X 7567   5.432   5.227   5.557 -1.4925  0.0633 -2.2054
   82SOPE  H11Y 7568   5.597   5.234   5.502  0.1159  0.1627  1.0757
   82SOPE  C312 7569   5.465   5.352   5.377 -0.0799 -0.3409 -0.1468
   82SOPE  H12X 7570   5.541   5.422   5.337 -2.1026  1.5297 -0.8807
   82SOPE  H12Y 7571   5.363   5.394   5.391  0.0177 -0.3014  0.4959
   82SOPE  C313 7572   5.447   5.236   5.280 -0.4917 -0.2447 -0.6144
   82SOPE  H13X 7573   5.392   5.154   5.331  2.4217 -1.1527  1.3378
   82SOPE  H13Y 7574   5.551   5.204   5.256  0.4661  2.3339 -0.2711
   82SOPE  C314 7575   5.381   5.265   5.143  0.1838 -0.2087 -0.0267
   82SOPE  H14X 7576   5.423   5.364   5.115  1.1319 -0.0397  1.8357
   82SOPE  H14Y 7577   5.270   5.273   5.150  0.0626 -0.3263 -1.5257
   82SOPE  C315 7578   5.425   5.153   5.047  0.0833  0.1407 -0.8251
   82SOPE  H15X 7579   5.390   5.057   5.091 -1.9879  0.5666 -1.4024
   82SOPE  H15Y 7580   5.535   5.141   5.042 -0.0035 -2.0589  0.8694
   82SOPE  C316 7581   5.378   5.176   4.902  0.2823 -0.2642  0.1865
   82SOPE  H16X 7582   5.422   5.267   4.857  1.0346 -0.5182  0.4077
   82SOPE  H16Y 7583   5.269   5.197   4.907  0.2620  0.0331 -1.2200
   82SOPE  C317 7584   5.401   5.053   4.809 -0.2063 -0.6326 -0.5424
   82SOPE  H17X 7585   5.320   5.061   4.734 -0.8841  0.0639  0.2463
   82SOPE  H17Y 7586   5.377   4.963   4.870  1.9370  0.6914  2.5349
   82SOPE  C318 7587   5.542   5.025   4.747 -0.1013  0.7602 -0.1692
   82SOPE  H18X 7588   5.614   5.036   4.830 -0.4834 -0.0626  0.2829
   82SOPE  H18Y 7589   5.572   5.091   4.663 -1.0001  0.2394 -0.9333
   82SOPE  H18Z 7590   5.535   4.920   4.710 -2.8789  0.9758 -0.5209
   83SOPE     N 7591   3.110   4.959   2.473 -0.9037 -0.3766  0.3127
   83SOPE   HN1 7592   3.087   5.047   2.523 -2.1631 -0.6974  0.3272
   83SOPE   HN2 7593   3.144   4.985   2.378 -1.3385  1.7339  0.6878
   83SOPE   HN3 7594   3.021   4.906   2.466 -1.5331  0.5930  0.7682
   83SOPE   C12 7595   3.223   4.887   2.529  0.3147  0.7316 -0.2936
   83SOPE  H12A 7596   3.316   4.947   2.517  1.1429 -0.4795 -0.1066
   83SOPE  H12B 7597   3.242   4.784   2.494  1.6074  0.4410  1.1618
   83SOPE   C11 7598   3.206   4.871   2.685  0.2735  0.0166 -0.5154
   83SOPE  H11A 7599   3.190   4.966   2.740 -0.2823 -1.4741  2.0613
   83SOPE  H11B 7600   3.308   4.836   2.712 -0.5403  0.0643  3.0872
   83SOPE     P 7601   3.144   4.632   2.780 -0.2912 -0.0681  0.1203
   83SOPE   O13 7602   3.260   4.581   2.701  0.2424  0.6507 -0.1309
   83SOPE   O14 7603   3.032   4.541   2.786  0.5802 -0.4605  0.1736
   83SOPE   O12 7604   3.100   4.773   2.716 -0.5225  0.2217  0.3052
   83SOPE   O11 7605   3.194   4.676   2.928 -0.9085 -0.3029 -0.5402
   83SOPE    C1 7606   3.339   4.666   2.963 -0.0597  0.7565  0.1328
   83SOPE    HA 7607   3.405   4.682   2.875  0.5235  0.5254  0.5278
   83SOPE    HB 7608   3.361   4.563   2.997  2.3336  1.3783  0.6135
   83SOPE    C2 7609   3.375   4.768   3.067 -0.0251 -0.1698 -0.4809
   83SOPE    HS 7610   3.484   4.785   3.052 -0.0104 -1.3766 -1.9195
   83SOPE   O21 7611   3.343   4.713   3.196 -0.2193 -0.3913  0.4508
   83SOPE   C21 7612   3.442   4.641   3.239 -0.2463  0.9970 -0.2268
   83SOPE   O22 7613   3.544   4.616   3.177 -0.4362 -0.5021 -0.6915
   83SOPE   C22 7614   3.410   4.597   3.384  0.1859 -0.0382  0.4196
   83SOPE   H2R 7615   3.410   4.486   3.385 -3.9551 -0.1854 -0.4045
   83SOPE   H2S 7616   3.307   4.630   3.409 -0.2788 -0.7150 -0.5264
   83SOPE    C3 7617   3.306   4.909   3.041  0.1070 -0.1445  0.4227
   83SOPE    HX 7618   3.201   4.891   3.072  0.1348 -0.7830  0.1823
   83SOPE    HY 7619   3.312   4.938   2.933 -0.3292  0.3142  0.5191
   83SOPE   O31 7620   3.387   4.998   3.116  0.0858  0.2207  0.6464
   83SOPE   C31 7621   3.357   5.127   3.109 -0.3644 -0.2877  0.3006
   83SOPE   O32 7622   3.262   5.172   3.050 -0.3177 -0.2604 -0.0426
   83SOPE   C32 7623   3.448   5.221   3.192 -0.3582 -0.3960 -0.0459
   83SOPE   H2X 7624   3.467   5.309   3.128 -1.5523 -0.4819 -0.5403
   83SOPE   H2Y 7625   3.548   5.179   3.219  0.3197  1.6962  0.9711
   83SOPE   C23 7626   3.509   4.638   3.493  0.1089 -1.1560  0.2866
   83SOPE   H3R 7627   3.517   4.749   3.500 -2.1243 -0.8727 -0.9786
   83SOPE   H3S 7628   3.614   4.610   3.468 -1.1405 -3.0161 -3.4755
   83SOPE   C24 7629   3.463   4.580   3.627 -0.0442 -0.6495 -0.7880
   83SOPE   H4R 7630   3.353   4.567   3.630  0.0349 -1.2524 -0.3482
   83SOPE   H4S 7631   3.514   4.483   3.643 -0.9696 -1.0807 -0.3786
   83SOPE   C25 7632   3.501   4.672   3.744  0.7926  0.3404  0.7129
   83SOPE   H5R 7633   3.608   4.693   3.723  0.3413  0.8103 -1.2755
   83SOPE   H5S 7634   3.444   4.767   3.737 -0.9319 -0.7617 -1.8247
   83SOPE   C26 7635   3.476   4.608   3.886  0.5468 -0.0699 -0.4386
   83SOPE   H6R 7636   3.365   4.603   3.881  0.5764  0.2726 -3.1120
   83SOPE   H6S 7637   3.521   4.507   3.887  0.8829  0.0477  2.1051
   83SOPE   C27 7638   3.528   4.690   4.008  0.0707  0.2765 -0.4832
   83SOPE   H7R 7639   3.635   4.711   3.988  0.5436 -1.8724 -0.4685
   83SOPE   H7S 7640   3.482   4.790   4.022 -0.9975 -0.1934 -0.5279
   83SOPE   C28 7641   3.518   4.611   4.141  0.1564 -0.2944  0.4767
   83SOPE   H8R 7642   3.413   4.590   4.172  0.0446 -0.8516 -0.2524
   83SOPE   H8S 7643   3.565   4.511   4.129 -0.9082 -0.6745 -0.8327
   83SOPE   C29 7644   3.567   4.684   4.262  0.0459 -0.4040  0.2395
   83SOPE   H91 7645   3.505   4.765   4.302  0.5247 -0.3419  0.8784
   83SOPE  C210 7646   3.681   4.669   4.334 -0.5648  0.0549 -0.3896
   83SOPE  H101 7647   3.687   4.740   4.418  1.3347  0.4486 -0.8048
   83SOPE  C211 7648   3.782   4.555   4.322 -0.3471  0.4167 -0.1305
   83SOPE  H11R 7649   3.758   4.483   4.240  3.2353  0.2336 -1.1940
   83SOPE  H11S 7650   3.771   4.490   4.412  1.3332 -2.1050 -1.6000
   83SOPE  C212 7651   3.925   4.608   4.297 -0.9457  0.6259 -0.5197
   83SOPE  H12R 7652   3.920   4.675   4.208  0.0501 -0.8471 -1.7426
   83SOPE  H12S 7653   3.976   4.515   4.265 -2.2631  0.3751 -2.0252
   83SOPE  C213 7654   3.997   4.677   4.414 -0.1274 -0.0796 -0.8016
   83SOPE  H13R 7655   3.934   4.763   4.448 -0.2401 -0.6180  0.4220
   83SOPE  H13S 7656   4.093   4.720   4.379 -0.8261  0.4302 -2.1752
   83SOPE  C214 7657   4.013   4.589   4.543 -0.6138  0.1573  0.3097
   83SOPE  H14R 7658   4.095   4.515   4.526  1.3119  1.9846  1.1922
   83SOPE  H14S 7659   3.923   4.525   4.554  1.0506 -2.4805 -0.3306
   83SOPE  C215 7660   4.040   4.664   4.678 -0.6377  0.0088  0.9226
   83SOPE  H15R 7661   3.952   4.730   4.695 -1.9475 -1.0138 -1.4158
   83SOPE  H15S 7662   4.131   4.726   4.665 -0.1387 -0.8077  0.4694
   83SOPE  C216 7663   4.066   4.579   4.802  0.2727 -0.1070 -0.5930
   83SOPE  H16R 7664   4.153   4.513   4.782 -0.6496 -0.6329 -3.2079
   83SOPE  H16S 7665   3.983   4.508   4.824  0.4036 -0.4754 -1.2630
   83SOPE  C217 7666   4.097   4.664   4.925  0.4118 -0.1757  0.2118
   83SOPE  H17R 7667   4.023   4.745   4.935 -0.0702 -0.4586 -0.8558
   83SOPE  H17S 7668   4.196   4.713   4.912  0.4807 -0.6494 -1.2529
   83SOPE  C218 7669   4.087   4.596   5.055 -0.2129  0.0193 -0.4453
   83SOPE  H18R 7670   4.110   4.666   5.138  1.5057 -1.1358  0.0851
   83SOPE  H18S 7671   4.156   4.511   5.074  1.0833  1.1765  0.2373
   83SOPE  H18T 7672   3.983   4.571   5.085  0.2459 -2.1531 -0.5415
   83SOPE   C33 7673   3.375   5.263   3.319 -0.3430 -0.3222  0.0902
   83SOPE   H3X 7674   3.269   5.284   3.294 -1.2985 -1.2367  2.9700
   83SOPE   H3Y 7675   3.422   5.358   3.354 -0.5208 -0.7264  1.4547
   83SOPE   C34 7676   3.386   5.160   3.428 -0.6796  0.5383  0.4377
   83SOPE   H4X 7677   3.464   5.085   3.402  0.6252  1.6837  0.9598
   83SOPE   H4Y 7678   3.288   5.108   3.433  0.1852 -1.4034 -1.1284
   83SOPE   C35 7679   3.415   5.226   3.563  0.4246 -0.1042  0.0993
   83SOPE   H5X 7680   3.348   5.311   3.586  0.0685 -0.3906  0.1355
   83SOPE   H5Y 7681   3.522   5.255   3.570  0.2667  0.5176 -0.0273
   83SOPE   C36 7682   3.384   5.129   3.681  0.1421 -0.3682 -0.0270
   83SOPE   H6X 7683   3.446   5.039   3.665 -0.5213 -0.9853  0.7527
   83SOPE   H6Y 7684   3.280   5.090   3.676  1.0087 -2.7639 -0.2030
   83SOPE   C37 7685   3.425   5.197   3.812  0.1589 -0.8026 -0.0605
   83SOPE   H7X 7686   3.368   5.290   3.835  0.6247  0.0969 -2.2397
   83SOPE   H7Y 7687   3.533   5.222   3.815 -0.0151 -0.1249  0.7444
   83SOPE   C38 7688   3.407   5.103   3.930  0.6911 -0.1307 -0.6590
   83SOPE   H8X 7689   3.477   5.017   3.917  2.3206  0.7091  1.8226
   83SOPE   H8Y 7690   3.307   5.056   3.939 -0.6713  2.7132  0.2528
   83SOPE   C39 7691   3.428   5.177   4.066 -0.8340  0.4674 -0.7013
   83SOPE   H9X 7692   3.349   5.247   4.101 -1.2366  0.0359 -0.7192
   83SOPE   H9Y 7693   3.520   5.238   4.052 -0.5358  0.6090  1.5104
   83SOPE  C310 7694   3.443   5.079   4.180  0.2911  0.0642 -0.4054
   83SOPE  H10X 7695   3.528   5.012   4.155  0.1193 -0.3474  0.0825
   83SOPE  H10Y 7696   3.347   5.022   4.189  1.2225 -1.5007  0.1072
   83SOPE  C311 7697   3.462   5.142   4.320  0.4088  0.2269  0.0441
   83SOPE  H11X 7698   3.376   5.212   4.322  1.1158  1.0959  0.5512
   83SOPE  H11Y 7699   3.552   5.207   4.314  2.0966 -1.9628  0.5085
   83SOPE  C312 7700   3.455   5.041   4.434  0.1819  0.2366  0.1055
   83SOPE  H12X 7701   3.536   4.965   4.434  1.2647  1.2180  3.1053
   83SOPE  H12Y 7702   3.357   4.990   4.439 -1.8476  3.8569  0.7344
   83SOPE  C313 7703   3.473   5.106   4.575 -0.5937 -0.9745 -1.1098
   83SOPE  H13X 7704   3.445   5.032   4.653  0.6624  1.2313  1.5868
   83SOPE  H13Y 7705   3.406   5.194   4.587 -1.0012 -1.4480  0.3333
   83SOPE  C314 7706   3.619   5.156   4.608 -0.2061  0.1815 -0.1075
   83SOPE  H14X 7707   3.657   5.227   4.531 -0.1209  1.0822  0.7555
   83SOPE  H14Y 7708   3.691   5.072   4.616 -0.5583 -0.1806 -0.6726
   83SOPE  C315 7709   3.623   5.230   4.733 -0.9006  0.5790  0.0081
   83SOPE  H15X 7710   3.558   5.319   4.740  1.7632  2.6368  0.4033
   83SOPE  H15Y 7711   3.716   5.291   4.725 -1.9151  2.1990  0.1439
   83SOPE  C316 7712   3.612   5.141   4.863 -0.4575  0.1210  0.6859
   83SOPE  H16X 7713   3.702   5.077   4.865  0.4242  1.3294  1.1347
   83SOPE  H16Y 7714   3.533   5.063   4.859  0.6911 -1.0262 -1.7975
   83SOPE  C317 7715   3.585   5.219   4.989 -0.9086 -0.4730 -0.6572
   83SOPE  H17X 7716   3.648   5.310   4.993 -2.2107  0.4371  0.4343
   83SOPE  H17Y 7717   3.596   5.146   5.073  0.9737 -0.7573 -1.1082
   83SOPE  C318 7718   3.433   5.257   5.000  0.1136 -0.3872  0.4855
   83SOPE  H18X 7719   3.429   5.305   5.100  0.5475  0.9855 -0.1317
   83SOPE  H18Y 7720   3.371   5.165   4.996 -1.4268  0.4089  3.2749
   83SOPE  H18Z 7721   3.409   5.326   4.916  0.2173 -1.0894 -0.1256
   84SOPE     N 7722   4.213   2.704   2.229 -0.7020  0.2850  1.4367
   84SOPE   HN1 7723   4.151   2.685   2.310 -2.4686  0.0357  0.0959
   84SOPE   HN2 7724   4.204   2.626   2.162 -1.5158  3.3797 -2.4300
   84SOPE   HN3 7725   4.312   2.717   2.258 -0.4487  0.5442  0.4718
   84SOPE   C12 7726   4.163   2.838   2.181  0.3769 -0.3716  0.6892
   84SOPE  H12A 7727   4.212   2.923   2.233 -2.8940  1.5267  0.9311
   84SOPE  H12B 7728   4.060   2.847   2.222  0.3158  0.7713  0.3061
   84SOPE   C11 7729   4.153   2.859   2.028 -0.0541  0.3849  0.0055
   84SOPE  H11A 7730   4.104   2.955   2.001 -0.0979  0.3199 -0.1467
   84SOPE  H11B 7731   4.099   2.776   1.978  1.5153  0.9181 -2.7450
   84SOPE     P 7732   4.338   2.794   1.862 -0.3845 -0.4491  0.4561
   84SOPE   O13 7733   4.385   2.899   1.766 -0.4475  0.0627 -0.3394
   84SOPE   O14 7734   4.245   2.701   1.805  0.8149  0.2401 -0.0962
   84SOPE   O12 7735   4.288   2.867   1.985  0.4388 -0.3061 -0.1051
   84SOPE   O11 7736   4.465   2.728   1.917 -0.7947  0.5394 -0.1692
   84SOPE    C1 7737   4.476   2.584   1.932  0.7050 -0.0749  0.0338
   84SOPE    HA 7738   4.541   2.550   1.849 -0.4343  0.1818 -0.9925
   84SOPE    HB 7739   4.374   2.542   1.935  0.4543  0.5227  0.0620
   84SOPE    C2 7740   4.539   2.534   2.065 -1.4279  0.6456 -0.5419
   84SOPE    HS 7741   4.469   2.519   2.150 -1.0580 -0.6046 -0.4415
   84SOPE   O21 7742   4.637   2.621   2.109 -0.5947 -0.1297 -0.6973
   84SOPE   C21 7743   4.597   2.723   2.188  0.6419  0.5918  0.0398
   84SOPE   O22 7744   4.492   2.721   2.248  0.3649 -0.0653  0.4670
   84SOPE   C22 7745   4.703   2.823   2.196  0.0773 -0.3686 -0.0999
   84SOPE   H2R 7746   4.721   2.871   2.097 -0.5705 -0.2732 -0.1768
   84SOPE   H2S 7747   4.798   2.770   2.216  1.9314  1.4801 -3.1995
   84SOPE    C3 7748   4.607   2.399   2.031 -0.3679  0.9241  0.2247
   84SOPE    HX 7749   4.707   2.415   1.985  0.1501 -0.4240  0.8077
   84SOPE    HY 7750   4.549   2.339   1.957 -1.2393 -0.2441  1.7832
   84SOPE   O31 7751   4.601   2.314   2.144  0.5141 -0.3542  0.7315
   84SOPE   C31 7752   4.691   2.335   2.228  0.1841 -0.3370 -0.9683
   84SOPE   O32 7753   4.797   2.400   2.215 -0.0199 -0.0065  0.0176
   84SOPE   C32 7754   4.669   2.240   2.348  0.5372 -0.7186 -0.8000
   84SOPE   H2X 7755   4.705   2.138   2.323  0.3192 -0.7974 -0.7933
   84SOPE   H2Y 7756   4.561   2.230   2.371  0.3106 -0.1165 -1.5484
   84SOPE   C23 7757   4.671   2.941   2.290 -0.2106  0.3948 -0.2510
   84SOPE   H3R 7758   4.568   2.982   2.292 -0.6267 -0.5367 -1.6499
   84SOPE   H3S 7759   4.731   3.025   2.249  0.2321  0.3448  0.2849
   84SOPE   C24 7760   4.738   2.917   2.424  0.0848  0.8459 -0.7735
   84SOPE   H4R 7761   4.687   2.835   2.478  1.9789 -1.0421 -1.6918
   84SOPE   H4S 7762   4.844   2.884   2.415 -0.0257 -0.8082  2.4938
   84SOPE   C25 7763   4.743   3.040   2.516 -0.8051  0.4363  0.4043
   84SOPE   H5R 7764   4.817   3.018   2.596  0.4631 -0.7581 -1.0416
   84SOPE   H5S 7765   4.794   3.121   2.460 -1.5745  0.4705 -0.2679
   84SOPE   C26 7766   4.613   3.087   2.571  0.4825 -0.3139  0.4395
   84SOPE   H6R 7767   4.638   3.182   2.623  0.6922  0.9265 -1.7976
   84SOPE   H6S 7768   4.545   3.115   2.487  1.5339  1.4231  0.1282
   84SOPE   C27 7769   4.544   2.991   2.665  0.1614  0.0819  0.3918
   84SOPE   H7R 7770   4.515   2.911   2.594  1.4220 -0.4201  0.4109
   84SOPE   H7S 7771   4.619   2.960   2.741  0.9113  4.1833  1.5717
   84SOPE   C28 7772   4.423   3.044   2.732  0.1215 -0.0207  0.0772
   84SOPE   H8R 7773   4.360   3.082   2.649  0.3000  1.3428  0.5358
   84SOPE   H8S 7774   4.375   2.955   2.778 -0.7358  0.9039  1.0017
   84SOPE   C29 7775   4.449   3.161   2.827  0.3317 -0.3373  0.6456
   84SOPE   H91 7776   4.517   3.242   2.800 -1.3009  0.9260  0.2127
   84SOPE  C210 7777   4.390   3.182   2.945 -0.1592  0.4159  0.5081
   84SOPE  H101 7778   4.421   3.266   3.009  1.8010 -1.2276  1.8647
   84SOPE  C211 7779   4.286   3.084   3.002  1.0320 -0.1047 -0.2572
   84SOPE  H11R 7780   4.251   3.016   2.921 -0.0293 -2.3965  1.9896
   84SOPE  H11S 7781   4.201   3.146   3.038  0.7552 -1.6802  2.0084
   84SOPE  C212 7782   4.333   2.990   3.118 -0.2024 -0.3620  0.6436
   84SOPE  H12R 7783   4.433   2.946   3.099  0.3578  1.9612 -2.6302
   84SOPE  H12S 7784   4.260   2.907   3.124 -1.3351  0.3886 -1.7379
   84SOPE  C213 7785   4.331   3.068   3.247 -0.2741  0.1885 -0.0963
   84SOPE  H13R 7786   4.255   3.150   3.245  1.1277  1.5958  1.2510
   84SOPE  H13S 7787   4.427   3.122   3.261  0.3570  0.2635 -3.6747
   84SOPE  C214 7788   4.289   2.986   3.366  0.4239  0.4141 -0.4540
   84SOPE  H14R 7789   4.353   2.895   3.374  1.1640  0.9500 -0.0466
   84SOPE  H14S 7790   4.179   2.973   3.367  0.2875  1.5352  0.3931
   84SOPE  C215 7791   4.316   3.054   3.499 -0.0904  0.0861 -0.0210
   84SOPE  H15R 7792   4.279   3.159   3.504  2.2732  0.9145  1.4485
   84SOPE  H15S 7793   4.423   3.056   3.529  0.0053 -2.7264  0.0809
   84SOPE  C216 7794   4.242   2.974   3.612 -0.6545 -0.0311  0.5170
   84SOPE  H16R 7795   4.278   2.869   3.609 -2.1256 -0.6197  1.7671
   84SOPE  H16S 7796   4.135   2.982   3.584  0.4307 -1.6542 -5.5211
   84SOPE  C217 7797   4.259   3.029   3.757 -0.4521 -0.0424 -0.0350
   84SOPE  H17R 7798   4.204   2.962   3.826 -1.3993  0.1850 -0.5541
   84SOPE  H17S 7799   4.217   3.132   3.758 -2.5298 -0.8558  1.3415
   84SOPE  C218 7800   4.404   3.040   3.809  0.0399  0.2707  0.0505
   84SOPE  H18R 7801   4.419   3.126   3.878  0.8536  1.3678 -1.4303
   84SOPE  H18S 7802   4.477   3.050   3.726 -1.6515 -2.2820 -1.9011
   84SOPE  H18T 7803   4.441   2.946   3.856  0.0958  0.2265 -0.0818
   84SOPE   C33 7804   4.737   2.295   2.471 -0.2883 -0.4355  0.1227
   84SOPE   H3X 7805   4.721   2.405   2.483 -1.2391 -0.2468 -2.2510
   84SOPE   H3Y 7806   4.847   2.279   2.462 -0.6750 -3.3618 -0.4693
   84SOPE   C34 7807   4.690   2.224   2.595 -0.4013 -0.7239 -0.2125
   84SOPE   H4X 7808   4.708   2.119   2.566  2.4875 -0.9725  2.0264
   84SOPE   H4Y 7809   4.583   2.251   2.608 -0.0499  0.4725  0.3619
   84SOPE   C35 7810   4.771   2.238   2.723 -0.2636 -0.0049  0.4084
   84SOPE   H5X 7811   4.765   2.347   2.745 -0.0982 -0.1577  1.2254
   84SOPE   H5Y 7812   4.876   2.202   2.712 -0.4658 -0.8360  1.1326
   84SOPE   C36 7813   4.696   2.171   2.836 -0.2789 -0.2496 -0.1681
   84SOPE   H6X 7814   4.677   2.063   2.819  3.0189 -1.4850  2.7268
   84SOPE   H6Y 7815   4.598   2.221   2.826 -0.0741  0.4125  0.9685
   84SOPE   C37 7816   4.748   2.193   2.978 -0.5016 -1.1055  0.3353
   84SOPE   H7X 7817   4.856   2.171   2.993 -0.7390 -2.7841 -0.2014
   84SOPE   H7Y 7818   4.694   2.112   3.033 -0.2685 -1.5769 -0.1157
   84SOPE   C38 7819   4.720   2.333   3.037 -0.4173  0.4603 -0.3673
   84SOPE   H8X 7820   4.757   2.407   2.963  0.8765 -1.0657 -1.3089
   84SOPE   H8Y 7821   4.789   2.336   3.124 -1.7044 -0.5760  0.7512
   84SOPE   C39 7822   4.575   2.357   3.089 -0.0650  0.4578 -0.9884
   84SOPE   H9X 7823   4.513   2.341   2.998 -0.6398  1.3847 -0.7665
   84SOPE   H9Y 7824   4.563   2.464   3.117  0.9198  0.7015 -1.4547
   84SOPE  C310 7825   4.527   2.268   3.205 -0.3380 -0.3922 -0.0245
   84SOPE  H10X 7826   4.557   2.163   3.186  0.4510 -0.1433 -0.1755
   84SOPE  H10Y 7827   4.418   2.279   3.225  0.1011 -0.6828  2.9340
   84SOPE  C311 7828   4.586   2.316   3.339  0.9544  0.4330  0.0576
   84SOPE  H11X 7829   4.569   2.426   3.339  0.8045  0.4256 -1.1834
   84SOPE  H11Y 7830   4.693   2.290   3.354  0.9415  0.0469 -0.5028
   84SOPE  C312 7831   4.507   2.246   3.452 -0.5887 -1.2043  0.1045
   84SOPE  H12X 7832   4.514   2.138   3.429  0.1890 -0.6894 -2.3803
   84SOPE  H12Y 7833   4.404   2.286   3.462  0.6543  2.4082  0.0044
   84SOPE  C313 7834   4.561   2.259   3.597  0.4746  0.3680 -0.1154
   84SOPE  H13X 7835   4.580   2.365   3.624  0.6921  0.6439 -1.3111
   84SOPE  H13Y 7836   4.656   2.201   3.602 -0.1641 -0.8061 -1.1324
   84SOPE  C314 7837   4.460   2.205   3.703 -0.1720 -0.8513  0.7271
   84SOPE  H14X 7838   4.456   2.097   3.678 -1.5873 -0.2511 -2.1508
   84SOPE  H14Y 7839   4.363   2.259   3.702  0.0922 -0.3225  2.0411
   84SOPE  C315 7840   4.505   2.236   3.847 -0.4708  0.1314  0.1682
   84SOPE  H15X 7841   4.494   2.342   3.879  0.7097  0.7342 -1.2967
   84SOPE  H15Y 7842   4.611   2.203   3.856 -1.1458 -1.5068  3.8092
   84SOPE  C316 7843   4.429   2.149   3.953 -0.6564 -0.1532  0.1549
   84SOPE  H16X 7844   4.442   2.042   3.924  0.6001 -0.3303  1.3132
   84SOPE  H16Y 7845   4.318   2.163   3.949 -0.3943  1.8810 -1.0583
   84SOPE  C317 7846   4.470   2.162   4.104 -0.2465 -0.0915 -0.1817
   84SOPE  H17X 7847   4.450   2.265   4.144 -0.3612 -0.1275 -0.1441
   84SOPE  H17Y 7848   4.580   2.152   4.107 -0.3546 -1.2204  0.8000
   84SOPE  C318 7849   4.400   2.057   4.191  0.0509 -0.2723  0.3239
   84SOPE  H18X 7850   4.433   2.050   4.297 -0.5812 -0.8788  0.4900
   84SOPE  H18Y 7851   4.414   1.954   4.152  1.1427 -0.7137  1.7647
   84SOPE  H18Z 7852   4.292   2.081   4.179  0.3048  0.5686 -0.3810
   85SOPE     N 7853   3.804   4.455   2.233  0.1410 -0.1651 -0.4337
   85SOPE   HN1 7854   3.784   4.412   2.141 -0.0176 -1.2954  0.1114
   85SOPE   HN2 7855   3.904   4.443   2.257  0.0706  0.5715  0.2787
   85SOPE   HN3 7856   3.743   4.400   2.297  1.9085 -1.3398  0.3242
   85SOPE   C12 7857   3.754   4.592   2.228  0.2829  0.0374  0.3183
   85SOPE  H12A 7858   3.649   4.587   2.194  0.2241 -1.0464  0.6161
   85SOPE  H12B 7859   3.805   4.648   2.147 -1.7508 -0.5380 -1.4571
   85SOPE   C11 7860   3.772   4.668   2.358  0.6133 -0.0744 -0.3576
   85SOPE  H11A 7861   3.862   4.646   2.419 -1.4719  0.0547  3.0040
   85SOPE  H11B 7862   3.679   4.635   2.411  0.0927  2.3480  0.3526
   85SOPE     P 7863   3.752   4.907   2.426 -0.1794 -0.3295 -0.2502
   85SOPE   O13 7864   3.653   4.861   2.528 -0.9483  0.0335  0.2344
   85SOPE   O14 7865   3.734   5.049   2.378 -0.4775 -0.3812 -0.1087
   85SOPE   O12 7866   3.764   4.805   2.317  0.0015 -0.0354  0.2681
   85SOPE   O11 7867   3.889   4.907   2.513  0.1454 -0.3456  0.7627
   85SOPE    C1 7868   3.882   4.980   2.633 -0.2363 -0.3849  1.0038
   85SOPE    HA 7869   3.788   4.988   2.692  0.4735  1.5283  1.9510
   85SOPE    HB 7870   3.936   5.076   2.620 -0.0560 -0.7936 -1.7901
   85SOPE    C2 7871   3.971   4.906   2.729 -0.6395 -0.2096 -0.2145
   85SOPE    HS 7872   3.933   4.802   2.740  2.3774 -1.1860  2.1327
   85SOPE   O21 7873   3.967   4.978   2.853 -0.1204  0.3001  0.0456
   85SOPE   C21 7874   3.947   4.900   2.955  0.5219 -0.0948  0.1317
   85SOPE   O22 7875   3.900   4.785   2.955 -0.4582  0.0049 -0.3821
   85SOPE   C22 7876   3.969   4.972   3.083  0.6753 -0.9070  0.0001
   85SOPE   H2R 7877   3.984   5.081   3.063 -0.2937 -0.8375 -0.4362
   85SOPE   H2S 7878   4.064   4.926   3.117  2.0532  1.7621  0.0395
   85SOPE    C3 7879   4.114   4.900   2.685  0.2428 -0.0024  0.7568
   85SOPE    HX 7880   4.154   5.003   2.674  0.2474 -0.2142 -1.8390
   85SOPE    HY 7881   4.135   4.839   2.594  1.2986 -1.7984  2.1148
   85SOPE   O31 7882   4.190   4.838   2.788 -0.5182  0.7970  0.2242
   85SOPE   C31 7883   4.324   4.863   2.770  0.5953  0.0733 -0.3635
   85SOPE   O32 7884   4.375   4.920   2.676  0.0566 -0.7879 -0.0298
   85SOPE   C32 7885   4.391   4.804   2.897  0.4392 -0.0983  0.0838
   85SOPE   H2X 7886   4.497   4.833   2.884  0.4041  0.2688  0.6004
   85SOPE   H2Y 7887   4.395   4.693   2.901 -0.2375 -0.1304  0.1247
   85SOPE   C23 7888   3.847   4.961   3.189 -0.0227  0.1841 -0.1541
   85SOPE   H3R 7889   3.823   4.853   3.183  2.9526 -0.5100 -1.1357
   85SOPE   H3S 7890   3.766   5.030   3.158  0.3166  0.0570 -1.3608
   85SOPE   C24 7891   3.896   4.986   3.327 -0.0607 -0.1210  0.3351
   85SOPE   H4R 7892   3.988   4.925   3.345 -0.3964 -1.0059 -0.7821
   85SOPE   H4S 7893   3.923   5.094   3.326  0.0336 -0.1433  0.4965
   85SOPE   C25 7894   3.789   4.962   3.433 -0.3034 -0.4303 -0.2669
   85SOPE   H5R 7895   3.694   4.988   3.383 -1.5916 -1.5564  1.4979
   85SOPE   H5S 7896   3.796   4.859   3.475  0.0472 -0.0112  0.7328
   85SOPE   C26 7897   3.809   5.058   3.554  0.2972 -0.7630  0.1051
   85SOPE   H6R 7898   3.853   5.154   3.520 -2.4070  0.3075 -0.5771
   85SOPE   H6S 7899   3.708   5.083   3.592  0.4939  0.6924 -0.2561
   85SOPE   C27 7900   3.882   5.001   3.675 -0.0359 -0.1154  0.1441
   85SOPE   H7R 7901   3.974   4.957   3.633 -1.2664 -0.5310 -2.2988
   85SOPE   H7S 7902   3.902   5.091   3.737 -2.9410  0.5937  0.1923
   85SOPE   C28 7903   3.805   4.901   3.767  0.5152 -0.5100 -0.0062
   85SOPE   H8R 7904   3.709   4.938   3.810 -0.0698  0.9177 -2.3462
   85SOPE   H8S 7905   3.777   4.822   3.694  0.2673 -0.2387 -0.2105
   85SOPE   C29 7906   3.900   4.845   3.872  0.0942 -0.6321 -1.0197
   85SOPE   H91 7907   3.946   4.755   3.828 -1.0602 -1.3929 -0.7180
   85SOPE  C210 7908   3.915   4.885   4.003  0.0964  0.8246  0.3173
   85SOPE  H101 7909   3.974   4.829   4.076 -0.1868 -0.9709 -0.7553
   85SOPE  C211 7910   3.831   5.001   4.053 -0.1090  0.2212  0.0381
   85SOPE  H11R 7911   3.732   4.957   4.079  0.7038 -1.4785  0.4262
   85SOPE  H11S 7912   3.825   5.069   3.965  0.4173  0.7488  0.3989
   85SOPE  C212 7913   3.892   5.086   4.168  0.4535 -0.6345  0.2393
   85SOPE  H12R 7914   3.832   5.179   4.177  0.2058 -0.8275  0.6294
   85SOPE  H12S 7915   3.985   5.131   4.127  1.1851  0.4537  2.8499
   85SOPE  C213 7916   3.903   5.014   4.300  0.2394 -0.2585  0.4704
   85SOPE  H13R 7917   3.962   4.925   4.270  0.0490 -0.1659 -0.1991
   85SOPE  H13S 7918   3.807   4.975   4.339 -0.2193 -1.2569 -1.5507
   85SOPE  C214 7919   3.986   5.105   4.399  0.0819  0.8367  0.1300
   85SOPE  H14R 7920   3.927   5.199   4.403 -0.8797  0.2105  2.2604
   85SOPE  H14S 7921   4.084   5.139   4.359  0.8896  0.8417  2.0109
   85SOPE  C215 7922   3.995   5.045   4.543  0.3925 -0.1094  0.3783
   85SOPE  H15R 7923   4.054   4.952   4.530  0.5005 -0.0468  0.4189
   85SOPE  H15S 7924   3.892   5.029   4.580 -0.2759 -0.4488 -1.5608
   85SOPE  C216 7925   4.069   5.136   4.649  0.5675  0.3661  1.1550
   85SOPE  H16R 7926   4.004   5.219   4.685  0.3366  1.0989 -0.7816
   85SOPE  H16S 7927   4.141   5.184   4.579  0.1282 -1.5707 -0.7569
   85SOPE  C217 7928   4.141   5.060   4.759  1.3425  0.4377 -0.0721
   85SOPE  H17R 7929   4.076   4.994   4.821  0.9268  0.6953 -0.2324
   85SOPE  H17S 7930   4.186   5.138   4.824 -1.9723  1.8091  0.7890
   85SOPE  C218 7931   4.260   4.965   4.716 -0.1945 -0.7776 -0.0209
   85SOPE  H18R 7932   4.332   5.021   4.653  1.0167  0.5868  2.4315
   85SOPE  H18S 7933   4.222   4.889   4.643  4.0449 -0.8566 -2.4521
   85SOPE  H18T 7934   4.311   4.915   4.801 -1.5660 -1.8460  0.2187
   85SOPE   C33 7935   4.319   4.834   3.031 -0.5361  0.2591  0.3824
   85SOPE   H3X 7936   4.222   4.780   3.033  0.2487 -1.2505 -0.9799
   85SOPE   H3Y 7937   4.285   4.939   3.046 -0.8550  0.0589  1.1429
   85SOPE   C34 7938   4.400   4.782   3.157  0.5929 -0.2573  0.1215
   85SOPE   H4X 7939   4.490   4.846   3.156 -0.0172  0.7082 -2.4818
   85SOPE   H4Y 7940   4.430   4.676   3.145 -1.1116 -1.0517  2.1872
   85SOPE   C35 7941   4.325   4.801   3.289 -0.1056 -0.7114 -0.5217
   85SOPE   H5X 7942   4.225   4.753   3.294 -1.1085  1.3701  0.6294
   85SOPE   H5Y 7943   4.304   4.910   3.299 -2.4301 -1.0702 -0.9712
   85SOPE   C36 7944   4.420   4.751   3.406  0.7751 -0.2049 -0.6014
   85SOPE   H6X 7945   4.514   4.809   3.394 -1.1040  2.9274 -1.3730
   85SOPE   H6Y 7946   4.442   4.642   3.398 -0.5455 -0.5636  0.3137
   85SOPE   C37 7947   4.338   4.773   3.539 -0.8715  0.0164 -0.0888
   85SOPE   H7X 7948   4.241   4.719   3.537 -1.8369  1.6012  1.2743
   85SOPE   H7Y 7949   4.315   4.882   3.540  2.6037  0.8747 -0.6045
   85SOPE   C38 7950   4.417   4.743   3.666 -0.5243 -0.2481  0.4990
   85SOPE   H8X 7951   4.503   4.812   3.677 -0.6425  0.0916 -0.5305
   85SOPE   H8Y 7952   4.443   4.635   3.659  0.5796  0.0783 -1.2300
   85SOPE   C39 7953   4.330   4.770   3.790 -0.0251 -0.1587  0.2366
   85SOPE   H9X 7954   4.222   4.757   3.771 -0.3431 -0.6674  2.1678
   85SOPE   H9Y 7955   4.342   4.877   3.817 -0.5636  0.2170 -0.9825
   85SOPE  C310 7956   4.369   4.694   3.913  0.4393  0.7855  0.4146
   85SOPE  H10X 7957   4.480   4.699   3.917  0.5496  1.4750 -1.9069
   85SOPE  H10Y 7958   4.336   4.588   3.904  2.4738  0.1992 -0.8791
   85SOPE  C311 7959   4.322   4.749   4.047 -0.6320  0.1110  0.0637
   85SOPE  H11X 7960   4.213   4.765   4.041 -0.8432 -1.1282  0.1657
   85SOPE  H11Y 7961   4.375   4.846   4.054  0.1105 -0.3473  1.0275
   85SOPE  C312 7962   4.332   4.647   4.158  0.2989 -0.7813 -0.2703
   85SOPE  H12X 7963   4.274   4.555   4.137 -3.1181  0.9818  0.7484
   85SOPE  H12Y 7964   4.288   4.704   4.243  0.0398  0.8015 -1.4401
   85SOPE  C313 7965   4.478   4.614   4.186  0.0506  0.8225  0.0002
   85SOPE  H13X 7966   4.530   4.712   4.184  0.1028  0.7847 -1.3992
   85SOPE  H13Y 7967   4.514   4.549   4.103  0.5888  1.0183  0.0704
   85SOPE  C314 7968   4.503   4.537   4.315  0.6367 -0.2726 -0.4275
   85SOPE  H14X 7969   4.608   4.505   4.327  0.4458 -0.1086  2.7085
   85SOPE  H14Y 7970   4.428   4.455   4.313 -0.5347  0.7402  0.1071
   85SOPE  C315 7971   4.467   4.616   4.442 -0.2462 -0.0366  0.7488
   85SOPE  H15X 7972   4.359   4.638   4.452 -0.3062 -0.8837  2.2505
   85SOPE  H15Y 7973   4.521   4.713   4.449 -1.3869  0.5181  2.1702
   85SOPE  C316 7974   4.495   4.530   4.570  0.0294  0.1095  0.7112
   85SOPE  H16X 7975   4.605   4.517   4.581 -0.0637 -0.1579  1.3319
   85SOPE  H16Y 7976   4.437   4.437   4.555  0.0450 -0.0321  1.5166
   85SOPE  C317 7977   4.446   4.589   4.701  0.7040  0.0959 -0.6679
   85SOPE  H17X 7978   4.338   4.612   4.685  0.2949 -1.0987  0.1761
   85SOPE  H17Y 7979   4.508   4.679   4.715 -1.8307  1.6528  1.5689
   85SOPE  C318 7980   4.449   4.488   4.825  0.0787 -0.3810  0.8432
   85SOPE  H18X 7981   4.556   4.464   4.841  1.0189 -0.3868 -3.8998
   85SOPE  H18Y 7982   4.400   4.397   4.782 -0.9543  0.4355  0.2520
   85SOPE  H18Z 7983   4.408   4.542   4.913  0.0661  1.2132 -0.1068
   86SOPE     N 7984   0.642   1.471   2.151  0.4055 -0.4763  0.1459
   86SOPE   HN1 7985   0.745   1.485   2.150  0.2482  0.7377  0.4505
   86SOPE   HN2 7986   0.605   1.466   2.054  0.9084 -2.2704  0.0023
   86SOPE   HN3 7987   0.601   1.556   2.193 -0.9983 -0.1653 -1.7106
   86SOPE   C12 7988   0.592   1.363   2.240 -0.8012 -0.3497 -0.4680
   86SOPE  H12A 7989   0.623   1.372   2.346 -1.5150  1.8180 -0.3947
   86SOPE  H12B 7990   0.638   1.272   2.196  1.0128  1.0527 -1.6458
   86SOPE   C11 7991   0.439   1.354   2.231 -0.7317 -0.4334  0.2331
   86SOPE  H11A 7992   0.409   1.301   2.324 -0.2641  0.7954  1.1060
   86SOPE  H11B 7993   0.420   1.304   2.133 -0.1035 -1.1352  0.4629
   86SOPE     P 7994   0.236   1.525   2.233 -0.1936 -0.3668  0.1066
   86SOPE   O13 7995   0.159   1.448   2.129  0.4552  0.0221 -0.0995
   86SOPE   O14 7996   0.215   1.675   2.226  0.0591 -0.4729 -0.5741
   86SOPE   O12 7997   0.389   1.489   2.234  0.0233  0.2902 -0.2744
   86SOPE   O11 7998   0.192   1.462   2.368 -0.4198 -0.2903  0.5304
   86SOPE    C1 7999   0.263   1.521   2.477  0.3473  0.1389  0.0089
   86SOPE    HA 8000   0.228   1.626   2.492  1.0964  0.3280  0.5069
   86SOPE    HB 8001   0.371   1.542   2.462  0.3526 -0.3437 -0.6694
   86SOPE    C2 8002   0.236   1.452   2.607  0.6660 -0.2998  0.0278
   86SOPE    HS 8003   0.248   1.343   2.588  0.2166  0.1374 -3.5705
   86SOPE   O21 8004   0.096   1.475   2.638 -0.0710  0.2529  0.1094
   86SOPE   C21 8005   0.037   1.378   2.713 -0.0367  0.3222  0.1559
   86SOPE   O22 8006   0.088   1.272   2.740 -0.3101  0.2747  0.8082
   86SOPE   C22 8007  -0.098   1.429   2.757 -0.1227  0.0434 -0.3891
   86SOPE   H2R 8008  -0.158   1.431   2.664  0.4477 -1.1113 -0.7979
   86SOPE   H2S 8009  -0.099   1.537   2.787 -0.1247 -0.6716  2.5189
   86SOPE    C3 8010   0.319   1.509   2.718  0.2293 -0.8375  0.0330
   86SOPE    HX 8011   0.279   1.610   2.739 -2.7303 -2.1484  1.3158
   86SOPE    HY 8012   0.426   1.521   2.688  0.0121  1.9149  0.1194
   86SOPE   O31 8013   0.302   1.438   2.844  0.0071 -0.1420 -0.4178
   86SOPE   C31 8014   0.359   1.319   2.837  0.2093  0.7296  0.7613
   86SOPE   O32 8015   0.440   1.283   2.757  0.3854 -0.0218 -0.4281
   86SOPE   C32 8016   0.311   1.230   2.949  0.4801 -0.0425  0.4621
   86SOPE   H2X 8017   0.227   1.173   2.904  1.2971  0.7464 -2.1948
   86SOPE   H2Y 8018   0.276   1.300   3.029  4.9630  2.5452  0.4623
   86SOPE   C23 8019  -0.152   1.348   2.873 -0.5140 -0.0425 -0.6324
   86SOPE   H3R 8020  -0.153   1.241   2.843  0.1197 -0.4203  0.6425
   86SOPE   H3S 8021  -0.258   1.380   2.880 -1.0481 -0.9804 -3.1986
   86SOPE   C24 8022  -0.078   1.381   3.007  0.0088 -0.3331  0.2441
   86SOPE   H4R 8023   0.023   1.336   2.998  0.1367  0.0019 -0.0510
   86SOPE   H4S 8024  -0.069   1.492   3.011  1.5551 -0.3509 -1.3225
   86SOPE   C25 8025  -0.161   1.341   3.128  0.8450 -0.3941 -0.5286
   86SOPE   H5R 8026  -0.269   1.365   3.115  1.6359  2.8187 -2.5956
   86SOPE   H5S 8027  -0.140   1.233   3.143  3.3281  0.2445  1.1196
   86SOPE   C26 8028  -0.108   1.394   3.261  0.7271  0.1861 -0.1206
   86SOPE   H6R 8029  -0.005   1.354   3.269  1.5439  2.1960 -0.1398
   86SOPE   H6S 8030  -0.096   1.504   3.257 -0.2541  0.2662 -1.8855
   86SOPE   C27 8031  -0.196   1.354   3.382  0.2107  0.2530 -0.3819
   86SOPE   H7R 8032  -0.239   1.255   3.354  0.1734  0.1264  0.1075
   86SOPE   H7S 8033  -0.128   1.339   3.468 -0.6756  1.8868  0.6374
   86SOPE   C28 8034  -0.309   1.444   3.428  0.3153 -0.3323  0.2877
   86SOPE   H8R 8035  -0.375   1.456   3.339  0.3419 -0.8698  0.1919
   86SOPE   H8S 8036  -0.366   1.389   3.507  2.0495  1.1362  2.6864
   86SOPE   C29 8037  -0.260   1.571   3.479 -0.3546 -0.6457  0.3147
   86SOPE   H91 8038  -0.189   1.625   3.415  0.0121 -0.7207  0.6586
   86SOPE  C210 8039  -0.299   1.624   3.597  0.5714  0.2532  0.4133
   86SOPE  H101 8040  -0.257   1.722   3.622 -1.5404  1.6093 -0.9783
   86SOPE  C211 8041  -0.392   1.562   3.706 -0.0383 -0.4517  0.4901
   86SOPE  H11R 8042  -0.372   1.455   3.728  2.1799 -0.2992 -0.4554
   86SOPE  H11S 8043  -0.499   1.561   3.679  0.0041 -1.8901  0.2674
   86SOPE  C212 8044  -0.398   1.639   3.841  0.2283  0.2515 -0.1762
   86SOPE  H12R 8045  -0.313   1.599   3.901  0.0567  0.3696  0.1487
   86SOPE  H12S 8046  -0.494   1.627   3.896  0.7475  0.3687  0.7727
   86SOPE  C213 8047  -0.399   1.791   3.830 -0.2240 -0.1962  0.0924
   86SOPE  H13R 8048  -0.487   1.837   3.782 -1.4184 -1.3491  1.1113
   86SOPE  H13S 8049  -0.303   1.824   3.783 -1.4121  2.8452 -0.4216
   86SOPE  C214 8050  -0.388   1.855   3.972  0.3852  0.4452  0.3442
   86SOPE  H14R 8051  -0.300   1.923   3.972  0.7959 -0.0515 -1.0093
   86SOPE  H14S 8052  -0.372   1.769   4.040  0.0080  0.8036  0.8893
   86SOPE  C215 8053  -0.519   1.921   4.015 -0.3345 -0.1614 -0.3062
   86SOPE  H15R 8054  -0.605   1.854   3.992 -1.4916  1.6107 -1.4084
   86SOPE  H15S 8055  -0.534   2.017   3.962  0.7757 -1.2202 -2.6727
   86SOPE  C216 8056  -0.527   1.948   4.158  0.1321 -0.3613  0.0627
   86SOPE  H16R 8057  -0.517   1.848   4.206 -1.0691 -0.5862 -0.1439
   86SOPE  H16S 8058  -0.627   1.980   4.192  0.1932  0.5172 -0.5393
   86SOPE  C217 8059  -0.414   2.035   4.217 -0.2265 -0.9563  0.8642
   86SOPE  H17R 8060  -0.315   2.014   4.172  0.8644  1.0120  2.1719
   86SOPE  H17S 8061  -0.413   2.030   4.328  2.4174  1.9674  1.1161
   86SOPE  C218 8062  -0.434   2.180   4.178 -0.5616  0.7942 -0.2292
   86SOPE  H18R 8063  -0.419   2.192   4.068 -1.3170  2.5167 -0.1759
   86SOPE  H18S 8064  -0.362   2.255   4.217  0.6429  0.5982 -1.9414
   86SOPE  H18T 8065  -0.537   2.217   4.199 -0.7814 -0.9393  2.1090
   86SOPE   C33 8066   0.414   1.136   3.004 -0.7469 -0.3140  0.4293
   86SOPE   H3X 8067   0.510   1.191   2.992 -0.1299 -1.0512  1.8664
   86SOPE   H3Y 8068   0.433   1.059   2.926 -0.3477 -0.6072  0.8160
   86SOPE   C34 8069   0.395   1.086   3.148 -0.7797  0.1617  0.1693
   86SOPE   H4X 8070   0.422   1.163   3.224 -1.5759 -0.4530  1.0959
   86SOPE   H4Y 8071   0.464   1.000   3.160 -1.2099 -0.4866 -1.7712
   86SOPE   C35 8072   0.252   1.047   3.168 -0.9386 -0.1515  0.1885
   86SOPE   H5X 8073   0.222   0.991   3.077 -0.2417 -1.5017  0.7592
   86SOPE   H5Y 8074   0.189   1.138   3.179  0.3664  0.9838 -1.3542
   86SOPE   C36 8075   0.237   0.956   3.294 -0.7452  0.1887  0.8014
   86SOPE   H6X 8076   0.285   0.860   3.263 -0.4986  0.5157  0.1474
   86SOPE   H6Y 8077   0.128   0.938   3.306 -0.6057 -2.2318 -0.8066
   86SOPE   C37 8078   0.300   1.020   3.417  0.2708 -0.0252 -0.3154
   86SOPE   H7X 8079   0.288   1.131   3.416 -1.2195 -0.0199 -4.6635
   86SOPE   H7Y 8080   0.411   1.018   3.419  0.4476  3.5249 -0.2265
   86SOPE   C38 8081   0.246   0.969   3.553  0.6115 -0.1951  0.2257
   86SOPE   H8X 8082   0.286   0.867   3.570  1.1777  0.0963  0.6527
   86SOPE   H8Y 8083   0.135   0.963   3.551  0.5879  0.1649  0.3168
   86SOPE   C39 8084   0.272   1.064   3.665  0.1194  0.1665  0.2320
   86SOPE   H9X 8085   0.226   1.162   3.642  0.1111 -0.0778 -0.8571
   86SOPE   H9Y 8086   0.383   1.072   3.676  0.1600 -1.7616  1.8464
   86SOPE  C310 8087   0.232   0.995   3.801 -0.2998 -0.2827 -0.3649
   86SOPE  H10X 8088   0.287   0.900   3.820  1.6960  1.1006  1.2292
   86SOPE  H10Y 8089   0.129   0.960   3.781 -1.4050  1.1184  2.3757
   86SOPE  C311 8090   0.229   1.095   3.923 -0.2480  0.4572  0.1253
   86SOPE  H11X 8091   0.165   1.184   3.905  0.7506  0.9064 -1.3926
   86SOPE  H11Y 8092   0.331   1.138   3.916 -0.6027  1.3202  0.1150
   86SOPE  C312 8093   0.216   1.020   4.056  0.0457  0.2192 -0.3527
   86SOPE  H12X 8094   0.293   0.941   4.055  0.1345  0.1717  2.6128
   86SOPE  H12Y 8095   0.120   0.966   4.047 -0.4699  1.3992 -2.7339
   86SOPE  C313 8096   0.229   1.115   4.173 -0.0463 -0.6374 -0.7714
   86SOPE  H13X 8097   0.171   1.209   4.160  0.2043 -0.5529 -1.3054
   86SOPE  H13Y 8098   0.334   1.145   4.189  0.3628 -1.3097 -2.0091
   86SOPE  C314 8099   0.188   1.039   4.301 -0.0727  0.4527 -0.4861
   86SOPE  H14X 8100   0.238   0.941   4.314  1.6117  1.3995  0.4530
   86SOPE  H14Y 8101   0.077   1.029   4.296  0.1364 -1.5981 -2.4098
   86SOPE  C315 8102   0.229   1.132   4.421 -0.4712 -0.6431  0.0454
   86SOPE  H15X 8103   0.169   1.225   4.421  0.9569  0.3186 -0.6179
   86SOPE  H15Y 8104   0.337   1.152   4.404 -0.1743 -1.7787  0.4665
   86SOPE  C316 8105   0.218   1.055   4.558 -0.1611  0.0146 -0.2189
   86SOPE  H16X 8106   0.274   0.960   4.549  2.1715  1.2190  0.5212
   86SOPE  H16Y 8107   0.114   1.026   4.584  0.5092 -3.5836 -1.0284
   86SOPE  C317 8108   0.288   1.133   4.669 -0.4103  0.8858  0.3005
   86SOPE  H17X 8109   0.395   1.155   4.654  0.2501 -1.5669  0.9752
   86SOPE  H17Y 8110   0.295   1.066   4.758  0.7760  0.9092  0.2343
   86SOPE  C318 8111   0.227   1.263   4.708 -1.3145  0.5842 -0.0441
   86SOPE  H18X 8112   0.256   1.348   4.643  0.6992 -0.2345 -0.2851
   86SOPE  H18Y 8113   0.236   1.295   4.814  3.3375 -0.8028  0.2208
   86SOPE  H18Z 8114   0.120   1.237   4.695 -1.5138  0.9747  0.7618
   87SOPE     N 8115   1.625   5.996   2.713  0.2054 -0.3404 -0.4011
   87SOPE   HN1 8116   1.634   6.007   2.610  1.3458  0.5135 -0.2194
   87SOPE   HN2 8117   1.669   5.915   2.762  0.2172  0.2400  0.5699
   87SOPE   HN3 8118   1.524   5.986   2.736 -0.4070  1.9115 -1.8067
   87SOPE   C12 8119   1.660   6.126   2.777  0.3176 -0.1065 -0.0489
   87SOPE  H12A 8120   1.627   6.214   2.718 -0.1532  1.5178  2.4615
   87SOPE  H12B 8121   1.770   6.131   2.794  0.8665 -0.4056 -2.9782
   87SOPE   C11 8122   1.587   6.141   2.917  0.4275 -0.2897  0.5535
   87SOPE  H11A 8123   1.627   6.236   2.959  1.9104 -0.4154 -0.4935
   87SOPE  H11B 8124   1.614   6.054   2.981  1.2994  1.3814  2.5687
   87SOPE     P 8125   1.344   6.046   2.932  0.2584 -0.0297 -0.0338
   87SOPE   O13 8126   1.367   5.940   2.840  0.1423  0.3891 -0.0705
   87SOPE   O14 8127   1.207   6.106   2.924 -0.3914  0.0949  0.2129
   87SOPE   O12 8128   1.445   6.160   2.897 -0.2928  0.2999 -0.3512
   87SOPE   O11 8129   1.387   6.003   3.076 -0.6082 -0.0324  1.0587
   87SOPE    C1 8130   1.396   6.097   3.188 -0.0069 -0.3294 -0.7405
   87SOPE    HA 8131   1.304   6.158   3.194  0.8392  0.8700  0.4728
   87SOPE    HB 8132   1.479   6.171   3.178  0.5143 -0.7010  0.6683
   87SOPE    C2 8133   1.408   6.023   3.322 -0.6591  0.1894 -0.7529
   87SOPE    HS 8134   1.516   5.996   3.331 -0.6322  0.1592 -1.1290
   87SOPE   O21 8135   1.323   5.903   3.327  0.2358 -0.1914  0.0925
   87SOPE   C21 8136   1.366   5.807   3.418  0.0762 -0.1673  0.3958
   87SOPE   O22 8137   1.472   5.819   3.479 -0.3840 -0.3295  0.2628
   87SOPE   C22 8138   1.271   5.687   3.415  0.7656  0.3651 -0.2540
   87SOPE   H2R 8139   1.309   5.638   3.323  1.7213 -2.4021  1.5070
   87SOPE   H2S 8140   1.163   5.715   3.410  0.1624 -1.7164  0.2002
   87SOPE    C3 8141   1.382   6.115   3.443 -0.0918  0.1453 -0.1915
   87SOPE    HX 8142   1.399   6.068   3.542 -0.7771  0.0719 -0.1055
   87SOPE    HY 8143   1.274   6.140   3.438  0.0221  0.8746  0.7341
   87SOPE   O31 8144   1.464   6.237   3.424  0.3789 -0.1529  0.4720
   87SOPE   C31 8145   1.438   6.331   3.511 -0.3459 -0.1923 -0.9630
   87SOPE   O32 8146   1.356   6.326   3.603  0.0798  0.1472  0.7031
   87SOPE   C32 8147   1.537   6.450   3.495 -1.1579 -0.0108 -0.1483
   87SOPE   H2X 8148   1.555   6.466   3.387  3.4417 -0.2868  0.3925
   87SOPE   H2Y 8149   1.635   6.419   3.537 -1.3797  0.9052  1.1032
   87SOPE   C23 8150   1.300   5.599   3.536  0.5134 -0.3909 -0.0878
   87SOPE   H3R 8151   1.410   5.594   3.553  0.1870  0.0684  2.6148
   87SOPE   H3S 8152   1.260   5.497   3.523 -2.3598  0.9152 -2.8064
   87SOPE   C24 8153   1.237   5.665   3.657  0.0789 -0.1431 -0.5678
   87SOPE   H4R 8154   1.287   5.764   3.667 -0.5070  0.0156  1.0418
   87SOPE   H4S 8155   1.132   5.696   3.638  0.6555  1.3615 -1.5372
   87SOPE   C25 8156   1.261   5.585   3.793 -0.1289  0.2662  0.5578
   87SOPE   H5R 8157   1.225   5.483   3.769  1.9910  0.2927 -3.8080
   87SOPE   H5S 8158   1.368   5.561   3.808 -0.2904 -0.1939  1.0130
   87SOPE   C26 8159   1.211   5.659   3.907  0.4163 -0.4534 -0.4472
   87SOPE   H6R 8160   1.250   5.761   3.925 -0.6461 -0.4633  2.3172
   87SOPE   H6S 8161   1.103   5.677   3.888  0.3491 -2.1261 -1.9106
   87SOPE   C27 8162   1.219   5.582   4.038  0.4114 -1.2238 -0.3980
   87SOPE   H7R 8163   1.137   5.508   4.037 -1.1638  0.4513 -0.8382
   87SOPE   H7S 8164   1.315   5.537   4.069 -0.3094 -1.3326  1.8584
   87SOPE   C28 8165   1.192   5.679   4.159 -0.2457  0.0994 -0.1297
   87SOPE   H8R 8166   1.288   5.731   4.182 -1.3716  0.8271  3.5332
   87SOPE   H8S 8167   1.114   5.754   4.138  0.4150  1.2288  1.2969
   87SOPE   C29 8168   1.139   5.621   4.292 -0.2745 -0.4545  0.1934
   87SOPE   H91 8169   1.072   5.535   4.281  0.7986 -1.3085  0.1587
   87SOPE  C210 8170   1.163   5.673   4.409  0.1692 -0.0158 -0.4128
   87SOPE  H101 8171   1.118   5.620   4.494  2.6432 -0.5295  0.6604
   87SOPE  C211 8172   1.257   5.792   4.441 -0.7313  0.9654  0.2989
   87SOPE  H11R 8173   1.199   5.867   4.500 -0.2068 -0.5117  2.8657
   87SOPE  H11S 8174   1.297   5.843   4.350 -0.8548 -1.5832 -1.2573
   87SOPE  C212 8175   1.384   5.762   4.529  0.5013 -0.1377 -0.1618
   87SOPE  H12R 8176   1.471   5.734   4.466 -0.7208 -2.4956 -0.9356
   87SOPE  H12S 8177   1.352   5.686   4.604  1.2795 -2.6183 -2.2182
   87SOPE  C213 8178   1.417   5.888   4.608 -0.3643 -0.0888 -0.5198
   87SOPE  H13R 8179   1.334   5.920   4.674  0.5967 -2.3229  1.9429
   87SOPE  H13S 8180   1.444   5.970   4.538  1.6297 -0.1911  0.0675
   87SOPE  C214 8181   1.543   5.859   4.699  0.7902 -0.0531  1.7385
   87SOPE  H14R 8182   1.636   5.876   4.640  0.3019  0.4324  1.0965
   87SOPE  H14S 8183   1.543   5.761   4.752 -1.6191 -0.3921  1.2159
   87SOPE  C215 8184   1.557   5.961   4.812  0.3698 -0.4740  0.3388
   87SOPE  H15R 8185   1.529   6.065   4.786  1.7646 -0.0090  0.6150
   87SOPE  H15S 8186   1.666   5.970   4.832  0.5016  0.3651 -0.7053
   87SOPE  C216 8187   1.479   5.926   4.941 -0.0767 -0.7969 -0.2805
   87SOPE  H16R 8188   1.537   5.849   4.996  0.2227  0.1246  0.7430
   87SOPE  H16S 8189   1.386   5.873   4.912 -1.0768 -0.8567  2.7094
   87SOPE  C217 8190   1.444   6.050   5.026  0.6638  0.1145 -0.3190
   87SOPE  H17R 8191   1.388   6.124   4.965 -0.3512  1.8530  2.5204
   87SOPE  H17S 8192   1.538   6.088   5.071 -0.2780  1.8473  0.2858
   87SOPE  C218 8193   1.351   6.013   5.141 -0.6715 -0.3313 -0.3159
   87SOPE  H18R 8194   1.328   6.105   5.199 -2.5102 -2.3436  2.4819
   87SOPE  H18S 8195   1.408   5.945   5.208 -0.9312  0.4078  0.6949
   87SOPE  H18T 8196   1.264   5.949   5.114  1.1917 -2.8683 -0.6625
   87SOPE   C33 8197   1.497   6.581   3.571  0.2366  0.3483 -0.2152
   87SOPE   H3X 8198   1.387   6.570   3.582  0.2179 -1.0264 -1.5683
   87SOPE   H3Y 8199   1.515   6.674   3.513  1.4147  0.2540 -0.0246
   87SOPE   C34 8200   1.563   6.580   3.714  0.5003 -0.2902  0.4929
   87SOPE   H4X 8201   1.672   6.602   3.708  1.0800 -2.9291  0.3220
   87SOPE   H4Y 8202   1.557   6.477   3.755  0.4751  0.1333  1.5783
   87SOPE   C35 8203   1.499   6.683   3.808 -0.6853 -0.1372 -0.9593
   87SOPE   H5X 8204   1.404   6.638   3.844 -0.0476 -0.6969  0.0740
   87SOPE   H5Y 8205   1.472   6.777   3.755 -0.3586 -0.5304 -1.8360
   87SOPE   C36 8206   1.592   6.714   3.929 -0.4855 -0.0013  0.0018
   87SOPE   H6X 8207   1.672   6.785   3.898 -0.6605  0.2262  0.0772
   87SOPE   H6Y 8208   1.638   6.618   3.961 -0.4642  0.3281  0.9737
   87SOPE   C37 8209   1.509   6.763   4.047 -0.4183 -0.0046  0.6743
   87SOPE   H7X 8210   1.414   6.705   4.051 -1.0071  0.9673  1.0599
   87SOPE   H7Y 8211   1.468   6.865   4.036 -1.5412 -0.6868 -3.2870
   87SOPE   C38 8212   1.583   6.751   4.182 -0.3100  0.1550 -0.2388
   87SOPE   H8X 8213   1.685   6.794   4.174 -0.8666  1.3511 -1.2113
   87SOPE   H8Y 8214   1.601   6.646   4.214 -2.1795 -0.1930 -0.2310
   87SOPE   C39 8215   1.499   6.824   4.295 -0.0258 -0.2162 -0.1639
   87SOPE   H9X 8216   1.402   6.771   4.308  0.0870 -0.1161  1.2368
   87SOPE   H9Y 8217   1.471   6.926   4.260  0.1296 -0.4779 -1.0748
   87SOPE  C310 8218   1.583   6.840   4.430  0.0955 -0.3621 -0.0003
   87SOPE  H10X 8219   1.654   6.924   4.415 -1.3006  1.3509  2.2521
   87SOPE  H10Y 8220   1.640   6.747   4.451 -1.3624 -1.1048  0.8716
   87SOPE  C311 8221   1.495   6.853   4.556 -0.4493 -0.5003 -0.0628
   87SOPE  H11X 8222   1.423   6.770   4.574 -0.7769  0.0915  1.4246
   87SOPE  H11Y 8223   1.441   6.947   4.536 -2.0128 -1.2571  0.4444
   87SOPE  C312 8224   1.589   6.873   4.674 -0.0993 -0.4252  0.0696
   87SOPE  H12X 8225   1.677   6.934   4.646  0.0347  0.0108  1.4204
   87SOPE  H12Y 8226   1.620   6.773   4.712  2.9978  0.4163  0.0108
   87SOPE  C313 8227   1.512   6.944   4.787 -0.2461  0.2087  0.5596
   87SOPE  H13X 8228   1.405   6.916   4.798 -1.0421  3.5067  3.0373
   87SOPE  H13Y 8229   1.515   7.055   4.776  0.0462  0.2649  1.1733
   87SOPE  C314 8230   1.574   6.926   4.925  0.2210  0.1672  0.0790
   87SOPE  H14X 8231   1.676   6.967   4.915 -0.3654  1.0836 -3.2900
   87SOPE  H14Y 8232   1.583   6.819   4.953  1.0143 -0.0111 -0.8063
   87SOPE  C315 8233   1.497   6.999   5.040  1.4225  0.5705 -0.1864
   87SOPE  H15X 8234   1.391   6.969   5.023  1.3368  1.9229 -2.3997
   87SOPE  H15Y 8235   1.484   7.108   5.026 -0.5206  0.4745  0.6006
   87SOPE  C316 8236   1.552   6.960   5.181  0.4388 -0.3393 -0.0173
   87SOPE  H16X 8237   1.657   6.995   5.190 -0.4218  2.4510  0.1150
   87SOPE  H16Y 8238   1.544   6.851   5.204 -2.4739  0.0983  1.4555
   87SOPE  C317 8239   1.474   7.018   5.301  0.2880  0.3107  0.4715
   87SOPE  H17X 8240   1.365   6.996   5.296  0.1239 -0.6249  4.5211
   87SOPE  H17Y 8241   1.470   7.129   5.301 -0.6761  0.3653 -2.9254
   87SOPE  C318 8242   1.519   6.961   5.437 -0.3262 -0.1266  0.1956
   87SOPE  H18X 8243   1.625   6.989   5.453  0.0255  0.8440 -3.0831
   87SOPE  H18Y 8244   1.503   6.851   5.434 -2.8303  0.1894 -2.1483
   87SOPE  H18Z 8245   1.461   7.017   5.514  0.4630  1.8444 -0.5678
   88SOPE     N 8246   2.151   6.136   2.626  0.4061  0.6214 -0.1750
   88SOPE   HN1 8247   2.104   6.182   2.545 -3.7083 -1.4103  0.8023
   88SOPE   HN2 8248   2.242   6.093   2.599  1.4326  1.4783  1.7278
   88SOPE   HN3 8249   2.093   6.053   2.650 -1.9893  1.6200 -2.1117
   88SOPE   C12 8250   2.150   6.225   2.746 -0.5916 -1.4691 -0.3187
   88SOPE  H12A 8251   2.145   6.164   2.838 -1.4302 -0.2500  0.4798
   88SOPE  H12B 8252   2.055   6.282   2.737  0.9731  1.9300  2.3813
   88SOPE   C11 8253   2.273   6.324   2.749  0.3238 -0.0404  0.4484
   88SOPE  H11A 8254   2.363   6.261   2.764  0.9508  0.8916  0.6568
   88SOPE  H11B 8255   2.259   6.396   2.833 -2.9740  0.4756 -0.3792
   88SOPE     P 8256   2.386   6.517   2.597  0.0609 -0.1608 -0.4203
   88SOPE   O13 8257   2.305   6.635   2.567 -0.4055  0.0987  0.0654
   88SOPE   O14 8258   2.489   6.480   2.491  0.2695 -0.5619  0.3989
   88SOPE   O12 8259   2.289   6.391   2.616  0.0519  0.6214 -0.2318
   88SOPE   O11 8260   2.452   6.534   2.743  0.0705  0.0501 -0.3428
   88SOPE    C1 8261   2.590   6.561   2.750  0.1416  0.2673  0.4601
   88SOPE    HA 8262   2.609   6.667   2.723  0.9431  0.0053 -0.0459
   88SOPE    HB 8263   2.649   6.496   2.682 -0.7759 -0.4875  0.3633
   88SOPE    C2 8264   2.637   6.543   2.900  0.0168  0.0790  0.8678
   88SOPE    HS 8265   2.608   6.641   2.943 -1.1456  0.7490 -1.2974
   88SOPE   O21 8266   2.779   6.521   2.898  0.4190 -0.2115  0.1780
   88SOPE   C21 8267   2.845   6.631   2.910 -0.2798 -0.5340 -0.2514
   88SOPE   O22 8268   2.805   6.746   2.916 -0.2962  0.0299 -0.4174
   88SOPE   C22 8269   2.993   6.589   2.931 -0.3522 -0.4169  1.0955
   88SOPE   H2R 8270   3.012   6.537   2.834 -4.2714 -2.3917  1.1820
   88SOPE   H2S 8271   3.003   6.518   3.016 -0.0305  0.1206  1.5103
   88SOPE    C3 8272   2.570   6.434   2.984  0.9116  0.3192  0.3358
   88SOPE    HX 8273   2.545   6.349   2.917  2.7978 -1.0193  1.2273
   88SOPE    HY 8274   2.473   6.480   3.013  1.1259  0.8196  0.2683
   88SOPE   O31 8275   2.636   6.408   3.109  0.0780 -0.0079 -0.2079
   88SOPE   C31 8276   2.622   6.280   3.143  0.4574  0.3862  0.7050
   88SOPE   O32 8277   2.565   6.200   3.069 -0.4688  0.1362  0.4672
   88SOPE   C32 8278   2.678   6.234   3.269  0.0551 -0.2923  0.6865
   88SOPE   H2X 8279   2.754   6.153   3.264  1.5108  1.0456  0.3095
   88SOPE   H2Y 8280   2.588   6.191   3.318 -1.1414  0.5780 -0.6561
   88SOPE   C23 8281   3.093   6.704   2.965 -0.0800 -0.8526 -0.7780
   88SOPE   H3R 8282   3.102   6.764   2.872  0.5602 -1.9628 -1.4523
   88SOPE   H3S 8283   3.191   6.652   2.969 -0.9425 -2.6185 -1.3928
   88SOPE   C24 8284   3.052   6.778   3.095 -0.0264  0.0106  0.0931
   88SOPE   H4R 8285   2.979   6.857   3.063 -0.1162  0.6961  1.8964
   88SOPE   H4S 8286   3.005   6.710   3.169 -0.0079 -1.6677 -1.3831
   88SOPE   C25 8287   3.181   6.843   3.157 -0.1189  0.1028 -0.3866
   88SOPE   H5R 8288   3.249   6.761   3.189  0.4081  0.5347 -0.3852
   88SOPE   H5S 8289   3.241   6.884   3.074  0.9280 -0.7325 -0.0660
   88SOPE   C26 8290   3.161   6.959   3.257 -0.1473 -0.3229 -0.0298
   88SOPE   H6R 8291   3.126   6.923   3.357 -0.8702 -2.8722 -1.1214
   88SOPE   H6S 8292   3.258   7.004   3.285 -1.6320  2.5674  0.8383
   88SOPE   C27 8293   3.063   7.069   3.212  0.5841 -0.4174  0.1931
   88SOPE   H7R 8294   2.965   7.017   3.209  0.0399  0.6057 -0.0415
   88SOPE   H7S 8295   3.049   7.145   3.291 -1.4870 -1.2209  0.6685
   88SOPE   C28 8296   3.106   7.130   3.079 -0.4098  0.0012  0.4055
   88SOPE   H8R 8297   3.211   7.164   3.088  0.7100 -2.1822 -2.5578
   88SOPE   H8S 8298   3.126   7.039   3.018  0.6135  0.9990 -0.7815
   88SOPE   C29 8299   2.999   7.224   3.030 -0.3010  0.2014 -0.1234
   88SOPE   H91 8300   2.909   7.178   2.986  0.3962 -0.2227 -1.1437
   88SOPE  C210 8301   3.012   7.353   3.035 -0.1331  0.3929  0.0462
   88SOPE  H101 8302   2.935   7.413   2.986  0.6742  0.3410 -1.3296
   88SOPE  C211 8303   3.133   7.428   3.089  0.2047 -0.2499 -0.0370
   88SOPE  H11R 8304   3.221   7.426   3.020 -1.2390 -1.3421 -1.9412
   88SOPE  H11S 8305   3.172   7.371   3.177 -1.0668 -3.4193 -1.3572
   88SOPE  C212 8306   3.091   7.571   3.121  0.4116  0.4862 -0.1981
   88SOPE  H12R 8307   3.089   7.630   3.027  0.3976  0.9506  0.0866
   88SOPE  H12S 8308   3.177   7.605   3.182  1.3783 -1.4645 -0.3942
   88SOPE  C213 8309   2.973   7.593   3.221  0.1755 -0.5779  0.5667
   88SOPE  H13R 8310   2.870   7.572   3.183 -0.1351 -2.8715  2.4576
   88SOPE  H13S 8311   2.965   7.703   3.235 -4.0781 -0.6112 -0.1439
   88SOPE  C214 8312   2.986   7.517   3.353 -0.0778  0.0457 -0.5972
   88SOPE  H14R 8313   3.012   7.409   3.343 -0.9787 -0.0560 -2.0753
   88SOPE  H14S 8314   2.890   7.536   3.405 -0.4540  0.5852 -1.4670
   88SOPE  C215 8315   3.090   7.588   3.451  0.0969 -0.5478  0.5945
   88SOPE  H15R 8316   3.098   7.698   3.444  1.4090 -0.7322 -1.9749
   88SOPE  H15S 8317   3.187   7.541   3.423  0.1962 -0.9687  1.6023
   88SOPE  C216 8318   3.064   7.557   3.598 -0.3810  0.4326 -0.1447
   88SOPE  H16R 8319   3.019   7.457   3.616 -3.5556  1.8320  0.4475
   88SOPE  H16S 8320   2.981   7.626   3.628 -1.7536 -0.5743 -1.4489
   88SOPE  C217 8321   3.183   7.580   3.698  0.0347  0.3246  0.5447
   88SOPE  H17R 8322   3.214   7.687   3.696  0.0603  0.3082 -0.0133
   88SOPE  H17S 8323   3.262   7.519   3.651 -0.9327 -0.4518 -0.0978
   88SOPE  C218 8324   3.160   7.530   3.843 -0.0005  0.8564  0.1970
   88SOPE  H18R 8325   3.253   7.533   3.903  0.6357  0.0429 -0.7040
   88SOPE  H18S 8326   3.129   7.425   3.860 -4.2285  1.9374  0.4256
   88SOPE  H18T 8327   3.076   7.586   3.889  0.3134  0.7733  0.8784
   88SOPE   C33 8328   2.742   6.341   3.361  0.0328  0.0565  0.0453
   88SOPE   H3X 8329   2.655   6.409   3.378 -0.4644 -0.1750 -1.4000
   88SOPE   H3Y 8330   2.818   6.395   3.301  0.7346 -1.0330 -0.0742
   88SOPE   C34 8331   2.805   6.289   3.493  0.2395  0.2977  0.2570
   88SOPE   H4X 8332   2.845   6.380   3.544  3.2694  0.6722 -2.4864
   88SOPE   H4Y 8333   2.893   6.224   3.477 -0.3437 -1.3531  3.0701
   88SOPE   C35 8334   2.714   6.213   3.597  0.8993  0.0870  0.4704
   88SOPE   H5X 8335   2.668   6.123   3.552  1.7648 -0.1378  0.0337
   88SOPE   H5Y 8336   2.625   6.278   3.612  1.0130  0.2572  0.4061
   88SOPE   C36 8337   2.769   6.187   3.728 -0.3895  0.0908 -0.0518
   88SOPE   H6X 8338   2.878   6.174   3.710 -0.5827 -0.9155 -0.5714
   88SOPE   H6Y 8339   2.726   6.088   3.754  3.1432 -2.1077 -1.6836
   88SOPE   C37 8340   2.738   6.287   3.833 -0.1034 -0.7284 -0.7614
   88SOPE   H7X 8341   2.629   6.305   3.839 -0.0431 -0.4182 -0.5961
   88SOPE   H7Y 8342   2.789   6.378   3.796 -2.1760  0.4982 -0.7269
   88SOPE   C38 8343   2.799   6.239   3.971  0.0402  0.3439 -0.4075
   88SOPE   H8X 8344   2.909   6.254   3.976  0.1624 -0.8098  1.1531
   88SOPE   H8Y 8345   2.778   6.131   3.986 -1.1444  0.6486  0.2449
   88SOPE   C39 8346   2.743   6.320   4.089 -0.6962 -0.1250 -0.0371
   88SOPE   H9X 8347   2.632   6.322   4.092 -0.6953 -0.0343 -0.0576
   88SOPE   H9Y 8348   2.773   6.425   4.068 -2.6561  1.0030  2.1962
   88SOPE  C310 8349   2.811   6.278   4.222  0.3185  0.1848  0.7864
   88SOPE  H10X 8350   2.919   6.303   4.219 -0.3357  3.8529  2.7488
   88SOPE  H10Y 8351   2.780   6.172   4.238  0.5787 -0.3413 -1.7864
   88SOPE  C311 8352   2.757   6.348   4.349  0.8961 -0.4003 -0.7733
   88SOPE  H11X 8353   2.797   6.287   4.433  1.2051 -0.9178 -1.2914
   88SOPE  H11Y 8354   2.647   6.335   4.355  1.1039 -1.8911  0.5105
   88SOPE  C312 8355   2.798   6.495   4.345  0.1934  0.5237 -0.4930
   88SOPE  H12X 8356   2.740   6.535   4.259 -1.6336  0.2272  0.5493
   88SOPE  H12Y 8357   2.907   6.490   4.325 -0.0548 -0.2579 -1.7702
   88SOPE  C313 8358   2.771   6.577   4.470 -0.7281  0.1673 -0.1830
   88SOPE  H13X 8359   2.765   6.686   4.449 -0.5280  0.0717 -0.7816
   88SOPE  H13Y 8360   2.854   6.557   4.541  0.6625  0.8863 -1.5259
   88SOPE  C314 8361   2.640   6.541   4.543 -0.1243  0.3535  0.5734
   88SOPE  H14X 8362   2.636   6.434   4.575 -1.4017 -0.2997 -1.5958
   88SOPE  H14Y 8363   2.552   6.560   4.479 -0.4455 -2.1299  0.1907
   88SOPE  C315 8364   2.618   6.623   4.675 -0.4430 -0.1360 -0.8959
   88SOPE  H15X 8365   2.628   6.730   4.647  1.6048 -0.4802 -1.6572
   88SOPE  H15Y 8366   2.695   6.590   4.748 -0.7974 -1.9551 -1.2939
   88SOPE  C316 8367   2.475   6.598   4.747 -0.5179 -0.1240 -0.0387
   88SOPE  H16X 8368   2.453   6.683   4.815 -0.3326  0.4765 -0.7324
   88SOPE  H16Y 8369   2.472   6.506   4.810 -0.2802 -0.2179 -0.1630
   88SOPE  C317 8370   2.360   6.598   4.645  0.4101  0.0446  0.2430
   88SOPE  H17X 8371   2.377   6.504   4.589  2.9975  0.5065  0.1590
   88SOPE  H17Y 8372   2.377   6.683   4.575 -0.0763  1.5061  1.8441
   88SOPE  C318 8373   2.225   6.607   4.708 -0.3610 -0.5731  0.6451
   88SOPE  H18X 8374   2.198   6.531   4.785 -1.2021  0.7625  1.7086
   88SOPE  H18Y 8375   2.156   6.571   4.628 -0.2093  0.8531 -0.1561
   88SOPE  H18Z 8376   2.197   6.713   4.726 -0.0400 -0.2396 -0.7041
   89SAPC     N 8377   0.898   1.412   7.722 -0.2481 -0.1404  0.2341
   89SAPC   C12 8378   0.881   1.401   7.566  0.3347  0.3382 -0.2600
   89SAPC  H12A 8379   0.938   1.320   7.523  0.2517  0.0834  0.0956
   89SAPC  H12B 8380   0.910   1.499   7.533  0.5416  1.4874  2.9685
   89SAPC   C13 8381   0.856   1.544   7.769 -0.1929 -0.3093  0.2563
   89SAPC  H13A 8382   0.749   1.549   7.753 -0.3412  1.1529  1.5455
   89SAPC  H13B 8383   0.856   1.547   7.877 -0.1422  3.8643  0.2899
   89SAPC  H13C 8384   0.910   1.624   7.721  0.0339 -1.1314 -0.9064
   89SAPC   C14 8385   0.816   1.300   7.794  0.4293  0.0107  0.9011
   89SAPC  H14A 8386   0.847   1.201   7.762 -3.9404 -0.5306 -2.5857
   89SAPC  H14B 8387   0.841   1.313   7.899 -0.0591  0.5083  0.9590
   89SAPC  H14C 8388   0.712   1.325   7.783  1.3901  4.8118  0.8738
   89SAPC   C15 8389   1.044   1.392   7.755 -0.4883 -0.3315  0.1000
   89SAPC  H15A 8390   1.055   1.379   7.861 -1.0224 -1.8320 -0.0102
   89SAPC  H15B 8391   1.088   1.299   7.721 -0.1711 -0.1027 -0.1319
   89SAPC  H15C 8392   1.104   1.472   7.712 -0.7503 -1.2245 -2.0606
   89SAPC   C11 8393   0.731   1.386   7.509 -0.4483 -0.0362 -0.6097
   89SAPC  H11A 8394   0.732   1.427   7.405  2.3487 -1.4082 -1.2463
   89SAPC  H11B 8395   0.668   1.452   7.572  0.2192  1.1966 -1.2065
   89SAPC     P 8396   0.760   1.133   7.451  0.0526  0.1290  0.1368
   89SAPC   O13 8397   0.901   1.121   7.496  0.1281  0.4812 -0.1087
   89SAPC   O14 8398   0.672   1.015   7.454 -0.3343  0.0466 -0.0970
   89SAPC   O12 8399   0.689   1.248   7.532 -0.2864 -0.0664 -0.0968
   89SAPC   O11 8400   0.761   1.201   7.304 -0.2270  0.4301 -0.1466
   89SAPC    C1 8401   0.635   1.209   7.242 -0.9729 -0.3426  0.4172
   89SAPC    HA 8402   0.542   1.194   7.300 -0.8105 -2.4367  0.2180
   89SAPC    HB 8403   0.632   1.312   7.200 -1.8064 -1.0129 -1.2726
   89SAPC    C2 8404   0.628   1.118   7.121 -0.6801  0.2443  0.1201
   89SAPC    HS 8405   0.628   1.016   7.167 -0.8623  0.7795  1.3409
   89SAPC   O21 8406   0.732   1.147   7.028  0.6407 -0.3327 -0.0920
   89SAPC   C21 8407   0.775   1.044   6.953  0.0510  0.0960  0.2606
   89SAPC   O22 8408   0.734   0.931   6.968  0.3877  0.0654  0.0326
   89SAPC   C22 8409   0.874   1.092   6.850  1.1085 -0.2006  0.0857
   89SAPC   H2R 8410   0.819   1.169   6.792 -0.6989 -1.4959 -0.0146
   89SAPC   H2S 8411   0.953   1.140   6.912  0.3032  1.1511  0.0847
   89SAPC    C3 8412   0.483   1.126   7.056  0.0816 -0.0185 -0.0402
   89SAPC    HX 8413   0.468   1.229   7.017 -2.4831 -0.2063  0.2674
   89SAPC    HY 8414   0.403   1.123   7.134 -0.6145 -2.0346 -0.7642
   89SAPC   O31 8415   0.474   1.038   6.942 -0.6197  0.0754 -0.0505
   89SAPC   C31 8416   0.395   0.929   6.952  0.4407  0.2846 -0.1870
   89SAPC   O32 8417   0.321   0.901   7.049  0.4460  0.2604  0.0848
   89SAPC   C32 8418   0.420   0.832   6.838  0.1102 -0.1202 -0.4739
   89SAPC   H2X 8419   0.511   0.773   6.862  0.1162 -1.3111 -3.0506
   89SAPC   H2Y 8420   0.443   0.890   6.746 -2.7420 -1.2685 -2.0775
   89SAPC   C23 8421   0.926   0.975   6.761 -0.2370 -0.4247 -0.2768
   89SAPC   H3R 8422   0.834   0.943   6.707 -0.0685 -1.5689  0.0783
   89SAPC   H3S 8423   0.949   0.888   6.827 -5.5297 -1.1636  1.0648
   89SAPC   C24 8424   1.044   1.009   6.653 -0.6171  0.3406  0.6373
   89SAPC   H4R 8425   1.133   1.034   6.715  0.3513  2.5265 -1.4417
   89SAPC   H4S 8426   1.027   1.093   6.581 -2.9840  0.0466  0.7676
   89SAPC   C25 8427   1.077   0.886   6.574 -0.2292  0.5960 -0.0396
   89SAPC   H5R 8428   1.099   0.794   6.631 -0.3544  0.4210 -0.2721
   89SAPC   C26 8429   1.070   0.864   6.442  0.9032  0.7475  0.2054
   89SAPC   H6R 8430   1.075   0.758   6.413 -2.0135  0.4499  0.4425
   89SAPC   C27 8431   1.016   0.968   6.347  0.6438  0.4062 -0.2867
   89SAPC   H7R 8432   1.089   1.050   6.340  0.7789  0.1375 -2.5838
   89SAPC   H7S 8433   0.917   1.009   6.377 -1.2242 -2.7182 -1.6170
   89SAPC   C28 8434   0.994   0.918   6.207  0.7574  0.0590  0.5313
   89SAPC   H8R 8435   0.899   0.866   6.192  0.0789  1.4849 -0.2948
   89SAPC   C29 8436   1.086   0.929   6.105  0.9217  0.0456 -0.2419
   89SAPC   H9R 8437   1.071   0.885   6.005  0.6107  1.1214 -0.6773
   89SAPC  C210 8438   1.215   1.000   6.123  0.1205 -0.5814 -0.0073
   89SAPC  H10R 8439   1.259   0.956   6.215 -0.9767  0.8898  1.2837
   89SAPC  H10S 8440   1.199   1.106   6.152  0.1042 -0.4646 -0.4311
   89SAPC  C211 8441   1.307   0.993   6.004  0.0065  0.4636 -0.7276
   89SAPC  H11R 8442   1.294   1.073   5.929  1.3572  1.7679  0.3807
   89SAPC  C212 8443   1.402   0.899   5.978  0.0568  0.1616  0.2171
   89SAPC  H12R 8444   1.464   0.910   5.889  0.6474 -0.4236  0.5529
   89SAPC  C213 8445   1.447   0.783   6.063 -0.6308  0.5814  0.1122
   89SAPC  H13R 8446   1.457   0.813   6.170 -1.3470 -0.0363  0.3680
   89SAPC  H13S 8447   1.549   0.752   6.034  0.3501  2.6303  1.2058
   89SAPC  C214 8448   1.352   0.673   6.044 -0.0797  0.6138  0.0965
   89SAPC  H14R 8449   1.326   0.651   5.939 -0.7854 -0.7164  0.5288
   89SAPC  C215 8450   1.293   0.609   6.144 -0.1247 -0.1448 -0.1824
   89SAPC  H15R 8451   1.213   0.536   6.123  0.6252 -0.9613 -0.2992
   89SAPC  C216 8452   1.329   0.627   6.290  0.0691  0.4078  0.1793
   89SAPC  H16R 8453   1.257   0.690   6.345  0.1004  1.2505 -0.7262
   89SAPC  H16S 8454   1.427   0.677   6.303  0.1996 -0.2403  2.0265
   89SAPC  C217 8455   1.331   0.494   6.371  0.8154  0.8330 -0.2130
   89SAPC  H17R 8456   1.415   0.428   6.341 -0.0677 -0.9983  1.1404
   89SAPC  H17S 8457   1.236   0.440   6.354  0.1085  2.4565 -1.6828
   89SAPC  C218 8458   1.332   0.521   6.521  0.3003 -0.2318 -0.5064
   89SAPC  H18R 8459   1.268   0.611   6.529  1.4267  0.8494 -2.7435
   89SAPC  H18S 8460   1.430   0.567   6.544  0.3225 -0.3483 -0.3669
   89SAPC  C219 8461   1.291   0.410   6.619 -0.4063 -0.2513 -1.1101
   89SAPC  H19R 8462   1.363   0.325   6.616 -2.0036 -1.6602 -1.1152
   89SAPC  H19S 8463   1.195   0.372   6.577 -0.4999 -0.3569 -0.8059
   89SAPC  C220 8464   1.285   0.465   6.762 -0.7187  0.6131  0.3796
   89SAPC  H20R 8465   1.386   0.498   6.792 -1.0115  1.3286  0.6032
   89SAPC  H20S 8466   1.255   0.383   6.830  1.8592  0.1588  1.0591
   89SAPC  H20T 8467   1.210   0.546   6.772 -2.3953 -0.9863  1.3762
   89SAPC   C33 8468   0.315   0.720   6.831 -0.3023 -0.2801  0.0274
   89SAPC   H3X 8469   0.212   0.759   6.823  0.0600  0.9764  1.1220
   89SAPC   H3Y 8470   0.310   0.650   6.918  1.3533  0.2733  0.6037
   89SAPC   C34 8471   0.355   0.614   6.724  0.5703 -0.2594 -0.2520
   89SAPC   H4X 8472   0.442   0.552   6.754  0.9077  0.4972  0.3989
   89SAPC   H4Y 8473   0.377   0.680   6.637 -0.9880 -0.8862 -1.1738
   89SAPC   C35 8474   0.243   0.516   6.683 -0.8365  0.4529  0.1269
   89SAPC   H5X 8475   0.148   0.572   6.669 -1.3682 -0.9026 -2.2325
   89SAPC   H5Y 8476   0.231   0.451   6.772 -3.8179 -0.7958 -1.0795
   89SAPC   C36 8477   0.251   0.432   6.556 -0.0926  0.2816  0.0544
   89SAPC   H6X 8478   0.157   0.375   6.539 -0.1996  0.2543  0.7075
   89SAPC   H6Y 8479   0.329   0.357   6.578  2.0348  1.5241 -2.5395
   89SAPC   C37 8480   0.306   0.511   6.431 -0.1432  0.1313 -0.0447
   89SAPC   H7X 8481   0.410   0.541   6.455 -1.3479  1.3414  4.5569
   89SAPC   H7Y 8482   0.247   0.600   6.403 -0.0590  0.2646  0.1949
   89SAPC   C38 8483   0.347   0.424   6.303  0.8307  0.0625  0.4745
   89SAPC   H8X 8484   0.252   0.407   6.248  0.7831  3.1349 -0.5326
   89SAPC   H8Y 8485   0.408   0.331   6.315 -0.8826 -1.3543 -1.1177
   89SAPC   C39 8486   0.430   0.518   6.218 -0.5884  0.5582  0.5803
   89SAPC   H9X 8487   0.463   0.452   6.135 -3.3085 -2.2977  1.5433
   89SAPC   H9Y 8488   0.522   0.547   6.273  0.4646 -0.8217 -0.3801
   89SAPC  C310 8489   0.352   0.644   6.164  0.2275 -0.0761 -0.0821
   89SAPC  H10X 8490   0.353   0.726   6.238  0.2543 -0.5133  0.4098
   89SAPC  H10Y 8491   0.243   0.626   6.167  0.0646  1.0174  1.3965
   89SAPC  C311 8492   0.398   0.679   6.022  0.3818 -0.5131  0.5860
   89SAPC  H11X 8493   0.509   0.672   6.022  0.4092 -0.3532 -0.5415
   89SAPC  H11Y 8494   0.372   0.786   6.003  0.3559 -0.5497  0.4099
   89SAPC  C312 8495   0.327   0.596   5.906  0.1584 -0.0949 -0.1218
   89SAPC  H12X 8496   0.219   0.589   5.934 -0.0591 -2.9934 -1.3201
   89SAPC  H12Y 8497   0.375   0.496   5.902 -1.1385 -0.7247 -0.8888
   89SAPC  C313 8498   0.333   0.665   5.774  0.0533 -0.0133 -0.4676
   89SAPC  H13X 8499   0.275   0.760   5.780 -2.0584 -1.2362 -0.6986
   89SAPC  H13Y 8500   0.292   0.597   5.697 -3.3049 -0.1851  1.3059
   89SAPC  C314 8501   0.483   0.680   5.739  0.5052  0.3176  0.4053
   89SAPC  H14X 8502   0.510   0.585   5.688  0.2492  0.3295  0.2453
   89SAPC  H14Y 8503   0.554   0.698   5.823  1.7764  3.4642 -1.1827
   89SAPC  C315 8504   0.510   0.796   5.641  0.1935 -0.2014  0.5647
   89SAPC  H15X 8505   0.620   0.808   5.633  0.0482 -0.3457 -2.8973
   89SAPC  H15Y 8506   0.473   0.891   5.687  3.4878  0.7635  1.4414
   89SAPC  C316 8507   0.449   0.771   5.499 -0.3062 -0.3668 -0.3007
   89SAPC  H16X 8508   0.340   0.751   5.504 -0.5730  1.1596  0.8662
   89SAPC  H16Y 8509   0.505   0.692   5.445  2.5838  0.3891  1.3732
   89SAPC  C317 8510   0.463   0.903   5.415  0.0188 -0.4236 -0.1492
   89SAPC  H17X 8511   0.573   0.917   5.419 -0.1821  1.0218  2.2997
   89SAPC  H17Y 8512   0.412   0.974   5.483  1.3991 -2.1180  2.8770
   89SAPC  C318 8513   0.397   0.892   5.281  0.3860 -0.5627  0.3625
   89SAPC  H18X 8514   0.288   0.900   5.296  0.1837  0.6653 -1.4172
   89SAPC  H18Y 8515   0.412   0.793   5.231 -0.3892  0.1252 -1.3165
   89SAPC  H18Z 8516   0.414   0.973   5.207 -1.5357 -0.8333 -0.4217
   90SAPC     N 8517   4.166   1.444   7.548 -0.5066  0.6607  0.2349
   90SAPC   C12 8518   4.226   1.453   7.412 -0.4827  0.1826 -0.3377
   90SAPC  H12A 8519   4.329   1.424   7.421 -1.5963 -3.8570  2.2391
   90SAPC  H12B 8520   4.219   1.553   7.373 -0.9492 -0.1843 -1.2144
   90SAPC   C13 8521   4.175   1.302   7.597  0.1203  0.3232  0.2702
   90SAPC  H13A 8522   4.132   1.230   7.530 -1.2234  1.7857 -0.4979
   90SAPC  H13B 8523   4.278   1.274   7.615 -0.2075 -0.6340  0.6742
   90SAPC  H13C 8524   4.125   1.291   7.692 -0.6034 -0.4684 -0.1987
   90SAPC   C14 8525   4.243   1.526   7.650 -0.1815 -0.4864  0.0499
   90SAPC  H14A 8526   4.343   1.489   7.663  0.4414  0.7378 -0.9456
   90SAPC  H14B 8527   4.244   1.629   7.617  1.6382 -0.2476  0.7889
   90SAPC  H14C 8528   4.191   1.529   7.744 -1.7791 -0.5941 -0.7930
   90SAPC   C15 8529   4.025   1.487   7.559 -0.0577 -0.2253 -0.0105
   90SAPC  H15A 8530   3.956   1.425   7.505  1.8121 -2.0444 -0.4546
   90SAPC  H15B 8531   3.993   1.485   7.662 -1.6516 -0.0608 -0.4734
   90SAPC  H15C 8532   4.013   1.589   7.524 -0.6511 -0.4220 -0.3877
   90SAPC   C11 8533   4.166   1.364   7.298 -0.6881 -0.3463 -0.6417
   90SAPC  H11A 8534   4.174   1.258   7.330  1.2448 -0.4185 -1.2463
   90SAPC  H11B 8535   4.240   1.365   7.215  1.2507 -2.2017  0.9722
   90SAPC     P 8536   4.013   1.497   7.135 -0.4351 -0.4025 -0.1360
   90SAPC   O13 8537   3.867   1.529   7.136 -0.0030  0.3667 -0.1891
   90SAPC   O14 8538   4.103   1.614   7.144  0.0999 -0.4744 -0.2757
   90SAPC   O12 8539   4.035   1.401   7.261  0.0806 -0.3043  1.2117
   90SAPC   O11 8540   4.048   1.420   7.000 -0.2782  0.4965  0.0774
   90SAPC    C1 8541   4.029   1.500   6.880 -0.5135  0.1046  0.1538
   90SAPC    HA 8542   3.929   1.549   6.881 -1.1276 -1.0988  0.8187
   90SAPC    HB 8543   4.113   1.572   6.873 -1.5939  1.4245  0.3058
   90SAPC    C2 8544   4.039   1.406   6.756 -0.4777  0.9492 -0.1716
   90SAPC    HS 8545   3.963   1.326   6.761  0.5255 -0.0364 -0.3398
   90SAPC   O21 8546   4.164   1.348   6.741 -0.0505 -0.6670  0.0684
   90SAPC   C21 8547   4.187   1.219   6.720 -0.2895  0.5496  0.3653
   90SAPC   O22 8548   4.110   1.137   6.672 -0.2724 -0.2666  0.1731
   90SAPC   C22 8549   4.340   1.203   6.749 -0.0670  0.1482  0.0904
   90SAPC   H2R 8550   4.368   1.256   6.843  1.4592 -1.8836  0.8613
   90SAPC   H2S 8551   4.360   1.095   6.765 -2.4194 -0.1361  1.5683
   90SAPC    C3 8552   3.994   1.479   6.625  0.4635 -0.1825 -0.6581
   90SAPC    HX 8553   4.062   1.566   6.616 -0.5578  0.6330 -0.6870
   90SAPC    HY 8554   3.896   1.520   6.658  1.6289  1.3464  1.1447
   90SAPC   O31 8555   3.987   1.396   6.505  0.1653  0.2455 -0.8746
   90SAPC   C31 8556   4.097   1.386   6.424  0.4375 -0.8970 -0.2458
   90SAPC   O32 8557   4.198   1.456   6.437  0.2367  0.0997 -0.2354
   90SAPC   C32 8558   4.077   1.271   6.318  0.1474  0.1775  0.4560
   90SAPC   H2X 8559   3.966   1.266   6.306  0.1497 -3.3721  1.0115
   90SAPC   H2Y 8560   4.106   1.182   6.377 -3.2058 -0.1029  1.9832
   90SAPC   C23 8561   4.424   1.256   6.634 -0.0693  0.3292 -0.4398
   90SAPC   H3R 8562   4.410   1.366   6.627  0.6697  0.3419 -2.1109
   90SAPC   H3S 8563   4.382   1.230   6.535 -0.4385 -3.4365  0.5646
   90SAPC   C24 8564   4.569   1.213   6.637  0.4154 -0.9121  0.3454
   90SAPC   H4R 8565   4.612   1.246   6.734 -0.9348 -0.5580  0.8510
   90SAPC   H4S 8566   4.624   1.264   6.555  1.1923  2.7334  2.8751
   90SAPC   C25 8567   4.593   1.067   6.613 -0.8847 -0.2994  0.8173
   90SAPC   H5R 8568   4.608   1.001   6.700  0.1886  0.1790  1.0164
   90SAPC   C26 8569   4.625   1.006   6.495 -0.2161 -0.2391 -0.0744
   90SAPC   H6R 8570   4.641   0.897   6.505 -2.6711 -0.6276  0.2973
   90SAPC   C27 8571   4.637   1.061   6.360  0.3049 -0.6816 -0.2139
   90SAPC   H7R 8572   4.669   1.167   6.352  3.3971 -1.3965  1.0950
   90SAPC   H7S 8573   4.537   1.073   6.315 -0.3070  1.1265  1.5103
   90SAPC   C28 8574   4.729   0.977   6.276  0.3078  0.3260  0.2109
   90SAPC   H8R 8575   4.819   0.951   6.333  0.1784  0.7150  0.5927
   90SAPC   C29 8576   4.712   0.930   6.151  0.5057 -0.4311 -0.2574
   90SAPC   H9R 8577   4.786   0.857   6.116  0.9850 -0.7625  1.3605
   90SAPC  C210 8578   4.587   0.951   6.072 -0.0125  0.4150 -0.1724
   90SAPC  H10R 8579   4.501   0.969   6.140 -0.8521 -1.0970 -0.8044
   90SAPC  H10S 8580   4.566   0.852   6.028 -2.1367  0.6185  0.2687
   90SAPC  C211 8581   4.612   1.065   5.966 -0.3128 -0.6693  0.2740
   90SAPC  H11R 8582   4.620   1.169   6.001  0.1341 -0.7741  0.4834
   90SAPC  C212 8583   4.615   1.051   5.826  0.2687  0.3414 -0.6786
   90SAPC  H12R 8584   4.646   1.142   5.771  0.7227 -0.2056 -1.3466
   90SAPC  C213 8585   4.596   0.920   5.749 -0.1101  0.0786  0.3654
   90SAPC  H13R 8586   4.496   0.913   5.703  1.1723 -1.0457 -2.4954
   90SAPC  H13S 8587   4.607   0.831   5.815  2.8468  0.8053  1.0270
   90SAPC  C214 8588   4.705   0.906   5.639  0.4923 -0.9008 -0.3302
   90SAPC  H14R 8589   4.811   0.916   5.667  0.2997 -0.3890  0.2417
   90SAPC  C215 8590   4.687   0.921   5.502 -0.1639  0.8178 -0.7065
   90SAPC  H15R 8591   4.765   0.933   5.427  0.3227  0.3751 -0.2823
   90SAPC  C216 8592   4.546   0.934   5.447 -0.8156  0.3962 -0.1378
   90SAPC  H16R 8593   4.465   0.950   5.522  0.9745 -0.3804  2.0741
   90SAPC  H16S 8594   4.509   0.847   5.389 -2.9089 -0.0825  1.7732
   90SAPC  C217 8595   4.543   1.052   5.350  0.3568 -0.8255 -0.1535
   90SAPC  H17R 8596   4.454   1.039   5.285  0.2712  2.0134 -0.7463
   90SAPC  H17S 8597   4.634   1.055   5.287  2.1628 -0.6613  2.3355
   90SAPC  C218 8598   4.517   1.185   5.423  0.0894 -0.1699 -0.7439
   90SAPC  H18R 8599   4.613   1.223   5.463  0.0315 -0.3803 -0.3977
   90SAPC  H18S 8600   4.454   1.160   5.511  1.1035  0.3068  0.1408
   90SAPC  C219 8601   4.448   1.292   5.339  0.2644  0.4296  0.3520
   90SAPC  H19R 8602   4.451   1.389   5.394  0.0284  2.0014 -2.2478
   90SAPC  H19S 8603   4.340   1.267   5.342  0.5160 -1.2634 -2.2011
   90SAPC  C220 8604   4.501   1.314   5.197 -0.4509  0.2784 -0.5875
   90SAPC  H20R 8605   4.610   1.326   5.183 -0.4512  1.9126  0.4447
   90SAPC  H20S 8606   4.459   1.410   5.160  1.1741  2.2276  2.2499
   90SAPC  H20T 8607   4.468   1.227   5.137  0.9175 -1.9645  1.7219
   90SAPC   C33 8608   4.151   1.287   6.186 -0.8624 -0.5538 -0.2382
   90SAPC   H3X 8609   4.238   1.357   6.194  0.3409 -1.7132 -2.3175
   90SAPC   H3Y 8610   4.077   1.329   6.115 -0.6507  0.2089 -0.0231
   90SAPC   C34 8611   4.198   1.156   6.124  0.1564 -0.1977  0.0381
   90SAPC   H4X 8612   4.125   1.082   6.164 -1.6040  2.1254  1.4059
   90SAPC   H4Y 8613   4.302   1.126   6.149 -0.1502 -0.7914  0.6551
   90SAPC   C35 8614   4.201   1.164   5.974 -0.0281  0.1480  0.1465
   90SAPC   H5X 8615   4.250   1.251   5.925  0.6795  0.2987  1.1092
   90SAPC   H5Y 8616   4.100   1.187   5.934  0.9865  1.1567 -2.0109
   90SAPC   C36 8617   4.229   1.032   5.906 -0.4570  0.0373 -0.3703
   90SAPC   H6X 8618   4.172   0.949   5.953  0.5406 -0.7350 -0.5033
   90SAPC   H6Y 8619   4.334   1.010   5.931 -1.0568  0.8233  3.4016
   90SAPC   C37 8620   4.214   1.040   5.752 -0.1631 -0.1474 -0.4514
   90SAPC   H7X 8621   4.269   0.956   5.705 -0.8056  0.3689 -2.2012
   90SAPC   H7Y 8622   4.252   1.137   5.715 -3.0295 -0.0086 -3.4532
   90SAPC   C38 8623   4.075   1.043   5.704  0.9719  0.4130  0.6621
   90SAPC   H8X 8624   4.012   1.125   5.745  0.0212 -0.2249  0.5315
   90SAPC   H8Y 8625   4.016   0.958   5.746  0.3628  0.5174  0.0412
   90SAPC   C39 8626   4.063   1.047   5.557 -0.0413  0.1773  0.3827
   90SAPC   H9X 8627   3.966   1.003   5.528 -0.0780 -1.4677  2.7174
   90SAPC   H9Y 8628   4.145   0.980   5.522 -1.0339 -2.6854  3.1061
   90SAPC  C310 8629   4.057   1.189   5.492  0.9626 -0.0168 -0.6399
   90SAPC  H10X 8630   4.160   1.233   5.492  1.3642 -0.8685  0.9849
   90SAPC  H10Y 8631   3.990   1.248   5.558 -0.0917 -0.2965 -1.4428
   90SAPC  C311 8632   3.991   1.191   5.354  0.2011 -0.0360 -0.0421
   90SAPC  H11X 8633   3.966   1.298   5.336  2.5430  1.2642  3.3703
   90SAPC  H11Y 8634   3.897   1.132   5.349  0.1826 -0.0492  0.4351
   90SAPC  C312 8635   4.078   1.130   5.245 -0.4258  0.2575  0.9861
   90SAPC  H12X 8636   4.117   1.029   5.270 -0.6417  0.1068  0.7191
   90SAPC  H12Y 8637   4.173   1.186   5.230 -0.3754 -0.5601 -3.0339
   90SAPC  C313 8638   4.017   1.118   5.107 -0.1848  0.4085  1.0601
   90SAPC  H13X 8639   3.978   1.215   5.071 -3.6278 -1.1057  0.1800
   90SAPC  H13Y 8640   3.928   1.050   5.102  1.2060 -1.5413  1.4385
   90SAPC  C314 8641   4.107   1.035   5.009 -0.2579  0.2338 -0.4446
   90SAPC  H14X 8642   4.049   1.020   4.916  2.8292  0.5506 -2.5802
   90SAPC  H14Y 8643   4.126   0.936   5.056 -0.6486  0.3142 -0.1140
   90SAPC  C315 8644   4.229   1.111   4.960 -0.6586 -0.2287  0.2111
   90SAPC  H15X 8645   4.267   1.187   5.033  0.3347  0.0026 -0.5217
   90SAPC  H15Y 8646   4.221   1.157   4.859  3.1393  0.4779  0.0829
   90SAPC  C316 8647   4.351   1.020   4.935  0.3243 -0.1069  0.2976
   90SAPC  H16X 8648   4.329   0.947   4.854  0.2872 -0.9559  1.0593
   90SAPC  H16Y 8649   4.371   0.958   5.025 -0.1390  1.4184  1.5046
   90SAPC  C317 8650   4.475   1.103   4.897  0.8198 -0.1494  0.2779
   90SAPC  H17X 8651   4.470   1.209   4.930  2.2271  0.1618 -0.4343
   90SAPC  H17Y 8652   4.487   1.112   4.787 -2.1058  1.5447  0.0188
   90SAPC  C318 8653   4.609   1.052   4.945 -0.5012  0.1496 -0.6553
   90SAPC  H18X 8654   4.638   0.959   4.893  0.2561  0.3968 -0.6871
   90SAPC  H18Y 8655   4.612   1.031   5.055  1.8352  1.0288 -0.4816
   90SAPC  H18Z 8656   4.698   1.118   4.934 -0.2283 -0.0631  0.1663
   91SAPC     N 8657   0.737   0.596   7.651 -0.7914 -0.6075  0.4117
   91SAPC   C12 8658   0.725   0.494   7.540  0.3708 -0.2584 -0.3435
   91SAPC  H12A 8659   0.781   0.408   7.575  0.3630  0.9192  2.8661
   91SAPC  H12B 8660   0.773   0.534   7.452 -0.8966  0.8938 -0.5389
   91SAPC   C13 8661   0.888   0.629   7.656  0.4185  0.3637 -0.9414
   91SAPC  H13A 8662   0.941   0.549   7.706  0.0450  0.2906 -0.6608
   91SAPC  H13B 8663   0.934   0.647   7.560  1.7806 -0.5069 -0.4833
   91SAPC  H13C 8664   0.905   0.724   7.706  0.2616  0.1099 -0.3931
   91SAPC   C14 8665   0.664   0.719   7.603 -0.0336  0.0678 -0.4699
   91SAPC  H14A 8666   0.648   0.785   7.687  2.6587  0.0043  0.1589
   91SAPC  H14B 8667   0.711   0.767   7.519  1.8462 -1.3976 -0.3045
   91SAPC  H14C 8668   0.566   0.689   7.569 -0.2232 -0.2444  0.3203
   91SAPC   C15 8669   0.704   0.553   7.792  0.6873  0.6662 -0.0935
   91SAPC  H15A 8670   0.598   0.533   7.798  1.0934 -1.6485  0.0727
   91SAPC  H15B 8671   0.758   0.463   7.814 -1.6464 -1.2217 -1.5858
   91SAPC  H15C 8672   0.720   0.638   7.857 -0.0408  2.9361 -2.6857
   91SAPC   C11 8673   0.579   0.459   7.503 -0.2842  0.1271  0.3114
   91SAPC  H11A 8674   0.596   0.387   7.420 -0.0475 -0.5719  0.9508
   91SAPC  H11B 8675   0.524   0.547   7.465 -1.4383  0.0028  1.6021
   91SAPC     P 8676   0.357   0.391   7.605 -0.0645 -0.2502  0.2164
   91SAPC   O13 8677   0.319   0.295   7.711 -0.0550 -0.2861 -0.4167
   91SAPC   O14 8678   0.300   0.527   7.622  0.0543  0.0529  0.0322
   91SAPC   O12 8679   0.510   0.396   7.611 -0.3784  0.0008 -0.1259
   91SAPC   O11 8680   0.333   0.336   7.458 -0.1155 -0.5738  0.6372
   91SAPC    C1 8681   0.366   0.198   7.436  0.1972  0.0299  0.3917
   91SAPC    HA 8682   0.477   0.197   7.440  0.2397  1.9431  0.3462
   91SAPC    HB 8683   0.325   0.131   7.515 -1.6139  1.0787  0.3972
   91SAPC    C2 8684   0.333   0.156   7.286 -0.8517 -0.3383 -0.7456
   91SAPC    HS 8685   0.385   0.060   7.267 -0.1686  0.1513 -1.4608
   91SAPC   O21 8686   0.387   0.257   7.197 -0.5419  0.1210  1.2215
   91SAPC   C21 8687   0.522   0.252   7.172  1.1540 -0.6853  0.7477
   91SAPC   O22 8688   0.600   0.178   7.223  0.1980 -0.4060 -0.2105
   91SAPC   C22 8689   0.552   0.359   7.063 -0.2209 -0.1166  0.6630
   91SAPC   H2R 8690   0.496   0.337   6.969 -0.1723  0.8052  0.4067
   91SAPC   H2S 8691   0.507   0.455   7.096  0.1369  1.1095 -2.1280
   91SAPC    C3 8692   0.187   0.141   7.257 -0.1488  0.4471 -0.0409
   91SAPC    HX 8693   0.126   0.234   7.264 -0.4352  0.4169 -1.6806
   91SAPC    HY 8694   0.134   0.090   7.340 -1.7290  1.5816 -0.2864
   91SAPC   O31 8695   0.160   0.058   7.140  0.2007  0.5508  0.2257
   91SAPC   C31 8696   0.118   0.121   7.028  0.4599 -0.0347 -0.5208
   91SAPC   O32 8697   0.085   0.234   7.015 -0.0121 -0.9479 -0.3762
   91SAPC   C32 8698   0.112   0.013   6.915  0.4716  0.7039 -0.0308
   91SAPC   H2X 8699   0.041  -0.066   6.948  3.2954 -1.4004  1.3605
   91SAPC   H2Y 8700   0.213  -0.029   6.897 -0.1295 -0.5669 -0.5609
   91SAPC   C23 8701   0.699   0.392   7.029  0.2609  0.1462 -0.6683
   91SAPC   H3R 8702   0.751   0.310   6.974  2.5971  1.3255 -0.3656
   91SAPC   H3S 8703   0.747   0.407   7.127 -0.2310  1.0094 -0.5539
   91SAPC   C24 8704   0.711   0.504   6.929 -0.5661  0.1855  0.0255
   91SAPC   H4R 8705   0.689   0.603   6.975  2.0756 -0.2284  2.4537
   91SAPC   H4S 8706   0.644   0.492   6.842  1.7233 -0.1820 -1.7801
   91SAPC   C25 8707   0.853   0.522   6.870  1.4135 -0.4122 -0.3953
   91SAPC   H5R 8708   0.927   0.502   6.949 -0.0194  1.8010  1.6270
   91SAPC   C26 8709   0.898   0.548   6.748 -0.5009 -0.7079  0.0573
   91SAPC   H6R 8710   1.008   0.561   6.748 -0.4334 -0.8764  2.0836
   91SAPC   C27 8711   0.814   0.579   6.622 -0.0557 -0.7553 -0.1895
   91SAPC   H7R 8712   0.860   0.667   6.571 -0.1338 -0.0300  0.9631
   91SAPC   H7S 8713   0.712   0.616   6.647  0.2752  1.6230 -2.0229
   91SAPC   C28 8714   0.801   0.458   6.537  0.5776  0.4971 -0.3973
   91SAPC   H8R 8715   0.754   0.375   6.591  3.1823 -0.1829  0.9916
   91SAPC   C29 8716   0.811   0.462   6.402 -0.4588 -0.0585  0.1034
   91SAPC   H9R 8717   0.791   0.369   6.348 -3.2174  0.6201 -0.1591
   91SAPC  C210 8718   0.832   0.583   6.317  0.1062  0.2065 -0.4393
   91SAPC  H10R 8719   0.846   0.678   6.372  0.4522 -0.6511  1.0050
   91SAPC  H10S 8720   0.745   0.608   6.252  0.5158  1.4977 -0.5197
   91SAPC  C211 8721   0.938   0.543   6.220  0.1966  0.1084  0.2622
   91SAPC  H11R 8722   1.026   0.492   6.263  2.7769  1.5245 -2.8744
   91SAPC  C212 8723   0.943   0.561   6.085  0.4667  0.0406  0.3701
   91SAPC  H12R 8724   1.020   0.502   6.033  0.9549  0.5573  0.4982
   91SAPC  C213 8725   0.842   0.634   5.997 -0.3482  0.4397  0.5732
   91SAPC  H13R 8726   0.858   0.744   5.990 -1.9406  0.6601  0.0998
   91SAPC  H13S 8727   0.748   0.646   6.054 -0.4104  1.2923  0.3117
   91SAPC  C214 8728   0.815   0.570   5.865 -0.6431  0.4465 -0.1947
   91SAPC  H14R 8729   0.712   0.536   5.849 -0.2061 -0.4924 -1.2317
   91SAPC  C215 8730   0.904   0.557   5.765  0.4635 -0.0533 -0.2334
   91SAPC  H15R 8731   0.871   0.501   5.676  0.9135  0.5882 -0.8104
   91SAPC  C216 8732   1.052   0.603   5.767  0.0615  0.6153  0.3952
   91SAPC  H16R 8733   1.118   0.520   5.734 -2.1265 -0.7064 -0.8796
   91SAPC  H16S 8734   1.083   0.622   5.872  0.3558  0.6167  0.3088
   91SAPC  C217 8735   1.069   0.726   5.679  0.2597  0.8532 -1.0240
   91SAPC  H17R 8736   0.991   0.800   5.705 -0.2348 -0.4033  1.3009
   91SAPC  H17S 8737   1.055   0.689   5.575  3.9413 -2.7983 -0.4992
   91SAPC  C218 8738   1.206   0.789   5.679  0.9783  0.2971 -0.5820
   91SAPC  H18R 8739   1.261   0.801   5.775 -2.8704  1.2689  1.7173
   91SAPC  H18S 8740   1.189   0.890   5.636 -0.6313  0.0563 -0.5622
   91SAPC  C219 8741   1.298   0.713   5.582 -0.3078  0.0851 -0.6931
   91SAPC  H19R 8742   1.240   0.679   5.493  0.7460 -1.7084 -0.7626
   91SAPC  H19S 8743   1.329   0.618   5.632  2.0030  0.6067 -1.0296
   91SAPC  C220 8744   1.423   0.800   5.546  0.2150  0.3978 -0.3903
   91SAPC  H20R 8745   1.506   0.797   5.620  0.8678  0.6082 -1.1007
   91SAPC  H20S 8746   1.395   0.906   5.535  0.1913  0.2993 -1.3398
   91SAPC  H20T 8747   1.453   0.764   5.445 -1.9708 -2.9734  0.0118
   91SAPC   C33 8748   0.066   0.070   6.775  0.5588  0.4992 -0.1502
   91SAPC   H3X 8749   0.124   0.162   6.754  0.0362  0.8720  0.0389
   91SAPC   H3Y 8750  -0.041   0.099   6.785 -0.0413 -0.7968 -2.2690
   91SAPC   C34 8751   0.063  -0.037   6.668 -0.1529 -0.2009 -0.0164
   91SAPC   H4X 8752  -0.023  -0.106   6.685 -1.0606  0.9335  0.1854
   91SAPC   H4Y 8753   0.160  -0.089   6.663 -0.1830 -0.1204 -1.9083
   91SAPC   C35 8754   0.037   0.034   6.532  0.1893  0.5887  0.4652
   91SAPC   H5X 8755   0.096   0.128   6.523 -2.7419  2.5795  0.6087
   91SAPC   H5Y 8756  -0.069   0.065   6.528  0.2131  0.6336 -3.8906
   91SAPC   C36 8757   0.058  -0.065   6.412 -0.1715  0.0597 -0.0089
   91SAPC   H6X 8758   0.006  -0.162   6.430  0.1322  0.0738  1.0138
   91SAPC   H6Y 8759   0.163  -0.101   6.413  0.5758  2.0778  0.8768
   91SAPC   C37 8760   0.021  -0.004   6.280 -0.1471 -0.2174 -0.1073
   91SAPC   H7X 8761   0.079   0.090   6.268  0.1928 -0.4515 -0.3072
   91SAPC   H7Y 8762  -0.082   0.034   6.267  0.4865  0.6911 -3.1701
   91SAPC   C38 8763   0.052  -0.108   6.168 -0.2218 -0.4074 -0.6816
   91SAPC   H8X 8764  -0.019  -0.193   6.166 -3.0742  1.7335  1.6322
   91SAPC   H8Y 8765   0.149  -0.161   6.184 -1.1064 -1.7805  0.2902
   91SAPC   C39 8766   0.060  -0.045   6.027  0.3688  0.1493  0.4222
   91SAPC   H9X 8767   0.144   0.026   6.010 -0.4411  0.6510 -1.8710
   91SAPC   H9Y 8768  -0.032   0.017   6.013  1.3211  1.7925  1.1536
   91SAPC  C310 8769   0.075  -0.155   5.920 -0.9387  0.0492 -0.1963
   91SAPC  H10X 8770   0.016  -0.243   5.953 -1.5063  0.1893 -0.8118
   91SAPC  H10Y 8771   0.182  -0.187   5.922 -1.4694 -1.7689  1.6699
   91SAPC  C311 8772   0.035  -0.126   5.778  0.2586 -0.3367 -0.2907
   91SAPC  H11X 8773   0.082  -0.034   5.737  0.3543 -1.0106 -1.7527
   91SAPC  H11Y 8774  -0.076  -0.117   5.776  0.2820 -0.2054 -1.0748
   91SAPC  C312 8775   0.088  -0.237   5.684  0.0976  0.9699  0.0825
   91SAPC  H12X 8776   0.042  -0.337   5.702  0.5599  0.4677 -1.4071
   91SAPC  H12Y 8777   0.199  -0.239   5.681  0.0858 -1.6079 -2.0438
   91SAPC  C313 8778   0.061  -0.217   5.532 -0.1458  0.1499 -0.2408
   91SAPC  H13X 8779  -0.048  -0.235   5.517 -0.3634 -0.7280  1.9750
   91SAPC  H13Y 8780   0.125  -0.296   5.486  0.0361 -0.0903  0.4131
   91SAPC  C314 8781   0.092  -0.077   5.484 -0.9847 -0.6049 -0.1637
   91SAPC  H14X 8782   0.194  -0.068   5.525 -1.4818  1.2342  0.7343
   91SAPC  H14Y 8783   0.029  -0.001   5.535  0.3169 -0.5158  1.3891
   91SAPC  C315 8784   0.069  -0.069   5.331 -0.0053  0.0220  0.1087
   91SAPC  H15X 8785  -0.035  -0.090   5.300  0.9500 -1.5699 -2.3128
   91SAPC  H15Y 8786   0.130  -0.148   5.283 -0.4324 -0.5285  0.4662
   91SAPC  C316 8787   0.098   0.065   5.269  0.0476 -0.8834 -0.2397
   91SAPC  H16X 8788   0.205   0.096   5.278 -0.6210  2.1013 -1.4463
   91SAPC  H16Y 8789   0.060   0.148   5.333  1.3238 -1.2070  1.0012
   91SAPC  C317 8790   0.054   0.079   5.126 -0.8175  0.0771 -0.5992
   91SAPC  H17X 8791  -0.027   0.010   5.096 -2.4147  0.9297  1.4642
   91SAPC  H17Y 8792   0.146   0.060   5.066  0.2777 -0.0534  1.0485
   91SAPC  C318 8793   0.007   0.219   5.096 -0.1382 -1.1739 -0.1905
   91SAPC  H18X 8794   0.082   0.296   5.124 -0.9494 -0.0310 -1.0959
   91SAPC  H18Y 8795  -0.083   0.249   5.155  0.9044  1.0934  0.3660
   91SAPC  H18Z 8796  -0.011   0.246   4.990  1.4146  2.5641  0.3301
   92SAPC     N 8797   4.017   4.931   7.322 -0.2183  0.6299 -0.2412
   92SAPC   C12 8798   3.874   4.958   7.278  0.1171 -0.5948  0.2867
   92SAPC  H12A 8799   3.857   5.058   7.241 -0.5483 -0.7507  0.1534
   92SAPC  H12B 8800   3.799   4.956   7.355 -1.9009  1.7342 -1.4364
   92SAPC   C13 8801   4.112   4.959   7.211 -0.2934  0.0123 -0.0767
   92SAPC  H13A 8802   4.121   4.885   7.133  1.7304  1.1546 -1.0097
   92SAPC  H13B 8803   4.090   5.050   7.159  3.5116  1.0135 -0.2256
   92SAPC  H13C 8804   4.212   4.973   7.249  0.3041 -2.0784 -0.6954
   92SAPC   C14 8805   4.058   5.027   7.431  0.1724  0.0971 -0.4968
   92SAPC  H14A 8806   4.051   5.129   7.397 -0.8302  0.4815  0.7711
   92SAPC  H14B 8807   3.994   4.996   7.512 -1.1758 -1.1107 -1.9801
   92SAPC  H14C 8808   4.159   5.015   7.468  0.3099  1.0707 -0.5068
   92SAPC   C15 8809   4.038   4.786   7.368 -0.0488  0.4925 -0.0712
   92SAPC  H15A 8810   3.953   4.765   7.430 -0.0571 -2.2207 -0.8723
   92SAPC  H15B 8811   4.040   4.717   7.285 -0.1150 -0.5656  0.8034
   92SAPC  H15C 8812   4.138   4.779   7.408  0.0752 -0.3859 -0.5066
   92SAPC   C11 8813   3.817   4.870   7.170 -0.8136  0.4810  0.0394
   92SAPC  H11A 8814   3.832   4.765   7.203 -2.3015  0.7693  1.7269
   92SAPC  H11B 8815   3.862   4.878   7.068  1.2556 -1.3726  0.7140
   92SAPC     P 8816   3.567   4.795   7.177 -0.1774  0.2386  0.2354
   92SAPC   O13 8817   3.600   4.708   7.287 -0.7377 -0.5063  0.0767
   92SAPC   O14 8818   3.443   4.876   7.181 -0.7186  0.0432 -0.3766
   92SAPC   O12 8819   3.681   4.903   7.157  0.2460  0.3658 -0.3934
   92SAPC   O11 8820   3.577   4.712   7.043  0.0389 -0.9091  0.0654
   92SAPC    C1 8821   3.607   4.774   6.917  0.2476 -0.0927  0.3797
   92SAPC    HA 8822   3.687   4.851   6.928  0.7698 -0.6486  0.5415
   92SAPC    HB 8823   3.622   4.694   6.841 -1.2189  0.5647 -0.6424
   92SAPC    C2 8824   3.479   4.852   6.866  0.3027  0.7735  1.4614
   92SAPC    HS 8825   3.479   4.948   6.922  2.5503  0.7933  1.5309
   92SAPC   O21 8826   3.362   4.773   6.888 -0.3706 -0.1462 -0.4483
   92SAPC   C21 8827   3.256   4.837   6.923 -0.1627  0.1650  0.2347
   92SAPC   O22 8828   3.239   4.958   6.933 -0.3461 -0.1789 -0.7570
   92SAPC   C22 8829   3.151   4.729   6.953 -0.0123  0.1068 -0.3721
   92SAPC   H2R 8830   3.196   4.675   7.039  1.1171  0.5552 -0.6646
   92SAPC   H2S 8831   3.054   4.774   6.983 -0.0665 -1.0860  1.4213
   92SAPC    C3 8832   3.500   4.879   6.709  0.5723 -0.8309 -0.1771
   92SAPC    HX 8833   3.503   4.787   6.647 -1.3440 -0.0583 -1.5124
   92SAPC    HY 8834   3.599   4.929   6.704 -1.1079  2.8058 -0.5686
   92SAPC   O31 8835   3.391   4.968   6.660  0.2422  0.0928  0.2579
   92SAPC   C31 8836   3.390   5.095   6.688  0.8385 -0.4426  0.6999
   92SAPC   O32 8837   3.471   5.153   6.762  0.7539  0.1363  0.0143
   92SAPC   C32 8838   3.285   5.173   6.603 -0.2140  0.0565  0.3746
   92SAPC   H2X 8839   3.272   5.264   6.666  1.2109  0.2003  0.4929
   92SAPC   H2Y 8840   3.188   5.119   6.598  0.7905 -1.8819  0.8039
   92SAPC   C23 8841   3.139   4.626   6.838  0.1922  0.4814  0.2619
   92SAPC   H3R 8842   3.077   4.539   6.870 -0.0483 -0.3204 -2.2063
   92SAPC   H3S 8843   3.242   4.591   6.816 -0.0155 -0.6518  0.9707
   92SAPC   C24 8844   3.057   4.669   6.713 -0.5507 -0.4386 -0.1433
   92SAPC   H4R 8845   2.965   4.721   6.747 -1.0864 -0.8674 -0.9116
   92SAPC   H4S 8846   3.022   4.576   6.663 -0.5079 -0.1088 -0.7892
   92SAPC   C25 8847   3.138   4.747   6.621  0.4249 -0.3095 -0.6236
   92SAPC   H5R 8848   3.243   4.763   6.650 -0.3994  1.3258  1.8349
   92SAPC   C26 8849   3.086   4.798   6.507 -0.0670 -0.4138  0.2244
   92SAPC   H6R 8850   3.144   4.869   6.445  3.3546 -1.7513  1.6212
   92SAPC   C27 8851   2.944   4.762   6.455  0.6862  0.0744 -0.0012
   92SAPC   H7R 8852   2.876   4.737   6.539 -2.7346  3.3417 -1.4924
   92SAPC   H7S 8853   2.940   4.687   6.373 -0.3856 -2.2990  2.1090
   92SAPC   C28 8854   2.885   4.899   6.415 -0.3836  0.1414 -0.3092
   92SAPC   H8R 8855   2.826   4.953   6.491 -0.1545  1.6198 -1.1409
   92SAPC   C29 8856   2.905   4.955   6.293  0.8288  0.6792  0.0908
   92SAPC   H9R 8857   2.868   5.056   6.273  1.2426  0.5187 -1.7165
   92SAPC  C210 8858   2.998   4.905   6.189 -0.8635  0.7155 -0.1518
   92SAPC  H10R 8859   3.078   4.837   6.226 -1.3940  0.5566  0.7452
   92SAPC  H10S 8860   3.033   4.998   6.141  2.0250  0.7585  1.8095
   92SAPC  C211 8861   2.907   4.817   6.103 -0.3959  0.2800 -0.2186
   92SAPC  H11R 8862   2.867   4.728   6.153  0.3173  1.2285  2.1554
   92SAPC  C212 8863   2.886   4.842   5.970 -0.6765 -0.4475 -0.4694
   92SAPC  H12R 8864   2.815   4.776   5.919  0.8503 -1.9904 -0.6838
   92SAPC  C213 8865   2.928   4.958   5.881  0.2996 -0.0497 -0.4604
   92SAPC  H13R 8866   3.023   4.926   5.834  0.7292  0.9432 -0.2886
   92SAPC  H13S 8867   2.950   5.051   5.938 -1.3729  0.6006 -0.8199
   92SAPC  C214 8868   2.821   5.003   5.794 -0.2944 -0.5109 -0.9141
   92SAPC  H14R 8869   2.726   5.037   5.837  0.3199  1.0167 -0.7071
   92SAPC  C215 8870   2.838   5.010   5.667 -0.0105  0.1403  0.4687
   92SAPC  H15R 8871   2.750   5.037   5.607 -0.1765  0.9529  1.0555
   92SAPC  C216 8872   2.953   4.968   5.586  0.2837 -0.8231 -0.1681
   92SAPC  H16R 8873   2.923   4.906   5.500 -1.5813 -1.8632  1.1651
   92SAPC  H16S 8874   3.017   4.893   5.638 -0.9542 -0.8453  1.3906
   92SAPC  C217 8875   3.026   5.099   5.541 -0.1497  0.0754 -0.2154
   92SAPC  H17R 8876   3.055   5.158   5.630 -2.7775  0.2890  0.5654
   92SAPC  H17S 8877   2.962   5.159   5.473 -0.1743 -0.9866 -1.1677
   92SAPC  C218 8878   3.148   5.065   5.465 -0.8041  0.0768  0.0070
   92SAPC  H18R 8879   3.194   4.988   5.530  0.3948  0.2773 -0.5773
   92SAPC  H18S 8880   3.213   5.154   5.449 -1.1743  0.9635  2.8283
   92SAPC  C219 8881   3.137   4.984   5.330  0.1241 -0.5009 -0.4344
   92SAPC  H19R 8882   3.078   5.040   5.254  1.2731 -1.2448 -1.9182
   92SAPC  H19S 8883   3.094   4.883   5.345  1.8137 -0.9416  2.0341
   92SAPC  C220 8884   3.268   4.963   5.265  0.7258  0.7209  0.0903
   92SAPC  H20R 8885   3.338   4.910   5.333  0.6734  1.0448  0.3968
   92SAPC  H20S 8886   3.323   5.053   5.230 -1.9108  1.8278 -1.5326
   92SAPC  H20T 8887   3.249   4.896   5.178  2.0800 -2.0485  1.8236
   92SAPC   C33 8888   3.339   5.224   6.469 -0.8004  0.1115 -0.1132
   92SAPC   H3X 8889   3.417   5.303   6.483 -0.9978  0.5245 -1.2901
   92SAPC   H3Y 8890   3.257   5.282   6.423 -1.2211  1.9927  2.7287
   92SAPC   C34 8891   3.380   5.123   6.370  0.3605 -0.7843  0.7203
   92SAPC   H4X 8892   3.300   5.046   6.366 -0.7676  0.3582  0.3281
   92SAPC   H4Y 8893   3.475   5.071   6.392 -0.7676 -2.6282  1.4353
   92SAPC   C35 8894   3.404   5.179   6.230  0.4004 -0.4316  0.1375
   92SAPC   H5X 8895   3.482   5.259   6.235 -0.3972  0.2927  1.8386
   92SAPC   H5Y 8896   3.306   5.218   6.196 -0.7606 -2.4004  1.0538
   92SAPC   C36 8897   3.442   5.066   6.139  0.5061 -0.8613 -0.2512
   92SAPC   H6X 8898   3.380   4.973   6.141 -0.7197 -0.1221 -2.0148
   92SAPC   H6Y 8899   3.542   5.041   6.180  0.8362  1.6712  0.6208
   92SAPC   C37 8900   3.455   5.105   5.990 -0.0951  0.0559  0.2479
   92SAPC   H7X 8901   3.493   5.209   5.985  1.5254 -0.5535 -0.9584
   92SAPC   H7Y 8902   3.354   5.103   5.944 -0.0911  1.0745  0.1638
   92SAPC   C38 8903   3.541   5.010   5.904 -0.3024 -0.4742 -0.2809
   92SAPC   H8X 8904   3.504   4.906   5.912 -0.2939 -0.3523  3.1314
   92SAPC   H8Y 8905   3.646   5.008   5.942 -0.2012  1.7570 -0.2805
   92SAPC   C39 8906   3.549   5.060   5.760  0.6733  0.2829  0.0101
   92SAPC   H9X 8907   3.585   5.165   5.757  0.1967  0.5814  2.5867
   92SAPC   H9Y 8908   3.447   5.074   5.717  0.8264  1.4252 -0.0153
   92SAPC  C310 8909   3.634   4.971   5.675  0.0494 -0.3449 -0.5996
   92SAPC  H10X 8910   3.610   4.863   5.687 -1.4013 -0.0253 -0.4529
   92SAPC  H10Y 8911   3.741   4.971   5.703 -0.7676 -3.2089  3.2549
   92SAPC  C311 8912   3.638   5.013   5.531  0.1769 -0.1349  1.0017
   92SAPC  H11X 8913   3.716   5.089   5.508 -1.4981  1.3509 -0.0759
   92SAPC  H11Y 8914   3.547   5.065   5.494  1.2206  1.2755  0.2953
   92SAPC  C312 8915   3.667   4.895   5.436 -1.0744 -0.4974  0.3008
   92SAPC  H12X 8916   3.588   4.821   5.459 -1.7305 -1.0606 -3.2659
   92SAPC  H12Y 8917   3.770   4.856   5.456 -0.3820  1.5218  0.9672
   92SAPC  C313 8918   3.654   4.920   5.286  0.2845 -0.2747  0.0452
   92SAPC  H13X 8919   3.709   5.004   5.239 -1.4548  0.1783 -1.3116
   92SAPC  H13Y 8920   3.551   4.958   5.271  0.8954  1.6809  0.5027
   92SAPC  C314 8921   3.654   4.799   5.195  0.2557 -0.9427  0.4858
   92SAPC  H14X 8922   3.563   4.738   5.216 -0.2861  0.1574  1.4134
   92SAPC  H14Y 8923   3.744   4.735   5.203  0.1187 -1.2581 -0.4034
   92SAPC  C315 8924   3.628   4.833   5.052  0.0479 -0.0178  1.0033
   92SAPC  H15X 8925   3.713   4.885   5.004 -1.8689  0.8260 -1.7245
   92SAPC  H15Y 8926   3.539   4.897   5.034  0.3125  0.2376  0.5948
   92SAPC  C316 8927   3.592   4.720   4.959 -0.6428 -0.0848 -0.2740
   92SAPC  H16X 8928   3.499   4.665   4.985 -0.4747  0.1308  0.8652
   92SAPC  H16Y 8929   3.666   4.638   4.967 -1.6270 -0.8653  1.5985
   92SAPC  C317 8930   3.583   4.768   4.817 -0.3692  0.6611  0.8122
   92SAPC  H17X 8931   3.638   4.865   4.816  1.0996 -0.1342  0.9964
   92SAPC  H17Y 8932   3.476   4.773   4.787  0.3347 -0.4678 -2.2011
   92SAPC  C318 8933   3.655   4.665   4.726  0.5551 -0.9657  0.7998
   92SAPC  H18X 8934   3.653   4.692   4.618 -0.5409  0.2242  1.0948
   92SAPC  H18Y 8935   3.603   4.568   4.747 -3.3595  0.3556 -1.5211
   92SAPC  H18Z 8936   3.763   4.661   4.750  0.3751  1.4573  2.3073
   93SAPC     N 8937   0.937   5.948   7.647  0.3184  0.0872 -0.3794
   93SAPC   C12 8938   1.044   5.974   7.547 -0.3942 -0.3399  0.2358
   93SAPC  H12A 8939   1.041   5.902   7.466  2.7686 -0.0085 -0.3155
   93SAPC  H12B 8940   1.142   5.958   7.590  0.2880  1.2396 -0.6408
   93SAPC   C13 8941   0.963   6.032   7.778  0.0932  0.4173  0.3904
   93SAPC  H13A 8942   0.969   6.138   7.756  0.8587  0.5471  1.1833
   93SAPC  H13B 8943   0.893   6.018   7.859  0.0880  0.6460  0.4272
   93SAPC  H13C 8944   1.062   6.015   7.817 -0.3296  1.5170  2.0102
   93SAPC   C14 8945   0.799   5.978   7.600  1.0294  0.3518 -0.7773
   93SAPC  H14A 8946   0.796   6.079   7.561  0.0617  0.6743  0.0722
   93SAPC  H14B 8947   0.771   5.904   7.527  1.3268  0.9779 -1.5428
   93SAPC  H14C 8948   0.711   5.981   7.663  0.6151 -1.1777 -1.2398
   93SAPC   C15 8949   0.953   5.801   7.681  0.1894 -0.3192 -0.2437
   93SAPC  H15A 8950   0.941   5.738   7.594  0.7100  0.6199 -1.0148
   93SAPC  H15B 8951   1.049   5.779   7.726  0.5427 -1.9304 -1.6456
   93SAPC  H15C 8952   0.883   5.771   7.757  0.5309  0.0129  0.2084
   93SAPC   C11 8953   1.065   6.114   7.488  0.6013  0.1900  0.5908
   93SAPC  H11A 8954   0.964   6.151   7.463  1.0114 -0.0711 -1.6649
   93SAPC  H11B 8955   1.114   6.104   7.389 -2.9420 -1.1561 -1.2108
   93SAPC     P 8956   1.286   6.199   7.594 -0.1742  0.4091 -0.0662
   93SAPC   O13 8957   1.329   6.313   7.683  0.7812  0.7193  0.1633
   93SAPC   O14 8958   1.318   6.061   7.640  0.1238  0.1630  0.0485
   93SAPC   O12 8959   1.129   6.204   7.580 -0.2095 -0.0669 -0.3485
   93SAPC   O11 8960   1.339   6.232   7.439  0.2541 -0.2025 -0.1379
   93SAPC    C1 8961   1.302   6.362   7.394  0.4954  0.3459  0.5717
   93SAPC    HA 8962   1.204   6.395   7.435  0.6428  0.1283  1.1024
   93SAPC    HB 8963   1.380   6.432   7.429 -1.1138  1.9966  1.0367
   93SAPC    C2 8964   1.295   6.358   7.238  0.3133  0.1718 -0.3975
   93SAPC    HS 8965   1.205   6.302   7.205 -0.3380  1.2182 -0.4273
   93SAPC   O21 8966   1.414   6.295   7.190 -0.3307 -0.2008  0.3710
   93SAPC   C21 8967   1.403   6.166   7.155  0.3749 -0.7302 -0.4949
   93SAPC   O22 8968   1.299   6.107   7.148  0.0325  0.7219 -0.1614
   93SAPC   C22 8969   1.545   6.109   7.125  0.0125 -0.0027 -0.5994
   93SAPC   H2R 8970   1.615   6.152   7.200 -0.5123 -1.3471  0.7067
   93SAPC   H2S 8971   1.538   6.000   7.144 -0.5812  0.2589  0.8414
   93SAPC    C3 8972   1.297   6.494   7.175 -0.7252  0.4066  1.0065
   93SAPC    HX 8973   1.406   6.514   7.180 -0.7713  1.2307 -0.4586
   93SAPC    HY 8974   1.239   6.567   7.236 -0.8326  0.0560  1.3273
   93SAPC   O31 8975   1.254   6.501   7.036  0.4324  0.4792 -0.1729
   93SAPC   C31 8976   1.127   6.464   7.015  1.4873  0.6616 -0.4344
   93SAPC   O32 8977   1.040   6.455   7.102  0.8889  0.2871  0.2830
   93SAPC   C32 8978   1.102   6.451   6.869 -0.3275 -0.6372 -0.8249
   93SAPC   H2X 8979   1.047   6.357   6.849  0.2759 -1.0448 -0.5997
   93SAPC   H2Y 8980   1.196   6.442   6.810  0.6786  1.0064  0.4335
   93SAPC   C23 8981   1.582   6.136   6.984  0.2148  0.2355  0.6278
   93SAPC   H3R 8982   1.687   6.110   6.957  0.3326  2.0799 -0.9446
   93SAPC   H3S 8983   1.578   6.243   6.954 -3.1425 -0.2618 -1.1874
   93SAPC   C24 8984   1.480   6.063   6.874 -0.3018  0.0005 -0.2002
   93SAPC   H4R 8985   1.527   6.099   6.780 -1.0949  1.2568 -0.1441
   93SAPC   H4S 8986   1.378   6.106   6.889 -1.4080 -2.5173  0.1135
   93SAPC   C25 8987   1.477   5.913   6.889 -0.3397  0.2064  0.1569
   93SAPC   H5R 8988   1.464   5.882   6.994 -0.5994 -0.0352  0.0561
   93SAPC   C26 8989   1.488   5.822   6.787  0.4268 -0.4310  0.3873
   93SAPC   H6R 8990   1.487   5.717   6.820 -0.8561 -0.0495  1.6361
   93SAPC   C27 8991   1.504   5.852   6.638  0.2597 -0.2220  0.0245
   93SAPC   H7R 8992   1.535   5.758   6.586 -2.9688  0.3322 -3.3241
   93SAPC   H7S 8993   1.591   5.918   6.618 -0.9663  1.1838 -0.8930
   93SAPC   C28 8994   1.377   5.905   6.576  0.3039  0.0915 -0.6084
   93SAPC   H8R 8995   1.316   5.957   6.651  1.8499  1.4210 -0.2046
   93SAPC   C29 8996   1.343   5.887   6.448 -0.0289  0.0999  0.6965
   93SAPC   H9R 8997   1.266   5.959   6.417 -0.0451 -0.2386 -0.0741
   93SAPC  C210 8998   1.421   5.832   6.335  0.1083  0.3568  0.4935
   93SAPC  H10R 8999   1.353   5.771   6.272  0.4504 -0.5661  0.9931
   93SAPC  H10S 9000   1.494   5.758   6.374 -0.7697 -0.1025  1.3325
   93SAPC  C211 9001   1.486   5.943   6.264 -0.2319 -0.0140 -0.0243
   93SAPC  H11R 9002   1.574   5.981   6.319 -0.5238  0.3328  0.2136
   93SAPC  C212 9003   1.450   5.988   6.140 -0.1006 -0.3613  0.1555
   93SAPC  H12R 9004   1.508   6.068   6.092 -1.7235  1.5322  1.2177
   93SAPC  C213 9005   1.339   5.928   6.058 -0.4600 -0.5118  0.1152
   93SAPC  H13R 9006   1.287   6.012   6.007 -0.2818 -0.6308 -0.2642
   93SAPC  H13S 9007   1.259   5.876   6.115 -0.9243 -0.6514 -0.6485
   93SAPC  C214 9008   1.388   5.831   5.952 -1.1229 -0.6845  0.0924
   93SAPC  H14R 9009   1.477   5.777   5.987  0.9135  2.5868  0.3706
   93SAPC  C215 9010   1.357   5.817   5.822  0.2108  1.1207 -0.5996
   93SAPC  H15R 9011   1.409   5.738   5.766  1.0587  1.3851 -0.1975
   93SAPC  C216 9012   1.249   5.902   5.753 -0.4131 -0.2830 -0.1856
   93SAPC  H16R 9013   1.242   6.006   5.792 -1.5764 -1.3115  2.6252
   93SAPC  H16S 9014   1.148   5.857   5.751  0.0576 -1.4560  0.8751
   93SAPC  C217 9015   1.282   5.924   5.603  1.0374 -0.9389  0.3269
   93SAPC  H17R 9016   1.299   5.823   5.559  0.9944 -0.8666  0.1407
   93SAPC  H17S 9017   1.377   5.980   5.593  0.4096 -0.2166 -2.9480
   93SAPC  C218 9018   1.166   5.988   5.517 -0.4319  0.0444 -0.2265
   93SAPC  H18R 9019   1.065   5.974   5.562 -1.0657  3.0133 -0.4682
   93SAPC  H18S 9020   1.167   5.935   5.419  2.2210 -1.1594  0.3713
   93SAPC  C219 9021   1.197   6.140   5.504  0.1123 -0.0981  0.9114
   93SAPC  H19R 9022   1.301   6.130   5.467 -0.8595 -0.2792 -1.9880
   93SAPC  H19S 9023   1.188   6.190   5.604  2.7305  0.5849  0.8746
   93SAPC  C220 9024   1.104   6.205   5.397 -0.8770 -0.2749 -0.7414
   93SAPC  H20R 9025   1.091   6.159   5.297 -2.2796  0.0408 -0.7207
   93SAPC  H20S 9026   1.135   6.311   5.383  1.6414 -0.9312 -0.6870
   93SAPC  H20T 9027   1.002   6.223   5.437 -0.6251  0.6673 -0.4933
   93SAPC   C33 9028   1.027   6.575   6.825  0.4519 -0.1933  0.5776
   93SAPC   H3X 9029   1.089   6.667   6.834 -1.5892  1.3948 -0.7775
   93SAPC   H3Y 9030   0.944   6.592   6.897 -0.1414 -0.2940 -0.0805
   93SAPC   C34 9031   0.976   6.558   6.680 -0.3362 -0.2880  0.4577
   93SAPC   H4X 9032   0.914   6.650   6.671  1.5433  0.8633 -1.7682
   93SAPC   H4Y 9033   0.912   6.468   6.668  0.5469 -0.8475 -0.2035
   93SAPC   C35 9034   1.088   6.558   6.580 -0.3875 -0.1460  0.0918
   93SAPC   H5X 9035   1.154   6.469   6.583 -1.9257 -1.3550 -0.4737
   93SAPC   H5Y 9036   1.145   6.651   6.603 -0.6558 -0.0793  0.4890
   93SAPC   C36 9037   1.042   6.561   6.432  0.2625  0.9489  0.0733
   93SAPC   H6X 9038   0.946   6.616   6.438 -0.0985  0.1592  2.2912
   93SAPC   H6Y 9039   1.021   6.455   6.409  2.0634  0.3119  1.1830
   93SAPC   C37 9040   1.149   6.634   6.344 -0.1184  0.3032 -0.2913
   93SAPC   H7X 9041   1.248   6.585   6.355 -0.4438 -1.5043 -4.0229
   93SAPC   H7Y 9042   1.155   6.738   6.381  2.0975 -0.0314  0.4314
   93SAPC   C38 9043   1.113   6.636   6.198 -0.9087 -0.2668 -0.0244
   93SAPC   H8X 9044   1.106   6.530   6.164 -2.1144 -0.3130  0.3356
   93SAPC   H8Y 9045   1.183   6.707   6.150 -1.5192  0.8122  0.6591
   93SAPC   C39 9046   0.977   6.695   6.166 -0.3290 -0.9771  0.0241
   93SAPC   H9X 9047   0.974   6.796   6.212 -1.4492 -1.4659  1.0750
   93SAPC   H9Y 9048   0.894   6.639   6.214 -1.2115  0.9049  0.7966
   93SAPC  C310 9049   0.943   6.734   6.025 -0.0705 -0.3897 -0.3483
   93SAPC  H10X 9050   1.010   6.813   5.985 -0.9180  0.6622  0.2621
   93SAPC  H10Y 9051   0.838   6.765   6.045 -0.6580 -2.8329  0.7026
   93SAPC  C311 9052   0.944   6.629   5.913 -0.2368 -1.0248  0.9662
   93SAPC  H11X 9053   0.879   6.543   5.939 -2.2381 -0.2311 -1.0572
   93SAPC  H11Y 9054   1.044   6.581   5.907 -0.1875 -0.8291  0.0271
   93SAPC  C312 9055   0.915   6.690   5.772  0.5406  0.4301  0.4735
   93SAPC  H12X 9056   1.002   6.759   5.773 -0.6754  2.0206  1.2761
   93SAPC  H12Y 9057   0.816   6.742   5.770  0.4580  0.3381  1.5107
   93SAPC  C313 9058   0.928   6.592   5.650  0.0927  0.0488  0.8461
   93SAPC  H13X 9059   0.980   6.498   5.678  0.7360  0.0729 -0.2061
   93SAPC  H13Y 9060   1.006   6.641   5.589  2.1593 -0.4554  2.9505
   93SAPC  C314 9061   0.793   6.552   5.601  0.1103  0.0510 -0.1566
   93SAPC  H14X 9062   0.736   6.641   5.567 -0.1791  0.0597  0.3471
   93SAPC  H14Y 9063   0.741   6.494   5.680 -0.1583 -0.1234 -0.4593
   93SAPC  C315 9064   0.804   6.453   5.490  0.4659 -0.4616 -0.1359
   93SAPC  H15X 9065   0.865   6.364   5.515  1.5912  0.3385  0.0452
   93SAPC  H15Y 9066   0.839   6.503   5.397 -0.7504 -0.3906 -0.5719
   93SAPC  C316 9067   0.656   6.415   5.465  0.3103 -0.2260 -0.3553
   93SAPC  H16X 9068   0.597   6.508   5.450 -1.3767 -1.1694  0.2157
   93SAPC  H16Y 9069   0.617   6.372   5.559 -0.4962  1.2814  0.0221
   93SAPC  C317 9070   0.630   6.320   5.347 -0.1756 -0.3116  0.2770
   93SAPC  H17X 9071   0.676   6.219   5.360 -0.6169 -0.6918 -0.9850
   93SAPC  H17Y 9072   0.671   6.368   5.256  1.9053  1.5402  2.0402
   93SAPC  C318 9073   0.478   6.289   5.325  0.0139 -0.5158  0.2650
   93SAPC  H18X 9074   0.424   6.259   5.417 -2.3901  1.7561 -0.2782
   93SAPC  H18Y 9075   0.449   6.218   5.245 -1.4355  0.1967  0.1290
   93SAPC  H18Z 9076   0.439   6.390   5.299 -1.6889 -0.5659  2.3612
   94SAPC     N 9077   1.633   4.080   8.007 -0.1251  0.7023  0.2239
   94SAPC   C12 9078   1.663   4.195   7.911 -0.2684 -0.1986 -0.2182
   94SAPC  H12A 9079   1.662   4.290   7.964 -0.3752  0.3391 -1.1570
   94SAPC  H12B 9080   1.582   4.211   7.842 -0.2509 -1.6702 -0.6133
   94SAPC   C13 9081   1.571   3.967   7.927 -0.2085  0.3658  0.2547
   94SAPC  H13A 9082   1.584   3.878   7.987 -0.1730  0.7611  0.8403
   94SAPC  H13B 9083   1.472   3.984   7.887 -0.0360 -0.2096 -0.4290
   94SAPC  H13C 9084   1.629   3.936   7.842  0.6757  1.9885  0.2150
   94SAPC   C14 9085   1.751   4.033   8.083  0.3735 -0.4570  0.1107
   94SAPC  H14A 9086   1.779   4.099   8.164  2.6747 -1.0696 -0.0899
   94SAPC  H14B 9087   1.730   3.936   8.128 -1.2323 -1.3446 -2.3668
   94SAPC  H14C 9088   1.834   4.024   8.014 -1.7383 -2.3533 -2.3552
   94SAPC   C15 9089   1.532   4.112   8.114  0.2693  0.1452 -0.3816
   94SAPC  H15A 9090   1.501   4.034   8.182 -0.6558  2.6561  2.2722
   94SAPC  H15B 9091   1.557   4.201   8.171  0.8370 -1.3130  1.7551
   94SAPC  H15C 9092   1.443   4.135   8.057  2.0185  1.2126 -2.9018
   94SAPC   C11 9093   1.800   4.182   7.828  0.9182 -0.1814  0.1933
   94SAPC  H11A 9094   1.810   4.259   7.749  1.2083 -0.2168  0.1973
   94SAPC  H11B 9095   1.792   4.094   7.761  2.2394 -0.2077  0.0609
   94SAPC     P 9096   2.042   4.080   7.874 -0.2917 -0.3687 -0.0712
   94SAPC   O13 9097   2.158   4.120   7.960 -0.2839  0.9749  0.0203
   94SAPC   O14 9098   1.991   3.941   7.877  0.2320 -0.2273  0.6157
   94SAPC   O12 9099   1.923   4.181   7.903  0.4633  0.0630  0.0776
   94SAPC   O11 9100   2.072   4.102   7.727  0.1572  0.8483 -0.3030
   94SAPC    C1 9101   2.168   4.196   7.677  0.1580 -0.5808 -0.7742
   94SAPC    HA 9102   2.121   4.296   7.677 -2.2836 -1.6425  0.2331
   94SAPC    HB 9103   2.262   4.198   7.737 -0.5641  1.9734  0.3918
   94SAPC    C2 9104   2.215   4.153   7.537 -0.8478  0.2585  0.8811
   94SAPC    HS 9105   2.228   4.244   7.475  0.0340 -1.6620 -1.9681
   94SAPC   O21 9106   2.118   4.073   7.478  0.8256 -0.7068  0.0016
   94SAPC   C21 9107   1.997   4.145   7.451 -0.9544 -0.4470  0.0636
   94SAPC   O22 9108   1.990   4.268   7.453 -0.2120  0.1196  0.3991
   94SAPC   C22 9109   1.888   4.049   7.415  0.0809 -0.3242  0.0238
   94SAPC   H2R 9110   1.935   3.956   7.375  1.0161 -0.1716  0.7248
   94SAPC   H2S 9111   1.835   4.016   7.507 -1.9905 -0.8724 -1.2921
   94SAPC    C3 9112   2.353   4.092   7.530 -0.1390 -0.9665 -0.3042
   94SAPC    HX 9113   2.346   3.995   7.583 -1.9749 -1.2096 -0.9255
   94SAPC    HY 9114   2.432   4.159   7.571 -0.8211  0.7456 -1.6428
   94SAPC   O31 9115   2.401   4.065   7.393  0.1681 -0.0895  0.1680
   94SAPC   C31 9116   2.459   4.160   7.323  0.3529  0.3165 -0.0356
   94SAPC   O32 9117   2.485   4.271   7.364  0.5082 -0.1757  0.3083
   94SAPC   C32 9118   2.498   4.107   7.183  0.6852 -0.2376 -0.1590
   94SAPC   H2X 9119   2.426   4.158   7.115  1.5958 -0.6174 -1.4580
   94SAPC   H2Y 9120   2.492   3.996   7.185 -1.3347 -0.1906  3.5811
   94SAPC   C23 9121   1.786   4.100   7.313  0.2520  0.1598 -0.2190
   94SAPC   H3R 9122   1.768   4.208   7.334  4.1465  1.0110 -0.5077
   94SAPC   H3S 9123   1.694   4.042   7.337  0.5314 -0.1919  0.0097
   94SAPC   C24 9124   1.837   4.096   7.168 -0.7125  0.3117  0.0014
   94SAPC   H4R 9125   1.940   4.136   7.161 -0.9657  0.8761 -0.5061
   94SAPC   H4S 9126   1.772   4.163   7.107 -1.2493  2.1730  2.4536
   94SAPC   C25 9127   1.822   3.957   7.114  0.5056  0.3645 -0.5811
   94SAPC   H5R 9128   1.717   3.925   7.119  0.3526  0.9600  0.3836
   94SAPC   C26 9129   1.916   3.871   7.068  0.0508 -0.6282  0.4381
   94SAPC   H6R 9130   1.874   3.778   7.026 -3.5688  1.9950 -2.4269
   94SAPC   C27 9131   2.062   3.897   7.041 -0.0243  0.2659  0.1296
   94SAPC   H7R 9132   2.092   4.004   7.037 -0.3021  0.3232 -2.8918
   94SAPC   H7S 9133   2.077   3.857   6.938  0.2679 -0.9157  0.6154
   94SAPC   C28 9134   2.147   3.835   7.150  0.1741 -0.3067  0.5227
   94SAPC   H8R 9135   2.115   3.825   7.255  1.7007 -2.2078  0.8497
   94SAPC   C29 9136   2.272   3.797   7.138 -0.6599 -0.0545  0.7789
   94SAPC   H9R 9137   2.319   3.763   7.231 -1.3768 -3.2180  0.0856
   94SAPC  C210 9138   2.348   3.793   7.011  1.1462  0.0372  0.0179
   94SAPC  H10R 9139   2.455   3.811   7.035  0.8245 -0.2072  1.7764
   94SAPC  H10S 9140   2.312   3.874   6.944  1.2593 -0.1488 -0.2701
   94SAPC  C211 9141   2.352   3.652   6.953 -0.3185 -0.5883  0.1955
   94SAPC  H11R 9142   2.414   3.587   7.017  1.8924  2.6428  1.6293
   94SAPC  C212 9143   2.307   3.604   6.835 -0.8044  0.5826 -0.2541
   94SAPC  H12R 9144   2.322   3.499   6.805 -2.0676  0.1834  0.4152
   94SAPC  C213 9145   2.234   3.680   6.731  0.2933 -0.2128  0.5165
   94SAPC  H13R 9146   2.197   3.778   6.769  0.3071  0.9289 -2.1846
   94SAPC  H13S 9147   2.139   3.629   6.704  0.2655  0.5247 -0.8718
   94SAPC  C214 9148   2.310   3.719   6.608 -0.5165  0.4073 -0.5088
   94SAPC  H14R 9149   2.415   3.686   6.613 -1.0457 -1.1967  2.0841
   94SAPC  C215 9150   2.268   3.785   6.498 -0.7191  0.3843 -0.3661
   94SAPC  H15R 9151   2.343   3.806   6.421 -0.6016 -0.7730 -0.5797
   94SAPC  C216 9152   2.131   3.842   6.486  0.2258 -0.0171 -0.2514
   94SAPC  H16R 9153   2.133   3.952   6.471  0.1735 -0.3165 -2.7992
   94SAPC  H16S 9154   2.059   3.808   6.564 -0.3642 -2.4876 -1.7657
   94SAPC  C217 9155   2.077   3.784   6.352 -0.0905  0.8546  0.0390
   94SAPC  H17R 9156   1.970   3.814   6.351 -0.1734  0.7049  1.6866
   94SAPC  H17S 9157   2.079   3.676   6.330 -0.5236  0.8206  0.1649
   94SAPC  C218 9158   2.141   3.842   6.224  0.1520 -0.5705  0.0781
   94SAPC  H18R 9159   2.248   3.811   6.225  2.0103  4.5472 -2.6973
   94SAPC  H18S 9160   2.148   3.953   6.229 -0.4269 -0.3277 -2.8998
   94SAPC  C219 9161   2.072   3.814   6.093 -0.3014 -0.2083 -0.2025
   94SAPC  H19R 9162   1.962   3.822   6.109  0.0765  1.3115  1.9746
   94SAPC  H19S 9163   2.088   3.707   6.068  1.0519 -0.4490  1.5134
   94SAPC  C220 9164   2.109   3.909   5.976 -0.6783 -0.2552  0.7648
   94SAPC  H20R 9165   2.092   4.016   6.000  0.2810  0.2902 -0.8191
   94SAPC  H20S 9166   2.053   3.879   5.886  1.5375 -1.2594 -0.3590
   94SAPC  H20T 9167   2.218   3.891   5.961 -0.8701 -0.2544 -0.7673
   94SAPC   C33 9168   2.640   4.149   7.144  0.5293  0.2526 -0.1208
   94SAPC   H3X 9169   2.717   4.128   7.221  1.7754 -0.8345 -1.5860
   94SAPC   H3Y 9170   2.636   4.257   7.122 -0.2086  0.0414 -1.1050
   94SAPC   C34 9171   2.706   4.079   7.026  0.1730 -0.0100  0.2853
   94SAPC   H4X 9172   2.720   3.970   7.041  2.1407  0.2316  0.4995
   94SAPC   H4Y 9173   2.802   4.120   6.989  0.2307 -2.0018 -2.0418
   94SAPC   C35 9174   2.609   4.098   6.903 -0.6310  0.2220 -0.5516
   94SAPC   H5X 9175   2.581   4.204   6.885 -0.2816  0.6167  1.1037
   94SAPC   H5Y 9176   2.513   4.044   6.910 -0.0607 -0.8381 -0.6659
   94SAPC   C36 9177   2.666   4.024   6.782  0.7727  0.0480  0.2176
   94SAPC   H6X 9178   2.705   3.925   6.813  0.6156 -1.0938 -2.8291
   94SAPC   H6Y 9179   2.750   4.084   6.741 -0.3020  0.8477 -0.8934
   94SAPC   C37 9180   2.555   4.001   6.675 -0.5827 -0.3764  0.3185
   94SAPC   H7X 9181   2.486   3.930   6.725 -1.6154  1.3711  1.4893
   94SAPC   H7Y 9182   2.601   3.960   6.582  1.0416 -1.2124  1.4475
   94SAPC   C38 9183   2.477   4.126   6.637 -0.1147  0.4598 -0.4091
   94SAPC   H8X 9184   2.557   4.202   6.622  1.4362 -0.3401  3.0473
   94SAPC   H8Y 9185   2.405   4.164   6.713  3.8606  0.9846  3.4737
   94SAPC   C39 9186   2.418   4.129   6.497  0.0557 -0.2122 -0.4302
   94SAPC   H9X 9187   2.320   4.077   6.499 -0.0374 -0.0269  0.9045
   94SAPC   H9Y 9188   2.479   4.070   6.425 -0.4086  1.5405 -2.3180
   94SAPC  C310 9189   2.383   4.269   6.440  0.0807 -0.5060 -0.1666
   94SAPC  H10X 9190   2.479   4.324   6.428  1.0385 -2.1471 -0.4606
   94SAPC  H10Y 9191   2.305   4.323   6.498 -2.8498 -3.1740 -1.2981
   94SAPC  C311 9192   2.308   4.268   6.302 -0.1427  0.7017  0.1563
   94SAPC  H11X 9193   2.281   4.373   6.278 -2.0253 -0.2209 -2.1611
   94SAPC  H11Y 9194   2.214   4.210   6.305 -1.2374  2.4037 -0.0593
   94SAPC  C312 9195   2.390   4.200   6.185  0.0042 -0.0453 -0.6129
   94SAPC  H12X 9196   2.358   4.095   6.168  1.4122 -0.3429 -1.5359
   94SAPC  H12Y 9197   2.498   4.206   6.210 -0.8236  1.3390  3.5804
   94SAPC  C313 9198   2.370   4.281   6.058  0.0045  0.1946  0.4252
   94SAPC  H13X 9199   2.387   4.389   6.081  0.9981  0.1892 -0.2208
   94SAPC  H13Y 9200   2.261   4.279   6.035  0.1064  1.0595 -0.1941
   94SAPC  C314 9201   2.458   4.231   5.953  0.0874 -0.9650 -1.0134
   94SAPC  H14X 9202   2.464   4.120   5.958 -3.2981 -1.1935  2.5447
   94SAPC  H14Y 9203   2.559   4.271   5.977 -0.2413  0.0823 -1.3307
   94SAPC  C315 9204   2.417   4.267   5.811  0.2524 -0.3590 -1.0175
   94SAPC  H15X 9205   2.313   4.230   5.797  0.0216 -0.8699  1.5899
   94SAPC  H15Y 9206   2.481   4.209   5.741  2.2515  0.8287 -0.2557
   94SAPC  C316 9207   2.435   4.409   5.773  0.2984  0.8046 -0.0045
   94SAPC  H16X 9208   2.538   4.442   5.802  0.9568 -0.8839 -0.3596
   94SAPC  H16Y 9209   2.369   4.474   5.835  0.1256 -0.5733  1.3225
   94SAPC  C317 9210   2.395   4.435   5.625  0.2882  0.6503  0.0765
   94SAPC  H17X 9211   2.302   4.376   5.611  1.8903 -2.3495  1.2252
   94SAPC  H17Y 9212   2.476   4.386   5.566 -0.3633  0.1744 -0.4362
   94SAPC  C318 9213   2.380   4.579   5.588  0.2120 -0.5572  0.1302
   94SAPC  H18X 9214   2.326   4.585   5.492 -1.0302  0.7081  0.8660
   94SAPC  H18Y 9215   2.478   4.632   5.595  0.8970 -1.7899  0.1926
   94SAPC  H18Z 9216   2.318   4.623   5.669  0.1383 -0.5932  0.0935
   95SAPC     N 9217   3.835   2.215   1.763 -0.7263  0.2435 -0.5260
   95SAPC   C12 9218   3.951   2.137   1.814 -0.0291 -0.5331 -0.3588
   95SAPC  H12A 9219   4.035   2.168   1.752 -0.0626  0.4336  0.0679
   95SAPC  H12B 9220   3.925   2.034   1.791 -0.5857 -0.5790  0.4472
   95SAPC   C13 9221   3.726   2.199   1.867 -0.1833 -0.2528 -0.4168
   95SAPC  H13A 9222   3.745   2.276   1.941 -0.0049  0.1275 -0.8492
   95SAPC  H13B 9223   3.629   2.217   1.823 -1.0455  0.0957  1.5145
   95SAPC  H13C 9224   3.716   2.102   1.913  2.2605  0.5566  2.1535
   95SAPC   C14 9225   3.856   2.360   1.755 -0.7688  0.7234  0.4696
   95SAPC  H14A 9226   3.775   2.409   1.705 -0.3658  0.8300 -0.0919
   95SAPC  H14B 9227   3.901   2.411   1.839  0.8863  3.2060 -1.7519
   95SAPC  H14C 9228   3.938   2.372   1.685 -1.0272  0.4785  0.1255
   95SAPC   C15 9229   3.797   2.159   1.631  0.4427  0.1203 -0.5092
   95SAPC  H15A 9230   3.868   2.179   1.553  0.6464 -2.3942 -1.0803
   95SAPC  H15B 9231   3.789   2.051   1.634 -1.0825  0.2228  0.5013
   95SAPC  H15C 9232   3.702   2.192   1.591  0.1235  0.8841  0.8113
   95SAPC   C11 9233   4.001   2.154   1.956  0.1756  0.0870 -0.3383
   95SAPC  H11A 9234   4.095   2.097   1.973 -0.4673 -1.9421 -3.0362
   95SAPC  H11B 9235   3.926   2.110   2.025  0.0227  2.4581  1.1276
   95SAPC     P 9236   4.178   2.340   2.033  0.0912  0.3362 -0.4983
   95SAPC   O13 9237   4.277   2.310   1.929 -0.2169  0.6536  0.7470
   95SAPC   O14 9238   4.180   2.472   2.095  0.0731  0.5278 -0.3073
   95SAPC   O12 9239   4.025   2.292   1.996 -0.5224 -0.3616  0.2540
   95SAPC   O11 9240   4.213   2.252   2.160 -0.3623 -0.4980 -0.4785
   95SAPC    C1 9241   4.128   2.238   2.273  0.7734 -0.3565 -0.1420
   95SAPC    HA 9242   4.058   2.324   2.281  0.9929 -0.2220  0.3330
   95SAPC    HB 9243   4.076   2.140   2.276 -0.0979  0.0704 -0.6425
   95SAPC    C2 9244   4.205   2.257   2.411 -0.0439 -0.2653  0.2877
   95SAPC    HS 9245   4.271   2.168   2.421 -1.5172 -1.5761 -1.0461
   95SAPC   O21 9246   4.123   2.287   2.526  0.0238 -0.7880 -0.5310
   95SAPC   C21 9247   4.043   2.193   2.559 -0.3491  0.4654  0.2178
   95SAPC   O22 9248   4.053   2.079   2.519  0.1834  0.1513  0.6100
   95SAPC   C22 9249   3.927   2.242   2.649  0.5270 -0.7521  0.2863
   95SAPC   H2R 9250   3.841   2.182   2.612 -0.2451 -0.1452  1.0600
   95SAPC   H2S 9251   3.955   2.209   2.751  0.3569  1.2826  1.0241
   95SAPC    C3 9252   4.302   2.380   2.383 -0.3146  0.1107 -0.4301
   95SAPC    HX 9253   4.241   2.470   2.360 -1.3666  0.3132  2.6775
   95SAPC    HY 9254   4.361   2.356   2.291  1.0316 -2.6006  1.0319
   95SAPC   O31 9255   4.396   2.404   2.495 -0.3351 -0.3200  0.1304
   95SAPC   C31 9256   4.353   2.497   2.580 -0.1898 -0.1096  0.3021
   95SAPC   O32 9257   4.249   2.561   2.572 -0.0797  0.0192 -0.2228
   95SAPC   C32 9258   4.465   2.531   2.684 -0.5106  0.6015  0.5268
   95SAPC   H2X 9259   4.554   2.573   2.633 -0.5642 -2.3930 -2.3650
   95SAPC   H2Y 9260   4.488   2.436   2.737  1.0411 -0.7056 -2.2855
   95SAPC   C23 9261   3.910   2.393   2.633  0.7535  1.1527  0.6499
   95SAPC   H3R 9262   3.916   2.407   2.523  2.6657  2.1779  0.8580
   95SAPC   H3S 9263   3.993   2.453   2.674  0.8000  1.3150  0.3256
   95SAPC   C24 9264   3.770   2.451   2.674 -0.8235  0.2247 -0.2534
   95SAPC   H4R 9265   3.700   2.406   2.601  1.9583 -1.3942 -2.1422
   95SAPC   H4S 9266   3.772   2.559   2.648  1.1549 -0.0558 -1.4796
   95SAPC   C25 9267   3.750   2.436   2.820  0.2208 -0.3810  0.8738
   95SAPC   H5R 9268   3.828   2.485   2.881  0.5830 -0.2361  0.3097
   95SAPC   C26 9269   3.643   2.389   2.882 -0.0357 -0.6436  0.9442
   95SAPC   H6R 9270   3.636   2.393   2.992 -2.4289  1.5335  0.8173
   95SAPC   C27 9271   3.529   2.321   2.808 -1.1975 -0.1824  0.2302
   95SAPC   H7R 9272   3.527   2.219   2.853  1.0647 -0.4122 -0.0850
   95SAPC   H7S 9273   3.547   2.316   2.699 -1.6862  2.1542 -0.0199
   95SAPC   C28 9274   3.399   2.405   2.827  0.2409 -0.2246 -0.0294
   95SAPC   H8R 9275   3.378   2.481   2.749  2.2384  1.7278  1.2252
   95SAPC   C29 9276   3.300   2.381   2.922 -0.3785  0.4276 -0.6722
   95SAPC   H9R 9277   3.218   2.453   2.930 -1.1620 -0.4816 -0.2270
   95SAPC  C210 9278   3.300   2.274   3.028  0.0698 -0.0211  0.1341
   95SAPC  H10R 9279   3.401   2.261   3.071  0.1370 -1.1091 -0.3352
   95SAPC  H10S 9280   3.253   2.178   2.997 -1.5981  0.7560  0.1511
   95SAPC  C211 9281   3.205   2.335   3.133  0.0126  0.2413  0.5821
   95SAPC  H11R 9282   3.262   2.394   3.206 -0.9570  0.4097  1.2224
   95SAPC  C212 9283   3.069   2.335   3.133 -0.2936 -0.4991  0.8088
   95SAPC  H12R 9284   3.013   2.369   3.222  0.5380  0.8548  0.8448
   95SAPC  C213 9285   2.979   2.259   3.034 -0.2443  0.3023 -0.7574
   95SAPC  H13R 9286   3.003   2.299   2.933  2.7844 -0.0570 -0.2680
   95SAPC  H13S 9287   2.877   2.295   3.058  0.0914  0.2059  0.9073
   95SAPC  C214 9288   2.993   2.106   3.061  0.4147 -1.0233  0.1697
   95SAPC  H14R 9289   3.062   2.048   2.998 -0.4003 -0.1341 -1.6126
   95SAPC  C215 9290   2.919   2.048   3.160  0.6705 -0.6009 -0.0629
   95SAPC  H15R 9291   2.926   1.938   3.171 -0.3045 -0.5198  1.7061
   95SAPC  C216 9292   2.812   2.116   3.251 -0.3276 -0.2656  0.1259
   95SAPC  H16R 9293   2.715   2.073   3.220 -0.8479  0.4935  0.6586
   95SAPC  H16S 9294   2.805   2.224   3.229 -0.3521 -0.1170  0.8289
   95SAPC  C217 9295   2.827   2.085   3.403  0.2193 -0.0477 -0.2724
   95SAPC  H17R 9296   2.826   1.975   3.416 -1.1238 -0.3748 -2.6008
   95SAPC  H17S 9297   2.734   2.114   3.457  2.0099  0.9638  2.4497
   95SAPC  C218 9298   2.953   2.142   3.464  0.2476 -0.4901  0.2775
   95SAPC  H18R 9299   2.952   2.252   3.451 -1.1039 -0.4965  0.2038
   95SAPC  H18S 9300   3.039   2.117   3.398 -0.7390 -1.2094 -0.7795
   95SAPC  C219 9301   2.977   2.125   3.613 -0.0608  0.0649 -0.2288
   95SAPC  H19R 9302   3.063   2.193   3.632 -0.1259  0.0260  0.2359
   95SAPC  H19S 9303   2.999   2.022   3.647 -0.8962 -0.3074 -0.7823
   95SAPC  C220 9304   2.865   2.195   3.707  0.1417  0.1356  0.0796
   95SAPC  H20R 9305   2.834   2.289   3.656  0.0041 -0.5123 -1.0571
   95SAPC  H20S 9306   2.910   2.221   3.805  2.1343 -1.0534 -0.4580
   95SAPC  H20T 9307   2.776   2.129   3.719 -0.9918  2.0188  3.3838
   95SAPC   C33 9308   4.400   2.628   2.783  0.4304 -0.0258  0.3012
   95SAPC   H3X 9309   4.331   2.704   2.740 -0.6920 -0.4640  1.2309
   95SAPC   H3Y 9310   4.482   2.671   2.845  2.3547  1.2523 -2.8992
   95SAPC   C34 9311   4.315   2.540   2.874 -0.2223  0.1761 -0.4994
   95SAPC   H4X 9312   4.373   2.447   2.893  0.7583  0.7998 -0.3210
   95SAPC   H4Y 9313   4.226   2.503   2.819 -1.6461  3.7082 -0.8018
   95SAPC   C35 9314   4.279   2.617   2.999 -0.1655 -0.3562 -0.1978
   95SAPC   H5X 9315   4.198   2.691   2.982  0.1034  0.5239  2.0365
   95SAPC   H5Y 9316   4.363   2.679   3.037 -1.6400  1.4652  0.2394
   95SAPC   C36 9317   4.233   2.531   3.114 -0.7222  0.1256  0.2692
   95SAPC   H6X 9318   4.290   2.436   3.109  0.3393  0.7432  0.2570
   95SAPC   H6Y 9319   4.129   2.500   3.091 -0.7908 -1.2025  2.1126
   95SAPC   C37 9320   4.239   2.603   3.254 -1.3377 -0.6194  0.1237
   95SAPC   H7X 9321   4.182   2.698   3.240  0.0712 -0.0719 -2.5430
   95SAPC   H7Y 9322   4.345   2.634   3.265 -0.3154 -2.4810 -3.2879
   95SAPC   C38 9323   4.198   2.516   3.375  0.0824  0.1349  0.0966
   95SAPC   H8X 9324   4.267   2.430   3.387 -0.9412 -0.4323  2.4249
   95SAPC   H8Y 9325   4.100   2.471   3.350  0.7568 -1.4204  0.1032
   95SAPC   C39 9326   4.199   2.598   3.506 -0.0609 -0.8913 -0.1536
   95SAPC   H9X 9327   4.115   2.670   3.502  1.8317  1.3938 -1.7632
   95SAPC   H9Y 9328   4.288   2.661   3.526  0.2446 -1.7831  1.3957
   95SAPC  C310 9329   4.166   2.506   3.627  0.4671 -0.2814  0.1202
   95SAPC  H10X 9330   4.231   2.417   3.633  0.1431 -0.5110  0.2805
   95SAPC  H10Y 9331   4.066   2.457   3.620  0.5859 -0.4374 -0.6649
   95SAPC  C311 9332   4.157   2.590   3.758  0.4554 -0.4956  0.0994
   95SAPC  H11X 9333   4.086   2.673   3.738 -0.9753 -1.8129 -0.4743
   95SAPC  H11Y 9334   4.257   2.636   3.773 -0.2218  0.3796  2.4164
   95SAPC  C312 9335   4.122   2.508   3.877  0.1971 -0.3419 -0.6574
   95SAPC  H12X 9336   4.189   2.421   3.889 -2.0514 -2.1275 -0.2488
   95SAPC  H12Y 9337   4.023   2.459   3.863 -0.1657 -0.1454  0.9672
   95SAPC  C313 9338   4.122   2.593   4.011  0.1424  0.3308  0.2080
   95SAPC  H13X 9339   4.069   2.688   3.988  0.5719  0.5634  0.1491
   95SAPC  H13Y 9340   4.228   2.627   4.012 -0.3776  2.0551 -0.2420
   95SAPC  C314 9341   4.076   2.519   4.135  0.6562  0.3008 -0.6354
   95SAPC  H14X 9342   3.978   2.470   4.116  1.5113 -1.3850 -0.9366
   95SAPC  H14Y 9343   4.060   2.586   4.221 -0.8221 -1.3654  0.4711
   95SAPC  C315 9344   4.156   2.399   4.191  0.1655  0.2403 -0.7013
   95SAPC  H15X 9345   4.262   2.431   4.199 -0.0920  0.9474 -0.0716
   95SAPC  H15Y 9346   4.147   2.308   4.126 -3.1957  0.3674 -0.5688
   95SAPC  C316 9347   4.118   2.366   4.338  0.3809 -0.6051 -0.5097
   95SAPC  H16X 9348   4.015   2.329   4.357  0.5816 -2.7986 -3.1915
   95SAPC  H16Y 9349   4.128   2.467   4.384  0.6649 -0.3514 -1.1134
   95SAPC  C317 9350   4.209   2.262   4.397 -0.1081 -0.1799 -1.1530
   95SAPC  H17X 9351   4.309   2.287   4.355 -0.4392  0.3997 -1.6119
   95SAPC  H17Y 9352   4.181   2.157   4.372  1.0689 -1.4630  2.3465
   95SAPC  C318 9353   4.211   2.277   4.549 -0.9837 -0.0900 -0.5008
   95SAPC  H18X 9354   4.122   2.326   4.595  0.3429  1.0028  1.0169
   95SAPC  H18Y 9355   4.300   2.330   4.588 -0.7548 -0.5568 -0.3803
   95SAPC  H18Z 9356   4.199   2.177   4.597  0.7088  1.2730  3.1068
   96SAPC     N 9357   2.827   1.472   1.849 -0.9339  0.3061  0.7039
   96SAPC   C12 9358   2.774   1.400   1.971  0.5812 -0.0363  0.2744
   96SAPC  H12A 9359   2.809   1.298   1.979  0.3362 -0.1338  0.1163
   96SAPC  H12B 9360   2.668   1.385   1.955  0.8629 -1.7604 -0.2005
   96SAPC   C13 9361   2.816   1.379   1.730 -0.2255 -0.1086 -0.3066
   96SAPC  H13A 9362   2.840   1.426   1.636  3.3093 -1.1171 -0.0856
   96SAPC  H13B 9363   2.891   1.301   1.733 -0.0742  0.0648  0.6725
   96SAPC  H13C 9364   2.716   1.343   1.716  0.2244 -2.0023  1.0071
   96SAPC   C14 9365   2.760   1.600   1.828  0.2055 -0.0061  0.3635
   96SAPC  H14A 9366   2.776   1.670   1.909 -1.9062  1.4840 -0.3972
   96SAPC  H14B 9367   2.799   1.665   1.750 -0.0607 -1.1890 -0.7825
   96SAPC  H14C 9368   2.654   1.585   1.823  0.0979  0.9837 -0.6993
   96SAPC   C15 9369   2.972   1.502   1.863  0.3035  0.2477 -0.6214
   96SAPC  H15A 9370   3.028   1.411   1.876 -0.7054 -0.0582  2.6590
   96SAPC  H15B 9371   3.012   1.550   1.776 -0.5833 -0.2148 -1.3078
   96SAPC  H15C 9372   2.980   1.566   1.949 -0.0495  2.5272 -2.2060
   96SAPC   C11 9373   2.784   1.457   2.110 -0.5057 -0.5664 -0.4068
   96SAPC  H11A 9374   2.723   1.549   2.120  0.5143  0.0960 -0.1269
   96SAPC  H11B 9375   2.891   1.480   2.125 -1.1041  2.3765  0.0195
   96SAPC     P 9376   2.747   1.400   2.363 -0.3335  0.0274  0.2003
   96SAPC   O13 9377   2.609   1.410   2.408 -0.3453 -0.3845  0.3736
   96SAPC   O14 9378   2.840   1.310   2.440  0.1251 -0.6470 -0.1194
   96SAPC   O12 9379   2.746   1.357   2.208  0.0012  0.8555 -0.4524
   96SAPC   O11 9380   2.816   1.540   2.352 -0.1434  0.0540 -0.1424
   96SAPC    C1 9381   2.744   1.655   2.399  0.2312 -0.8550 -0.3558
   96SAPC    HA 9382   2.772   1.744   2.339 -1.9271 -1.4322 -2.3849
   96SAPC    HB 9383   2.633   1.654   2.392  0.0724  1.4905  0.7676
   96SAPC    C2 9384   2.769   1.698   2.547 -0.0339 -0.2476 -0.5602
   96SAPC    HS 9385   2.868   1.749   2.546  0.5977 -1.3995  0.4905
   96SAPC   O21 9386   2.775   1.576   2.630  0.3432  0.4267 -0.3749
   96SAPC   C21 9387   2.897   1.524   2.650 -0.4677  0.1110 -0.2396
   96SAPC   O22 9388   2.991   1.555   2.583  0.4888  0.0911 -0.0811
   96SAPC   C22 9389   2.899   1.430   2.769 -0.4241  0.3496  0.1152
   96SAPC   H2R 9390   2.797   1.413   2.811 -1.4558  1.7011 -1.7522
   96SAPC   H2S 9391   2.936   1.330   2.739  0.4145  0.5689  0.3852
   96SAPC    C3 9392   2.658   1.796   2.599  0.3589  0.0980 -0.7886
   96SAPC    HX 9393   2.554   1.759   2.610  0.1552  0.7540 -0.4703
   96SAPC    HY 9394   2.650   1.871   2.519 -0.5040 -1.1981 -1.9627
   96SAPC   O31 9395   2.700   1.850   2.726  0.6115  0.6461  0.0440
   96SAPC   C31 9396   2.637   1.806   2.837  0.3967 -0.7802 -0.0213
   96SAPC   O32 9397   2.566   1.709   2.840  0.7264  0.7752 -0.0763
   96SAPC   C32 9398   2.644   1.915   2.948  0.7533 -0.3058 -0.3284
   96SAPC   H2X 9399   2.661   2.013   2.898 -0.2218 -0.3765 -0.8201
   96SAPC   H2Y 9400   2.727   1.890   3.017  0.6752  0.8648  0.2160
   96SAPC   C23 9401   3.000   1.480   2.877 -0.0657  0.4027 -1.0261
   96SAPC   H3R 9402   3.094   1.505   2.823  0.1773 -0.0943 -0.8333
   96SAPC   H3S 9403   3.021   1.400   2.951  0.1271  1.0540 -0.3665
   96SAPC   C24 9404   2.959   1.599   2.952  0.2706 -0.4028 -0.5029
   96SAPC   H4R 9405   2.944   1.692   2.893 -0.1914  1.2142  2.0302
   96SAPC   H4S 9406   3.052   1.619   3.011 -0.9037  1.7913  0.7430
   96SAPC   C25 9407   2.840   1.565   3.039 -0.1015  0.2874  0.2686
   96SAPC   H5R 9408   2.744   1.568   2.984 -0.5648 -0.6758  0.9920
   96SAPC   C26 9409   2.834   1.544   3.174  0.7251  0.1193  0.2456
   96SAPC   H6R 9410   2.736   1.533   3.222  1.6570 -0.8898  1.9725
   96SAPC   C27 9411   2.957   1.536   3.260  0.6470 -0.1255  0.1709
   96SAPC   H7R 9412   2.981   1.640   3.291  0.4552  0.2988 -1.0585
   96SAPC   H7S 9413   3.054   1.519   3.210  1.5087  1.4190  1.2481
   96SAPC   C28 9414   2.939   1.447   3.375 -0.1336  0.3897 -0.0956
   96SAPC   H8R 9415   2.940   1.342   3.343 -0.0934 -0.0832  1.4160
   96SAPC   C29 9416   2.888   1.470   3.494 -0.0657  0.2952  0.6317
   96SAPC   H9R 9417   2.856   1.385   3.558 -1.3616 -1.4866 -2.1924
   96SAPC  C210 9418   2.847   1.609   3.546 -0.2557  0.3974  0.2979
   96SAPC  H10R 9419   2.763   1.587   3.614  1.9954 -2.6997  2.3016
   96SAPC  H10S 9420   2.800   1.656   3.457 -3.0008 -0.4465  1.1948
   96SAPC  C211 9421   2.950   1.690   3.604 -0.2521 -0.7747  0.1088
   96SAPC  H11R 9422   2.981   1.777   3.543 -1.3998  0.6273  1.4358
   96SAPC  C212 9423   3.026   1.657   3.711 -0.3981 -0.3636  0.3305
   96SAPC  H12R 9424   3.094   1.733   3.752 -0.0471 -0.5249  0.0555
   96SAPC  C213 9425   2.992   1.557   3.818  0.5042  0.1483  0.0011
   96SAPC  H13R 9426   2.893   1.512   3.794  1.5983 -1.7644 -1.1330
   96SAPC  H13S 9427   2.990   1.612   3.915 -0.8849  0.6242 -0.2663
   96SAPC  C214 9428   3.090   1.440   3.825 -0.2587 -0.2159  0.1147
   96SAPC  H14R 9429   3.131   1.414   3.726 -1.3296  1.1833 -0.7303
   96SAPC  C215 9430   3.124   1.367   3.931 -0.0692  0.2224  0.0060
   96SAPC  H15R 9431   3.187   1.277   3.918 -1.9299 -1.5439  2.2957
   96SAPC  C216 9432   3.082   1.389   4.077  0.5456 -0.2144 -0.2111
   96SAPC  H16R 9433   3.000   1.464   4.075  1.0214  0.3611  1.0039
   96SAPC  H16S 9434   3.168   1.441   4.124 -0.6061  3.2841 -1.6875
   96SAPC  C217 9435   3.027   1.267   4.156  0.0819 -0.0736  0.3339
   96SAPC  H17R 9436   3.108   1.190   4.155 -0.3584 -0.5408 -0.7984
   96SAPC  H17S 9437   2.940   1.227   4.100  1.0266 -1.1830 -0.4046
   96SAPC  C218 9438   2.999   1.302   4.297 -0.1319  0.1037 -0.0102
   96SAPC  H18R 9439   3.087   1.354   4.340 -0.2531  1.0379 -0.8637
   96SAPC  H18S 9440   2.993   1.204   4.349 -0.8919  0.5461  0.7648
   96SAPC  C219 9441   2.871   1.379   4.327 -0.6489 -0.0422 -0.0160
   96SAPC  H19R 9442   2.798   1.334   4.256 -0.2844  0.6262 -0.8291
   96SAPC  H19S 9443   2.893   1.486   4.308  1.3708 -0.5009 -0.4997
   96SAPC  C220 9444   2.818   1.359   4.466  0.0745  0.0761  0.5442
   96SAPC  H20R 9445   2.797   1.251   4.482  0.0208 -0.2341 -1.3243
   96SAPC  H20S 9446   2.724   1.417   4.464  0.5294  0.9876 -3.2597
   96SAPC  H20T 9447   2.896   1.394   4.538  0.7755 -2.1008  0.9172
   96SAPC   C33 9448   2.514   1.930   3.034  0.0513 -0.6973  0.0578
   96SAPC   H3X 9449   2.417   1.929   2.980  0.1691  0.9467 -0.2396
   96SAPC   H3Y 9450   2.518   2.031   3.080 -0.5006  0.0451 -1.4688
   96SAPC   C34 9451   2.493   1.814   3.141 -0.1783 -0.7781 -0.1449
   96SAPC   H4X 9452   2.533   1.714   3.113 -0.3714 -0.6609 -0.8507
   96SAPC   H4Y 9453   2.383   1.805   3.155  0.0784 -0.5023  2.8106
   96SAPC   C35 9454   2.548   1.865   3.277  0.8101  0.0528  0.1827
   96SAPC   H5X 9455   2.509   1.969   3.281  3.0822  0.9249  1.0709
   96SAPC   H5Y 9456   2.658   1.854   3.281  0.9420  0.4817 -1.3941
   96SAPC   C36 9457   2.483   1.794   3.396  0.8133  0.3213 -0.4092
   96SAPC   H6X 9458   2.510   1.686   3.397 -2.9701 -0.7928  1.3520
   96SAPC   H6Y 9459   2.373   1.791   3.380  0.4609  0.5641  1.7439
   96SAPC   C37 9460   2.511   1.852   3.534 -0.9830 -0.4527  0.0461
   96SAPC   H7X 9461   2.481   1.959   3.530  0.6062 -0.0166 -2.4127
   96SAPC   H7Y 9462   2.621   1.862   3.552 -1.1756  1.5548  0.3035
   96SAPC   C38 9463   2.463   1.775   3.662  0.5288 -0.0225 -0.3590
   96SAPC   H8X 9464   2.515   1.677   3.654  2.1382  0.7537  0.1720
   96SAPC   H8Y 9465   2.354   1.760   3.654  0.6948 -1.6646  0.1521
   96SAPC   C39 9466   2.498   1.838   3.798  1.0109 -0.3430 -0.3589
   96SAPC   H9X 9467   2.451   1.783   3.882  0.8850 -0.0327 -0.2242
   96SAPC   H9Y 9468   2.466   1.944   3.810  0.3370 -0.7753  2.1050
   96SAPC  C310 9469   2.648   1.834   3.814  0.4430 -0.3412 -0.3041
   96SAPC  H10X 9470   2.698   1.908   3.747  0.4293 -1.2715 -1.3645
   96SAPC  H10Y 9471   2.701   1.736   3.814  4.6924  1.5384  3.8743
   96SAPC  C311 9472   2.693   1.890   3.952 -0.2087 -0.2707 -0.1685
   96SAPC  H11X 9473   2.653   1.987   3.989 -1.2632 -1.3786  1.7297
   96SAPC  H11Y 9474   2.802   1.911   3.947 -0.6963  2.3984 -2.0870
   96SAPC  C312 9475   2.665   1.795   4.068 -0.1748  0.1464  0.2087
   96SAPC  H12X 9476   2.709   1.694   4.054 -0.4986  0.0551 -0.1660
   96SAPC  H12Y 9477   2.558   1.765   4.080  0.3150 -3.5779 -2.6339
   96SAPC  C313 9478   2.714   1.851   4.205 -0.4764  0.5301 -0.1133
   96SAPC  H13X 9479   2.711   1.765   4.276  2.0224 -1.2509 -2.0285
   96SAPC  H13Y 9480   2.660   1.943   4.236 -0.1639  0.8672 -0.5680
   96SAPC  C314 9481   2.865   1.901   4.212 -0.3273 -0.0271 -0.0303
   96SAPC  H14X 9482   2.885   1.958   4.305  0.6637  0.3007 -0.4274
   96SAPC  H14Y 9483   2.880   1.974   4.130  1.4981  0.8793  1.0654
   96SAPC  C315 9484   2.961   1.787   4.208  0.5051  0.6839 -0.5089
   96SAPC  H15X 9485   2.929   1.715   4.130 -0.7733  0.0455  0.5411
   96SAPC  H15Y 9486   2.964   1.725   4.300  0.4465  1.6413  0.1535
   96SAPC  C316 9487   3.107   1.830   4.182 -0.0439  0.3800  0.3423
   96SAPC  H16X 9488   3.101   1.890   4.088 -3.0978  0.9105  0.7849
   96SAPC  H16Y 9489   3.168   1.739   4.164 -0.6224  0.0814 -0.1335
   96SAPC  C317 9490   3.192   1.896   4.299  0.4830  0.2415 -0.1819
   96SAPC  H17X 9491   3.180   1.811   4.370 -2.8284  0.9348  0.2555
   96SAPC  H17Y 9492   3.163   1.994   4.343  2.5000  0.1844  1.4013
   96SAPC  C318 9493   3.341   1.902   4.258  0.3579  0.1127 -0.1813
   96SAPC  H18X 9494   3.407   1.941   4.339 -0.3132  0.3824  0.2462
   96SAPC  H18Y 9495   3.347   1.970   4.170  0.8661  0.3911  0.0669
   96SAPC  H18Z 9496   3.379   1.805   4.219  0.4395  0.7907 -1.8410
   97SAPC     N 9497   5.240   2.694   1.949 -0.1211 -0.1643 -0.0912
   97SAPC   C12 9498   5.339   2.600   2.006 -0.2302 -0.5333 -0.4686
   97SAPC  H12A 9499   5.384   2.546   1.924 -0.5930  0.9326 -1.6809
   97SAPC  H12B 9500   5.292   2.523   2.067 -1.3428 -1.9643 -2.9792
   97SAPC   C13 9501   5.167   2.613   1.850  0.3916  0.2115 -0.1917
   97SAPC  H13A 9502   5.087   2.658   1.793 -1.7351  0.8389  2.9938
   97SAPC  H13B 9503   5.230   2.567   1.776 -2.9673 -0.9539 -2.5321
   97SAPC  H13C 9504   5.122   2.534   1.908  0.7040 -0.4228 -0.8144
   97SAPC   C14 9505   5.130   2.737   2.043  0.1191  0.7409 -0.0874
   97SAPC  H14A 9506   5.171   2.794   2.125 -0.2698  1.7624 -0.5799
   97SAPC  H14B 9507   5.061   2.801   1.989  0.2356  0.8856 -0.0662
   97SAPC  H14C 9508   5.076   2.653   2.085 -2.4344  2.5960  0.5617
   97SAPC   C15 9509   5.299   2.813   1.878  0.1595  0.1280  0.2707
   97SAPC  H15A 9510   5.337   2.884   1.950 -2.3529  1.7786  0.0891
   97SAPC  H15B 9511   5.383   2.782   1.818  0.8326 -2.0143  2.1740
   97SAPC  H15C 9512   5.220   2.867   1.828 -0.1507 -1.3308 -0.9033
   97SAPC   C11 9513   5.447   2.660   2.099  0.5931 -0.5522 -0.6430
   97SAPC  H11A 9514   5.488   2.571   2.150  0.6513 -0.0470  0.2050
   97SAPC  H11B 9515   5.384   2.723   2.165  2.5099  1.7569 -0.8750
   97SAPC     P 9516   5.600   2.866   2.073  0.4056 -0.1730  0.1058
   97SAPC   O13 9517   5.730   2.908   2.012 -0.4308  0.6037  0.5060
   97SAPC   O14 9518   5.491   2.960   2.052 -0.1347 -0.5444 -0.2721
   97SAPC   O12 9519   5.549   2.725   2.024 -0.1989 -0.5324 -0.4727
   97SAPC   O11 9520   5.614   2.847   2.235 -0.1866 -0.3975 -1.1125
   97SAPC    C1 9521   5.707   2.745   2.286  0.3733 -0.0403 -0.2204
   97SAPC    HA 9522   5.662   2.643   2.288 -0.8997  0.4238 -2.3872
   97SAPC    HB 9523   5.796   2.733   2.221 -1.9291  3.2432 -4.4515
   97SAPC    C2 9524   5.740   2.780   2.432  0.2855 -0.1246  0.1225
   97SAPC    HS 9525   5.778   2.686   2.478  1.3187 -0.6038 -1.6067
   97SAPC   O21 9526   5.627   2.829   2.505 -0.4926  0.4807  0.0094
   97SAPC   C21 9527   5.542   2.729   2.529  0.1652  0.0714  0.3080
   97SAPC   O22 9528   5.570   2.608   2.515  0.2723 -0.8630  0.4044
   97SAPC   C22 9529   5.428   2.797   2.603 -0.7731  0.2910 -0.5327
   97SAPC   H2R 9530   5.441   2.901   2.639  2.2210 -0.2204  0.0911
   97SAPC   H2S 9531   5.347   2.813   2.529  0.5616  0.6504 -1.9768
   97SAPC    C3 9532   5.856   2.889   2.438 -0.1625 -0.7085 -0.1165
   97SAPC    HX 9533   5.834   2.973   2.369 -0.4839 -0.1379  0.6569
   97SAPC    HY 9534   5.946   2.845   2.390 -1.8959 -1.9982 -2.4389
   97SAPC   O31 9535   5.883   2.923   2.576 -0.1583 -0.8155  0.1388
   97SAPC   C31 9536   5.825   3.038   2.615 -1.0595  0.1184 -0.0690
   97SAPC   O32 9537   5.760   3.117   2.551 -0.6761 -0.1220  0.7491
   97SAPC   C32 9538   5.845   3.044   2.765 -0.5672 -0.1561 -0.0887
   97SAPC   H2X 9539   5.948   3.068   2.798 -0.5811 -0.2034 -0.0080
   97SAPC   H2Y 9540   5.815   2.943   2.799  0.5847 -0.2890  0.5985
   97SAPC   C23 9541   5.357   2.705   2.713  0.0321 -0.0051  0.0576
   97SAPC   H3R 9542   5.369   2.597   2.692  1.2973  0.2630 -0.6889
   97SAPC   H3S 9543   5.250   2.733   2.721  0.2643  0.8011  0.4646
   97SAPC   C24 9544   5.414   2.728   2.852 -0.1415  0.3225  0.3808
   97SAPC   H4R 9545   5.525   2.717   2.847 -0.2763 -2.1048  1.3993
   97SAPC   H4S 9546   5.386   2.644   2.919 -0.9240  0.2272 -0.0560
   97SAPC   C25 9547   5.389   2.860   2.907  0.2610 -0.4169  0.1122
   97SAPC   H5R 9548   5.409   2.935   2.828  1.0404 -1.4844 -0.7421
   97SAPC   C26 9549   5.346   2.898   3.028 -0.2391  0.2570 -0.2617
   97SAPC   H6R 9550   5.337   3.007   3.042 -1.8218 -0.0710  1.9152
   97SAPC   C27 9551   5.308   2.813   3.153  0.5269 -0.6170 -0.6019
   97SAPC   H7R 9552   5.395   2.795   3.219 -0.5006 -0.8790  0.7150
   97SAPC   H7S 9553   5.279   2.708   3.131  3.4604 -1.6098 -0.0603
   97SAPC   C28 9554   5.198   2.880   3.235  0.6044 -0.1167 -0.3988
   97SAPC   H8R 9555   5.129   2.949   3.183 -0.1763 -0.7027 -0.1730
   97SAPC   C29 9556   5.167   2.851   3.361  0.6010  0.5891 -0.2328
   97SAPC   H9R 9557   5.084   2.894   3.418  2.3669 -0.2340  3.2276
   97SAPC  C210 9558   5.219   2.747   3.459  0.4084  0.0974  0.3579
   97SAPC  H10R 9559   5.287   2.797   3.532  2.1140  0.2270 -1.2413
   97SAPC  H10S 9560   5.289   2.682   3.402  0.3448 -1.2897  1.7795
   97SAPC  C211 9561   5.114   2.657   3.519 -1.0722 -0.3607  0.4447
   97SAPC  H11R 9562   5.044   2.609   3.449 -1.1950 -0.9658  0.9727
   97SAPC  C212 9563   5.106   2.615   3.641  0.7304 -0.0860 -0.0128
   97SAPC  H12R 9564   5.017   2.556   3.667 -0.4889  1.5857 -0.2374
   97SAPC  C213 9565   5.194   2.658   3.761  0.2195  0.0696  0.5046
   97SAPC  H13R 9566   5.290   2.697   3.720  1.2733 -1.1913  1.6736
   97SAPC  H13S 9567   5.237   2.570   3.814  0.7386 -0.8392 -1.3257
   97SAPC  C214 9568   5.138   2.749   3.864  0.0540  0.0614 -0.0845
   97SAPC  H14R 9569   5.125   2.849   3.820  3.3691  0.7794  0.3014
   97SAPC  C215 9570   5.107   2.722   3.992 -0.3365  0.6139  0.4390
   97SAPC  H15R 9571   5.083   2.809   4.055  0.1401  0.9823  0.1184
   97SAPC  C216 9572   5.134   2.588   4.072  0.2639  0.3347  0.3242
   97SAPC  H16R 9573   5.117   2.501   4.006  2.0162 -1.1314  1.6878
   97SAPC  H16S 9574   5.051   2.578   4.146  0.7506 -2.7562  0.5768
   97SAPC  C217 9575   5.266   2.594   4.141  0.9708  0.0186 -0.0859
   97SAPC  H17R 9576   5.272   2.692   4.194 -1.7534  2.6322 -4.0915
   97SAPC  H17S 9577   5.342   2.591   4.060  0.4480  0.0463 -0.5819
   97SAPC  C218 9578   5.266   2.486   4.249 -0.1214 -0.1152  0.1676
   97SAPC  H18R 9579   5.366   2.481   4.297 -0.5761  0.9225  1.3099
   97SAPC  H18S 9580   5.246   2.385   4.207 -3.0125  0.4008  0.0721
   97SAPC  C219 9581   5.163   2.522   4.360 -0.1576 -0.1388 -0.1167
   97SAPC  H19R 9582   5.059   2.497   4.332 -0.6784  0.8496  0.8711
   97SAPC  H19S 9583   5.160   2.632   4.375  1.2809 -0.0762 -0.1276
   97SAPC  C220 9584   5.196   2.452   4.497 -0.8204  0.1681  0.1146
   97SAPC  H20R 9585   5.288   2.501   4.535 -1.1496  0.6075  0.3544
   97SAPC  H20S 9586   5.218   2.344   4.480  0.9776 -0.0255  3.0544
   97SAPC  H20T 9587   5.118   2.467   4.575  0.2767  1.8658  0.9408
   97SAPC   C33 9588   5.752   3.160   2.818  0.1270 -0.0110  0.2834
   97SAPC   H3X 9589   5.657   3.162   2.761  0.6120 -1.5951 -0.6497
   97SAPC   H3Y 9590   5.802   3.259   2.808 -0.7775  0.2503 -3.0562
   97SAPC   C34 9591   5.713   3.118   2.964 -0.0843 -0.8189  0.0712
   97SAPC   H4X 9592   5.806   3.113   3.023 -0.3781  2.8770  1.0844
   97SAPC   H4Y 9593   5.651   3.026   2.955  1.2279 -2.0123  2.3889
   97SAPC   C35 9594   5.617   3.222   3.031 -0.1907 -0.0965 -0.4848
   97SAPC   H5X 9595   5.528   3.248   2.970  0.3155  1.5710 -0.5618
   97SAPC   H5Y 9596   5.667   3.321   3.042  0.6563 -0.1294 -3.3392
   97SAPC   C36 9597   5.573   3.175   3.168  0.9300  0.0414 -0.2012
   97SAPC   H6X 9598   5.667   3.164   3.226  1.2935  0.5855 -0.6769
   97SAPC   H6Y 9599   5.513   3.082   3.155  0.0861  0.6041 -0.4190
   97SAPC   C37 9600   5.489   3.274   3.242  0.8364 -0.1873 -0.0463
   97SAPC   H7X 9601   5.389   3.292   3.197  1.1417 -0.9265 -1.0449
   97SAPC   H7Y 9602   5.546   3.368   3.224  0.6890 -0.0838  0.0219
   97SAPC   C38 9603   5.478   3.252   3.394 -0.7886  0.3057  0.3714
   97SAPC   H8X 9604   5.463   3.347   3.449  0.6771 -0.9546  3.1107
   97SAPC   H8Y 9605   5.573   3.217   3.440  0.6421  1.3905 -1.5543
   97SAPC   C39 9606   5.362   3.157   3.418 -0.3967 -0.2017 -0.0667
   97SAPC   H9X 9607   5.377   3.058   3.369 -0.4665  0.9312 -2.4678
   97SAPC   H9Y 9608   5.268   3.197   3.376  0.8920  0.3777 -2.5473
   97SAPC  C310 9609   5.335   3.134   3.569 -0.2559 -0.2329 -0.4927
   97SAPC  H10X 9610   5.239   3.079   3.562 -2.5915  3.4963 -0.4955
   97SAPC  H10Y 9611   5.304   3.221   3.630  0.3187 -0.8661  0.7728
   97SAPC  C311 9612   5.451   3.061   3.638 -0.3695 -0.1535  0.2926
   97SAPC  H11X 9613   5.529   3.141   3.640 -0.6151  0.1165 -0.4097
   97SAPC  H11Y 9614   5.491   2.978   3.576 -1.1503 -0.3223  0.0084
   97SAPC  C312 9615   5.423   3.007   3.778  0.8495  0.0921 -0.3160
   97SAPC  H12X 9616   5.518   2.958   3.808  0.3874 -0.5708  0.0642
   97SAPC  H12Y 9617   5.356   2.919   3.782  0.7342  0.0842 -1.7818
   97SAPC  C313 9618   5.384   3.115   3.879 -0.1972 -0.3876 -0.1682
   97SAPC  H13X 9619   5.306   3.182   3.838  1.2748  0.6383 -1.4320
   97SAPC  H13Y 9620   5.470   3.184   3.895 -2.9896  3.0831  1.2500
   97SAPC  C314 9621   5.346   3.051   4.020 -0.1138  0.0944  0.4274
   97SAPC  H14X 9622   5.401   2.959   4.050  0.3334  0.0672 -0.4268
   97SAPC  H14Y 9623   5.247   3.007   3.996  0.1791 -0.5278  0.3439
   97SAPC  C315 9624   5.333   3.154   4.131  0.3720 -0.7409 -0.1841
   97SAPC  H15X 9625   5.273   3.240   4.093 -0.6706 -0.1830  2.4912
   97SAPC  H15Y 9626   5.430   3.188   4.173 -0.6470  1.9378  0.2497
   97SAPC  C316 9627   5.254   3.095   4.254  0.4726  0.3764  0.6047
   97SAPC  H16X 9628   5.256   3.172   4.334  1.2536 -0.2117  1.1734
   97SAPC  H16Y 9629   5.317   3.011   4.290 -0.4064 -0.1242  1.0168
   97SAPC  C317 9630   5.101   3.075   4.224 -0.4181 -0.7455  0.2307
   97SAPC  H17X 9631   5.106   2.998   4.145 -0.1560  0.2172 -0.7022
   97SAPC  H17Y 9632   5.059   3.168   4.179  0.3202 -0.7413 -0.4525
   97SAPC  C318 9633   5.016   3.026   4.346 -0.8951  0.4258  0.0412
   97SAPC  H18X 9634   4.908   3.017   4.322 -0.9435 -0.8851  0.6882
   97SAPC  H18Y 9635   5.031   3.097   4.430 -3.4949 -0.2392  1.1532
   97SAPC  H18Z 9636   5.042   2.925   4.382 -0.5250  0.4494 -0.1546
   98SAPC     N 9637   1.693   1.586   2.351  0.1123  0.5541 -0.0497
   98SAPC   C12 9638   1.727   1.739   2.376  0.0873 -0.0461 -0.0950
   98SAPC  H12A 9639   1.829   1.743   2.410  1.1311 -1.0542 -2.8520
   98SAPC  H12B 9640   1.654   1.757   2.453  1.9633 -1.4734  2.1522
   98SAPC   C13 9641   1.780   1.519   2.246 -1.5935  0.2652 -0.2225
   98SAPC  H13A 9642   1.865   1.475   2.296 -2.0585 -1.6303 -1.0217
   98SAPC  H13B 9643   1.726   1.448   2.186  0.5119  0.9992 -3.2494
   98SAPC  H13C 9644   1.824   1.592   2.180  2.4841 -1.3997  0.3509
   98SAPC   C14 9645   1.701   1.510   2.485  0.4709  0.1159  0.2489
   98SAPC  H14A 9646   1.626   1.540   2.557  0.9669  0.8600  0.4750
   98SAPC  H14B 9647   1.704   1.405   2.463 -4.1973  0.3315 -2.7941
   98SAPC  H14C 9648   1.792   1.540   2.536  1.9942 -0.6840 -1.8314
   98SAPC   C15 9649   1.558   1.560   2.308 -0.3124 -0.0785  0.4632
   98SAPC  H15A 9650   1.545   1.459   2.271  0.4315  1.2357 -3.9877
   98SAPC  H15B 9651   1.490   1.593   2.384  1.7020  2.6552  1.2225
   98SAPC  H15C 9652   1.541   1.621   2.220  2.0966  0.1351  0.0649
   98SAPC   C11 9653   1.715   1.845   2.263 -0.4613 -0.1798 -0.2348
   98SAPC  H11A 9654   1.787   1.815   2.183  0.4452 -1.8225  1.1378
   98SAPC  H11B 9655   1.760   1.938   2.304  1.2457 -0.8077 -0.5918
   98SAPC     P 9656   1.475   1.939   2.310  0.2770  0.1422 -0.0052
   98SAPC   O13 9657   1.455   2.075   2.255 -0.4965 -0.6756 -0.3153
   98SAPC   O14 9658   1.353   1.859   2.298  1.0138 -0.3115  0.2336
   98SAPC   O12 9659   1.582   1.860   2.221  0.3316  0.0381  0.1527
   98SAPC   O11 9660   1.526   1.940   2.459 -0.2892  0.0563 -0.1783
   98SAPC    C1 9661   1.452   1.897   2.575  0.1805 -0.5793 -0.0044
   98SAPC    HA 9662   1.370   1.828   2.543 -1.6308  1.7204 -0.6187
   98SAPC    HB 9663   1.512   1.837   2.647 -1.2004 -1.2523  0.6302
   98SAPC    C2 9664   1.384   2.019   2.648 -0.8479  0.5376  0.5519
   98SAPC    HS 9665   1.356   2.086   2.564 -1.3495 -1.0247 -0.5532
   98SAPC   O21 9666   1.485   2.080   2.732  0.7297 -0.2067  0.3873
   98SAPC   C21 9667   1.444   2.196   2.778 -0.2628  0.1160  0.3995
   98SAPC   O22 9668   1.342   2.255   2.740  0.3783  0.1389  0.4130
   98SAPC   C22 9669   1.532   2.245   2.900 -0.5649 -0.2268  0.5871
   98SAPC   H2R 9670   1.541   2.151   2.958 -1.2647 -0.2434  0.6826
   98SAPC   H2S 9671   1.635   2.264   2.862 -0.7963  1.9063  0.8695
   98SAPC    C3 9672   1.264   1.966   2.726  0.4664 -0.7011  0.1374
   98SAPC    HX 9673   1.181   1.960   2.653  0.2551  0.8815  0.2259
   98SAPC    HY 9674   1.236   2.046   2.797 -2.6064 -2.4943  1.1519
   98SAPC   O31 9675   1.286   1.837   2.790  0.1826 -0.3434 -0.1564
   98SAPC   C31 9676   1.347   1.844   2.907  0.5890 -0.0323  0.2532
   98SAPC   O32 9677   1.393   1.944   2.958 -0.0135  0.3350 -0.4089
   98SAPC   C32 9678   1.360   1.705   2.968  0.4638  0.3646  0.0580
   98SAPC   H2X 9679   1.405   1.715   3.069 -0.1884  0.3186  0.3526
   98SAPC   H2Y 9680   1.415   1.643   2.893 -0.2026 -0.0306 -0.1061
   98SAPC   C23 9681   1.475   2.356   2.984  0.6124  0.6992  0.3195
   98SAPC   H3R 9682   1.425   2.316   3.075 -2.1149  1.7879 -0.6083
   98SAPC   H3S 9683   1.404   2.417   2.926  0.7174  1.5554  1.0754
   98SAPC   C24 9684   1.575   2.465   3.035  0.5506  0.1870 -0.8281
   98SAPC   H4R 9685   1.510   2.542   3.081  1.5559  0.1154  0.7814
   98SAPC   H4S 9686   1.623   2.521   2.952 -2.1233 -1.2336 -3.5508
   98SAPC   C25 9687   1.677   2.403   3.131  0.1871 -0.2210 -0.2710
   98SAPC   H5R 9688   1.725   2.313   3.091 -1.6979 -1.9591  1.1364
   98SAPC   C26 9689   1.689   2.429   3.265 -0.4535 -0.7495  0.2393
   98SAPC   H6R 9690   1.775   2.392   3.322  0.8668  0.2180 -1.0587
   98SAPC   C27 9691   1.606   2.515   3.352  1.2871  0.1085  0.0859
   98SAPC   H7R 9692   1.543   2.582   3.290  1.9306 -0.8160 -1.6345
   98SAPC   H7S 9693   1.684   2.578   3.398 -0.5522  1.6510  1.2229
   98SAPC   C28 9694   1.536   2.421   3.455  0.1935 -0.1720  0.0570
   98SAPC   H8R 9695   1.467   2.353   3.402 -0.7438  1.2189 -0.5731
   98SAPC   C29 9696   1.541   2.439   3.591  0.0845  0.2697  0.8826
   98SAPC   H9R 9697   1.478   2.368   3.647 -0.8534 -0.3834 -0.9093
   98SAPC  C210 9698   1.610   2.535   3.676 -0.0031  0.1372 -0.2717
   98SAPC  H10R 9699   1.546   2.540   3.767 -1.5813 -0.9985 -1.2528
   98SAPC  H10S 9700   1.614   2.634   3.627 -0.5221  0.8128  0.9987
   98SAPC  C211 9701   1.753   2.490   3.712 -0.4973  0.3277 -0.2269
   98SAPC  H11R 9702   1.752   2.381   3.726 -1.1478  0.5474  1.7754
   98SAPC  C212 9703   1.872   2.551   3.716  0.5112  0.5515 -1.1672
   98SAPC  H12R 9704   1.957   2.495   3.757 -0.6751 -0.5513 -0.1345
   98SAPC  C213 9705   1.886   2.701   3.706  0.0579  0.9829 -0.2164
   98SAPC  H13R 9706   1.806   2.750   3.765 -1.2167 -0.9597 -0.2421
   98SAPC  H13S 9707   1.868   2.721   3.598  0.6661  0.0111 -0.5147
   98SAPC  C214 9708   2.027   2.753   3.719  0.8316 -0.0823 -0.3293
   98SAPC  H14R 9709   2.036   2.819   3.807 -2.0378 -0.4511  0.3590
   98SAPC  C215 9710   2.131   2.720   3.639 -0.5791 -0.3781  0.0946
   98SAPC  H15R 9711   2.228   2.765   3.660  0.5078 -1.4039 -2.3185
   98SAPC  C216 9712   2.148   2.624   3.525  0.9975 -0.1013  0.7687
   98SAPC  H16R 9713   2.084   2.534   3.537 -0.7940  1.0935  0.7027
   98SAPC  H16S 9714   2.253   2.591   3.521  0.8055 -0.6311 -0.2896
   98SAPC  C217 9715   2.099   2.687   3.389  1.0354  0.5831 -0.5181
   98SAPC  H17R 9716   2.183   2.747   3.349  3.3056 -0.5237  2.2853
   98SAPC  H17S 9717   2.004   2.741   3.406  0.4583 -0.8056  0.9881
   98SAPC  C218 9718   2.074   2.571   3.285 -0.1903  0.5202  0.9945
   98SAPC  H18R 9719   2.005   2.496   3.330  1.8321 -2.0676  0.0651
   98SAPC  H18S 9720   2.168   2.520   3.256  0.4847  1.1009  2.1232
   98SAPC  C219 9721   2.028   2.639   3.155 -0.5916  0.1072 -0.2678
   98SAPC  H19R 9722   2.075   2.735   3.126  2.3262 -0.9889  0.4802
   98SAPC  H19S 9723   1.921   2.664   3.174 -0.3624  0.4807  0.6114
   98SAPC  C220 9724   2.024   2.544   3.035  0.2506 -0.5077 -0.0617
   98SAPC  H20R 9725   1.953   2.460   3.053 -0.1204 -0.2980 -0.5295
   98SAPC  H20S 9726   2.123   2.505   3.004 -1.4187 -4.0425 -1.5146
   98SAPC  H20T 9727   1.988   2.599   2.946 -0.1401  1.0294  0.9962
   98SAPC   C33 9728   1.221   1.648   3.016 -0.1122  0.3024 -0.1823
   98SAPC   H3X 9729   1.223   1.537   3.029 -0.8727  0.2909 -0.1129
   98SAPC   H3Y 9730   1.149   1.657   2.932  0.5133 -0.7761 -0.8630
   98SAPC   C34 9731   1.169   1.728   3.133  0.2587  0.9680  0.0477
   98SAPC   H4X 9732   1.168   1.836   3.107 -0.3345  1.4247  1.8414
   98SAPC   H4Y 9733   1.245   1.728   3.215 -0.8382  0.9808  1.0938
   98SAPC   C35 9734   1.030   1.705   3.185 -0.7139 -0.5298  0.4328
   98SAPC   H5X 9735   1.004   1.603   3.221  1.0744  0.0683  3.8823
   98SAPC   H5Y 9736   0.951   1.743   3.117 -0.3461 -1.5881 -0.6229
   98SAPC   C36 9737   1.010   1.786   3.315  0.1758 -0.7070  0.1066
   98SAPC   H6X 9738   1.038   1.891   3.292  1.0792 -1.1644 -1.0261
   98SAPC   H6Y 9739   1.066   1.750   3.404 -1.4953 -1.0741  1.0390
   98SAPC   C37 9740   0.861   1.783   3.356 -0.2871 -0.6021 -0.3419
   98SAPC   H7X 9741   0.811   1.684   3.347 -0.6710 -0.4658  0.2245
   98SAPC   H7Y 9742   0.809   1.850   3.285 -0.6446  0.6098  1.0005
   98SAPC   C38 9743   0.829   1.831   3.500 -0.1580 -0.2172  0.2889
   98SAPC   H8X 9744   0.822   1.942   3.496 -1.1221 -0.3056 -1.9252
   98SAPC   H8Y 9745   0.908   1.811   3.575  1.5345 -0.1420 -1.3714
   98SAPC   C39 9746   0.688   1.787   3.547  0.0673  0.0408  0.1859
   98SAPC   H9X 9747   0.698   1.678   3.526  0.8440  0.2619 -0.6647
   98SAPC   H9Y 9748   0.601   1.802   3.479 -0.1745 -0.7950  0.3042
   98SAPC  C310 9749   0.644   1.806   3.695  0.2916  0.3534 -0.0599
   98SAPC  H10X 9750   0.569   1.888   3.700 -2.6570 -2.1794  0.4406
   98SAPC  H10Y 9751   0.739   1.835   3.745 -0.4829  0.4843  1.3880
   98SAPC  C311 9752   0.584   1.681   3.762  0.6793  0.3372  0.1507
   98SAPC  H11X 9753   0.654   1.597   3.747 -0.7906 -0.9299  0.1642
   98SAPC  H11Y 9754   0.488   1.663   3.709 -0.5873  0.3344  2.3471
   98SAPC  C312 9755   0.554   1.691   3.915 -0.0910  0.0736  0.0515
   98SAPC  H12X 9756   0.497   1.600   3.942 -0.8120  0.0757 -1.3945
   98SAPC  H12Y 9757   0.493   1.783   3.929  0.2800  1.2333 -4.5803
   98SAPC  C313 9758   0.672   1.701   4.009  0.0841  0.2366  0.8636
   98SAPC  H13X 9759   0.738   1.790   3.995  0.2563  0.1935  1.3812
   98SAPC  H13Y 9760   0.738   1.613   3.997  1.4339  1.4803 -1.6098
   98SAPC  C314 9761   0.625   1.713   4.151 -0.1549 -0.7911 -0.4080
   98SAPC  H14X 9762   0.565   1.626   4.185 -0.3110 -1.3970 -2.1279
   98SAPC  H14Y 9763   0.569   1.809   4.151  1.1498 -0.0062  0.6324
   98SAPC  C315 9764   0.739   1.743   4.254 -0.0728 -0.1561 -0.9669
   98SAPC  H15X 9765   0.776   1.845   4.228 -1.6680  0.3829 -1.2498
   98SAPC  H15Y 9766   0.816   1.664   4.240 -0.8326 -1.0528 -0.2498
   98SAPC  C316 9767   0.685   1.745   4.391  0.0325 -0.4397 -0.6286
   98SAPC  H16X 9768   0.657   1.640   4.416  0.2910 -0.6272 -1.1169
   98SAPC  H16Y 9769   0.597   1.811   4.409  0.4185 -0.7772  3.6173
   98SAPC  C317 9770   0.780   1.795   4.498  0.1693 -0.1625  0.0674
   98SAPC  H17X 9771   0.723   1.781   4.592 -0.2857 -1.1119 -0.3399
   98SAPC  H17Y 9772   0.795   1.903   4.477  1.6629 -0.0440  1.5088
   98SAPC  C318 9773   0.910   1.719   4.499 -0.1377  0.8520 -0.0480
   98SAPC  H18X 9774   0.983   1.752   4.575  0.5700  0.6626 -0.6258
   98SAPC  H18Y 9775   0.956   1.724   4.398  2.8477 -0.7693  1.1203
   98SAPC  H18Z 9776   0.894   1.609   4.506 -1.4644  0.9794 -0.6157
   99SAPC     N 9777   5.492   0.629   2.364  0.6072 -0.5490 -0.4526
   99SAPC   C12 9778   5.469   0.616   2.514  0.0339  0.6188 -0.1206
   99SAPC  H12A 9779   5.529   0.531   2.543 -0.0762 -0.3421 -2.4919
   99SAPC  H12B 9780   5.369   0.579   2.534 -0.5996  1.8429 -0.9407
   99SAPC   C13 9781   5.637   0.654   2.330  0.0342  0.2554 -0.0749
   99SAPC  H13A 9782   5.647   0.662   2.223 -0.1234 -1.0299 -0.1981
   99SAPC  H13B 9783   5.663   0.748   2.377 -1.0216 -0.1932  1.4865
   99SAPC  H13C 9784   5.704   0.579   2.367  0.7958  2.1712  2.7678
   99SAPC   C14 9785   5.453   0.503   2.295  1.0218 -0.2640 -0.4715
   99SAPC  H14A 9786   5.495   0.406   2.319  1.3664  0.0573  0.2338
   99SAPC  H14B 9787   5.347   0.487   2.291  1.1211 -1.3444  0.7493
   99SAPC  H14C 9788   5.502   0.519   2.200  1.0135  1.3511 -0.2329
   99SAPC   C15 9789   5.412   0.746   2.316  0.2803  0.3677 -0.2441
   99SAPC  H15A 9790   5.446   0.841   2.354 -0.4391  0.7634 -0.5850
   99SAPC  H15B 9791   5.417   0.749   2.208 -0.7338 -1.4939 -0.3918
   99SAPC  H15C 9792   5.307   0.729   2.334  0.7241 -1.5783  0.8649
   99SAPC   C11 9793   5.483   0.743   2.599  0.2500 -0.8766  0.4613
   99SAPC  H11A 9794   5.465   0.710   2.704  0.1290  0.8815  1.0172
   99SAPC  H11B 9795   5.405   0.811   2.558  0.4414 -0.8207  0.1880
   99SAPC     P 9796   5.732   0.763   2.674  0.1386  0.6967  0.2755
   99SAPC   O13 9797   5.724   0.615   2.696  0.8896 -0.2003  0.4362
   99SAPC   O14 9798   5.852   0.818   2.610 -0.0714 -0.0348 -0.1807
   99SAPC   O12 9799   5.613   0.805   2.587  0.6619  0.0155  0.1025
   99SAPC   O11 9800   5.718   0.832   2.814 -0.1759 -0.4196  0.1605
   99SAPC    C1 9801   5.653   0.957   2.827  0.3039  0.5586 -0.0280
   99SAPC    HA 9802   5.569   0.968   2.754 -0.1601 -1.1369  0.2168
   99SAPC    HB 9803   5.602   0.966   2.925 -0.5113  2.1732 -0.5494
   99SAPC    C2 9804   5.757   1.067   2.821 -0.6349  0.2250 -0.1519
   99SAPC    HS 9805   5.825   1.056   2.734  0.9343 -2.2471  1.2723
   99SAPC   O21 9806   5.824   1.071   2.951  0.2411 -0.2120 -0.5503
   99SAPC   C21 9807   5.947   1.121   2.929  0.0308  0.1257  0.6330
   99SAPC   O22 9808   5.991   1.167   2.824 -0.1286 -0.2238 -0.4052
   99SAPC   C22 9809   6.039   1.097   3.060  0.1079  0.1251  0.3524
   99SAPC   H2R 9810   6.025   0.992   3.094 -1.5014  0.5956  1.2576
   99SAPC   H2S 9811   6.140   1.121   3.020  0.3156 -1.7402 -0.3424
   99SAPC    C3 9812   5.701   1.204   2.776 -0.2486  0.0807  0.0052
   99SAPC    HX 9813   5.660   1.196   2.673  1.8737  2.0106 -1.1100
   99SAPC    HY 9814   5.781   1.282   2.768  0.5176 -0.5349  1.4112
   99SAPC   O31 9815   5.593   1.246   2.858 -0.8643  0.1292 -0.0287
   99SAPC   C31 9816   5.606   1.333   2.951  0.5443 -0.5681 -0.1068
   99SAPC   O32 9817   5.716   1.370   2.990 -0.3885  0.1717 -0.1239
   99SAPC   C32 9818   5.467   1.375   2.996  0.6328 -0.3803 -0.1214
   99SAPC   H2X 9819   5.394   1.294   2.970 -0.0592 -0.8883  2.9970
   99SAPC   H2Y 9820   5.446   1.473   2.948  0.9596  0.3895  1.2612
   99SAPC   C23 9821   6.006   1.192   3.177  0.4223  0.1497 -0.0612
   99SAPC   H3R 9822   5.979   1.290   3.132  0.9784 -0.4833 -1.8752
   99SAPC   H3S 9823   6.098   1.196   3.240 -0.7991  2.1815  1.7189
   99SAPC   C24 9824   5.896   1.150   3.277  0.3831 -0.8240  0.4252
   99SAPC   H4R 9825   5.941   1.062   3.328 -0.6196 -1.4518  0.2466
   99SAPC   H4S 9826   5.802   1.126   3.224 -0.7062 -0.1741  1.9957
   99SAPC   C25 9827   5.858   1.260   3.375  0.2700 -0.2606 -0.3373
   99SAPC   H5R 9828   5.803   1.346   3.333  1.1022 -0.4517 -1.8967
   99SAPC   C26 9829   5.878   1.269   3.509 -0.5143  0.0208 -0.3020
   99SAPC   H6R 9830   5.835   1.349   3.569  0.1299  1.2752 -1.4469
   99SAPC   C27 9831   5.945   1.151   3.589 -0.6168 -0.1740  0.0637
   99SAPC   H7R 9832   6.039   1.191   3.634 -0.4184 -0.3327 -0.2096
   99SAPC   H7S 9833   5.972   1.066   3.524 -0.5326  0.4120 -0.6820
   99SAPC   C28 9834   5.861   1.102   3.700  0.1857 -0.0043  0.4357
   99SAPC   H8R 9835   5.788   1.029   3.661  2.1558 -1.6536 -0.3215
   99SAPC   C29 9836   5.853   1.154   3.825  0.0834  0.2800  0.0439
   99SAPC   H9R 9837   5.788   1.110   3.901  0.2877 -0.6156 -0.2873
   99SAPC  C210 9838   5.936   1.268   3.874  0.2682  0.7897  0.6428
   99SAPC  H10R 9839   5.999   1.299   3.788 -1.4742 -1.5936 -1.6681
   99SAPC  H10S 9840   6.008   1.224   3.946  0.5811  0.9398  0.4217
   99SAPC  C211 9841   5.865   1.380   3.936 -0.1806 -0.0189  0.0882
   99SAPC  H11R 9842   5.830   1.459   3.868 -0.7874 -1.5339 -1.4434
   99SAPC  C212 9843   5.847   1.394   4.074  0.7969  0.3592  0.2733
   99SAPC  H12R 9844   5.784   1.480   4.101 -0.7191 -0.5395 -0.2404
   99SAPC  C213 9845   5.893   1.296   4.178 -0.1388 -0.6549 -0.6308
   99SAPC  H13R 9846   5.998   1.323   4.203  0.0112 -0.9396 -0.9339
   99SAPC  H13S 9847   5.892   1.189   4.147 -0.6835 -1.1055  0.8658
   99SAPC  C214 9848   5.801   1.294   4.298 -0.3197 -0.0213  0.4575
   99SAPC  H14R 9849   5.704   1.243   4.298  0.1285 -0.9445  2.2482
   99SAPC  C215 9850   5.839   1.351   4.412 -0.1921 -0.1333  0.2764
   99SAPC  H15R 9851   5.763   1.367   4.491 -1.2450 -0.4781 -0.6388
   99SAPC  C216 9852   5.967   1.424   4.448 -1.0770 -0.5285 -0.0907
   99SAPC  H16R 9853   6.051   1.357   4.420 -1.8105 -1.2992 -0.5150
   99SAPC  H16S 9854   5.978   1.431   4.558  0.9167 -0.8209 -0.2453
   99SAPC  C217 9855   5.988   1.565   4.387  0.4125 -0.0116 -0.3419
   99SAPC  H17R 9856   5.939   1.639   4.454 -1.2662 -2.3092  1.1343
   99SAPC  H17S 9857   5.937   1.566   4.288  0.1350  1.8643 -0.2264
   99SAPC  C218 9858   6.139   1.601   4.378  0.1157  0.2518  0.1829
   99SAPC  H18R 9859   6.194   1.581   4.472  2.2704  0.6730 -0.9042
   99SAPC  H18S 9860   6.153   1.706   4.344 -1.2451 -0.2312 -2.0799
   99SAPC  C219 9861   6.223   1.513   4.279  0.4312  0.9453 -0.7866
   99SAPC  H19R 9862   6.166   1.494   4.186 -1.6960  0.1837  0.5894
   99SAPC  H19S 9863   6.228   1.416   4.334  0.4877  1.4013  0.0344
   99SAPC  C220 9864   6.364   1.566   4.252 -0.2085 -0.1235  0.3835
   99SAPC  H20R 9865   6.414   1.503   4.174 -1.5580 -0.0180 -0.6060
   99SAPC  H20S 9866   6.426   1.572   4.344  0.0502  0.2232  0.1910
   99SAPC  H20T 9867   6.355   1.665   4.202  0.3638 -0.0600  0.3937
   99SAPC   C33 9868   5.453   1.402   3.150 -0.3853  0.0056  0.2930
   99SAPC   H3X 9869   5.349   1.417   3.185 -0.0653  0.5604  1.0438
   99SAPC   H3Y 9870   5.511   1.493   3.177  1.1231 -0.6256 -0.6628
   99SAPC   C34 9871   5.497   1.291   3.244 -0.2278  0.7198 -0.5323
   99SAPC   H4X 9872   5.606   1.272   3.248 -0.4311 -0.4459  2.1279
   99SAPC   H4Y 9873   5.449   1.199   3.205  0.9555  0.9281 -2.5887
   99SAPC   C35 9874   5.454   1.324   3.392 -0.5881  0.1535  0.0931
   99SAPC   H5X 9875   5.348   1.356   3.396 -0.4057  0.6774  1.4230
   99SAPC   H5Y 9876   5.515   1.413   3.419 -0.3458 -0.2171  0.8044
   99SAPC   C36 9877   5.473   1.223   3.498  0.3257  0.5166  0.2371
   99SAPC   H6X 9878   5.575   1.178   3.494  0.2422  0.3339  0.1705
   99SAPC   H6Y 9879   5.395   1.145   3.488 -0.6680  1.5903 -0.8694
   99SAPC   C37 9880   5.453   1.275   3.643  0.5571 -0.2479  0.6707
   99SAPC   H7X 9881   5.351   1.311   3.667  0.6747  0.9168 -0.4615
   99SAPC   H7Y 9882   5.522   1.358   3.668 -1.2601  1.2013  1.0437
   99SAPC   C38 9883   5.473   1.164   3.749  0.3576  0.0972 -0.7624
   99SAPC   H8X 9884   5.544   1.096   3.697 -2.2548 -3.3457 -0.1662
   99SAPC   H8Y 9885   5.379   1.108   3.763  1.6793 -1.7899  1.3984
   99SAPC   C39 9886   5.528   1.216   3.883  0.1172  0.3293  0.4020
   99SAPC   H9X 9887   5.608   1.289   3.859 -0.0112  0.5284  0.5821
   99SAPC   H9Y 9888   5.578   1.133   3.937  0.1936 -0.1048 -0.3116
   99SAPC  C310 9889   5.415   1.251   3.987 -0.2754  0.1288  0.5857
   99SAPC  H10X 9890   5.346   1.164   3.993  0.2237 -0.3160 -0.0101
   99SAPC  H10Y 9891   5.374   1.349   3.955  2.2194  0.8541 -0.6563
   99SAPC  C311 9892   5.481   1.266   4.123 -0.0778  0.2751 -0.1541
   99SAPC  H11X 9893   5.565   1.338   4.122  1.0376 -1.0036 -0.9071
   99SAPC  H11Y 9894   5.515   1.162   4.140 -0.3450  0.1133 -0.5754
   99SAPC  C312 9895   5.379   1.310   4.231 -1.0314 -0.3658 -0.0473
   99SAPC  H12X 9896   5.292   1.240   4.232 -2.3899  1.2426 -0.6662
   99SAPC  H12Y 9897   5.342   1.412   4.207  0.0389  0.3275  1.1173
   99SAPC  C313 9898   5.429   1.302   4.375 -0.3927  0.2190  0.1361
   99SAPC  H13X 9899   5.518   1.368   4.378  0.0625 -0.3984  0.4882
   99SAPC  H13Y 9900   5.472   1.204   4.405  1.0832  0.8295  0.0633
   99SAPC  C314 9901   5.320   1.329   4.485 -1.1378  0.1548  0.3144
   99SAPC  H14X 9902   5.248   1.405   4.447  0.4707  1.0763 -1.0439
   99SAPC  H14Y 9903   5.370   1.379   4.570 -0.8124  2.0162 -0.9097
   99SAPC  C315 9904   5.244   1.219   4.552 -0.5634  0.3635 -0.8774
   99SAPC  H15X 9905   5.183   1.275   4.626 -1.1740  1.7612 -2.3689
   99SAPC  H15Y 9906   5.319   1.148   4.593  0.6304  2.1312  0.1336
   99SAPC  C316 9907   5.144   1.133   4.476 -0.3177  0.3106 -0.3917
   99SAPC  H16X 9908   5.197   1.069   4.402 -1.4039 -3.2137  1.6096
   99SAPC  H16Y 9909   5.075   1.202   4.423 -0.4413 -0.4456 -1.2427
   99SAPC  C317 9910   5.060   1.040   4.566 -0.3511  0.3243 -0.0685
   99SAPC  H17X 9911   5.109   1.001   4.657  0.7846 -1.6107 -1.4342
   99SAPC  H17Y 9912   5.040   0.948   4.507  0.2442  0.7888 -1.0222
   99SAPC  C318 9913   4.923   1.098   4.607 -0.1726 -0.2155  0.1123
   99SAPC  H18X 9914   4.868   1.153   4.527 -0.8566 -0.5253  0.3584
   99SAPC  H18Y 9915   4.939   1.172   4.689  1.0423 -0.4577  0.1081
   99SAPC  H18Z 9916   4.851   1.016   4.632  0.6405 -0.8633  0.3577
  100SAPC     N 9917   4.367   6.102   2.233  0.2978  0.3889  0.1198
  100SAPC   C12 9918   4.367   5.961   2.277  0.0718 -0.7732  0.0404
  100SAPC  H12A 9919   4.454   5.919   2.230 -0.1193 -1.7324  0.5278
  100SAPC  H12B 9920   4.284   5.902   2.241  0.8085 -2.6697  1.3233
  100SAPC   C13 9921   4.262   6.184   2.300  0.3572 -0.4785  0.4081
  100SAPC  H13A 9922   4.271   6.287   2.267 -0.7191 -1.1278 -2.1613
  100SAPC  H13B 9923   4.160   6.158   2.278 -0.1231  2.3291 -1.2528
  100SAPC  H13C 9924   4.271   6.185   2.408  0.1350  1.6803  0.4644
  100SAPC   C14 9925   4.498   6.172   2.263 -0.1258  0.4453  0.1627
  100SAPC  H14A 9926   4.519   6.266   2.213  1.9884  0.1429  0.3878
  100SAPC  H14B 9927   4.505   6.191   2.369  0.9541  0.3430  0.1280
  100SAPC  H14C 9928   4.578   6.104   2.239 -0.6350 -0.0621 -0.1094
  100SAPC   C15 9929   4.342   6.108   2.084 -0.6679  0.3279  0.0719
  100SAPC  H15A 9930   4.263   6.038   2.060  0.0426 -1.1071  1.6910
  100SAPC  H15B 9931   4.314   6.204   2.042 -2.1030  1.2161  2.8001
  100SAPC  H15C 9932   4.427   6.070   2.030 -1.7651 -1.8080 -0.2415
  100SAPC   C11 9933   4.374   5.927   2.431  0.1009 -0.6322  0.1233
  100SAPC  H11A 9934   4.465   5.963   2.483 -0.8503  1.1700  0.6030
  100SAPC  H11B 9935   4.395   5.818   2.433 -2.0167 -1.1678 -1.6035
  100SAPC     P 9936   4.125   5.878   2.493 -0.0404 -0.0331  0.2929
  100SAPC   O13 9937   4.014   5.964   2.542 -0.1472 -0.9450 -0.2950
  100SAPC   O14 9938   4.117   5.824   2.355 -0.4743 -0.0695 -0.3323
  100SAPC   O12 9939   4.267   5.953   2.519  0.1979 -0.1236  0.7023
  100SAPC   O11 9940   4.130   5.754   2.589 -0.0266  0.2985 -0.1828
  100SAPC    C1 9941   4.111   5.774   2.730 -0.0002 -0.5752 -0.0652
  100SAPC    HA 9942   4.185   5.842   2.778  1.4657 -3.0170  1.3394
  100SAPC    HB 9943   4.015   5.824   2.753 -0.4340 -0.8748 -1.1423
  100SAPC    C2 9944   4.123   5.642   2.813  0.3356 -0.1864 -0.2102
  100SAPC    HS 9945   4.078   5.560   2.754  2.3484 -0.6151 -1.2297
  100SAPC   O21 9946   4.049   5.664   2.933 -1.1262  0.1773 -0.6363
  100SAPC   C21 9947   4.039   5.548   3.010 -0.1752 -0.1750  0.1057
  100SAPC   O22 9948   4.085   5.442   2.981  0.3322  0.0988  0.4423
  100SAPC   C22 9949   3.968   5.585   3.142  0.3205 -0.5118  0.5136
  100SAPC   H2R 9950   4.016   5.516   3.214  0.2846 -0.3308  0.7119
  100SAPC   H2S 9951   3.980   5.693   3.168  0.6427 -0.5942  0.7193
  100SAPC    C3 9952   4.271   5.605   2.823  0.0779  0.2808 -0.1642
  100SAPC    HX 9953   4.304   5.580   2.720 -2.2128  0.3204 -0.9542
  100SAPC    HY 9954   4.286   5.510   2.878 -0.1430 -0.1874 -0.8976
  100SAPC   O31 9955   4.349   5.711   2.871  0.7578 -0.3030 -0.3018
  100SAPC   C31 9956   4.466   5.730   2.816  0.0295 -0.0855 -0.8656
  100SAPC   O32 9957   4.517   5.660   2.733  0.3320  0.2610  0.3846
  100SAPC   C32 9958   4.526   5.859   2.872 -0.2912 -0.1372 -0.2157
  100SAPC   H2X 9959   4.475   5.893   2.964  0.3006 -2.4299  1.0198
  100SAPC   H2Y 9960   4.519   5.941   2.797 -0.7715  2.0141  2.0404
  100SAPC   C23 9961   3.822   5.561   3.117  0.8823  0.0566  0.3294
  100SAPC   H3R 9962   3.803   5.462   3.070 -1.4597  0.8378 -0.5113
  100SAPC   H3S 9963   3.793   5.631   3.036  2.2282 -1.8688 -1.9506
  100SAPC   C24 9964   3.727   5.586   3.236 -0.5502  0.2897  0.7454
  100SAPC   H4R 9965   3.626   5.615   3.200 -1.3416 -1.4347  1.4590
  100SAPC   H4S 9966   3.769   5.671   3.294 -0.2436 -0.4251  1.5979
  100SAPC   C25 9967   3.715   5.462   3.322 -0.3045 -0.1514  0.5915
  100SAPC   H5R 9968   3.682   5.381   3.255  0.9585  0.5856 -0.9976
  100SAPC   C26 9969   3.766   5.446   3.447  0.1806 -0.0159 -0.0240
  100SAPC   H6R 9970   3.742   5.360   3.511  1.3748 -0.2420  0.1487
  100SAPC   C27 9971   3.845   5.549   3.528  0.3250 -0.4213 -0.4036
  100SAPC   H7R 9972   3.911   5.601   3.455  1.3960  0.1746  0.9436
  100SAPC   H7S 9973   3.914   5.502   3.601 -0.5889 -2.0300 -0.5251
  100SAPC   C28 9974   3.757   5.642   3.611  0.3651  0.0681  0.4261
  100SAPC   H8R 9975   3.681   5.688   3.545  1.3303 -0.5143 -1.1584
  100SAPC   C29 9976   3.769   5.676   3.741 -0.2532  0.4330  0.0343
  100SAPC   H9R 9977   3.696   5.747   3.783 -3.1466 -0.2164 -3.3598
  100SAPC  C210 9978   3.876   5.619   3.838 -0.2371 -1.0788  0.2881
  100SAPC  H10R 9979   3.892   5.699   3.913  0.1076 -0.4637 -0.4303
  100SAPC  H10S 9980   3.971   5.620   3.781 -0.7517 -0.4946 -0.5901
  100SAPC  C211 9981   3.835   5.488   3.899  0.1258  0.1177  0.8158
  100SAPC  H11R 9982   3.825   5.403   3.830 -1.2941  1.4601 -0.7379
  100SAPC  C212 9983   3.813   5.470   4.028 -0.3331  0.0883  0.1360
  100SAPC  H12R 9984   3.790   5.367   4.058  2.3779 -1.3290 -2.0896
  100SAPC  C213 9985   3.824   5.575   4.147 -0.4775  0.5607 -0.6084
  100SAPC  H13R 9986   3.725   5.621   4.168 -0.0171  0.9247  0.8413
  100SAPC  H13S 9987   3.898   5.654   4.120  0.9447 -0.9677 -1.3261
  100SAPC  C214 9988   3.850   5.501   4.276 -0.5917 -0.8152 -0.0175
  100SAPC  H14R 9989   3.873   5.394   4.272 -1.8781 -1.0709 -1.6267
  100SAPC  C215 9990   3.856   5.559   4.400  0.2761 -0.3895  0.0166
  100SAPC  H15R 9991   3.878   5.504   4.492 -0.2081  0.3795  0.5987
  100SAPC  C216 9992   3.825   5.712   4.398 -0.5996  0.7760  0.1689
  100SAPC  H16R 9993   3.720   5.727   4.366 -1.3027 -0.5250  1.7150
  100SAPC  H16S 9994   3.886   5.768   4.323 -0.1014 -0.8574 -0.6772
  100SAPC  C217 9995   3.853   5.761   4.545 -0.4736 -0.6260  0.2170
  100SAPC  H17R 9996   3.958   5.777   4.578 -0.8205  0.8948  0.6749
  100SAPC  H17S 9997   3.802   5.694   4.618  0.1592 -1.0800  0.2567
  100SAPC  C218 9998   3.773   5.888   4.582  0.1606 -0.0452  0.0300
  100SAPC  H18R 9999   3.665   5.884   4.558  0.2059 -0.1531 -0.1593
  100SAPC  H18S10000   3.813   5.972   4.520 -1.6881 -0.8188 -2.4025
  100SAPC  C21910001   3.793   5.920   4.726  0.7037 -0.4050 -0.0400
  100SAPC  H19R10002   3.903   5.930   4.741  0.5481  2.9290 -0.4656
  100SAPC  H19S10003   3.760   5.830   4.782 -1.4508 -0.2683 -0.9970
  100SAPC  C22010004   3.718   6.042   4.773  0.5781 -0.5511  0.0801
  100SAPC  H20R10005   3.714   6.134   4.710 -1.5513  0.5574  1.6849
  100SAPC  H20S10006   3.747   6.078   4.874 -0.1504  1.1495 -0.2773
  100SAPC  H20T10007   3.607   6.028   4.776  0.0489  2.9275  0.9726
  100SAPC   C3310008   4.670   5.830   2.917 -0.1224 -0.2768 -0.2678
  100SAPC   H3X10009   4.734   5.804   2.831 -1.1676 -0.9158 -0.8779
  100SAPC   H3Y10010   4.679   5.735   2.973  0.8687 -0.9798 -1.5863
  100SAPC   C3410011   4.741   5.949   2.998  0.3026 -0.0338 -0.1886
  100SAPC   H4X10012   4.770   6.031   2.930  1.7385 -2.4647 -2.7305
  100SAPC   H4Y10013   4.832   5.898   3.037  1.4064  0.8355 -1.5648
  100SAPC   C3510014   4.661   6.009   3.120 -0.1950  0.1825 -0.3196
  100SAPC   H5X10015   4.611   5.929   3.178 -0.7342  0.3207 -0.5811
  100SAPC   H5Y10016   4.572   6.068   3.090  0.4099  1.5948  0.5417
  100SAPC   C3610017   4.749   6.092   3.209  0.1299 -0.6812 -0.0009
  100SAPC   H6X10018   4.778   6.181   3.149  2.6738 -1.3407  0.1296
  100SAPC   H6Y10019   4.844   6.038   3.228 -0.5633 -1.4882  1.3783
  100SAPC   C3710020   4.687   6.147   3.335  0.1434  0.3070 -0.3992
  100SAPC   H7X10021   4.583   6.177   3.309 -0.0068  2.0860  1.9336
  100SAPC   H7Y10022   4.737   6.241   3.365  1.2622 -0.3022 -0.3230
  100SAPC   C3810023   4.692   6.053   3.457 -1.0521 -0.2719  0.2101
  100SAPC   H8X10024   4.801   6.041   3.474 -1.1600  0.9321  2.0009
  100SAPC   H8Y10025   4.655   5.951   3.434 -0.2110 -0.9495  1.7100
  100SAPC   C3910026   4.621   6.105   3.578 -0.3381 -0.1129 -0.5635
  100SAPC   H9X10027   4.514   6.115   3.547  0.2547 -1.1177 -3.1656
  100SAPC   H9Y10028   4.651   6.207   3.609 -1.9455  1.1400 -2.7915
  100SAPC  C31010029   4.634   6.001   3.684 -0.3083  0.1610  0.2833
  100SAPC  H10X10030   4.740   5.985   3.713  0.2159  2.7466  0.0380
  100SAPC  H10Y10031   4.579   5.914   3.643 -0.4806  0.3569  0.0943
  100SAPC  C31110032   4.569   6.056   3.807 -0.1649 -0.0473 -0.4727
  100SAPC  H11X10033   4.564   5.963   3.867  0.0920  0.5947  0.5700
  100SAPC  H11Y10034   4.464   6.087   3.788 -0.1426 -0.5938 -1.5604
  100SAPC  C31210035   4.632   6.162   3.892 -0.1639 -0.5215  0.0145
  100SAPC  H12X10036   4.598   6.264   3.865  1.9690  0.3932  0.5179
  100SAPC  H12Y10037   4.741   6.170   3.869 -0.5602  0.3907 -1.7097
  100SAPC  C31310038   4.621   6.134   4.046  0.7071  0.1278  0.1198
  100SAPC  H13X10039   4.682   6.041   4.048  0.3190 -0.1417 -0.5237
  100SAPC  H13Y10040   4.519   6.101   4.073  1.5103 -1.9385  0.8176
  100SAPC  C31410041   4.665   6.240   4.144 -0.2582 -0.0778 -0.1561
  100SAPC  H14X10042   4.638   6.342   4.109  0.6262  0.0468 -0.4912
  100SAPC  H14Y10043   4.775   6.238   4.158 -0.1603 -0.9728 -0.9857
  100SAPC  C31510044   4.583   6.242   4.279  0.0686 -0.4366 -0.6915
  100SAPC  H15X10045   4.553   6.141   4.314 -0.6355 -0.6124 -1.7633
  100SAPC  H15Y10046   4.487   6.286   4.246 -0.5958 -1.9102 -0.8051
  100SAPC  C31610047   4.651   6.316   4.397  0.2766 -0.1471 -0.7994
  100SAPC  H16X10048   4.745   6.362   4.361  1.6787 -1.4380  0.9820
  100SAPC  H16Y10049   4.684   6.243   4.475 -1.2638  0.1215  0.1543
  100SAPC  C31710050   4.574   6.419   4.473  0.4490  0.0910 -0.4668
  100SAPC  H17X10051   4.491   6.368   4.525 -0.1652  1.6047  0.0975
  100SAPC  H17Y10052   4.525   6.486   4.399 -1.5647 -2.0208 -1.1625
  100SAPC  C31810053   4.668   6.493   4.568 -0.0571  0.4617  0.4768
  100SAPC  H18X10054   4.726   6.419   4.628 -0.9521 -0.2502  0.4980
  100SAPC  H18Y10055   4.613   6.557   4.640  2.2957  2.8725  0.2510
  100SAPC  H18Z10056   4.738   6.552   4.506  0.1789 -0.4231 -0.1181
  101OSM      N10057   1.847   2.047   7.161 -0.2124 -0.5396  0.1626
  101OSM    C1510058   1.947   2.070   7.048  0.8629 -0.4205 -0.2715
  101OSM   H15A10059   2.046   2.057   7.090  0.4924 -1.2808  0.3528
  101OSM   H15B10060   1.931   2.161   6.992 -2.3049 -0.3072  0.6659
  101OSM   H15C10061   1.942   1.985   6.982  0.5122 -1.7481  1.3927
  101OSM    C1410062   1.916   1.954   7.270  0.1878 -0.0467  0.5332
  101OSM   H14A10063   1.845   1.934   7.349 -1.7809 -0.8320 -1.3130
  101OSM   H14B10064   2.014   1.986   7.301 -0.0651 -0.1886  1.5178
  101OSM   H14C10065   1.938   1.858   7.226  0.9150  0.8290 -1.0849
  101OSM    C1310066   1.811   2.181   7.217 -0.0899  0.3137 -0.5316
  101OSM   H13A10067   1.723   2.181   7.280  0.5037  1.6941  0.3609
  101OSM   H13B10068   1.799   2.253   7.138  1.6905  1.9772  0.6058
  101OSM   H13C10069   1.895   2.222   7.272 -0.5634  1.3054 -0.5369
  101OSM    C1210070   1.724   1.990   7.101  0.0699  0.1396  0.4335
  101OSM   H12A10071   1.685   2.069   7.040  1.6446  1.7896  1.4753
  101OSM   H12B10072   1.653   1.960   7.177  0.7046 -1.0658  0.5694
  101OSM    C1110073   1.735   1.874   7.008  0.4176 -0.2958 -0.1181
  101OSM   H11A10074   1.807   1.891   6.925  2.6359  0.6372  1.8767
  101OSM   H11B10075   1.639   1.856   6.957  0.1266 -3.1034  1.2537
  101OSM      P10076   1.674   1.645   7.125 -0.2602  0.5001 -0.2931
  101OSM    O1310077   1.752   1.548   7.204  0.1421  0.6050 -0.0239
  101OSM    O1410078   1.555   1.711   7.185  0.5858  0.4855  0.3919
  101OSM    O1110079   1.638   1.574   6.989  0.6483  0.1871 -0.2180
  101OSM    O1210080   1.777   1.760   7.079 -0.1875 -0.0633  0.4802
  101OSM    C1S10081   1.743   1.546   6.895  0.8539 -0.0641  0.0436
  101OSM    H1S10082   1.789   1.447   6.917 -2.0249 -1.8507 -1.2997
  101OSM    H1T10083   1.830   1.613   6.911  1.6293 -1.1947  0.7123
  101OSM     NF10084   1.807   1.517   6.663 -0.0971 -0.2474 -0.0577
  101OSM    HNF10085   1.835   1.589   6.600  1.2216 -0.8475 -0.1950
  101OSM    C2S10086   1.700   1.543   6.754 -0.4772 -0.0804 -0.3220
  101OSM    H2S10087   1.624   1.463   6.748 -0.4465 -0.5747  3.6022
  101OSM    C3S10088   1.618   1.668   6.718 -0.4269  0.8640 -0.2121
  101OSM    H3S10089   1.686   1.755   6.735 -0.0673  0.4602  0.4394
  101OSM     O310090   1.499   1.686   6.795  0.9690 -0.3453 -0.1925
  101OSM    HO310091   1.513   1.629   6.871 -2.5038 -1.1048  0.0688
  101OSM    C4S10092   1.579   1.650   6.575  0.2594  0.5420  0.2056
  101OSM    H4S10093   1.642   1.695   6.497 -1.0918  2.1676 -0.0035
  101OSM    C5S10094   1.481   1.571   6.519 -0.1455 -0.4468  0.6089
  101OSM    H5S10095   1.408   1.519   6.583  0.0962  0.6107  1.7790
  101OSM    C6S10096   1.445   1.551   6.372 -0.1244  0.3466  0.1891
  101OSM    H6S10097   1.348   1.595   6.343  0.0872 -1.3040 -3.5700
  101OSM    H6T10098   1.431   1.443   6.350  2.5470  0.1957 -1.1955
  101OSM    C7S10099   1.550   1.606   6.275  1.2202 -0.1651  0.6291
  101OSM    H7S10100   1.652   1.568   6.296  0.8288 -1.1506  0.8116
  101OSM    H7T10101   1.561   1.716   6.284 -0.1115  0.1383 -0.9522
  101OSM    C8S10102   1.507   1.555   6.134 -0.5041  0.4636 -0.2996
  101OSM    H8S10103   1.400   1.581   6.122 -0.7978  0.0853  1.2062
  101OSM    H8T10104   1.509   1.444   6.133  0.6930  0.4677 -0.2274
  101OSM    C9S10105   1.600   1.616   6.031 -0.0923 -0.0353 -0.2178
  101OSM    H9S10106   1.701   1.636   6.072 -1.3120  0.5175  2.8048
  101OSM    H9T10107   1.560   1.717   6.009  1.4735  0.5144 -0.6766
  101OSM   C10S10108   1.600   1.537   5.899  0.3211  0.1648 -0.1468
  101OSM   H10S10109   1.496   1.542   5.861 -0.2274  2.8509  1.4552
  101OSM   H10T10110   1.628   1.431   5.913 -0.4157 -0.1364 -0.8611
  101OSM   C11S10111   1.688   1.606   5.794  0.1286  0.0321 -0.1941
  101OSM   H11S10112   1.793   1.606   5.830 -0.8562 -1.2025  3.0075
  101OSM   H11T10113   1.666   1.713   5.778 -1.7004 -0.2774  0.0413
  101OSM   C12S10114   1.672   1.547   5.655 -0.3452 -0.4069  0.6316
  101OSM   H12S10115   1.574   1.556   5.602  0.6217 -1.0069 -1.3743
  101OSM   H12T10116   1.685   1.439   5.678  0.7259 -0.3999  0.1404
  101OSM   C13S10117   1.782   1.577   5.561  0.4645  0.8960 -0.0841
  101OSM   H13S10118   1.793   1.484   5.501  2.3824  0.0797  1.4224
  101OSM   H13T10119   1.872   1.602   5.622 -0.6696  0.2596  1.9586
  101OSM   C14S10120   1.739   1.689   5.468  0.2782 -0.6022 -0.2724
  101OSM   H14S10121   1.733   1.783   5.526  2.5537  0.2075 -1.2401
  101OSM   H14T10122   1.641   1.668   5.421  1.1346 -0.8992 -1.9851
  101OSM   C15S10123   1.853   1.709   5.367 -0.1274  0.1069  0.6887
  101OSM   H15S10124   1.868   1.611   5.317 -1.8657  0.8765 -1.5288
  101OSM   H15T10125   1.947   1.744   5.416 -0.0439 -0.8240  1.2202
  101OSM   C16S10126   1.822   1.808   5.260 -0.3332 -0.0315  0.0087
  101OSM   H16S10127   1.805   1.911   5.297 -1.0219 -0.2149  0.2129
  101OSM   H16T10128   1.726   1.777   5.212 -0.5898  1.8453 -0.7698
  101OSM   C17S10129   1.921   1.811   5.141  0.6871 -0.5497  0.2064
  101OSM   H17S10130   1.895   1.719   5.084 -1.9277 -0.0167  0.4092
  101OSM   H17T10131   2.027   1.818   5.174  1.3122  0.4279 -1.8632
  101OSM   C18S10132   1.904   1.934   5.053  0.2176 -0.6258 -0.8100
  101OSM   H18S10133   1.903   2.027   5.115 -1.1877  0.0715 -1.8129
  101OSM   H18T10134   1.807   1.933   4.998 -0.4567 -0.2659  0.3300
  101OSM   H18U10135   1.981   1.947   4.974  0.1433  2.7029 -0.5011
  101OSM    C1F10136   1.861   1.391   6.646  0.0183  0.4281  0.3968
  101OSM     OF10137   1.829   1.293   6.714 -0.2770 -0.2008  0.0742
  101OSM    C2F10138   1.966   1.376   6.545  0.8727 -0.0255 -0.8369
  101OSM    H2F10139   2.053   1.437   6.578 -0.4411  0.8518  1.2730
  101OSM    H2G10140   1.941   1.430   6.451  5.3465  0.6376 -1.8831
  101OSM    C3F10141   1.998   1.237   6.509 -0.2324 -0.6982  0.3046
  101OSM    H3F10142   1.908   1.174   6.492 -0.5511 -0.6056  1.5514
  101OSM    H3G10143   2.063   1.189   6.585  1.8884  1.1557 -0.2353
  101OSM    C4F10144   2.091   1.224   6.384 -0.0134  0.6949 -0.4657
  101OSM    H4F10145   2.180   1.290   6.392  0.1258  0.5229 -0.5911
  101OSM    H4G10146   2.033   1.259   6.295 -1.0807 -1.3116 -0.6253
  101OSM    C5F10147   2.120   1.082   6.366  0.3504  0.4571 -0.1327
  101OSM    H5F10148   2.026   1.028   6.341  0.5043  0.3606 -0.5021
  101OSM    H5G10149   2.157   1.040   6.462 -0.0828 -1.1118 -0.6135
  101OSM    C6F10150   2.235   1.055   6.267 -0.3674  0.0291 -0.7443
  101OSM    H6F10151   2.238   0.946   6.247 -1.1346 -0.6167  2.1681
  101OSM    H6G10152   2.329   1.102   6.303 -0.9965  1.1327 -0.4802
  101OSM    C7F10153   2.208   1.118   6.126  0.0587  0.6868  0.5949
  101OSM    H7F10154   2.190   1.224   6.153  0.7793  1.0314 -0.2488
  101OSM    H7G10155   2.112   1.087   6.078  0.2554  3.2315 -1.7033
  101OSM    C8F10156   2.318   1.103   6.011 -0.4966  0.4252 -0.0545
  101OSM    H8F10157   2.404   1.170   6.035  0.1489  0.3309 -1.9593
  101OSM    H8G10158   2.276   1.135   5.913  0.7753 -1.5006 -1.2992
  101OSM    C9F10159   2.381   0.961   6.000 -0.6378  0.7432 -0.4190
  101OSM    H9F10160   2.440   0.928   6.087  0.1731  0.7384 -0.9525
  101OSM   C10F10161   2.352   0.884   5.897  0.1245  0.1487 -0.1159
  101OSM   H10F10162   2.387   0.780   5.897 -2.1585 -0.7157  1.9637
  101OSM   C11F10163   2.253   0.902   5.787 -0.5159 -0.2890  0.2201
  101OSM   H11F10164   2.166   0.962   5.821 -1.5519 -0.7014 -1.5595
  101OSM   H11G10165   2.206   0.805   5.759 -0.2326 -1.2143  2.6478
  101OSM   C12F10166   2.311   0.956   5.647  0.2181  0.0949 -0.3334
  101OSM   H12F10167   2.399   0.893   5.620 -0.0102  0.1782 -1.3030
  101OSM   H12G10168   2.342   1.062   5.659  0.1758 -0.1165  2.3275
  101OSM   C13F10169   2.202   0.952   5.537 -0.6534 -0.0395  0.0077
  101OSM   H13F10170   2.108   1.011   5.543 -0.8746 -0.4485  0.6610
  101OSM   H13G10171   2.183   0.844   5.526  0.1118 -0.3853  1.7380
  101OSM   C14F10172   2.267   1.012   5.409  0.5235  0.6565  0.1031
  101OSM   H14F10173   2.333   1.097   5.436  1.3741  0.2929 -0.8031
  101OSM   H14G10174   2.189   1.052   5.342  0.8749 -0.9959 -1.3637
  101OSM   C15F10175   2.350   0.910   5.328  0.4794 -0.5192  0.0207
  101OSM   H15F10176   2.282   0.825   5.308 -0.0765  0.3063 -1.7528
  101OSM   H15G10177   2.440   0.876   5.385 -1.4321 -1.3479  2.7273
  101OSM   C16F10178   2.400   0.961   5.190  0.5221  0.2072 -0.5398
  101OSM   H16F10179   2.479   0.887   5.161  0.6022  0.4920 -1.0654
  101OSM   H16G10180   2.450   1.058   5.211  2.1805 -0.3865 -1.4971
  101OSM   C17F10181   2.301   0.964   5.080 -0.0493  0.2876 -0.3131
  101OSM   H17F10182   2.219   1.029   5.117 -0.1012  1.2350 -1.9895
  101OSM   H17G10183   2.262   0.862   5.058  2.0307 -0.5405 -0.4369
  101OSM   C18F10184   2.357   1.037   4.957 -0.1663 -0.3669 -0.1439
  101OSM   H18F10185   2.277   1.034   4.880 -0.5117 -1.2884  0.2371
  101OSM   H18G10186   2.452   0.990   4.925 -0.2202 -1.0258  0.6236
  101OSM   H18H10187   2.355   1.147   4.969 -2.0608 -0.1444 -1.9052
  102OSM      N10188   5.713   2.689   6.940 -0.0524  0.2219 -0.3475
  102OSM    C1510189   5.581   2.774   6.930  0.4182  0.6831  0.4577
  102OSM   H15A10190   5.615   2.872   6.902 -0.7807  1.5088  1.7950
  102OSM   H15B10191   5.527   2.768   7.023 -2.6188  0.7168 -1.1767
  102OSM   H15C10192   5.512   2.726   6.861  0.3958 -0.3010  1.1318
  102OSM    C1410193   5.802   2.743   7.051 -0.3000  0.7696  0.3108
  102OSM   H14A10194   5.839   2.844   7.046 -0.3645  0.7974  0.3985
  102OSM   H14B10195   5.883   2.674   7.067  0.5364  1.5552 -0.4460
  102OSM   H14C10196   5.752   2.736   7.147  0.8442  0.6667  0.9204
  102OSM    C1310197   5.677   2.550   6.983 -0.2824 -0.1500  0.3137
  102OSM   H13A10198   5.771   2.497   6.994 -0.0888 -0.0034 -0.5715
  102OSM   H13B10199   5.625   2.500   6.903  0.9479  1.5048 -1.6166
  102OSM   H13C10200   5.637   2.549   7.084 -0.8547  2.4450  0.1623
  102OSM    C1210201   5.791   2.686   6.809  0.5400 -0.3827  0.4531
  102OSM   H12A10202   5.791   2.787   6.770 -2.4233 -0.4996 -0.0361
  102OSM   H12B10203   5.733   2.634   6.735  1.3849  2.4313 -2.3992
  102OSM    C1110204   5.928   2.626   6.821 -0.3562 -0.5693  0.5064
  102OSM   H11A10205   6.001   2.702   6.856 -1.6822  0.7336  0.5278
  102OSM   H11B10206   5.965   2.611   6.717 -1.7608  2.6544 -0.5812
  102OSM      P10207   6.026   2.383   6.890  0.3230 -0.0621  0.6567
  102OSM    O1310208   6.147   2.424   6.819  0.2650  0.1050 -0.0756
  102OSM    O1410209   6.043   2.331   7.027 -0.6918  0.0215 -0.5622
  102OSM    O1110210   5.955   2.280   6.801  0.1880  0.2596 -0.1159
  102OSM    O1210211   5.933   2.506   6.905 -0.1665 -0.5195 -0.0544
  102OSM    C1S10212   5.827   2.297   6.738 -0.9478  0.0563 -0.7075
  102OSM    H1S10213   5.769   2.368   6.800 -0.4011 -0.7824  0.8168
  102OSM    H1T10214   5.770   2.202   6.742 -0.7576 -0.0366  0.1671
  102OSM     NF10215   5.711   2.352   6.532 -0.2095 -0.7497  0.9164
  102OSM    HNF10216   5.668   2.271   6.495 -0.4964  1.0113 -3.0845
  102OSM    C2S10217   5.840   2.327   6.586 -0.6707  0.0694 -1.4283
  102OSM    H2S10218   5.898   2.422   6.579 -1.5278  1.0758  2.3403
  102OSM    C3S10219   5.908   2.200   6.525  0.3454  0.9346  0.1104
  102OSM    H3S10220   5.856   2.107   6.556  0.7217  0.6769 -0.0278
  102OSM     O310221   6.034   2.170   6.579 -0.0240 -0.5972 -0.4431
  102OSM    HO310222   6.027   2.207   6.668 -0.8502 -3.6559  0.8902
  102OSM    C4S10223   5.914   2.210   6.375  0.3706  0.9049  0.8052
  102OSM    H4S10224   5.992   2.274   6.330  1.5681  0.0281  1.5695
  102OSM    C5S10225   5.854   2.140   6.278  0.4107 -0.2580  0.8347
  102OSM    H5S10226   5.768   2.074   6.298  1.4690 -1.8615  0.2650
  102OSM    C6S10227   5.885   2.156   6.134 -0.2336  0.5380 -0.7419
  102OSM    H6S10228   5.995   2.163   6.118 -0.1632  0.3642 -0.3393
  102OSM    H6T10229   5.838   2.253   6.105  1.7241  1.9943  0.6528
  102OSM    C7S10230   5.825   2.039   6.048  0.8583  0.7920 -0.5026
  102OSM    H7S10231   5.720   2.019   6.081  1.0364  0.4712 -0.1128
  102OSM    H7T10232   5.882   1.946   6.067  1.6514  1.4518  0.4174
  102OSM    C8S10233   5.812   2.074   5.898  0.0166  0.2248 -0.2290
  102OSM    H8S10234   5.744   2.162   5.897  0.4396  0.5530 -0.4317
  102OSM    H8T10235   5.753   1.995   5.846 -1.1387  1.2892 -0.5858
  102OSM    C9S10236   5.940   2.115   5.825 -0.3788  0.0137 -0.1857
  102OSM    H9S10237   6.008   2.028   5.817  0.7555  0.8770 -0.2714
  102OSM    H9T10238   5.997   2.198   5.873 -0.0334  0.0659 -0.6789
  102OSM   C10S10239   5.897   2.147   5.682 -0.1628  0.1495  0.7953
  102OSM   H10S10240   5.819   2.226   5.689 -0.0454  0.1780  1.8232
  102OSM   H10T10241   5.849   2.060   5.633  2.5898 -0.5784 -0.8401
  102OSM   C11S10242   6.011   2.188   5.584  0.4580 -0.0613 -0.6154
  102OSM   H11S10243   6.090   2.112   5.602  2.0738  1.9966  1.5316
  102OSM   H11T10244   6.063   2.279   5.620  1.8766 -1.4283  0.9522
  102OSM   C12S10245   5.972   2.217   5.433 -0.1705  0.2417  0.1141
  102OSM   H12S10246   5.906   2.306   5.427  1.7922  2.0729  3.0394
  102OSM   H12T10247   5.911   2.129   5.402  0.3430 -0.0228 -0.1468
  102OSM   C13S10248   6.084   2.258   5.332  0.5087  0.2882 -0.3059
  102OSM   H13S10249   6.163   2.182   5.348 -0.6147 -0.4777  2.1295
  102OSM   H13T10250   6.128   2.354   5.368  0.1531  0.5060 -0.4519
  102OSM   C14S10251   6.032   2.264   5.190  0.5128 -0.5970 -0.2867
  102OSM   H14S10252   5.927   2.297   5.205 -0.0582 -2.9852  1.6133
  102OSM   H14T10253   6.015   2.161   5.150 -1.2172 -0.1248 -0.8684
  102OSM   C15S10254   6.118   2.339   5.085 -0.9702  0.3738 -0.2559
  102OSM   H15S10255   6.210   2.282   5.065 -0.5684  0.3820  1.3926
  102OSM   H15T10256   6.148   2.430   5.143 -1.6789 -0.3361  1.3029
  102OSM   C16S10257   6.047   2.365   4.956 -0.3657  0.6652  0.3289
  102OSM   H16S10258   6.099   2.428   4.881 -1.2309 -1.3001 -2.0537
  102OSM   H16T10259   5.946   2.405   4.981 -0.0613  0.3951  2.1866
  102OSM   C17S10260   6.021   2.238   4.877 -0.2888  0.1741 -0.2828
  102OSM   H17S10261   5.966   2.163   4.939  0.1790  0.7568  0.8578
  102OSM   H17T10262   6.118   2.188   4.857  0.3779  1.4261 -0.2771
  102OSM   C18S10263   5.945   2.270   4.749 -0.5216 -0.1088 -0.4765
  102OSM   H18S10264   5.929   2.184   4.681 -0.8240 -0.8624  0.5085
  102OSM   H18T10265   6.005   2.348   4.697  0.1790  1.0085  1.8551
  102OSM   H18U10266   5.849   2.320   4.773  1.3441  3.8014 -0.3912
  102OSM    C1F10267   5.648   2.467   6.530  0.1970 -0.4373 -0.1347
  102OSM     OF10268   5.700   2.572   6.554  0.2760 -0.5225  0.1596
  102OSM    C2F10269   5.506   2.464   6.479 -0.3017  0.0046  0.2728
  102OSM    H2F10270   5.443   2.518   6.552  1.2811 -0.2987  1.9477
  102OSM    H2G10271   5.484   2.355   6.487  1.1765 -0.2357  1.5939
  102OSM    C3F10272   5.492   2.535   6.341 -0.8154  0.0133  0.5017
  102OSM    H3F10273   5.518   2.642   6.341  2.3807 -0.6732  0.8523
  102OSM    H3G10274   5.383   2.528   6.319 -0.4571  1.0755 -1.8941
  102OSM    C4F10275   5.570   2.465   6.229  0.4784  0.4625  0.6230
  102OSM    H4F10276   5.556   2.355   6.233 -0.7590  0.5318 -0.8495
  102OSM    H4G10277   5.681   2.471   6.232  0.7098 -2.4773  2.6219
  102OSM    C5F10278   5.522   2.513   6.083  0.3778  0.1464  0.7026
  102OSM    H5F10279   5.545   2.619   6.058 -0.6695  0.1323 -0.4312
  102OSM    H5G10280   5.412   2.501   6.085  0.5532 -2.4243 -0.3305
  102OSM    C6F10281   5.585   2.430   5.968 -0.3074 -0.2065 -0.3154
  102OSM    H6F10282   5.606   2.326   5.999  2.0645  0.2627 -0.1333
  102OSM    H6G10283   5.686   2.475   5.955  0.1597 -1.1850 -0.1805
  102OSM    C7F10284   5.506   2.415   5.833  0.2765  0.5253  0.0781
  102OSM    H7F10285   5.404   2.373   5.852 -0.1027  1.6486  0.5796
  102OSM    H7G10286   5.558   2.336   5.775 -0.7475 -0.9921  1.1283
  102OSM    C8F10287   5.485   2.537   5.749 -0.1997 -0.1089  0.2311
  102OSM    H8F10288   5.428   2.611   5.809 -2.3999 -1.4168 -0.1231
  102OSM    H8G10289   5.422   2.512   5.661 -0.5839 -0.7992  0.6895
  102OSM    C9F10290   5.621   2.593   5.724 -0.3075 -0.5560  0.5960
  102OSM    H9F10291   5.675   2.632   5.811  0.5206  2.3475 -1.0786
  102OSM   C10F10292   5.679   2.582   5.601  0.0620  0.3777 -0.0217
  102OSM   H10F10293   5.781   2.621   5.591  0.3050 -0.7519 -2.4730
  102OSM   C11F10294   5.611   2.538   5.475 -0.5931 -0.1047  0.1664
  102OSM   H11F10295   5.603   2.619   5.400 -1.6116 -0.8715 -0.5780
  102OSM   H11G10296   5.509   2.493   5.481 -0.0359 -1.5495 -0.7885
  102OSM   C12F10297   5.690   2.429   5.404 -0.2922 -0.0939  0.2501
  102OSM   H12F10298   5.702   2.341   5.471  1.2058  0.0216  0.1789
  102OSM   H12G10299   5.793   2.461   5.376 -0.2474  0.9834  1.5578
  102OSM   C13F10300   5.613   2.386   5.274 -0.2613  0.0876  0.2378
  102OSM   H13F10301   5.503   2.388   5.290 -0.3249  1.1441 -0.2262
  102OSM   H13G10302   5.655   2.285   5.255  1.6324  0.9295 -0.2206
  102OSM   C14F10303   5.664   2.473   5.162 -0.0230  0.7108  0.4430
  102OSM   H14F10304   5.773   2.454   5.158 -0.0462  0.5334  0.6212
  102OSM   H14G10305   5.626   2.575   5.182  0.9717  1.2768 -0.5080
  102OSM   C15F10306   5.612   2.426   5.025  0.0667  0.0928  0.0600
  102OSM   H15F10307   5.507   2.392   5.031  0.0732 -0.2106 -1.2938
  102OSM   H15G10308   5.660   2.330   4.995 -1.3543 -0.0515 -1.9416
  102OSM   C16F10309   5.650   2.529   4.913 -0.1745  0.1434  0.0275
  102OSM   H16F10310   5.761   2.530   4.914 -0.1640  1.2478 -0.3246
  102OSM   H16G10311   5.606   2.630   4.930  0.5755  0.3820  0.5682
  102OSM   C17F10312   5.609   2.474   4.777  0.8845 -0.0458 -0.9695
  102OSM   H17F10313   5.498   2.476   4.772  0.8762  0.2992 -0.6970
  102OSM   H17G10314   5.640   2.368   4.763 -0.4153 -0.7038  0.7426
  102OSM   C18F10315   5.666   2.554   4.660 -0.0293 -0.2538 -0.1870
  102OSM   H18F10316   5.631   2.657   4.682 -1.5491 -0.9328  0.6599
  102OSM   H18G10317   5.629   2.533   4.558 -1.9860 -0.9065  0.6095
  102OSM   H18H10318   5.777   2.544   4.650 -0.0270  0.5559 -1.0172
  103OSM      N10319   0.324   2.581   7.169  0.0699 -0.1496 -0.3282
  103OSM    C1510320   0.444   2.588   7.080  0.5198 -0.0395 -0.2487
  103OSM   H15A10321   0.521   2.652   7.121 -0.1848  0.9550 -0.4365
  103OSM   H15B10322   0.417   2.618   6.979 -1.9263  0.9084  0.6199
  103OSM   H15C10323   0.476   2.487   7.062 -1.3607 -0.5134 -1.1243
  103OSM    C1410324   0.257   2.717   7.155  0.1046 -0.4122  0.0214
  103OSM   H14A10325   0.164   2.711   7.209  0.5434 -0.0847  0.8266
  103OSM   H14B10326   0.244   2.746   7.052  0.9009 -1.2549 -0.3348
  103OSM   H14C10327   0.319   2.790   7.205 -2.8497  1.1410  1.6830
  103OSM    C1310328   0.235   2.466   7.121  0.1573 -0.4425 -0.3197
  103OSM   H13A10329   0.213   2.485   7.017 -0.7292  2.1857  0.2710
  103OSM   H13B10330   0.141   2.454   7.174 -0.3796 -0.4680 -1.2626
  103OSM   H13C10331   0.295   2.376   7.129 -1.1424 -1.3094  0.0367
  103OSM    C1210332   0.350   2.549   7.319  0.7390  0.9917  0.2640
  103OSM   H12A10333   0.260   2.555   7.378  0.2802 -0.3271 -0.2451
  103OSM   H12B10334   0.421   2.619   7.361  1.8911 -0.5038  0.9178
  103OSM    C1110335   0.427   2.414   7.356  0.9572  0.0494  0.7573
  103OSM   H11A10336   0.367   2.327   7.323  1.2262  0.8977 -2.2181
  103OSM   H11B10337   0.440   2.415   7.467  0.2104  0.8589  0.8466
  103OSM      P10338   0.647   2.311   7.290 -0.1458  0.4552 -0.1301
  103OSM    O1310339   0.777   2.374   7.254 -0.0466 -0.3962 -0.2878
  103OSM    O1410340   0.645   2.235   7.418 -0.1137 -0.2315  0.0200
  103OSM    O1110341   0.612   2.219   7.164  0.3908  0.1215 -0.7049
  103OSM    O1210342   0.544   2.426   7.289 -0.3036 -0.9008 -0.5101
  103OSM    C1S10343   0.569   2.256   7.037  0.2062 -0.1850 -0.3514
  103OSM    H1S10344   0.606   2.360   7.025 -1.3240  0.6837  1.7348
  103OSM    H1T10345   0.458   2.264   7.028  0.2885  0.3346 -0.9936
  103OSM     NF10346   0.635   2.236   6.801  1.3288  0.5196 -0.0959
  103OSM    HNF10347   0.584   2.196   6.726  0.9390 -0.1567  0.5113
  103OSM    C2S10348   0.630   2.160   6.921 -0.3031 -0.3172 -0.4020
  103OSM    H2S10349   0.737   2.136   6.939  0.0653  0.0652 -1.8868
  103OSM    C3S10350   0.552   2.028   6.929  0.3336  0.1728  0.5071
  103OSM    H3S10351   0.449   2.067   6.914  2.0877  5.5988  0.2330
  103OSM     O310352   0.547   1.963   7.055  0.3296 -1.0487 -0.0798
  103OSM    HO310353   0.588   2.025   7.115  0.5424  1.4019 -2.5862
  103OSM    C4S10354   0.587   1.929   6.816 -0.6068 -0.4088 -0.6108
  103OSM    H4S10355   0.685   1.948   6.769 -0.2134  0.5944  0.5743
  103OSM    C5S10356   0.502   1.852   6.737  0.2333  0.6144  0.1486
  103OSM    H5S10357   0.394   1.858   6.757 -0.2245  0.6095 -1.9906
  103OSM    C6S10358   0.541   1.788   6.611  0.5942 -0.2387 -0.3976
  103OSM    H6S10359   0.466   1.825   6.538  1.1644 -0.9082 -1.3414
  103OSM    H6T10360   0.535   1.678   6.623 -0.2539 -0.5022 -2.7154
  103OSM    C7S10361   0.674   1.815   6.546  0.0953  0.3972 -0.0626
  103OSM    H7S10362   0.755   1.760   6.599 -1.4635 -0.7607  1.2312
  103OSM    H7T10363   0.710   1.920   6.548 -1.4219  0.9491 -0.8704
  103OSM    C8S10364   0.687   1.772   6.393 -0.1876  0.0387 -0.6835
  103OSM    H8S10365   0.778   1.819   6.351  1.0994 -1.3692  0.4533
  103OSM    H8T10366   0.599   1.818   6.342  0.1645  0.4481 -0.9283
  103OSM    C9S10367   0.680   1.619   6.379 -0.3563 -0.0587  0.0966
  103OSM    H9S10368   0.586   1.584   6.427  1.2429 -2.6329  1.5814
  103OSM    H9T10369   0.763   1.571   6.435 -0.8119 -1.4332 -0.3560
  103OSM   C10S10370   0.689   1.579   6.230 -0.5671 -0.1184 -0.2751
  103OSM   H10S10371   0.681   1.468   6.235 -1.6542 -0.0410  4.4506
  103OSM   H10T10372   0.791   1.617   6.204 -1.2564  2.6316  0.7280
  103OSM   C11S10373   0.575   1.638   6.142  0.8633  0.5667  0.2199
  103OSM   H11S10374   0.592   1.745   6.115 -0.1751  0.3743 -1.2779
  103OSM   H11T10375   0.481   1.623   6.198  1.4909  0.5499  1.3089
  103OSM   C12S10376   0.568   1.546   6.013  0.2808  0.2612  0.2035
  103OSM   H12S10377   0.485   1.594   5.956 -0.2772 -0.0988  0.7023
  103OSM   H12T10378   0.537   1.447   6.051 -0.6330  0.4436 -0.0222
  103OSM   C13S10379   0.695   1.538   5.930  0.7970 -0.4821 -0.6684
  103OSM   H13S10380   0.660   1.472   5.849 -0.9036 -0.9216  0.3893
  103OSM   H13T10381   0.763   1.484   5.999 -1.4649 -1.3062  1.0228
  103OSM   C14S10382   0.750   1.669   5.885 -0.0515 -0.6832  0.4626
  103OSM   H14S10383   0.859   1.666   5.866 -0.0619  2.1511 -0.5903
  103OSM   H14T10384   0.749   1.743   5.968  0.2805  1.6258 -1.4729
  103OSM   C15S10385   0.672   1.729   5.764 -0.0179  0.2569  0.0114
  103OSM   H15S10386   0.685   1.836   5.736  0.3097  0.0988 -0.4632
  103OSM   H15T10387   0.568   1.702   5.793  0.1302 -0.6955 -0.2829
  103OSM   C16S10388   0.700   1.646   5.638 -0.1160 -0.0859  0.8782
  103OSM   H16S10389   0.653   1.546   5.652 -0.4301  0.3756  3.5456
  103OSM   H16T10390   0.810   1.635   5.623 -0.0007 -0.3399  1.8822
  103OSM   C17S10391   0.653   1.730   5.517 -0.0118  0.1211 -0.1347
  103OSM   H17S10392   0.667   1.838   5.540  0.0576 -0.1689  1.2339
  103OSM   H17T10393   0.543   1.714   5.515 -0.0508  0.4210 -1.9079
  103OSM   C18S10394   0.718   1.683   5.381 -0.4526  0.1182 -0.2881
  103OSM   H18S10395   0.706   1.573   5.369 -1.7748 -0.1275  2.5061
  103OSM   H18T10396   0.827   1.703   5.371 -0.0295 -2.2289 -1.1109
  103OSM   H18U10397   0.663   1.723   5.294 -2.4542 -2.2488 -0.2240
  103OSM    C1F10398   0.700   2.353   6.782  0.3074  0.2893 -0.3831
  103OSM     OF10399   0.767   2.403   6.870  0.0421  0.2013 -0.2148
  103OSM    C2F10400   0.702   2.404   6.641  0.5429 -0.9694  1.1086
  103OSM    H2F10401   0.598   2.409   6.602  1.1285 -0.5273 -0.4700
  103OSM    H2G10402   0.761   2.333   6.580  0.7887 -0.6126  0.9234
  103OSM    C3F10403   0.767   2.551   6.625  0.7320  0.4427 -0.5196
  103OSM    H3F10404   0.863   2.559   6.679  0.5878  3.2872 -0.5576
  103OSM    H3G10405   0.702   2.623   6.679  1.7287  1.0593 -0.1271
  103OSM    C4F10406   0.773   2.596   6.484  0.0894  0.1434  0.3417
  103OSM    H4F10407   0.676   2.608   6.432 -0.2214  2.0122  1.2677
  103OSM    H4G10408   0.828   2.517   6.428 -1.5429 -1.5534  1.0237
  103OSM    C5F10409   0.847   2.730   6.468 -0.4161  0.0147  0.0278
  103OSM    H5F10410   0.947   2.729   6.516 -0.8019  1.6071  0.9267
  103OSM    H5G10411   0.781   2.800   6.523 -0.8430 -0.2783 -0.1040
  103OSM    C6F10412   0.852   2.776   6.324 -0.3746 -0.9531  1.0849
  103OSM    H6F10413   0.757   2.765   6.267  1.0475 -1.8470 -1.2668
  103OSM    H6G10414   0.922   2.704   6.276 -2.4547 -1.6039 -1.2414
  103OSM    C7F10415   0.880   2.926   6.314  0.2209  0.3538  0.4874
  103OSM    H7F10416   0.969   2.953   6.375  0.2707 -1.1114  1.1082
  103OSM    H7G10417   0.797   2.994   6.341 -0.0325  1.5040 -2.7137
  103OSM    C8F10418   0.916   2.961   6.167 -0.1864 -0.3002 -0.6694
  103OSM    H8F10419   0.919   3.071   6.152 -0.7656 -0.1487  0.2907
  103OSM    H8G10420   0.828   2.934   6.105 -0.3061  1.0584 -1.1155
  103OSM    C9F10421   1.046   2.901   6.114  0.6638 -0.3426  0.0244
  103OSM    H9F10422   1.134   2.964   6.132  0.9425 -0.5055 -0.7187
  103OSM   C10F10423   1.057   2.796   6.039 -0.2868  0.4797 -0.1985
  103OSM   H10F10424   1.153   2.770   5.993 -0.1372 -2.2712  1.4064
  103OSM   C11F10425   0.940   2.710   6.006  0.3794  0.5873  0.4237
  103OSM   H11F10426   0.853   2.719   6.074 -2.8643  1.9972 -3.4440
  103OSM   H11G10427   0.978   2.606   5.994 -1.1504  0.1588 -1.1757
  103OSM   C12F10428   0.876   2.759   5.876  0.2485 -0.4157 -0.1414
  103OSM   H12F10429   0.863   2.869   5.883 -0.2388 -0.4686 -0.1918
  103OSM   H12G10430   0.780   2.707   5.858 -0.6213  1.8000 -2.5096
  103OSM   C13F10431   0.961   2.721   5.752 -0.3683  0.2747 -0.6812
  103OSM   H13F10432   0.963   2.610   5.757 -1.1519  0.2878  0.7664
  103OSM   H13G10433   1.066   2.755   5.760 -0.5208  0.4739  0.9667
  103OSM   C14F10434   0.893   2.790   5.637 -0.2566 -0.0125  0.0994
  103OSM   H14F10435   0.925   2.896   5.639  0.8018 -0.2720 -1.4666
  103OSM   H14G10436   0.785   2.784   5.663 -0.3047  0.9918  0.1394
  103OSM   C15F10437   0.943   2.734   5.501 -0.0906 -0.2718 -0.1401
  103OSM   H15F10438   0.897   2.797   5.423  1.3952 -0.3775 -1.1448
  103OSM   H15G10439   0.910   2.628   5.499 -0.1930 -0.3301  1.9810
  103OSM   C16F10440   1.099   2.735   5.486  0.4466  0.8989 -0.4702
  103OSM   H16F10441   1.125   2.695   5.386 -0.0444  1.1816 -0.7195
  103OSM   H16G10442   1.140   2.669   5.566  0.3825 -1.4743 -2.2826
  103OSM   C17F10443   1.163   2.871   5.494  0.1458 -0.1900  0.3313
  103OSM   H17F10444   1.149   2.921   5.592 -2.8881 -0.9613  0.3768
  103OSM   H17G10445   1.112   2.940   5.423  1.9845  1.0436  0.1255
  103OSM   C18F10446   1.311   2.877   5.455  0.8181 -0.2876  0.6536
  103OSM   H18F10447   1.325   2.833   5.354  0.7796 -0.9370  0.9263
  103OSM   H18G10448   1.380   2.832   5.530  2.1270  1.2122  0.4013
  103OSM   H18H10449   1.350   2.981   5.458  1.0627 -0.3130 -0.9095
  104OSM      N10450   2.178   1.599   7.133 -0.7149 -0.3752  1.0981
  104OSM    C1510451   2.323   1.614   7.085 -0.1504  0.4132 -0.0363
  104OSM   H15A10452   2.359   1.713   7.107  0.3249  0.1141  0.5685
  104OSM   H15B10453   2.321   1.601   6.978 -0.8020  1.1139 -0.1221
  104OSM   H15C10454   2.388   1.540   7.129 -0.3102  1.2106  1.6265
  104OSM    C1410455   2.134   1.457   7.126  1.0234  0.3861  0.4721
  104OSM   H14A10456   2.145   1.410   7.029 -0.2836 -0.2994  0.6323
  104OSM   H14B10457   2.027   1.450   7.136  1.0478  0.5745  0.8929
  104OSM   H14C10458   2.181   1.390   7.197 -0.1060 -0.7328  0.1890
  104OSM    C1310459   2.162   1.649   7.274  0.3100  0.4137  0.0079
  104OSM   H13A10460   2.214   1.581   7.340 -0.8481  1.4577  2.0945
  104OSM   H13B10461   2.066   1.619   7.312  1.6410 -2.8874  1.1359
  104OSM   H13C10462   2.200   1.750   7.287 -0.7900  1.3772 -3.1951
  104OSM    C1210463   2.089   1.679   7.042  0.0676 -0.3825  0.1094
  104OSM   H12A10464   2.135   1.777   7.049  0.4332 -0.4780 -0.8508
  104OSM   H12B10465   1.987   1.678   7.078  0.0711  1.7246  0.3166
  104OSM    C1110466   2.096   1.662   6.891  0.2993  0.1044 -0.9708
  104OSM   H11A10467   1.999   1.696   6.850 -1.7389 -2.7426  1.0574
  104OSM   H11B10468   2.109   1.553   6.871 -1.0227 -0.9422  2.8940
  104OSM      P10469   2.218   1.888   6.839  0.0816 -0.2520 -0.2544
  104OSM    O1310470   2.215   1.931   6.975  0.3959 -0.2363 -0.4273
  104OSM    O1410471   2.330   1.937   6.756  0.5305 -0.0250  0.1877
  104OSM    O1110472   2.082   1.924   6.767 -0.6997 -0.5675 -0.2382
  104OSM    O1210473   2.207   1.732   6.837 -0.4989  0.2715  0.3091
  104OSM    C1S10474   2.087   1.905   6.624 -0.5083  0.0717  0.2678
  104OSM    H1S10475   2.116   1.800   6.603  2.6490  0.7616  0.8098
  104OSM    H1T10476   2.169   1.955   6.569 -0.5302 -1.8473 -1.6456
  104OSM     NF10477   1.947   1.913   6.415  0.7242  0.1302 -0.4269
  104OSM    HNF10478   1.974   1.994   6.364  2.9955  0.3202  0.9548
  104OSM    C2S10479   1.946   1.948   6.557 -0.9421 -0.1495 -0.2338
  104OSM    H2S10480   1.871   1.889   6.614 -0.5352  0.8599  1.4235
  104OSM    C3S10481   1.917   2.092   6.596 -0.5816  0.3576 -0.4902
  104OSM    H3S10482   1.999   2.158   6.561 -1.1434  1.3140 -0.0542
  104OSM     O310483   1.914   2.122   6.734 -0.0532 -0.0798 -0.3156
  104OSM    HO310484   1.977   2.056   6.764 -0.5410 -0.7522 -0.7579
  104OSM    C4S10485   1.792   2.136   6.532  0.0016 -0.8407 -0.6066
  104OSM    H4S10486   1.813   2.182   6.435  0.8296 -2.0212 -1.0070
  104OSM    C5S10487   1.664   2.126   6.582  0.0010 -0.0830  0.6538
  104OSM    H5S10488   1.652   2.067   6.675 -1.6526 -0.9499 -0.0782
  104OSM    C6S10489   1.538   2.160   6.502  0.1322 -0.2325  0.2071
  104OSM    H6S10490   1.507   2.264   6.527 -2.3264 -0.7153 -0.5858
  104OSM    H6T10491   1.462   2.085   6.531 -2.2479  2.3082  0.9634
  104OSM    C7S10492   1.542   2.155   6.348 -0.2235  0.2099  0.2608
  104OSM    H7S10493   1.614   2.232   6.313 -0.8819  1.5992  1.7865
  104OSM    H7T10494   1.445   2.191   6.307  2.4307  3.3508 -4.0072
  104OSM    C8S10495   1.566   2.013   6.296  1.1294  0.4174 -0.0232
  104OSM    H8S10496   1.515   1.942   6.364  1.6353 -0.6733 -0.7651
  104OSM    H8T10497   1.676   1.998   6.304  0.8274 -1.9609  0.3647
  104OSM    C9S10498   1.510   1.989   6.152  0.1033 -0.1399  0.1460
  104OSM    H9S10499   1.405   2.026   6.145  0.9624  2.1898 -1.8951
  104OSM    H9T10500   1.511   1.881   6.126  0.8967  0.1292 -1.0298
  104OSM   C10S10501   1.606   2.060   6.054 -0.1603  0.2590  0.0961
  104OSM   H10S10502   1.712   2.036   6.076 -0.4344  0.8836  2.3459
  104OSM   H10T10503   1.589   2.169   6.067 -0.8580  0.3198 -1.1630
  104OSM   C11S10504   1.581   2.023   5.907 -0.2345 -0.8370  0.3501
  104OSM   H11S10505   1.471   2.032   5.891  0.0128  1.8254 -0.4012
  104OSM   H11T10506   1.611   1.917   5.892  0.0564 -1.0312  2.0796
  104OSM   C12S10507   1.651   2.125   5.811 -0.5489  0.2225  0.3426
  104OSM   H12S10508   1.760   2.107   5.821 -0.7155 -0.5354  0.8740
  104OSM   H12T10509   1.627   2.230   5.840  2.6274  0.4757  2.6266
  104OSM   C13S10510   1.601   2.088   5.665  0.0698 -0.1942  0.5102
  104OSM   H13S10511   1.490   2.098   5.670  0.1227 -0.1561  3.6467
  104OSM   H13T10512   1.631   1.985   5.639 -0.2222  0.1777 -1.4894
  104OSM   C14S10513   1.644   2.184   5.555 -0.5115  1.2120  0.0994
  104OSM   H14S10514   1.753   2.203   5.557 -0.3729  1.0274 -2.4937
  104OSM   H14T10515   1.600   2.283   5.578  1.6713  2.4250 -0.7436
  104OSM   C15S10516   1.610   2.136   5.408  0.8374  0.0364  0.2506
  104OSM   H15S10517   1.499   2.142   5.398  0.8428  1.6264  0.9549
  104OSM   H15T10518   1.629   2.027   5.396 -0.4532 -0.1332 -0.4188
  104OSM   C16S10519   1.687   2.212   5.305 -0.5502 -0.5119 -0.1373
  104OSM   H16S10520   1.792   2.179   5.323 -0.8617 -2.6285 -1.8521
  104OSM   H16T10521   1.666   2.320   5.324  2.5356  0.0074  0.9811
  104OSM   C17S10522   1.658   2.194   5.152  0.9699  0.3501 -0.5054
  104OSM   H17S10523   1.629   2.088   5.133 -0.6011  0.8380 -0.9187
  104OSM   H17T10524   1.750   2.200   5.091 -0.0123 -0.1157 -2.0881
  104OSM   C18S10525   1.545   2.281   5.087  1.0611 -0.2235  0.1777
  104OSM   H18S10526   1.554   2.288   4.977 -1.1510  0.9553  0.0123
  104OSM   H18T10527   1.549   2.386   5.124  2.5301 -0.1481 -0.1512
  104OSM   H18U10528   1.443   2.238   5.096  0.4091  0.9352 -1.2071
  104OSM    C1F10529   1.933   1.783   6.371 -0.0393 -0.8083  0.1343
  104OSM     OF10530   1.883   1.695   6.442  0.4751 -0.3083  0.6174
  104OSM    C2F10531   1.956   1.762   6.221 -0.2217  0.6192 -0.3599
  104OSM    H2F10532   2.027   1.838   6.183 -2.9505  3.6981  0.2953
  104OSM    H2G10533   1.855   1.768   6.176 -0.3786 -2.5580 -0.6731
  104OSM    C3F10534   1.999   1.619   6.188 -0.1907 -0.5058 -0.4723
  104OSM    H3F10535   1.924   1.559   6.244 -1.4089  0.9866 -0.4424
  104OSM    H3G10536   2.102   1.605   6.230 -0.5543 -0.5101  0.4519
  104OSM    C4F10537   1.988   1.575   6.047 -0.4923  0.3138 -0.1645
  104OSM    H4F10538   2.040   1.646   5.979  1.7479  0.5897  1.7033
  104OSM    H4G10539   1.885   1.559   6.010 -0.8086 -0.0739  0.8691
  104OSM    C5F10540   2.056   1.434   6.038 -0.1012 -0.1724  0.0082
  104OSM    H5F10541   2.021   1.373   6.124  0.2474 -0.2591  0.0917
  104OSM    H5G10542   2.167   1.441   6.048  0.2765 -2.8294 -1.3404
  104OSM    C6F10543   2.045   1.375   5.902  0.8833  0.0575 -0.4952
  104OSM    H6F10544   1.948   1.410   5.860  0.9685  1.8638  0.6573
  104OSM    H6G10545   2.032   1.266   5.919 -0.8630  0.6253  2.6278
  104OSM    C7F10546   2.149   1.424   5.798  0.7853 -0.3897 -0.1654
  104OSM    H7F10547   2.247   1.416   5.849  1.4626 -0.9763 -1.5080
  104OSM    H7G10548   2.128   1.529   5.768 -0.5134 -1.5928 -3.9745
  104OSM    C8F10549   2.150   1.339   5.663  0.7484  0.2952 -0.4044
  104OSM    H8F10550   2.046   1.328   5.625  0.6297  0.4133 -0.1244
  104OSM    H8G10551   2.184   1.241   5.703  3.5485  1.2208 -0.3064
  104OSM    C9F10552   2.250   1.415   5.572 -0.7074  0.1784 -0.4776
  104OSM    H9F10553   2.350   1.418   5.616 -0.7423 -2.9700  0.0056
  104OSM   C10F10554   2.240   1.475   5.450  0.7100  0.7203 -0.3604
  104OSM   H10F10555   2.333   1.510   5.404  2.4636 -0.9754  1.7215
  104OSM   C11F10556   2.120   1.470   5.361 -0.4973  0.1021  0.1470
  104OSM   H11F10557   2.110   1.565   5.306 -1.2559 -0.1978 -0.2416
  104OSM   H11G10558   2.024   1.437   5.405  0.6318 -1.7838  1.3565
  104OSM   C12F10559   2.153   1.372   5.247 -0.6378  0.7337  0.5589
  104OSM   H12F10560   2.179   1.269   5.279  0.2570  0.3245 -1.3746
  104OSM   H12G10561   2.233   1.416   5.185 -1.7765  1.7810 -0.2255
  104OSM   C13F10562   2.035   1.354   5.155  0.2307  0.3516 -0.7243
  104OSM   H13F10563   1.946   1.365   5.220  0.0596  2.9849 -1.2891
  104OSM   H13G10564   2.042   1.254   5.108  0.3613  0.2932 -0.5804
  104OSM   C14F10565   2.040   1.454   5.033  0.7725  0.3177 -0.0147
  104OSM   H14F10566   2.114   1.422   4.957 -0.0379 -0.5331 -0.4684
  104OSM   H14G10567   2.076   1.542   5.089  2.3507 -1.6591  2.2828
  104OSM   C15F10568   1.910   1.480   4.952  0.4635 -0.0907 -0.3928
  104OSM   H15F10569   1.931   1.572   4.893  2.0757 -0.3969 -0.3378
  104OSM   H15G10570   1.830   1.503   5.026  2.4784  0.6826  1.6716
  104OSM   C16F10571   1.880   1.355   4.863 -0.2566 -0.7582  0.4032
  104OSM   H16F10572   1.832   1.277   4.926  0.9246 -2.2490 -0.5115
  104OSM   H16G10573   1.968   1.302   4.823 -0.1027 -1.0006  1.0580
  104OSM   C17F10574   1.791   1.395   4.744  0.2481  0.2442  0.1619
  104OSM   H17F10575   1.853   1.470   4.691  0.4107  0.2535  0.3648
  104OSM   H17G10576   1.699   1.444   4.782  0.5107  2.5186 -1.8938
  104OSM   C18F10577   1.762   1.279   4.654  0.2277  0.3725 -0.5043
  104OSM   H18F10578   1.692   1.309   4.574  0.9314  0.1335 -1.2202
  104OSM   H18G10579   1.721   1.192   4.711  0.0637  0.5648 -0.3268
  104OSM   H18H10580   1.861   1.242   4.620  1.6706  0.6837  2.9192
  105OSM      N10581   2.375   3.027   7.440  0.5939  0.2999 -0.7046
  105OSM    C1510582   2.308   3.048   7.572 -0.5984  0.0208  0.3817
  105OSM   H15A10583   2.234   2.972   7.591 -0.0204 -0.5639  0.3027
  105OSM   H15B10584   2.265   3.147   7.579  1.0990  0.7733  0.7682
  105OSM   H15C10585   2.380   3.045   7.653  1.9781  1.5828 -1.6848
  105OSM    C1410586   2.428   2.889   7.429 -0.0072 -0.4761  0.0646
  105OSM   H14A10587   2.514   2.863   7.489  1.2736  0.3097 -1.3656
  105OSM   H14B10588   2.467   2.875   7.330  0.5847 -1.1469  0.3840
  105OSM   H14C10589   2.348   2.821   7.451 -1.2693  0.8763 -0.1667
  105OSM    C1310590   2.266   3.036   7.339  0.1990 -0.2337  0.2259
  105OSM   H13A10591   2.329   3.023   7.252  2.0381  1.5631  1.2058
  105OSM   H13B10592   2.235   3.139   7.329  0.8910 -0.0699 -0.2807
  105OSM   H13C10593   2.192   2.957   7.346 -0.8959  0.7995  0.7444
  105OSM    C1210594   2.489   3.127   7.419 -0.2789 -0.4581  0.4978
  105OSM   H12A10595   2.561   3.119   7.498 -0.7573  1.6466  1.2005
  105OSM   H12B10596   2.455   3.227   7.443 -1.8573 -0.4549 -1.4359
  105OSM    C1110597   2.561   3.119   7.276 -0.1201 -0.5168 -0.4936
  105OSM   H11A10598   2.600   3.016   7.261  2.7504  0.5694 -1.1887
  105OSM   H11B10599   2.648   3.188   7.271 -0.8328  0.5758  1.1609
  105OSM      P10600   2.445   3.302   7.129  0.4057  0.1596 -0.0082
  105OSM    O1310601   2.306   3.325   7.082 -0.3884  0.6507 -0.7875
  105OSM    O1410602   2.493   3.395   7.234 -0.1475 -0.5749  0.0946
  105OSM    O1110603   2.554   3.311   7.016  0.0222  0.6368  0.2001
  105OSM    O1210604   2.459   3.149   7.177 -0.0598  0.1309 -0.2189
  105OSM    C1S10605   2.575   3.204   6.926 -0.2533  0.0804 -0.5230
  105OSM    H1S10606   2.509   3.114   6.932  1.1070 -1.0587 -1.7970
  105OSM    H1T10607   2.681   3.171   6.937  0.0901  1.4403  0.4758
  105OSM     NF10608   2.608   3.127   6.689 -0.3048 -0.3169 -0.1690
  105OSM    HNF10609   2.704   3.116   6.664  0.8753  4.1939  1.3805
  105OSM    C2S10610   2.576   3.244   6.771 -0.0379  0.0257  0.2913
  105OSM    H2S10611   2.474   3.285   6.755 -0.1994  0.2491  1.7299
  105OSM    C3S10612   2.655   3.370   6.749  0.0511 -0.1346  0.6249
  105OSM    H3S10613   2.758   3.367   6.791  0.0558 -1.6168  0.5600
  105OSM     O310614   2.591   3.486   6.800 -0.2410 -0.6116  0.1606
  105OSM    HO310615   2.552   3.467   6.886  0.2551 -0.6240  0.3888
  105OSM    C4S10616   2.677   3.388   6.594 -0.2772  0.2303  0.9409
  105OSM    H4S10617   2.758   3.327   6.551  0.7057  2.2675 -0.2322
  105OSM    C5S10618   2.596   3.449   6.501  0.4076  0.4208 -0.0284
  105OSM    H5S10619   2.498   3.485   6.534  1.8446  2.4111  2.4448
  105OSM    C6S10620   2.632   3.451   6.353 -0.6744 -0.2913 -0.0827
  105OSM    H6S10621   2.682   3.359   6.318 -3.0715 -1.0452 -1.8105
  105OSM    H6T10622   2.706   3.533   6.338  2.3042 -2.6863  0.5580
  105OSM    C7S10623   2.507   3.461   6.263  0.8075  0.2043  0.3778
  105OSM    H7S10624   2.427   3.512   6.322  0.7132 -0.7502  1.1066
  105OSM    H7T10625   2.468   3.358   6.247 -0.9565  0.9254 -0.2817
  105OSM    C8S10626   2.526   3.529   6.121  0.0479  0.2472 -0.6088
  105OSM    H8S10627   2.620   3.503   6.067  0.1888  0.3743 -0.4267
  105OSM    H8T10628   2.540   3.637   6.142  1.9234  0.0710 -0.7130
  105OSM    C9S10629   2.403   3.514   6.031 -0.3759 -0.0838 -0.2524
  105OSM    H9S10630   2.321   3.572   6.078 -1.0189 -0.6869 -0.6162
  105OSM    H9T10631   2.363   3.412   6.014  1.1492 -0.9203  0.9397
  105OSM   C10S10632   2.435   3.573   5.889 -0.6567  0.0261  0.8236
  105OSM   H10S10633   2.497   3.500   5.834  1.2713  0.3039  2.5324
  105OSM   H10T10634   2.501   3.656   5.919 -0.7351  0.0836  0.8379
  105OSM   C11S10635   2.312   3.607   5.794 -0.0668 -0.0215 -0.1748
  105OSM   H11S10636   2.222   3.644   5.848  0.6260  0.5173  0.6154
  105OSM   H11T10637   2.268   3.515   5.749 -2.4492  0.3552  1.2087
  105OSM   C12S10638   2.338   3.709   5.687 -0.6123 -0.5274 -0.2944
  105OSM   H12S10639   2.415   3.668   5.618  0.3119 -0.4024  0.6385
  105OSM   H12T10640   2.372   3.801   5.739 -1.5226  0.1556 -0.8795
  105OSM   C13S10641   2.208   3.738   5.608  0.1137 -0.2100  0.3776
  105OSM   H13S10642   2.118   3.729   5.672  0.5129  1.4546  1.2401
  105OSM   H13T10643   2.185   3.661   5.531 -1.9744 -2.0272  2.6409
  105OSM   C14S10644   2.218   3.871   5.539 -0.1790 -0.0329  0.0401
  105OSM   H14S10645   2.296   3.850   5.463 -0.9972 -0.7120 -0.6396
  105OSM   H14T10646   2.252   3.947   5.612  1.0421 -0.1909 -0.3444
  105OSM   C15S10647   2.094   3.923   5.462  0.7113  0.0945  0.1615
  105OSM   H15S10648   2.018   3.954   5.537  1.1797 -1.8958  1.5487
  105OSM   H15T10649   2.053   3.832   5.414 -0.1555 -1.3537  3.3744
  105OSM   C16S10650   2.143   4.034   5.364 -0.1898 -0.6252  1.3546
  105OSM   H16S10651   2.064   4.058   5.289  2.2102 -2.3971 -1.9675
  105OSM   H16T10652   2.236   4.009   5.309 -0.4817  3.2188 -1.2932
  105OSM   C17S10653   2.177   4.164   5.437  0.5171 -0.4110  0.0796
  105OSM   H17S10654   2.265   4.138   5.501 -0.6540  1.0618  2.4415
  105OSM   H17T10655   2.107   4.187   5.520 -0.1381  0.2054 -0.6321
  105OSM   C18S10656   2.214   4.277   5.338  0.1481  0.0695 -0.1505
  105OSM   H18S10657   2.201   4.377   5.385  1.6558  0.3692 -0.2973
  105OSM   H18T10658   2.147   4.268   5.250 -0.4436  0.2674  0.2765
  105OSM   H18U10659   2.320   4.266   5.306 -0.2593 -0.5743 -1.3617
  105OSM    C1F10660   2.508   3.042   6.661  0.4284 -0.4999  0.5358
  105OSM     OF10661   2.394   3.062   6.705  0.1746 -0.7455  0.1258
  105OSM    C2F10662   2.534   2.918   6.582 -0.5480 -0.1341 -1.0110
  105OSM    H2F10663   2.507   2.830   6.645  1.7331  0.8844  1.6002
  105OSM    H2G10664   2.644   2.923   6.565 -0.4668  4.9369 -0.5359
  105OSM    C3F10665   2.459   2.905   6.449 -0.1883  0.7969 -0.2297
  105OSM    H3F10666   2.349   2.897   6.458 -0.3380  2.3995 -0.2285
  105OSM    H3G10667   2.499   2.811   6.407 -0.1494  0.5909  0.2652
  105OSM    C4F10668   2.488   3.005   6.337 -0.9182 -0.1851  0.2056
  105OSM    H4F10669   2.597   2.999   6.316 -0.1584  3.8600  2.1655
  105OSM    H4G10670   2.464   3.107   6.374 -0.7637  0.5845 -1.6934
  105OSM    C5F10671   2.408   2.985   6.211 -0.4712 -0.2548  0.3191
  105OSM    H5F10672   2.298   2.987   6.228 -0.3775 -0.4486  0.9871
  105OSM    H5G10673   2.424   2.879   6.179 -1.1398 -0.1770 -0.2802
  105OSM    C6F10674   2.449   3.081   6.094  0.3472  0.2752 -0.0388
  105OSM    H6F10675   2.403   3.179   6.117  0.5094  0.0648  1.2715
  105OSM    H6G10676   2.409   3.040   5.999  0.3757 -1.9802  0.8376
  105OSM    C7F10677   2.597   3.086   6.072  0.3251 -0.7783  0.4564
  105OSM    H7F10678   2.631   2.990   6.117  0.4936 -0.1077  1.8230
  105OSM    H7G10679   2.639   3.169   6.134  0.7004 -0.9619  0.4528
  105OSM    C8F10680   2.655   3.109   5.931  0.3199  0.2089 -0.1880
  105OSM    H8F10681   2.766   3.113   5.923  0.3679 -0.3865  0.1156
  105OSM    H8G10682   2.614   3.212   5.923 -0.5726 -0.1319 -0.1695
  105OSM    C9F10683   2.579   3.029   5.830  0.5561 -0.4245  0.2368
  105OSM    H9F10684   2.588   2.920   5.841  0.9446 -0.2041  2.6893
  105OSM   C10F10685   2.496   3.086   5.732 -0.1904 -1.0639  0.1120
  105OSM   H10F10686   2.432   3.025   5.666 -0.5347  1.0468 -1.6374
  105OSM   C11F10687   2.469   3.235   5.705 -0.4388 -1.3290 -0.1369
  105OSM   H11F10688   2.530   3.304   5.768 -1.6860 -2.1156  2.0495
  105OSM   H11G10689   2.365   3.267   5.727  0.1433  0.9213 -0.3822
  105OSM   C12F10690   2.490   3.264   5.554  0.4728  0.2206 -0.2235
  105OSM   H12F10691   2.427   3.198   5.491  0.3403  0.2303 -0.1029
  105OSM   H12G10692   2.597   3.249   5.531  1.6586  0.1382  4.2768
  105OSM   C13F10693   2.450   3.406   5.512  0.0736 -0.3418  0.2798
  105OSM   H13F10694   2.515   3.480   5.564 -0.7870  0.1636  0.6611
  105OSM   H13G10695   2.342   3.423   5.535 -0.4790 -0.5213 -1.9374
  105OSM   C14F10696   2.470   3.432   5.358 -0.0551 -0.1735  0.0196
  105OSM   H14F10697   2.405   3.353   5.313  1.5175 -2.3616  1.3871
  105OSM   H14G10698   2.580   3.421   5.346 -0.2017 -1.4030 -0.3866
  105OSM   C15F10699   2.427   3.574   5.308 -0.3653  0.0269  0.3193
  105OSM   H15F10700   2.382   3.630   5.393 -0.4473  1.0746 -0.3877
  105OSM   H15G10701   2.357   3.562   5.222 -0.7111 -0.0855  0.6120
  105OSM   C16F10702   2.560   3.648   5.269 -0.0013 -0.0173  0.1740
  105OSM   H16F10703   2.635   3.582   5.222  0.5173  0.7638 -0.1177
  105OSM   H16G10704   2.605   3.681   5.365 -1.0289 -0.7795  0.9358
  105OSM   C17F10705   2.536   3.770   5.190 -0.3628  0.6082  0.1223
  105OSM   H17F10706   2.627   3.833   5.204  1.5509 -1.8003 -0.7141
  105OSM   H17G10707   2.443   3.821   5.221 -1.5103 -1.8966  0.9814
  105OSM   C18F10708   2.541   3.746   5.035 -0.7967 -0.0379 -0.3914
  105OSM   H18F10709   2.453   3.690   4.996 -0.3147 -1.8978  1.0623
  105OSM   H18G10710   2.633   3.684   5.026  0.6609  1.4166  2.8419
  105OSM   H18H10711   2.548   3.835   4.969  1.7167 -1.1825 -1.8147
  106OSM      N10712   6.283   1.517   7.364  0.1968  0.7746  0.0147
  106OSM    C1510713   6.143   1.476   7.407 -0.6472  0.1015 -0.7797
  106OSM   H15A10714   6.086   1.557   7.364 -0.1843  0.8671  0.0195
  106OSM   H15B10715   6.141   1.452   7.512 -0.1753  0.1211 -0.7601
  106OSM   H15C10716   6.109   1.388   7.353 -1.0840  0.6972 -1.4965
  106OSM    C1410717   6.319   1.623   7.450  0.3558 -0.8605  0.8385
  106OSM   H14A10718   6.418   1.659   7.426 -0.1918 -2.0255 -4.3699
  106OSM   H14B10719   6.328   1.576   7.547  0.8579 -3.2346 -0.2983
  106OSM   H14C10720   6.251   1.707   7.451  1.3233 -0.0529  0.6638
  106OSM    C1310721   6.372   1.396   7.401 -0.0797 -0.2064 -0.1953
  106OSM   H13A10722   6.475   1.419   7.377  0.6647  0.3104  2.9610
  106OSM   H13B10723   6.330   1.314   7.345 -1.6776 -0.3132  1.0899
  106OSM   H13C10724   6.366   1.380   7.508  0.2681  3.4689  0.5014
  106OSM    C1210725   6.296   1.549   7.219 -0.5234 -0.1524  0.1048
  106OSM   H12A10726   6.284   1.461   7.158  0.8878 -0.3044  0.0127
  106OSM   H12B10727   6.396   1.587   7.206  0.4222 -2.5850 -0.1422
  106OSM    C1110728   6.202   1.660   7.163 -0.6661  0.1803 -0.0855
  106OSM   H11A10729   6.101   1.616   7.149 -1.9075  3.0279 -0.6973
  106OSM   H11B10730   6.229   1.681   7.057  0.9629 -1.4182 -0.0526
  106OSM      P10731   6.086   1.880   7.253  0.5666  0.0421 -0.3924
  106OSM    O1310732   5.986   1.824   7.344 -0.4709 -0.7970  0.3541
  106OSM    O1410733   6.140   2.010   7.295 -0.1811 -0.4940 -0.0706
  106OSM    O1110734   6.029   1.895   7.106  0.1706  0.2362 -0.5438
  106OSM    O1210735   6.209   1.778   7.243  0.6408  0.3448 -0.0162
  106OSM    C1S10736   6.094   1.973   7.006 -0.1293 -0.1030  0.3617
  106OSM    H1S10737   6.203   1.973   7.028 -0.3666 -0.5061  1.5862
  106OSM    H1T10738   6.059   2.079   7.004  2.7772  0.9365 -0.1405
  106OSM     NF10739   6.162   1.966   6.761 -0.0127  0.1227  0.2759
  106OSM    HNF10740   6.118   2.042   6.714 -0.1086  0.4375  0.8731
  106OSM    C2S10741   6.079   1.907   6.863 -0.0642 -0.7000 -0.3283
  106OSM    H2S10742   6.113   1.802   6.875  2.0830  0.0740  1.0513
  106OSM    C3S10743   5.927   1.906   6.825  0.0878 -0.2751 -0.5433
  106OSM    H3S10744   5.891   2.009   6.805  1.8434  0.5404  0.2750
  106OSM     O310745   5.838   1.854   6.926 -0.5094 -0.6871  0.0368
  106OSM    HO310746   5.888   1.860   7.008 -0.8264 -0.5846  0.2240
  106OSM    C4S10747   5.905   1.840   6.688  0.5767 -0.0892 -0.3137
  106OSM    H4S10748   5.961   1.887   6.605 -0.2234 -0.2926 -0.9742
  106OSM    C5S10749   5.834   1.730   6.658  0.5752  0.4604  0.2580
  106OSM    H5S10750   5.784   1.675   6.740  1.1958 -0.7572 -0.1538
  106OSM    C6S10751   5.798   1.668   6.519  0.0339 -0.2033 -0.0769
  106OSM    H6S10752   5.718   1.593   6.536  0.1495  0.1336  2.1871
  106OSM    H6T10753   5.892   1.619   6.485 -0.2361  0.5605 -2.0891
  106OSM    C7S10754   5.777   1.784   6.422 -0.2106 -0.3031 -0.1582
  106OSM    H7S10755   5.871   1.844   6.421  0.2049 -0.7313  2.9736
  106OSM    H7T10756   5.691   1.850   6.446  2.0273  2.7308  0.0830
  106OSM    C8S10757   5.751   1.736   6.276 -0.2098 -0.2802  0.0207
  106OSM    H8S10758   5.714   1.817   6.209 -0.5786 -1.0050 -0.6697
  106OSM    H8T10759   5.674   1.656   6.286  2.5338 -3.0962 -0.0261
  106OSM    C9S10760   5.872   1.678   6.202 -0.4483  0.0944  0.5429
  106OSM    H9S10761   5.918   1.592   6.255  0.2522 -0.0004 -0.1936
  106OSM    H9T10762   5.942   1.763   6.192  0.9652 -1.0732  0.1828
  106OSM   C10S10763   5.814   1.620   6.069  0.3548 -0.2171  0.3117
  106OSM   H10S10764   5.758   1.703   6.022 -0.5704 -0.5796  0.7547
  106OSM   H10T10765   5.745   1.534   6.085  0.5038 -0.3954  0.0077
  106OSM   C11S10766   5.924   1.576   5.971  1.1140  0.0806 -0.0995
  106OSM   H11S10767   5.988   1.503   6.025  0.7139  0.4766  0.9219
  106OSM   H11T10768   5.981   1.669   5.950  0.5985  0.4971  0.3348
  106OSM   C12S10769   5.860   1.520   5.838 -0.7542  0.1265  0.9107
  106OSM   H12S10770   5.778   1.587   5.804 -0.7546 -1.7503 -3.4721
  106OSM   H12T10771   5.821   1.416   5.852 -2.1606  0.5672  0.4617
  106OSM   C13S10772   5.953   1.522   5.722 -0.8287 -0.3993 -0.0403
  106OSM   H13S10773   6.033   1.457   5.764 -2.1084 -1.2762  1.0944
  106OSM   H13T10774   5.990   1.627   5.710  1.0748 -1.0992 -0.8171
  106OSM   C14S10775   5.877   1.470   5.598 -0.4427 -0.7490  0.3110
  106OSM   H14S10776   5.807   1.554   5.583 -1.0053 -1.3814 -0.6626
  106OSM   H14T10777   5.825   1.373   5.615 -0.9087 -0.5138  0.2316
  106OSM   C15S10778   5.981   1.452   5.485 -0.1918  0.7484  0.0617
  106OSM   H15S10779   6.035   1.358   5.508  0.2539  0.8509 -0.5403
  106OSM   H15T10780   6.050   1.538   5.468  0.4191  0.4308  0.9052
  106OSM   C16S10781   5.909   1.433   5.348 -0.1123 -0.2083  0.7065
  106OSM   H16S10782   5.817   1.496   5.346  0.6993  1.0342  1.2473
  106OSM   H16T10783   5.866   1.333   5.331  0.7749 -0.6880  1.2136
  106OSM   C17S10784   5.994   1.483   5.233  0.3593  0.0315 -0.0839
  106OSM   H17S10785   6.025   1.588   5.253  1.4674  0.3245 -2.8513
  106OSM   H17T10786   5.936   1.487   5.138 -0.6782 -2.4697  0.3684
  106OSM   C18S10787   6.114   1.402   5.199 -0.0960  0.1592  0.1441
  106OSM   H18S10788   6.203   1.457   5.237  0.6274 -1.8256  1.4692
  106OSM   H18T10789   6.125   1.389   5.090 -0.6337 -0.4665  0.1635
  106OSM   H18U10790   6.117   1.302   5.247  2.6252  0.8195  1.5924
  106OSM    C1F10791   6.294   1.957   6.756  0.3881  1.0384 -0.2657
  106OSM     OF10792   6.352   1.900   6.848  0.0153 -0.0169  0.1631
  106OSM    C2F10793   6.361   2.036   6.648  0.2341  0.2344 -0.3915
  106OSM    H2F10794   6.372   2.141   6.683 -1.8779 -0.3993  2.4885
  106OSM    H2G10795   6.287   2.040   6.565 -0.4244  0.0517  0.1814
  106OSM    C3F10796   6.492   1.970   6.593 -0.1489 -0.1006  0.2263
  106OSM    H3F10797   6.473   1.864   6.568 -1.5651  0.2884 -0.4285
  106OSM    H3G10798   6.567   1.980   6.675 -0.3232 -0.0115  0.3780
  106OSM    C4F10799   6.541   2.031   6.460  0.7045  0.2054  0.0934
  106OSM    H4F10800   6.569   2.137   6.479  1.7457  0.1237 -0.8766
  106OSM    H4G10801   6.448   2.023   6.400 -1.2869 -1.6618  3.1605
  106OSM    C5F10802   6.661   1.961   6.395 -0.6916 -0.1124 -0.0372
  106OSM    H5F10803   6.626   1.858   6.372  2.8581 -1.1897 -1.2917
  106OSM    H5G10804   6.745   1.942   6.465  0.4263 -1.2128 -1.5933
  106OSM    C6F10805   6.706   2.023   6.259 -0.5107 -0.2707 -0.4733
  106OSM    H6F10806   6.762   2.116   6.283 -0.9743 -0.2870  0.7626
  106OSM    H6G10807   6.614   2.058   6.208 -0.7494 -2.4356 -1.6471
  106OSM    C7F10808   6.785   1.925   6.163  0.2691 -0.7354 -0.4789
  106OSM    H7F10809   6.726   1.832   6.151 -0.5672 -0.0894 -1.5877
  106OSM    H7G10810   6.880   1.899   6.214 -0.6546 -4.5072 -0.4306
  106OSM    C8F10811   6.824   1.984   6.023  0.1868 -0.3699  0.6202
  106OSM    H8F10812   6.902   2.063   6.026  0.5278 -0.6573 -0.3878
  106OSM    H8G10813   6.746   2.048   5.975  0.5502  0.0594  0.5978
  106OSM    C9F10814   6.862   1.869   5.938  0.1727 -0.2024  0.1847
  106OSM    H9F10815   6.923   1.791   5.988 -0.5015 -0.6653  0.2940
  106OSM   C10F10816   6.819   1.852   5.811  0.1359 -0.5882  0.6023
  106OSM   H10F10817   6.864   1.768   5.756 -0.1083  0.8625 -1.9532
  106OSM   C11F10818   6.744   1.951   5.723  0.2508  0.2052 -1.4808
  106OSM   H11F10819   6.744   2.043   5.784 -0.7518 -2.6874  3.3784
  106OSM   H11G10820   6.637   1.924   5.710 -0.2551  0.9543  0.7219
  106OSM   C12F10821   6.813   1.988   5.592 -0.0488 -0.6074 -0.2350
  106OSM   H12F10822   6.912   2.030   5.617  0.4267 -1.6102 -0.3992
  106OSM   H12G10823   6.749   2.061   5.539  0.4525 -0.8598 -1.1928
  106OSM   C13F10824   6.836   1.876   5.497 -0.2064 -0.4890  0.5833
  106OSM   H13F10825   6.742   1.823   5.471 -0.3150  0.8427 -2.0558
  106OSM   H13G10826   6.904   1.807   5.552  1.3712 -1.0729 -1.9411
  106OSM   C14F10827   6.910   1.935   5.374 -0.0838 -0.6613 -0.6839
  106OSM   H14F10828   7.018   1.933   5.399 -0.2430  2.1785  0.5686
  106OSM   H14G10829   6.877   2.037   5.346  0.1540  0.6465  3.2057
  106OSM   C15F10830   6.907   1.848   5.246  0.2930 -0.1534  0.4575
  106OSM   H15F10831   6.808   1.806   5.221  1.0795 -1.1915 -1.0517
  106OSM   H15G10832   6.978   1.763   5.256  1.0032  0.3304 -0.3795
  106OSM   C16F10833   6.956   1.930   5.118  0.1443  0.1676  0.1509
  106OSM   H16F10834   7.042   1.999   5.132  1.4479 -1.1441 -0.9767
  106OSM   H16G10835   6.880   2.005   5.090 -2.6371 -2.7238 -0.6443
  106OSM   C17F10836   6.999   1.856   4.987  0.2372  0.3098 -0.5070
  106OSM   H17F10837   7.041   1.933   4.918  3.7631  0.1207  1.2305
  106OSM   H17G10838   6.911   1.816   4.932  0.5821  0.9777 -1.5686
  106OSM   C18F10839   7.099   1.747   5.014 -0.5824 -0.4892 -0.4243
  106OSM   H18F10840   7.061   1.668   5.082 -2.3998 -0.2460 -1.0998
  106OSM   H18G10841   7.183   1.793   5.070  0.0221 -1.0771 -0.8234
  106OSM   H18H10842   7.134   1.716   4.913 -0.9790 -0.7364 -0.4862
  107OSM      N10843   2.615   5.141   7.988 -0.0864 -0.4728  0.5104
  107OSM    C1510844   2.646   5.003   8.037  0.3954 -0.0748 -0.5792
  107OSM   H15A10845   2.562   4.936   8.022  1.2660 -1.0360 -1.2565
  107OSM   H15B10846   2.691   5.007   8.135 -0.4732 -2.9928  0.0289
  107OSM   H15C10847   2.720   4.953   7.976 -1.6818 -2.7802 -1.0873
  107OSM    C1410848   2.482   5.180   8.040  0.1453  0.0231  0.4688
  107OSM   H14A10849   2.389   5.144   7.997 -0.3184 -0.0970  1.5159
  107OSM   H14B10850   2.489   5.287   8.028  2.5401 -0.1788 -0.2850
  107OSM   H14C10851   2.464   5.153   8.143 -2.6368 -0.6140 -0.0873
  107OSM    C1310852   2.714   5.232   8.040 -0.2686 -0.9605 -0.4363
  107OSM   H13A10853   2.686   5.266   8.139 -0.6762  1.1251 -1.2219
  107OSM   H13B10854   2.725   5.319   7.977  1.4965  1.4763  2.9291
  107OSM   H13C10855   2.812   5.188   8.045  0.1518  0.0145  0.3874
  107OSM    C1210856   2.616   5.133   7.835 -0.5453 -0.6736 -0.3786
  107OSM   H12A10857   2.556   5.215   7.797  1.4169  2.8562  3.4196
  107OSM   H12B10858   2.565   5.041   7.806 -1.3733 -0.5788  0.7254
  107OSM    C1110859   2.748   5.130   7.757 -0.3020  0.3540 -0.0990
  107OSM   H11A10860   2.813   5.045   7.785 -1.1248 -1.3994 -3.0941
  107OSM   H11B10861   2.806   5.224   7.771  2.2309 -0.9463 -1.2914
  107OSM      P10862   2.668   4.979   7.549  0.2174  0.6254 -0.1565
  107OSM    O1310863   2.787   4.889   7.530  0.3645 -0.1076 -0.0187
  107OSM    O1410864   2.564   4.912   7.628 -0.2273 -0.2688  0.2690
  107OSM    O1110865   2.592   5.017   7.415 -0.4951 -0.0463  0.0105
  107OSM    O1210866   2.714   5.113   7.616  0.0902 -0.8038  0.4047
  107OSM    C1S10867   2.643   5.110   7.322  0.1271 -0.2075  0.0873
  107OSM    H1S10868   2.752   5.132   7.323 -0.3260  2.7308 -2.2605
  107OSM    H1T10869   2.595   5.207   7.346  1.3662  0.3386  0.4518
  107OSM     NF10870   2.632   5.161   7.086 -0.2793  0.8083 -0.5145
  107OSM    HNF10871   2.558   5.216   7.047 -1.8130  0.8294  2.1756
  107OSM    C2S10872   2.592   5.064   7.181  0.5599 -0.1695 -0.3259
  107OSM    H2S10873   2.636   4.964   7.159 -2.7611 -1.4631 -1.6144
  107OSM    C3S10874   2.434   5.030   7.174 -0.8054  0.2056 -0.8496
  107OSM    H3S10875   2.401   5.134   7.194  3.0057  1.2399  0.9491
  107OSM     O310876   2.378   4.940   7.269  0.1721 -0.5351  0.6382
  107OSM    HO310877   2.436   4.933   7.346 -0.3584  0.4508  1.1575
  107OSM    C4S10878   2.401   4.995   7.035 -0.2717  0.1449  0.5838
  107OSM    H4S10879   2.481   4.935   6.989  1.3811  2.3089  0.4531
  107OSM    C5S10880   2.292   5.031   6.970  0.7681 -0.1157  0.0646
  107OSM    H5S10881   2.214   5.074   7.034 -0.3596 -1.5341 -0.2906
  107OSM    C6S10882   2.253   5.022   6.830 -0.2404  0.6184 -0.1597
  107OSM    H6S10883   2.299   5.105   6.772 -1.1171 -0.2440 -2.1932
  107OSM    H6T10884   2.146   5.040   6.809 -0.0649 -0.2122 -1.9335
  107OSM    C7S10885   2.308   4.893   6.760  0.5747  0.2146 -0.8435
  107OSM    H7S10886   2.285   4.799   6.815 -0.0989  0.7967 -0.1038
  107OSM    H7T10887   2.417   4.909   6.747  0.9817 -0.1493  1.6089
  107OSM    C8S10888   2.252   4.876   6.621  0.2144  0.6151 -0.6830
  107OSM    H8S10889   2.145   4.848   6.620  0.2874  0.3212 -1.4870
  107OSM    H8T10890   2.309   4.796   6.569  0.5074 -1.4981  2.5695
  107OSM    C9S10891   2.255   5.014   6.544 -0.8791 -0.4396 -0.7009
  107OSM    H9S10892   2.355   5.057   6.524 -0.2560 -1.0152  1.0304
  107OSM    H9T10893   2.204   5.100   6.592 -0.0985 -1.0443  1.3025
  107OSM   C10S10894   2.193   4.982   6.410  0.3977 -0.0254  0.4536
  107OSM   H10S10895   2.111   4.907   6.417  1.3731 -1.2783 -0.9676
  107OSM   H10T10896   2.268   4.923   6.355  1.0029  0.2902  0.9357
  107OSM   C11S10897   2.142   5.106   6.337 -0.0137 -0.0203  0.7864
  107OSM   H11S10898   2.230   5.171   6.359  1.8209 -2.0899 -0.1124
  107OSM   H11T10899   2.046   5.153   6.367 -0.8995 -2.3055  1.7259
  107OSM   C12S10900   2.144   5.098   6.181  0.1591 -0.2297 -0.7855
  107OSM   H12S10901   2.242   5.052   6.154  1.2280  0.2588  1.9910
  107OSM   H12T10902   2.139   5.203   6.146 -0.1762  0.6505  1.6975
  107OSM   C13S10903   2.019   5.035   6.133 -0.1746  0.1225 -0.0512
  107OSM   H13S10904   1.933   5.085   6.182 -0.4103 -0.4750  0.1408
  107OSM   H13T10905   2.019   4.926   6.154 -0.5113 -0.3083 -2.0080
  107OSM   C14S10906   1.980   5.047   5.991  0.4743  0.1385  0.2046
  107OSM   H14S10907   1.882   4.999   5.968  1.9211 -3.0794  0.2219
  107OSM   H14T10908   2.058   4.996   5.931  1.2748  1.1436  0.3747
  107OSM   C15S10909   1.976   5.188   5.916 -0.0237 -0.0090 -0.8462
  107OSM   H15S10910   2.063   5.247   5.951 -0.7319  0.5620 -0.0031
  107OSM   H15T10911   1.884   5.242   5.947 -0.1675 -0.8329  0.2428
  107OSM   C16S10912   1.969   5.184   5.766 -0.3339 -0.2530  0.7878
  107OSM   H16S10913   2.064   5.132   5.740 -0.0179  0.0669  1.2901
  107OSM   H16T10914   1.978   5.286   5.723  0.0796 -0.8112 -0.4851
  107OSM   C17S10915   1.851   5.117   5.699 -0.0507 -0.3579 -0.1636
  107OSM   H17S10916   1.757   5.170   5.722  0.4033 -0.4078  1.9962
  107OSM   H17T10917   1.847   5.013   5.737 -0.1101 -0.6149 -0.8615
  107OSM   C18S10918   1.861   5.113   5.543 -0.5480  0.1704 -0.2572
  107OSM   H18S10919   1.782   5.042   5.508 -1.9565  1.1402  0.8340
  107OSM   H18T10920   1.964   5.082   5.517 -0.9847 -0.4365 -1.3527
  107OSM   H18U10921   1.840   5.216   5.506  0.4996  1.6948  3.0726
  107OSM    C1F10922   2.756   5.191   7.039 -0.0198 -0.4894  0.7763
  107OSM     OF10923   2.854   5.123   7.073 -0.0191  0.2732 -0.0356
  107OSM    C2F10924   2.759   5.303   6.936  0.2528 -0.5259 -0.5482
  107OSM    H2F10925   2.811   5.383   6.993  2.3471 -2.6548  0.7076
  107OSM    H2G10926   2.660   5.342   6.904  1.0746  1.0374 -1.2798
  107OSM    C3F10927   2.825   5.272   6.799  0.1546 -0.1594 -0.7907
  107OSM    H3F10928   2.933   5.256   6.822  0.4358  1.7743 -0.6639
  107OSM    H3G10929   2.817   5.364   6.738 -0.6174  0.3218  0.0118
  107OSM    C4F10930   2.781   5.147   6.718  0.2651 -0.0390 -1.0355
  107OSM    H4F10931   2.781   5.056   6.782  0.7714 -1.2760 -2.7180
  107OSM    H4G10932   2.850   5.124   6.634  0.4955  1.7478 -1.3722
  107OSM    C5F10933   2.644   5.160   6.644 -0.5705  0.3170 -0.4708
  107OSM    H5F10934   2.570   5.191   6.721 -2.3305 -0.8423 -1.6393
  107OSM    H5G10935   2.608   5.062   6.607  1.4736 -0.4684 -0.5046
  107OSM    C6F10936   2.674   5.244   6.520 -0.4096 -0.1853 -0.8022
  107OSM    H6F10937   2.737   5.182   6.452 -1.6099 -0.9757 -1.2296
  107OSM    H6G10938   2.714   5.345   6.541 -1.1725  0.3882 -1.9952
  107OSM    C7F10939   2.550   5.266   6.431 -0.5986 -0.0673 -0.1727
  107OSM    H7F10940   2.485   5.329   6.494 -1.1097 -2.0912  1.4513
  107OSM    H7G10941   2.489   5.173   6.420  0.5131 -0.7906 -0.4488
  107OSM    C8F10942   2.570   5.340   6.301 -0.4672  0.1693  0.4086
  107OSM    H8F10943   2.615   5.439   6.323 -2.0713  1.4492 -1.7191
  107OSM    H8G10944   2.467   5.346   6.262 -0.0552 -0.4381 -0.8205
  107OSM    C9F10945   2.659   5.260   6.205  0.1245 -0.4349 -0.0855
  107OSM    H9F10946   2.768   5.275   6.209 -0.0840  1.1023  0.6016
  107OSM   C10F10947   2.624   5.198   6.100  0.1304 -0.6190 -0.3395
  107OSM   H10F10948   2.704   5.139   6.051  0.7748 -2.0426  2.2682
  107OSM   C11F10949   2.482   5.184   6.051 -0.7930 -0.2570  0.4477
  107OSM   H11F10950   2.408   5.157   6.129 -1.6871  0.5453 -0.0987
  107OSM   H11G10951   2.487   5.102   5.976 -0.3422  0.9118 -0.8436
  107OSM   C12F10952   2.411   5.307   5.989 -0.0278  0.8145  0.2201
  107OSM   H12F10953   2.427   5.397   6.052  0.5742  0.1460  1.0484
  107OSM   H12G10954   2.303   5.282   5.991 -0.0812  0.9221 -0.8969
  107OSM   C13F10955   2.449   5.312   5.837  0.5750 -0.4080 -0.8194
  107OSM   H13F10956   2.549   5.263   5.841  0.7610  0.0177 -0.1701
  107OSM   H13G10957   2.456   5.420   5.810  0.3762 -0.4110 -0.8867
  107OSM   C14F10958   2.347   5.252   5.740  0.0632  0.0381 -0.4609
  107OSM   H14F10959   2.248   5.301   5.750  0.4834  1.2680 -1.9785
  107OSM   H14G10960   2.326   5.145   5.764 -1.3495  0.0672 -1.4252
  107OSM   C15F10961   2.380   5.273   5.591 -0.0300  0.3780  0.3668
  107OSM   H15F10962   2.486   5.244   5.575 -0.2573  1.0802 -3.7040
  107OSM   H15G10963   2.374   5.382   5.572 -0.4679  0.2655 -0.1827
  107OSM   C16F10964   2.287   5.200   5.492 -0.3606 -0.6035  0.5381
  107OSM   H16F10965   2.288   5.252   5.394  1.9450 -1.3663  0.0865
  107OSM   H16G10966   2.185   5.217   5.532 -0.3976 -0.4695  0.3859
  107OSM   C17F10967   2.317   5.049   5.484 -0.4254  0.8707  0.1695
  107OSM   H17F10968   2.246   5.004   5.412 -2.0286  2.5390  0.6288
  107OSM   H17G10969   2.284   5.000   5.578  0.2907  2.6839  1.4327
  107OSM   C18F10970   2.454   5.002   5.452 -0.4473  0.1610 -0.0130
  107OSM   H18F10971   2.503   4.955   5.540 -2.6731 -2.2604  0.0587
  107OSM   H18G10972   2.528   5.071   5.405  0.8975 -0.0935  1.6566
  107OSM   H18H10973   2.457   4.906   5.396  2.0465 -0.4119  0.9686
  108OSM      N10974   3.980   0.361   7.434  0.5747  0.3387 -0.5370
  108OSM    C1510975   4.031   0.493   7.470  0.4132  0.2870  0.5512
  108OSM   H15A10976   3.993   0.578   7.415  2.3111  2.9517  3.0512
  108OSM   H15B10977   4.138   0.505   7.458  0.0000  2.7184 -1.8512
  108OSM   H15C10978   4.007   0.516   7.572 -0.8173  0.7065  0.1787
  108OSM    C1410979   3.843   0.335   7.486  0.1464 -0.7426  0.6012
  108OSM   H14A10980   3.780   0.410   7.440  2.0112  1.0240  0.7961
  108OSM   H14B10981   3.845   0.361   7.590 -0.3514 -2.0950  0.9680
  108OSM   H14C10982   3.822   0.231   7.466 -0.6056 -0.1982 -1.8691
  108OSM    C1310983   3.975   0.334   7.284 -0.1321 -0.0895  0.3963
  108OSM   H13A10984   4.068   0.364   7.236 -0.2120 -2.7991 -1.7238
  108OSM   H13B10985   3.898   0.399   7.246  1.7380  3.4734  2.1853
  108OSM   H13C10986   3.960   0.231   7.256 -0.0234 -0.3842  1.4068
  108OSM    C1210987   4.070   0.261   7.500 -0.2468  0.7038 -1.0403
  108OSM   H12A10988   4.031   0.162   7.480  1.5635 -0.0334 -1.1150
  108OSM   H12B10989   4.084   0.268   7.607  0.7528 -0.7286 -1.0538
  108OSM    C1110990   4.222   0.247   7.449  0.2268  0.1435 -0.1705
  108OSM   H11A10991   4.283   0.180   7.513  2.6451  3.4293  1.3001
  108OSM   H11B10992   4.269   0.344   7.478 -0.1358  0.1989  0.2453
  108OSM      P10993   4.211   0.062   7.282  0.3304 -0.1234  0.2414
  108OSM    O1310994   4.326  -0.014   7.335 -0.3514  0.3477 -0.4842
  108OSM    O1410995   4.078   0.008   7.319  0.6976 -0.4783 -0.9087
  108OSM    O1110996   4.218   0.059   7.125 -0.1566  0.3301 -0.2940
  108OSM    O1210997   4.236   0.217   7.314 -0.0756  0.3059  0.5829
  108OSM    C1S10998   4.341   0.104   7.063 -0.3632  0.1552  0.6128
  108OSM    H1S10999   4.417   0.026   7.088  0.5659 -0.0100 -2.3870
  108OSM    H1T11000   4.376   0.206   7.086 -2.7685  1.5022 -1.2219
  108OSM     NF11001   4.466   0.120   6.868 -0.4382 -0.0281 -0.1236
  108OSM    HNF11002   4.493   0.214   6.850  3.7925 -0.7090  1.6619
  108OSM    C2S11003   4.331   0.106   6.912  0.7642 -0.3782 -0.4741
  108OSM    H2S11004   4.297   0.007   6.875  0.7068 -0.1141 -1.1543
  108OSM    C3S11005   4.234   0.210   6.857 -0.3059 -0.5116  0.4214
  108OSM    H3S11006   4.274   0.313   6.873 -0.7335 -0.2310 -0.2708
  108OSM     O311007   4.111   0.218   6.924 -0.8333  0.4107 -0.0192
  108OSM    HO311008   4.125   0.171   7.007  2.4117 -0.6954 -1.0194
  108OSM    C4S11009   4.217   0.188   6.709  0.0922  0.5032 -0.7154
  108OSM    H4S11010   4.162   0.095   6.688 -2.0537  1.0614  1.8477
  108OSM    C5S11011   4.251   0.266   6.606  0.6133  0.0254  0.2510
  108OSM    H5S11012   4.303   0.361   6.628  1.3039 -0.7146  1.9834
  108OSM    C6S11013   4.234   0.217   6.465 -0.4776  0.2561 -0.1990
  108OSM    H6S11014   4.167   0.288   6.413 -0.6276 -0.4668 -1.0115
  108OSM    H6T11015   4.177   0.122   6.454 -0.1384  0.1320 -0.9070
  108OSM    C7S11016   4.370   0.202   6.398  0.3116  0.9047  0.1221
  108OSM    H7S11017   4.431   0.142   6.468 -0.0048 -1.8292 -1.8078
  108OSM    H7T11018   4.417   0.300   6.374  3.0100 -0.6974 -1.5377
  108OSM    C8S11019   4.379   0.112   6.272  0.7740 -0.4152  0.3628
  108OSM    H8S11020   4.366   0.005   6.300 -0.9819 -0.1964  0.5018
  108OSM    H8T11021   4.486   0.123   6.244  0.8687 -1.1798  0.4091
  108OSM    C9S11022   4.296   0.161   6.156  0.0023  0.5915 -0.1846
  108OSM    H9S11023   4.316   0.269   6.140  0.8110  0.4448 -0.2055
  108OSM    H9T11024   4.187   0.148   6.174  0.2557 -0.3030  0.7882
  108OSM   C10S11025   4.324   0.088   6.022 -0.3918 -0.3321 -0.0664
  108OSM   H10S11026   4.291  -0.018   6.029 -1.0058 -0.1347  0.1253
  108OSM   H10T11027   4.429   0.058   6.004  0.2704  2.8178 -2.3950
  108OSM   C11S11028   4.278   0.163   5.892  0.1909  0.4434  0.0177
  108OSM   H11S11029   4.312   0.268   5.907 -0.1489  0.9926 -2.4692
  108OSM   H11T11030   4.168   0.144   5.889  0.3645 -0.5498 -0.4289
  108OSM   C12S11031   4.325   0.102   5.759  0.2684 -0.3625 -0.6006
  108OSM   H12S11032   4.285  -0.001   5.743  0.2121 -0.3006 -0.8686
  108OSM   H12T11033   4.435   0.096   5.769  0.5287  0.9241 -2.1587
  108OSM   C13S11034   4.289   0.181   5.638  0.6009  0.3673  0.2913
  108OSM   H13S11035   4.358   0.268   5.636 -0.9342  1.6123 -0.4441
  108OSM   H13T11036   4.184   0.214   5.627  0.8211  0.3590 -2.7357
  108OSM   C14S11037   4.308   0.099   5.503 -0.2328 -1.1459  0.6943
  108OSM   H14S11038   4.264  -0.001   5.520 -2.7864 -0.7913 -2.8269
  108OSM   H14T11039   4.419   0.099   5.494 -0.2026  2.1316 -0.0893
  108OSM   C15S11040   4.253   0.162   5.371 -0.0736  0.0740  0.6384
  108OSM   H15S11041   4.309   0.258   5.369 -0.4049  0.2654 -0.6910
  108OSM   H15T11042   4.147   0.196   5.372 -0.6762 -1.3213 -2.6045
  108OSM   C16S11043   4.301   0.079   5.250 -0.5001 -0.0712  0.0358
  108OSM   H16S11044   4.242  -0.015   5.259 -0.0269 -0.2568  1.4899
  108OSM   H16T11045   4.408   0.050   5.257 -0.5305 -0.5869 -1.3192
  108OSM   C17S11046   4.269   0.141   5.115  0.8715 -1.1722 -0.4429
  108OSM   H17S11047   4.289   0.071   5.031 -0.7213 -0.4271 -1.5054
  108OSM   H17T11048   4.338   0.226   5.096 -0.0193 -0.6071 -1.2333
  108OSM   C18S11049   4.136   0.199   5.103 -0.0148 -0.5632  0.0649
  108OSM   H18S11050   4.123   0.231   4.997  1.4285 -1.5244 -0.4515
  108OSM   H18T11051   4.137   0.291   5.164  0.8824 -0.6587  0.2194
  108OSM   H18U11052   4.053   0.129   5.125 -0.8363 -0.9603 -3.5890
  108OSM    C1F11053   4.555   0.022   6.875  0.4044 -0.3515 -0.1836
  108OSM     OF11054   4.510  -0.090   6.895  0.0168 -0.1350 -0.4683
  108OSM    C2F11055   4.700   0.045   6.856 -0.0984 -0.7028 -0.3033
  108OSM    H2F11056   4.751   0.007   6.947  1.3474  1.0829 -0.3013
  108OSM    H2G11057   4.729   0.152   6.844 -0.6290 -0.4694  0.4025
  108OSM    C3F11058   4.770  -0.031   6.735 -0.7839 -0.2342 -0.2716
  108OSM    H3F11059   4.757  -0.140   6.752 -1.3349  0.0488  1.3165
  108OSM    H3G11060   4.876   0.001   6.735 -0.9167  0.2583  0.8271
  108OSM    C4F11061   4.713   0.010   6.607  0.0899 -0.7218  0.1887
  108OSM    H4F11062   4.718   0.119   6.584 -0.9583 -0.6479  0.2804
  108OSM    H4G11063   4.606  -0.021   6.603  0.4223 -2.1382  1.5044
  108OSM    C5F11064   4.787  -0.064   6.493  0.7873 -0.4729 -0.2282
  108OSM    H5F11065   4.762  -0.170   6.514 -0.7688 -0.1164 -0.1675
  108OSM    H5G11066   4.897  -0.050   6.508  0.6332 -0.7379  1.3738
  108OSM    C6F11067   4.750  -0.015   6.355  0.7168  0.2491 -0.8957
  108OSM    H6F11068   4.792   0.085   6.332  2.0315 -0.5871 -2.3007
  108OSM    H6G11069   4.639  -0.019   6.342  0.7802 -0.5834 -1.2708
  108OSM    C7F11070   4.814  -0.104   6.243  0.4103 -0.7011  0.2035
  108OSM    H7F11071   4.820  -0.208   6.282 -0.0535 -0.6667  0.3779
  108OSM    H7G11072   4.918  -0.068   6.226  0.0528  0.2774 -0.0162
  108OSM    C8F11073   4.738  -0.108   6.108  0.4700 -0.5976 -0.1502
  108OSM    H8F11074   4.635  -0.146   6.125  0.0401  1.0716  1.2146
  108OSM    H8G11075   4.777  -0.185   6.038 -2.8919 -0.1189 -2.8071
  108OSM    C9F11076   4.738   0.026   6.033  0.0728  0.4873  0.7155
  108OSM    H9F11077   4.670   0.103   6.071 -1.8533 -0.3567 -0.8593
  108OSM   C10F11078   4.781   0.042   5.902 -0.0688  0.0547 -0.0837
  108OSM   H10F11079   4.784   0.142   5.857  0.3974 -0.9136 -2.3603
  108OSM   C11F11080   4.848  -0.062   5.812 -0.8851 -0.4834 -0.0119
  108OSM   H11F11081   4.787  -0.155   5.820  0.1763 -1.1516  0.5672
  108OSM   H11G11082   4.950  -0.084   5.850 -0.1857  0.8927 -1.0103
  108OSM   C12F11083   4.856  -0.019   5.666  0.0124 -0.1981  0.2023
  108OSM   H12F11084   4.889  -0.100   5.597 -0.4961 -1.2765  1.2071
  108OSM   H12G11085   4.924   0.068   5.656 -0.7412  0.3138 -0.5876
  108OSM   C13F11086   4.728   0.031   5.604  0.1741  0.0693  0.0743
  108OSM   H13F11087   4.671   0.094   5.676  0.3172 -0.1036  0.3398
  108OSM   H13G11088   4.654  -0.050   5.586 -0.6072  1.1213 -1.7898
  108OSM   C14F11089   4.743   0.101   5.466  0.0475 -0.0062 -0.3588
  108OSM   H14F11090   4.837   0.160   5.457  1.9969 -2.8322 -0.0581
  108OSM   H14G11091   4.658   0.172   5.472 -0.4965 -0.7209  0.6512
  108OSM   C15F11092   4.726  -0.001   5.347  0.2843  0.3280 -0.2202
  108OSM   H15F11093   4.636  -0.058   5.377 -1.0913  2.1185 -0.7990
  108OSM   H15G11094   4.816  -0.066   5.352 -0.6216 -1.0062 -0.5888
  108OSM   C16F11095   4.724   0.057   5.203  0.4897  0.4970  0.4819
  108OSM   H16F11096   4.830   0.071   5.172  0.2029 -1.2612 -1.5898
  108OSM   H16G11097   4.667   0.152   5.200 -1.3316 -0.5789 -0.8155
  108OSM   C17F11098   4.666  -0.053   5.102 -0.5897 -0.9090  0.1641
  108OSM   H17F11099   4.568  -0.089   5.141 -1.3625 -0.2173 -1.0789
  108OSM   H17G11100   4.730  -0.143   5.094  2.0372  0.8221  0.3924
  108OSM   C18F11101   4.660  -0.001   4.956 -0.0316 -0.0258 -0.1780
  108OSM   H18F11102   4.763   0.027   4.927 -0.0346  0.6024  0.3929
  108OSM   H18G11103   4.592   0.086   4.950  0.9169  0.7573  0.1747
  108OSM   H18H11104   4.627  -0.081   4.887 -1.4939  1.3527 -1.1419
  109OSM      N11105   5.798   2.183   7.315 -0.2443  0.3507  0.3488
  109OSM    C1511106   5.704   2.300   7.331 -0.8143 -0.3044  0.0193
  109OSM   H15A11107   5.753   2.392   7.359 -1.4546 -0.0947  0.4484
  109OSM   H15B11108   5.638   2.277   7.413  1.0291  0.6765  1.8815
  109OSM   H15C11109   5.640   2.309   7.245 -0.8948  3.3313  0.3109
  109OSM    C1411110   5.930   2.198   7.397  0.1510  0.0903 -0.4453
  109OSM   H14A11111   5.987   2.289   7.381 -1.3932  1.7226  2.3429
  109OSM   H14B11112   5.990   2.112   7.372 -3.2719 -2.2642 -1.2583
  109OSM   H14C11113   5.919   2.211   7.504  1.1969 -0.8775 -0.1940
  109OSM    C1311114   5.734   2.059   7.358  0.5625 -0.1146 -0.1416
  109OSM   H13A11115   5.788   1.973   7.321 -1.4411 -1.3566 -0.3400
  109OSM   H13B11116   5.634   2.040   7.321  0.7940  1.3840 -1.6621
  109OSM   H13C11117   5.715   2.061   7.464  0.8166 -0.2703 -0.0931
  109OSM    C1211118   5.844   2.173   7.169  0.3738 -0.4809 -0.7145
  109OSM   H12A11119   5.927   2.105   7.171  1.2678  0.5844 -0.7801
  109OSM   H12B11120   5.889   2.269   7.147 -1.1299  0.3072 -0.5019
  109OSM    C1111121   5.744   2.140   7.059 -1.1206  0.4871  0.1531
  109OSM   H11A11122   5.692   2.045   7.083 -0.5474  0.2081  0.3057
  109OSM   H11B11123   5.791   2.119   6.961 -2.4407 -1.6498 -0.0873
  109OSM      P11124   5.501   2.227   7.023 -0.2749 -0.0638 -0.0447
  109OSM    O1311125   5.454   2.153   7.141  0.0039 -0.3789 -1.0979
  109OSM    O1411126   5.430   2.354   6.982  0.5636 -0.2093 -0.4709
  109OSM    O1111127   5.500   2.118   6.904  0.2995 -0.4797 -0.3155
  109OSM    O1211128   5.653   2.253   7.047  0.0926 -0.2060 -0.3164
  109OSM    C1S11129   5.440   2.148   6.778  0.4315  0.3910  0.5175
  109OSM    H1S11130   5.490   2.226   6.716 -0.0233 -1.1470 -1.9171
  109OSM    H1T11131   5.332   2.170   6.794  0.3565  1.2029 -0.9133
  109OSM     NF11132   5.391   2.027   6.558 -0.3349 -0.5997 -0.0143
  109OSM    HNF11133   5.299   1.997   6.535 -1.6161  2.0128  1.2639
  109OSM    C2S11134   5.442   2.008   6.700  0.3139  0.2663  0.1491
  109OSM    H2S11135   5.547   1.971   6.690  0.1813 -0.2420  0.5907
  109OSM    C3S11136   5.374   1.899   6.789 -0.1403  0.2582  0.2846
  109OSM    H3S11137   5.267   1.925   6.800  0.5359  4.5476 -1.2812
  109OSM     O311138   5.413   1.880   6.927 -0.2776 -0.5273 -0.1661
  109OSM    HO311139   5.473   1.954   6.935  2.0744 -2.0725 -2.0068
  109OSM    C4S11140   5.391   1.759   6.729 -0.0327  0.1289  0.2052
  109OSM    H4S11141   5.499   1.738   6.721 -0.3212 -2.3281  1.8044
  109OSM    C5S11142   5.305   1.676   6.666  0.2763 -0.1488 -0.5636
  109OSM    H5S11143   5.199   1.703   6.649  0.9039  1.5451 -2.1398
  109OSM    C6S11144   5.354   1.564   6.571 -0.0503  0.2524  0.3984
  109OSM    H6S11145   5.283   1.479   6.578  0.8239 -0.6050 -0.5309
  109OSM    H6T11146   5.452   1.521   6.603  0.2409  0.2993 -0.3975
  109OSM    C7S11147   5.356   1.623   6.425 -0.3866 -0.6159 -0.2338
  109OSM    H7S11148   5.433   1.703   6.418  0.0721 -0.7300  2.5895
  109OSM    H7T11149   5.256   1.663   6.400 -1.2011 -1.9203  0.8517
  109OSM    C8S11150   5.384   1.516   6.318  0.9543 -0.2182 -0.5113
  109OSM    H8S11151   5.312   1.431   6.326  0.2817  0.1112 -2.5199
  109OSM    H8T11152   5.482   1.472   6.344 -0.5633 -2.3719  2.2580
  109OSM    C9S11153   5.380   1.577   6.177 -0.2041  0.3841  0.0899
  109OSM    H9S11154   5.440   1.670   6.169 -2.2662  1.8498  0.9292
  109OSM    H9T11155   5.272   1.600   6.163  0.0063  1.5962  0.3952
  109OSM   C10S11156   5.420   1.480   6.063 -0.0683  0.3154 -0.0501
  109OSM   H10S11157   5.346   1.397   6.070  0.6645 -0.2971  0.6697
  109OSM   H10T11158   5.521   1.441   6.086 -0.5186  0.0638  1.6548
  109OSM   C11S11159   5.424   1.536   5.923  0.2164 -0.4246  1.0018
  109OSM   H11S11160   5.513   1.602   5.916  0.4028 -0.5990  1.7043
  109OSM   H11T11161   5.335   1.598   5.898  0.5198 -1.0052 -1.8795
  109OSM   C12S11162   5.436   1.419   5.819  0.3546 -0.2970 -0.1623
  109OSM   H12S11163   5.366   1.338   5.847 -1.0382  0.6044 -0.8913
  109OSM   H12T11164   5.537   1.376   5.831  0.4220  0.3725  2.1058
  109OSM   C13S11165   5.416   1.457   5.673  0.4473  0.2576 -0.4759
  109OSM   H13S11166   5.492   1.538   5.663  3.8890 -2.8363 -1.7702
  109OSM   H13T11167   5.316   1.501   5.657  0.3137 -0.5825 -2.2385
  109OSM   C14S11168   5.459   1.364   5.554 -0.4921 -0.9226 -0.1745
  109OSM   H14S11169   5.392   1.275   5.555  0.6268 -1.7941 -0.6248
  109OSM   H14T11170   5.560   1.335   5.590 -0.8185 -2.7520 -0.6240
  109OSM   C15S11171   5.458   1.437   5.418  0.1409  0.2648 -0.4812
  109OSM   H15S11172   5.515   1.532   5.429 -0.4829  0.4925  1.1555
  109OSM   H15T11173   5.356   1.475   5.398  1.6310  4.1129 -1.7770
  109OSM   C16S11174   5.512   1.351   5.301  0.3111  0.6665  0.4718
  109OSM   H16S11175   5.607   1.306   5.337  0.2911 -0.0778 -0.3565
  109OSM   H16T11176   5.537   1.428   5.226 -0.2842  0.9047  0.5156
  109OSM   C17S11177   5.428   1.235   5.259 -0.1246 -0.1237 -0.4956
  109OSM   H17S11178   5.323   1.269   5.250 -0.9374 -2.6527 -1.5276
  109OSM   H17T11179   5.425   1.150   5.330  0.4431 -0.9428 -1.4308
  109OSM   C18S11180   5.478   1.170   5.134 -0.2292 -0.0405  0.0309
  109OSM   H18S11181   5.478   1.236   5.044  0.0936  1.5664  1.1507
  109OSM   H18T11182   5.418   1.083   5.102  0.0303  0.2867 -1.4184
  109OSM   H18U11183   5.586   1.151   5.148 -0.2445  0.3571  0.7442
  109OSM    C1F11184   5.460   2.083   6.455  0.2541  0.1186 -0.5585
  109OSM     OF11185   5.580   2.109   6.467 -0.0925  0.7122  0.4199
  109OSM    C2F11186   5.390   2.103   6.326 -0.5421 -0.0749  0.4278
  109OSM    H2F11187   5.407   2.210   6.298 -0.7165  0.0840  0.9333
  109OSM    H2G11188   5.280   2.089   6.329 -0.5383  0.1094  3.1596
  109OSM    C3F11189   5.451   2.012   6.216 -0.7039 -0.3860  0.0637
  109OSM    H3F11190   5.446   1.905   6.246  3.7538 -0.2177  2.2555
  109OSM    H3G11191   5.560   2.033   6.205 -0.8874  0.9665  0.6534
  109OSM    C4F11192   5.404   2.025   6.072 -0.5054  0.1493  0.4433
  109OSM    H4F11193   5.444   2.111   6.013 -2.8145 -0.0626 -1.5987
  109OSM    H4G11194   5.294   2.041   6.063 -0.0343  2.9132 -2.5907
  109OSM    C5F11195   5.427   1.899   5.988  0.0842 -0.3861  0.0018
  109OSM    H5F11196   5.368   1.814   6.025 -1.7427  0.1516 -1.5101
  109OSM    H5G11197   5.535   1.873   5.997 -0.0161 -0.7476  0.1488
  109OSM    C6F11198   5.401   1.911   5.834 -0.9084  0.3530  0.0062
  109OSM    H6F11199   5.293   1.934   5.825 -1.6927 -2.4311  1.4566
  109OSM    H6G11200   5.417   1.822   5.771 -3.5759  0.9367 -1.6509
  109OSM    C7F11201   5.483   2.017   5.759  0.4418 -0.6048  0.4535
  109OSM    H7F11202   5.586   1.980   5.738  1.0061  0.4117  1.3113
  109OSM    H7G11203   5.481   2.117   5.808 -2.5176 -0.5474  0.3610
  109OSM    C8F11204   5.416   2.041   5.622  0.3416 -0.8266  0.6487
  109OSM    H8F11205   5.331   2.104   5.656 -0.4276 -1.8261  0.6135
  109OSM    H8G11206   5.387   1.941   5.584 -0.5104 -0.1520 -0.5399
  109OSM    C9F11207   5.521   2.109   5.527 -0.1994  0.1107 -0.5664
  109OSM    H9F11208   5.509   2.219   5.523 -0.4670  0.0987 -0.1821
  109OSM   C10F11209   5.607   2.044   5.447 -0.6833 -0.3197 -0.9747
  109OSM   H10F11210   5.674   2.110   5.390  0.0610 -0.0221  0.2098
  109OSM   C11F11211   5.628   1.893   5.444  0.9371  0.0789  0.6398
  109OSM   H11F11212   5.538   1.840   5.406  1.0829  1.0327 -1.1618
  109OSM   H11G11213   5.641   1.852   5.546  1.4613 -3.5055 -0.7418
  109OSM   C12F11214   5.756   1.855   5.375  0.0836  0.8235 -0.2420
  109OSM   H12F11215   5.763   1.744   5.382 -0.7760  0.8295  1.1057
  109OSM   H12G11216   5.846   1.894   5.427  0.0382  0.2226  0.3076
  109OSM   C13F11217   5.756   1.901   5.231  0.2962  0.2405  0.2893
  109OSM   H13F11218   5.781   2.008   5.241 -0.0769  0.1896  1.9687
  109OSM   H13G11219   5.657   1.891   5.183 -0.4739  1.7412  1.4963
  109OSM   C14F11220   5.855   1.808   5.155  0.8492 -0.2886  0.3189
  109OSM   H14F11221   5.811   1.708   5.133  0.8786 -0.1048 -0.6343
  109OSM   H14G11222   5.937   1.786   5.227 -1.0107 -1.6052  2.1766
  109OSM   C15F11223   5.893   1.867   5.021  0.2250 -0.6965 -0.0902
  109OSM   H15F11224   5.963   1.952   5.037  1.9679 -1.7602 -1.6498
  109OSM   H15G11225   5.808   1.908   4.963  0.4550  0.8091  0.5817
  109OSM   C16F11226   5.948   1.756   4.929  0.0142  0.3138 -0.4550
  109OSM   H16F11227   5.872   1.682   4.897 -0.2507 -0.0296  0.9151
  109OSM   H16G11228   6.027   1.698   4.982  1.5623  0.9799 -1.9149
  109OSM   C17F11229   6.003   1.801   4.796 -0.2267 -0.7552 -0.0678
  109OSM   H17F11230   6.088   1.870   4.815  0.1415 -1.4525  0.9086
  109OSM   H17G11231   5.926   1.858   4.740  0.9374 -1.7621 -2.8938
  109OSM   C18F11232   6.043   1.680   4.715  0.4212  0.3341 -0.1006
  109OSM   H18F11233   6.106   1.604   4.766  0.4766 -0.3107 -1.1075
  109OSM   H18G11234   6.099   1.717   4.626 -0.1378 -1.7054 -1.3641
  109OSM   H18H11235   5.952   1.624   4.684 -0.4841  1.4327  0.4814
  110OSM      N11236   3.767   5.931   7.574 -0.3949 -0.2912  0.6622
  110OSM    C1511237   3.886   5.862   7.635 -0.1749 -0.9348 -0.5897
  110OSM   H15A11238   3.956   5.853   7.553 -3.6733 -0.7104 -3.8650
  110OSM   H15B11239   3.859   5.761   7.659 -1.0450 -1.0553 -1.9670
  110OSM   H15C11240   3.921   5.910   7.725 -2.3931  1.0462 -0.6928
  110OSM    C1411241   3.656   5.930   7.675 -0.0281 -0.2524 -0.4587
  110OSM   H14A11242   3.643   5.830   7.712 -2.1009  1.0902  2.8358
  110OSM   H14B11243   3.565   5.965   7.630  0.7729  1.6951 -0.6685
  110OSM   H14C11244   3.686   6.001   7.750 -1.0644  0.2731 -0.5241
  110OSM    C1311245   3.804   6.077   7.557 -0.4804 -0.5916  0.4816
  110OSM   H13A11246   3.845   6.114   7.649  1.1051 -2.0257  0.4084
  110OSM   H13B11247   3.726   6.140   7.517 -0.5901 -0.2019  1.2973
  110OSM   H13C11248   3.889   6.076   7.490 -0.9716  2.1557 -0.2774
  110OSM    C1211249   3.730   5.866   7.445 -0.1746  0.3306 -0.2704
  110OSM   H12A11250   3.688   5.768   7.461  0.9979 -0.1478 -0.0234
  110OSM   H12B11251   3.820   5.846   7.389  1.2408  2.0982  1.2101
  110OSM    C1111252   3.622   5.939   7.348  0.2542  0.7852 -0.6719
  110OSM   H11A11253   3.605   5.864   7.268  1.0465 -1.2944  0.9979
  110OSM   H11B11254   3.675   6.030   7.313 -0.1655 -0.2445 -4.4094
  110OSM      P11255   3.405   6.085   7.369  0.3459 -0.1186 -0.3129
  110OSM    O1311256   3.267   6.051   7.404  0.4309  0.1436  0.1442
  110OSM    O1411257   3.454   6.204   7.436 -0.2249  0.1767  0.1486
  110OSM    O1111258   3.411   6.101   7.213 -0.0653  0.1361  0.2179
  110OSM    O1211259   3.499   5.970   7.409  0.4763  0.3513 -0.0666
  110OSM    C1S11260   3.375   6.000   7.123  0.1050  0.4358 -0.1801
  110OSM    H1S11261   3.264   5.988   7.118 -0.2810  2.4300  1.7793
  110OSM    H1T11262   3.407   5.896   7.149 -0.6346 -0.1866 -1.6237
  110OSM     NF11263   3.396   5.907   6.897 -0.1155 -0.3837 -0.0101
  110OSM    HNF11264   3.473   5.856   6.860  0.8898 -0.1349  1.6435
  110OSM    C2S11265   3.428   6.026   6.975  0.3302 -0.3544  0.0861
  110OSM    H2S11266   3.375   6.112   6.929 -0.9141 -2.4925 -2.8453
  110OSM    C3S11267   3.576   6.061   6.965 -0.8229  0.2490  0.8236
  110OSM    H3S11268   3.624   5.966   6.994 -1.7828  0.0562  1.8358
  110OSM     O311269   3.632   6.149   7.060 -0.2766 -0.2888  0.2100
  110OSM    HO311270   3.573   6.143   7.136  0.7445 -0.0188  1.0487
  110OSM    C4S11271   3.609   6.096   6.818  0.1663 -0.3946 -0.6295
  110OSM    H4S11272   3.648   5.998   6.785  2.5920 -0.1193  1.1853
  110OSM    C5S11273   3.617   6.211   6.754  0.3229 -0.6666 -0.0222
  110OSM    H5S11274   3.584   6.306   6.800  0.9897  0.0430 -0.9684
  110OSM    C6S11275   3.656   6.238   6.610  0.3054  0.8554 -0.1579
  110OSM    H6S11276   3.755   6.286   6.599  0.0224  1.9587  1.6720
  110OSM    H6T11277   3.596   6.323   6.571  2.4357  1.8283 -1.4684
  110OSM    C7S11278   3.642   6.115   6.511 -0.1293 -0.7310 -0.5983
  110OSM    H7S11279   3.538   6.077   6.499 -0.6119  1.1309 -3.0577
  110OSM    H7T11280   3.692   6.028   6.560  1.1088 -0.6359 -1.6203
  110OSM    C8S11281   3.686   6.167   6.372 -0.0364  0.5616  0.0251
  110OSM    H8S11282   3.793   6.195   6.374 -0.5102  2.5922 -0.5968
  110OSM    H8T11283   3.624   6.256   6.348  1.7328  1.5833 -0.9185
  110OSM    C9S11284   3.665   6.060   6.262 -0.1506  0.2430 -0.6904
  110OSM    H9S11285   3.555   6.044   6.261 -0.1353 -0.8580  2.6509
  110OSM    H9T11286   3.715   5.965   6.292 -0.0826  0.1961 -0.9459
  110OSM   C10S11287   3.708   6.123   6.121  0.5334  0.3592  0.5662
  110OSM   H10S11288   3.815   6.152   6.113  0.5859 -0.3474 -1.9178
  110OSM   H10T11289   3.644   6.214   6.116 -0.3533 -0.3355 -1.6048
  110OSM   C11S11290   3.686   6.019   6.009 -0.0244 -0.1487 -0.4361
  110OSM   H11S11291   3.594   5.966   6.042  0.9489 -1.4577  0.2624
  110OSM   H11T11292   3.769   5.947   6.021  1.7789  2.0227  0.9231
  110OSM   C12S11293   3.695   6.065   5.861  0.5940 -1.0260  0.1830
  110OSM   H12S11294   3.796   6.105   5.836 -0.2019 -0.5505 -2.6268
  110OSM   H12T11295   3.625   6.150   5.852 -0.0426 -1.6792 -1.4515
  110OSM   C13S11296   3.662   5.961   5.763 -0.1469  0.3325 -0.1823
  110OSM   H13S11297   3.554   5.936   5.758 -0.1020 -0.1892  1.0586
  110OSM   H13T11298   3.713   5.862   5.769  0.3054  0.6055  0.5904
  110OSM   C14S11299   3.690   6.008   5.619  0.0215  0.3586  0.0284
  110OSM   H14S11300   3.795   6.043   5.612 -0.2038  0.9165 -0.8437
  110OSM   H14T11301   3.625   6.092   5.585 -1.7078 -0.8029  0.3614
  110OSM   C15S11302   3.664   5.899   5.517 -0.6250  0.0665  0.5806
  110OSM   H15S11303   3.571   5.846   5.547 -0.8832 -0.0627 -0.4334
  110OSM   H15T11304   3.749   5.827   5.522 -1.2489 -0.8012 -0.5814
  110OSM   C16S11305   3.656   5.947   5.372 -0.9437 -0.1978  0.5107
  110OSM   H16S11306   3.759   5.968   5.337 -1.3146  1.1259  0.1703
  110OSM   H16T11307   3.592   6.038   5.371 -0.1362  0.4071  1.9365
  110OSM   C17S11308   3.593   5.853   5.271 -1.1192  0.4800 -0.5113
  110OSM   H17S11309   3.638   5.752   5.288 -1.6468  0.1385 -1.1052
  110OSM   H17T11310   3.617   5.896   5.172 -1.4387  2.9945  0.4393
  110OSM   C18S11311   3.448   5.844   5.291  0.4451 -0.0414 -0.2170
  110OSM   H18S11312   3.401   5.945   5.292 -0.1168 -0.0835 -4.2240
  110OSM   H18T11313   3.422   5.804   5.391 -2.1084  0.0522 -0.7682
  110OSM   H18U11314   3.408   5.767   5.221  1.9765 -1.7161  0.6830
  110OSM    C1F11315   3.273   5.877   6.861  0.6976  0.4148 -0.1243
  110OSM     OF11316   3.180   5.954   6.880  0.0713 -0.3836  0.4276
  110OSM    C2F11317   3.258   5.750   6.792 -0.1129 -0.0614 -0.0956
  110OSM    H2F11318   3.328   5.675   6.838 -1.5218 -1.2820  0.1352
  110OSM    H2G11319   3.304   5.768   6.693  0.5796 -2.0274 -0.1899
  110OSM    C3F11320   3.116   5.684   6.789 -0.0930 -0.2080 -0.6614
  110OSM    H3F11321   3.043   5.757   6.747  0.9824  1.1417 -0.2575
  110OSM    H3G11322   3.086   5.663   6.894 -0.5541 -1.2256 -0.9824
  110OSM    C4F11323   3.121   5.551   6.719  0.6787  0.3778 -0.3561
  110OSM    H4F11324   3.035   5.487   6.749 -0.2840  2.0482  0.6007
  110OSM    H4G11325   3.214   5.493   6.738 -0.5825 -2.1316 -1.4823
  110OSM    C5F11326   3.124   5.573   6.564  0.4676  0.3075 -0.2215
  110OSM    H5F11327   3.223   5.554   6.516  0.9249 -1.6334  1.3428
  110OSM    H5G11328   3.101   5.682   6.565  1.2582  0.4854  0.0919
  110OSM    C6F11329   3.007   5.509   6.488 -0.1586 -0.5905  0.2979
  110OSM    H6F11330   2.919   5.518   6.555  0.7926  1.7660  1.3319
  110OSM    H6G11331   3.020   5.399   6.487 -0.3877 -0.6211 -0.7685
  110OSM    C7F11332   3.001   5.569   6.346  0.3950  0.0615 -0.3287
  110OSM    H7F11333   2.999   5.679   6.360 -1.5334  0.1220 -0.6947
  110OSM    H7G11334   2.899   5.534   6.318  0.6368 -2.1096  1.2921
  110OSM    C8F11335   3.107   5.526   6.243 -0.4924 -0.2889 -0.3679
  110OSM    H8F11336   3.090   5.417   6.228  1.0792 -0.8194  1.3618
  110OSM    H8G11337   3.208   5.526   6.289  0.4058  1.8670 -2.1518
  110OSM    C9F11338   3.100   5.608   6.118 -0.0241 -0.2453  0.3555
  110OSM    H9F11339   3.135   5.712   6.120 -0.5633 -0.0451 -0.2768
  110OSM   C10F11340   3.046   5.566   6.001  0.5644  0.2928  0.5005
  110OSM   H10F11341   3.046   5.638   5.918 -0.1116  0.8626  0.9934
  110OSM   C11F11342   2.980   5.430   5.981 -0.3821 -0.4617 -0.0734
  110OSM   H11F11343   2.888   5.418   6.043  0.8864 -3.1783  1.4673
  110OSM   H11G11344   3.043   5.350   6.026 -2.3311 -1.8901  0.2614
  110OSM   C12F11345   2.966   5.392   5.833 -0.4598  0.0011 -0.4750
  110OSM   H12F11346   2.948   5.283   5.844  1.7073 -0.2977  0.5647
  110OSM   H12G11347   3.058   5.415   5.776  0.3510 -1.3999  0.2026
  110OSM   C13F11348   2.843   5.456   5.764 -0.0635 -0.2027 -0.1954
  110OSM   H13F11349   2.867   5.560   5.733  0.3754 -0.5334 -1.0102
  110OSM   H13G11350   2.761   5.460   5.838 -0.5185  0.0637 -0.7148
  110OSM   C14F11351   2.803   5.376   5.647 -1.3241 -0.1219  0.0565
  110OSM   H14F11352   2.767   5.275   5.677 -0.5138 -1.3261 -2.7423
  110OSM   H14G11353   2.893   5.365   5.582 -2.5755  0.6469 -1.8742
  110OSM   C15F11354   2.694   5.423   5.549 -0.3510  0.6842  0.0570
  110OSM   H15F11355   2.722   5.528   5.525  1.3199 -0.3642 -3.0762
  110OSM   H15G11356   2.597   5.424   5.603  0.1493  1.0140  0.9749
  110OSM   C16F11357   2.696   5.354   5.409 -0.3008 -0.3080 -1.0406
  110OSM   H16F11358   2.670   5.248   5.424 -0.1007 -0.2398 -0.1433
  110OSM   H16G11359   2.795   5.363   5.359 -0.4836 -0.8914 -1.5086
  110OSM   C17F11360   2.597   5.416   5.313 -0.1386 -0.0365 -0.2554
  110OSM   H17F11361   2.626   5.521   5.292 -2.1600  0.3815 -1.1819
  110OSM   H17G11362   2.496   5.420   5.360 -1.5348 -0.2270 -3.0588
  110OSM   C18F11363   2.593   5.342   5.179  0.9003 -0.5365 -0.8813
  110OSM   H18F11364   2.690   5.352   5.126 -0.1031  2.1677 -2.4098
  110OSM   H18G11365   2.518   5.391   5.113 -0.0479  1.4002  1.4676
  110OSM   H18H11366   2.576   5.232   5.184  1.5958 -0.6039  0.3717
  111OSM      N11367   5.275   3.760   7.094  0.2203 -0.4825  0.2998
  111OSM    C1511368   5.415   3.784   7.109  0.2043 -0.1331  0.0590
  111OSM   H15A11369   5.418   3.802   7.215 -0.7233 -1.6042  0.3583
  111OSM   H15B11370   5.441   3.874   7.054 -1.0284  1.7093  2.2952
  111OSM   H15C11371   5.471   3.698   7.078  1.5103  0.9918 -0.8340
  111OSM    C1411372   5.246   3.616   7.109 -0.0763  0.5924  0.2835
  111OSM   H14A11373   5.273   3.586   7.209 -1.7642  0.0798  0.6109
  111OSM   H14B11374   5.301   3.549   7.045  0.0545 -0.2584  1.2652
  111OSM   H14C11375   5.140   3.598   7.104 -0.2981  1.4611  1.3599
  111OSM    C1311376   5.211   3.848   7.195 -0.1598  0.5962  0.7914
  111OSM   H13A11377   5.234   3.813   7.295  0.6721  1.1605  0.8080
  111OSM   H13B11378   5.103   3.844   7.189 -0.2323  1.1932  1.6107
  111OSM   H13C11379   5.233   3.953   7.183  2.5929 -0.0026 -0.2486
  111OSM    C1211380   5.227   3.808   6.954  0.7928  0.1102  0.3414
  111OSM   H12A11381   5.281   3.763   6.873  0.3107  0.5000 -0.2109
  111OSM   H12B11382   5.240   3.914   6.939 -1.5133  0.6062  1.2733
  111OSM    C1111383   5.080   3.777   6.926  0.3879 -0.0661 -0.8311
  111OSM   H11A11384   5.059   3.669   6.938  1.2703 -0.0645  0.9236
  111OSM   H11B11385   5.069   3.807   6.820 -0.4629  2.6366 -0.0680
  111OSM      P11386   4.848   3.831   7.033  0.2553 -0.1904  0.0620
  111OSM    O1311387   4.833   3.686   7.058 -0.1462  0.2722  0.0336
  111OSM    O1411388   4.795   3.919   7.136  0.3129 -0.2756 -0.4908
  111OSM    O1111389   4.768   3.859   6.897 -0.5233  0.0054 -0.4352
  111OSM    O1211390   5.003   3.863   7.008 -0.9302 -0.0346  0.3709
  111OSM    C1S11391   4.803   3.975   6.814 -0.0822 -0.8840  0.3038
  111OSM    H1S11392   4.852   3.927   6.726 -2.0246 -2.1407 -0.1345
  111OSM    H1T11393   4.875   4.050   6.854 -1.5716  1.1682 -0.6512
  111OSM     NF11394   4.707   4.141   6.646  0.0981 -0.1016 -0.5017
  111OSM    HNF11395   4.738   4.230   6.680  1.9472 -0.8189 -0.2081
  111OSM    C2S11396   4.677   4.048   6.755 -0.3655  0.2937 -0.2356
  111OSM    H2S11397   4.614   3.966   6.713 -2.4441  1.6141  0.1733
  111OSM    C3S11398   4.583   4.107   6.873 -0.4275  0.3311  0.1607
  111OSM    H3S11399   4.640   4.181   6.933 -0.2574 -2.0604  3.1872
  111OSM     O311400   4.557   4.008   6.974 -0.3021 -0.0489  0.1217
  111OSM    HO311401   4.620   3.936   6.959 -1.2523 -0.7564 -0.6642
  111OSM    C4S11402   4.444   4.141   6.819 -0.0938  0.5317  0.8083
  111OSM    H4S11403   4.374   4.058   6.798  0.7220  0.0618 -0.1605
  111OSM    C5S11404   4.397   4.263   6.790 -0.7688 -0.1294 -0.6651
  111OSM    H5S11405   4.470   4.344   6.806  1.8321 -1.8316 -2.9500
  111OSM    C6S11406   4.270   4.300   6.726  0.5166  0.3129  0.3346
  111OSM    H6S11407   4.294   4.387   6.662 -1.6475  2.8027  2.6147
  111OSM    H6T11408   4.201   4.344   6.801  1.3986 -0.1551  1.4500
  111OSM    C7S11409   4.199   4.192   6.641  0.3903  0.1884 -0.2128
  111OSM    H7S11410   4.175   4.106   6.708  1.3278  1.0045  1.2361
  111OSM    H7T11411   4.263   4.156   6.558  1.0412 -1.5563  0.9674
  111OSM    C8S11412   4.071   4.257   6.587  0.2743  0.3428  0.4989
  111OSM    H8S11413   4.094   4.349   6.528 -2.4720  0.3398 -0.7411
  111OSM    H8T11414   4.004   4.294   6.666 -1.0577  0.8751 -0.8395
  111OSM    C9S11415   3.992   4.157   6.497  0.4449 -0.3349  0.2030
  111OSM    H9S11416   3.940   4.091   6.570 -0.6071 -1.1716 -1.2385
  111OSM    H9T11417   4.056   4.091   6.434  1.6365 -0.3815  1.4131
  111OSM   C10S11418   3.886   4.224   6.417  0.6629 -0.2918  0.1534
  111OSM   H10S11419   3.931   4.285   6.336 -1.3940  2.2330  0.8054
  111OSM   H10T11420   3.824   4.283   6.486 -1.1874 -1.4597 -0.4316
  111OSM   C11S11421   3.786   4.141   6.340  0.4155 -0.2153  0.0109
  111OSM   H11S11422   3.736   4.072   6.412  0.1582  1.1371  1.1756
  111OSM   H11T11423   3.834   4.073   6.267 -1.0682 -1.3351  0.0317
  111OSM   C12S11424   3.683   4.215   6.254 -0.4014 -0.4705  0.0466
  111OSM   H12S11425   3.621   4.281   6.318 -0.8693 -1.4148  0.5995
  111OSM   H12T11426   3.611   4.139   6.215 -0.2636 -1.1321  1.0312
  111OSM   C13S11427   3.738   4.286   6.128  0.1045 -0.4333  0.0923
  111OSM   H13S11428   3.812   4.220   6.077  2.5191  0.5210  2.1256
  111OSM   H13T11429   3.796   4.372   6.169  1.2788 -0.9075 -0.5294
  111OSM   C14S11430   3.633   4.321   6.029  0.4403 -0.2370 -0.3634
  111OSM   H14S11431   3.569   4.403   6.066 -0.3479 -1.0879  0.2112
  111OSM   H14T11432   3.572   4.233   6.000  0.9387 -0.3823 -1.0134
  111OSM   C15S11433   3.693   4.370   5.894  0.0115  0.1256  0.1878
  111OSM   H15S11434   3.789   4.317   5.881 -0.4534 -0.3087 -1.8039
  111OSM   H15T11435   3.701   4.481   5.902 -1.8872  0.2860  0.3129
  111OSM   C16S11436   3.608   4.327   5.774 -0.6451 -0.2728  0.6649
  111OSM   H16S11437   3.509   4.373   5.797  0.3301  3.4991 -1.8067
  111OSM   H16T11438   3.599   4.217   5.759 -1.9431 -0.0130 -0.8137
  111OSM   C17S11439   3.653   4.386   5.636  0.9311  0.3084 -0.6585
  111OSM   H17S11440   3.756   4.346   5.626  0.0783 -2.3551  0.2186
  111OSM   H17T11441   3.663   4.496   5.650 -0.5978  0.3876  0.0913
  111OSM   C18S11442   3.566   4.333   5.522  0.0852 -0.0856 -0.3226
  111OSM   H18S11443   3.463   4.347   5.562  0.3090  1.5909 -0.2689
  111OSM   H18T11444   3.603   4.234   5.486 -0.7309 -0.6376  0.3141
  111OSM   H18U11445   3.574   4.391   5.428  1.1604  2.0348  1.0029
  111OSM    C1F11446   4.754   4.092   6.538 -0.1053 -0.1559 -0.1199
  111OSM     OF11447   4.749   3.971   6.507 -0.5273 -0.4580 -0.5460
  111OSM    C2F11448   4.821   4.197   6.442 -0.6401  0.3437 -0.2230
  111OSM    H2F11449   4.918   4.224   6.490 -0.7731 -1.1003  0.9044
  111OSM    H2G11450   4.750   4.282   6.443 -2.2071 -0.9369  1.2214
  111OSM    C3F11451   4.853   4.146   6.300 -0.2801  0.3642  0.1507
  111OSM    H3F11452   4.763   4.105   6.250 -0.0145 -0.6627  0.4877
  111OSM    H3G11453   4.935   4.072   6.306  1.3701  2.1635  0.7823
  111OSM    C4F11454   4.910   4.253   6.209  0.3751 -0.5895  0.2725
  111OSM    H4F11455   4.972   4.204   6.130 -0.8052 -0.9562 -0.4613
  111OSM    H4G11456   4.979   4.319   6.266  0.0185  0.2832 -0.2838
  111OSM    C5F11457   4.800   4.338   6.144 -0.4541  0.3529  0.0715
  111OSM    H5F11458   4.851   4.429   6.106  0.6345 -0.3783 -0.2637
  111OSM    H5G11459   4.727   4.374   6.219 -1.7772 -0.2795 -0.8563
  111OSM    C6F11460   4.717   4.274   6.028 -0.1892 -0.0500 -0.6740
  111OSM    H6F11461   4.645   4.198   6.064  1.0635 -0.8205  0.2391
  111OSM    H6G11462   4.789   4.219   5.965  1.9027  0.6477  0.9893
  111OSM    C7F11463   4.634   4.377   5.942 -0.0617 -0.2212  0.7408
  111OSM    H7F11464   4.698   4.467   5.923 -0.5924  0.4647  2.0554
  111OSM    H7G11465   4.558   4.416   6.013 -0.2737  0.4431  0.1659
  111OSM    C8F11466   4.580   4.321   5.805  0.6300  0.1296 -0.0758
  111OSM    H8F11467   4.507   4.386   5.753 -1.2044 -1.4970  0.3824
  111OSM    H8G11468   4.510   4.242   5.839 -0.9299  2.0604  1.4333
  111OSM    C9F11469   4.685   4.264   5.727  0.3617  0.4261  0.6800
  111OSM    H9F11470   4.752   4.198   5.784  1.6972 -0.7148 -2.0465
  111OSM   C10F11471   4.699   4.266   5.598 -0.3437  0.0716  0.1414
  111OSM   H10F11472   4.789   4.217   5.559  0.1856  0.9368  0.2303
  111OSM   C11F11473   4.612   4.335   5.493 -0.0887  0.9982 -0.3126
  111OSM   H11F11474   4.655   4.431   5.457 -0.2269  0.4389 -2.0324
  111OSM   H11G11475   4.518   4.374   5.537  0.4847 -0.0985  2.0210
  111OSM   C12F11476   4.592   4.259   5.363  0.1780  0.0506 -0.5409
  111OSM   H12F11477   4.525   4.327   5.307 -0.9138  0.8339  1.5979
  111OSM   H12G11478   4.545   4.162   5.389 -1.2393  1.2266  1.5120
  111OSM   C13F11479   4.711   4.218   5.279 -0.3636 -0.6207 -0.3229
  111OSM   H13F11480   4.775   4.161   5.350 -1.3773  0.3134  1.4340
  111OSM   H13G11481   4.773   4.305   5.247  1.5612 -2.2694 -1.2691
  111OSM   C14F11482   4.676   4.123   5.162  0.0693  0.1219  0.0827
  111OSM   H14F11483   4.623   4.034   5.201 -1.3229  1.5177  1.5531
  111OSM   H14G11484   4.772   4.092   5.117  0.2820 -0.8849  1.1993
  111OSM   C15F11485   4.592   4.174   5.044  0.6924  0.2627 -0.2209
  111OSM   H15F11486   4.623   4.271   4.999 -1.4328 -0.4043 -3.5111
  111OSM   H15G11487   4.489   4.185   5.083  0.4549 -0.5986 -0.5879
  111OSM   C16F11488   4.597   4.076   4.923 -0.0505  0.2511  0.8055
  111OSM   H16F11489   4.539   3.984   4.949  1.6759 -1.2670 -0.4468
  111OSM   H16G11490   4.703   4.043   4.914 -0.1677  0.2766 -1.1398
  111OSM   C17F11491   4.536   4.134   4.788 -0.6186  1.2397  0.0302
  111OSM   H17F11492   4.591   4.225   4.754  0.6679 -0.1941 -2.0126
  111OSM   H17G11493   4.430   4.162   4.801 -0.3749  1.0887  2.8318
  111OSM   C18F11494   4.540   4.029   4.675  0.2911 -0.1462 -0.9943
  111OSM   H18F11495   4.455   3.959   4.689 -1.6775  1.8291 -2.2439
  111OSM   H18G11496   4.626   3.959   4.679 -0.8026 -1.4865 -0.1397
  111OSM   H18H11497   4.530   4.079   4.576  1.5955 -0.1697 -1.1579
  112OSM      N11498   6.342   6.372   7.296 -0.4294  0.3540  0.0393
  112OSM    C1511499   6.403   6.478   7.383  0.4327  0.1516 -0.2087
  112OSM   H15A11500   6.331   6.514   7.455  1.7243 -0.8143  1.6688
  112OSM   H15B11501   6.443   6.564   7.332  0.5271  0.3040  0.1176
  112OSM   H15C11502   6.487   6.444   7.442  0.4667 -0.8931 -0.8184
  112OSM    C1411503   6.451   6.296   7.218  0.4647 -0.2366 -0.2481
  112OSM   H14A11504   6.409   6.220   7.154  0.0194  1.1279 -1.6225
  112OSM   H14B11505   6.520   6.240   7.280  1.9684  0.6178 -1.0997
  112OSM   H14C11506   6.503   6.367   7.156 -2.5060  0.9482 -1.5899
  112OSM    C1311507   6.270   6.284   7.391  0.1940  0.1498  0.4098
  112OSM   H13A11508   6.204   6.340   7.456 -0.4048  2.0041 -1.6286
  112OSM   H13B11509   6.332   6.232   7.462 -0.5357  0.7754  1.5428
  112OSM   H13C11510   6.217   6.202   7.344 -3.2311  0.9379  2.5461
  112OSM    C1211511   6.245   6.431   7.197 -0.0084 -0.0962  0.8193
  112OSM   H12A11512   6.161   6.473   7.250 -1.1961 -0.4273 -0.7271
  112OSM   H12B11513   6.201   6.344   7.150 -0.7966 -0.4225  2.1140
  112OSM    C1111514   6.305   6.527   7.089  0.6325 -0.1226  0.0896
  112OSM   H11A11515   6.209   6.562   7.044  1.0543  2.3576  0.9559
  112OSM   H11B11516   6.379   6.478   7.022 -1.4740 -2.5569 -0.6011
  112OSM      P11517   6.286   6.764   7.196 -0.3180 -0.3285 -0.1385
  112OSM    O1311518   6.182   6.735   7.294 -0.2048  0.3829 -0.3158
  112OSM    O1411519   6.378   6.871   7.238 -0.2313  0.5022 -0.5460
  112OSM    O1111520   6.216   6.809   7.058  0.8241  0.2841 -0.2871
  112OSM    O1211521   6.364   6.637   7.160 -0.1159 -0.2198  0.6774
  112OSM    C1S11522   6.296   6.855   6.947 -0.3433 -0.4423 -0.1564
  112OSM    H1S11523   6.321   6.768   6.882 -0.2674  0.0303 -0.7684
  112OSM    H1T11524   6.388   6.906   6.983 -0.5180  1.2945 -1.9859
  112OSM     NF11525   6.276   6.987   6.745  0.5433 -0.7963 -0.6798
  112OSM    HNF11526   6.307   7.081   6.734 -2.4681  0.3504 -0.3148
  112OSM    C2S11527   6.203   6.955   6.863  0.4371  0.4953 -0.1185
  112OSM    H2S11528   6.113   6.898   6.831 -0.3431  1.7675 -0.2959
  112OSM    C3S11529   6.145   7.079   6.938 -1.0383 -0.4068  0.2457
  112OSM    H3S11530   6.237   7.137   6.963  1.0729 -2.8794 -1.3220
  112OSM     O311531   6.075   7.049   7.058 -0.3759 -0.1225  0.1772
  112OSM    HO311532   6.104   6.965   7.092  0.0634  0.4324  1.2163
  112OSM    C4S11533   6.053   7.174   6.858 -0.3940 -0.1034 -0.1972
  112OSM    H4S11534   6.119   7.248   6.809  1.2397  1.0370  3.3643
  112OSM    C5S11535   5.916   7.170   6.841 -0.7394 -0.0053 -0.0748
  112OSM    H5S11536   5.853   7.089   6.881 -2.1329  0.5329 -1.1339
  112OSM    C6S11537   5.834   7.262   6.762 -0.5570  0.3397 -0.0670
  112OSM    H6S11538   5.896   7.344   6.723 -0.0564 -0.0345 -0.0715
  112OSM    H6T11539   5.757   7.301   6.832 -0.8587 -0.1234 -0.1338
  112OSM    C7S11540   5.763   7.190   6.647 -0.2644  0.2328  0.5564
  112OSM    H7S11541   5.813   7.095   6.619 -0.5296 -0.0371  0.9949
  112OSM    H7T11542   5.785   7.250   6.556 -1.9740  0.8951  0.5508
  112OSM    C8S11543   5.615   7.167   6.658 -0.5419  0.3151 -0.5897
  112OSM    H8S11544   5.568   7.266   6.645  0.6791  0.9841 -0.1422
  112OSM    H8T11545   5.591   7.138   6.763 -2.0450  0.5613 -0.8472
  112OSM    C9S11546   5.556   7.064   6.557  0.4588 -0.6231  0.2024
  112OSM    H9S11547   5.447   7.080   6.574  0.3268  0.1328 -1.2041
  112OSM    H9T11548   5.578   6.959   6.586 -1.8522 -1.3184 -0.3180
  112OSM   C10S11549   5.597   7.107   6.417  0.0796 -0.0139  0.1914
  112OSM   H10S11550   5.704   7.086   6.391  0.0226 -0.5750  0.3913
  112OSM   H10T11551   5.580   7.216   6.414  1.1023  0.2009  1.3854
  112OSM   C11S11552   5.514   7.034   6.306 -0.4921 -0.7049  0.6545
  112OSM   H11S11553   5.406   7.048   6.326 -0.6523 -0.7532 -0.1311
  112OSM   H11T11554   5.538   6.925   6.310 -0.6617 -0.7508  0.4692
  112OSM   C12S11555   5.557   7.083   6.171 -0.8569 -0.2690 -0.1186
  112OSM   H12S11556   5.666   7.103   6.168 -1.0557  0.7834 -0.9067
  112OSM   H12T11557   5.516   7.184   6.150  0.5922  0.5960  1.0062
  112OSM   C13S11558   5.518   6.999   6.046  0.1269 -0.5384  0.2123
  112OSM   H13S11559   5.407   7.000   6.033  0.4169  1.4387 -3.3336
  112OSM   H13T11560   5.552   6.894   6.060 -0.6167 -1.0328 -1.3903
  112OSM   C14S11561   5.562   7.053   5.912 -0.1373  0.6576  1.0537
  112OSM   H14S11562   5.500   7.144   5.899 -0.9422 -0.0846 -0.6321
  112OSM   H14T11563   5.535   6.986   5.828  3.5836 -0.7999  0.8553
  112OSM   C15S11564   5.712   7.088   5.901 -0.3000  0.4459  0.4306
  112OSM   H15S11565   5.773   7.006   5.943 -0.8510  0.0440  0.4657
  112OSM   H15T11566   5.741   7.178   5.959  1.1240  0.3772 -0.1317
  112OSM   C16S11567   5.745   7.133   5.760 -0.3826  0.3524  1.0528
  112OSM   H16S11568   5.685   7.219   5.723  0.6319  0.2142 -1.0828
  112OSM   H16T11569   5.694   7.060   5.693  0.6282 -2.1134  2.8281
  112OSM   C17S11570   5.897   7.125   5.727  0.5222 -0.7432 -0.2621
  112OSM   H17S11571   5.951   7.200   5.789 -0.0179 -0.4491 -0.1430
  112OSM   H17T11572   5.922   7.142   5.621  0.0315 -2.1131 -0.6181
  112OSM   C18S11573   5.963   6.985   5.748 -0.6297 -0.8189 -0.0696
  112OSM   H18S11574   5.970   6.961   5.856 -1.0514 -2.4208 -0.3779
  112OSM   H18T11575   6.071   6.983   5.721 -0.7191  1.9540 -0.8988
  112OSM   H18U11576   5.901   6.909   5.694 -1.2347 -0.9998  0.8571
  112OSM    C1F11577   6.294   6.901   6.651 -0.3680 -0.2763 -0.4756
  112OSM     OF11578   6.224   6.794   6.636 -0.1385 -0.0907 -0.1009
  112OSM    C2F11579   6.405   6.930   6.564 -0.3483 -0.0889 -0.5371
  112OSM    H2F11580   6.483   6.856   6.593  0.0358 -0.0638 -1.4642
  112OSM    H2G11581   6.447   7.027   6.599  2.0570 -1.3085  0.1616
  112OSM    C3F11582   6.365   6.918   6.415  0.2844 -0.3409 -0.1054
  112OSM    H3F11583   6.275   6.978   6.392 -0.1827 -0.5873  0.9998
  112OSM    H3G11584   6.340   6.812   6.392 -1.8655  0.3451 -1.1831
  112OSM    C4F11585   6.470   6.949   6.314 -0.1406  0.0765  0.2632
  112OSM    H4F11586   6.573   6.909   6.333 -0.4704 -1.5636 -1.0672
  112OSM    H4G11587   6.493   7.056   6.296  1.0861 -0.2006  0.0844
  112OSM    C5F11588   6.423   6.895   6.171  0.1059  0.1265  0.1209
  112OSM    H5F11589   6.322   6.936   6.147 -0.1090 -1.1174 -1.2303
  112OSM    H5G11590   6.424   6.784   6.168  1.2279  0.1447 -0.8322
  112OSM    C6F11591   6.525   6.933   6.056  0.2381 -0.2110  0.0483
  112OSM    H6F11592   6.622   6.893   6.093 -0.1274 -1.3587 -0.1716
  112OSM    H6G11593   6.520   7.044   6.057 -1.4229 -0.2423 -0.6979
  112OSM    C7F11594   6.487   6.882   5.917 -0.0761 -0.2381 -0.1598
  112OSM    H7F11595   6.383   6.914   5.894  0.5295  2.2382  0.2822
  112OSM    H7G11596   6.480   6.771   5.922 -1.0247 -0.1790 -0.0139
  112OSM    C8F11597   6.576   6.922   5.794 -0.7860 -0.2337  0.7707
  112OSM    H8F11598   6.681   6.885   5.796 -0.1142  1.0086 -2.8394
  112OSM    H8G11599   6.571   7.033   5.788  0.2285 -0.2634 -2.2541
  112OSM    C9F11600   6.525   6.845   5.670  0.2198  0.4139 -0.0919
  112OSM    H9F11601   6.495   6.741   5.688  0.4957  0.1013 -1.3037
  112OSM   C10F11602   6.520   6.887   5.547 -0.0154 -0.2116 -0.3060
  112OSM   H10F11603   6.475   6.815   5.477 -0.6879 -0.1527  0.0506
  112OSM   C11F11604   6.561   7.016   5.487 -0.0719 -0.3065 -0.2658
  112OSM   H11F11605   6.645   6.987   5.420 -0.0669 -0.4513 -0.1967
  112OSM   H11G11606   6.579   7.097   5.561 -0.3867 -1.7512  1.4373
  112OSM   C12F11607   6.463   7.080   5.383 -0.3633  0.6725  0.4724
  112OSM   H12F11608   6.359   7.092   5.419 -0.7103 -1.1590  0.1814
  112OSM   H12G11609   6.459   7.009   5.298  0.8334 -1.4389  2.0431
  112OSM   C13F11610   6.512   7.215   5.323  0.1328  0.2662 -0.1453
  112OSM   H13F11611   6.556   7.275   5.406 -1.4676  0.0927  0.8558
  112OSM   H13G11612   6.416   7.260   5.293 -0.3465 -0.6179  0.0200
  112OSM   C14F11613   6.603   7.216   5.194 -0.4899 -0.0619 -0.1270
  112OSM   H14F11614   6.570   7.132   5.129  1.6786  0.5873 -2.1945
  112OSM   H14G11615   6.711   7.199   5.214  0.0256 -1.2808 -3.2983
  112OSM   C15F11616   6.593   7.338   5.113  0.1347 -0.7736 -0.7419
  112OSM   H15F11617   6.622   7.425   5.175 -0.8305 -1.4913  0.7774
  112OSM   H15G11618   6.486   7.349   5.085  0.2006 -0.8876 -1.0456
  112OSM   C16F11619   6.683   7.343   4.989 -0.2654  0.7354 -0.1798
  112OSM   H16F11620   6.785   7.334   5.032 -1.4057  0.1105  2.5641
  112OSM   H16G11621   6.672   7.444   4.944 -2.6123  1.0000  0.8208
  112OSM   C17F11622   6.641   7.239   4.884 -0.3326 -0.2869 -0.1556
  112OSM   H17F11623   6.533   7.258   4.863 -0.3387  2.0803  1.5416
  112OSM   H17G11624   6.644   7.135   4.922 -1.3995 -0.4917 -0.5702
  112OSM   C18F11625   6.724   7.248   4.764 -0.4548 -0.0156 -0.2244
  112OSM   H18F11626   6.709   7.161   4.697  0.2166 -0.5110  0.2425
  112OSM   H18G11627   6.828   7.241   4.803 -0.4541 -0.3394 -0.2862
  112OSM   H18H11628   6.711   7.349   4.719  2.2422 -0.3163 -1.9092
  113OSM      N11629   4.242   2.792   6.834  0.4920 -0.0912  0.2675
  113OSM    C1511630   4.353   2.750   6.929 -0.3870  0.1377  0.0916
  113OSM   H15A11631   4.403   2.839   6.963  1.6450 -0.2966 -1.5568
  113OSM   H15B11632   4.438   2.698   6.886  1.6988  1.2670  2.5794
  113OSM   H15C11633   4.316   2.705   7.020 -2.0140  1.5475  0.1756
  113OSM    C1411634   4.307   2.869   6.721  0.1710 -0.4452  0.1447
  113OSM   H14A11635   4.229   2.883   6.648 -0.2715  2.7126  1.0733
  113OSM   H14B11636   4.392   2.822   6.674 -0.5510 -1.7088  0.0813
  113OSM   H14C11637   4.332   2.969   6.755  0.4759 -0.9089  1.3273
  113OSM    C1311638   4.186   2.664   6.779 -0.5307  0.5013  0.7111
  113OSM   H13A11639   4.260   2.613   6.719 -0.0004  0.5354  1.3358
  113OSM   H13B11640   4.099   2.668   6.714  0.9129 -1.0458 -1.4655
  113OSM   H13C11641   4.169   2.595   6.859  0.3149 -0.6915 -0.1161
  113OSM    C1211642   4.130   2.869   6.915 -0.1795 -0.3901 -0.5861
  113OSM   H12A11643   4.155   2.963   6.961  1.0557 -1.4016  0.8997
  113OSM   H12B11644   4.086   2.799   6.984  0.3280 -0.8498 -0.7202
  113OSM    C1111645   4.023   2.905   6.809 -0.4532  0.0151 -0.0077
  113OSM   H11A11646   3.977   2.829   6.743 -0.4759  1.5664 -1.8438
  113OSM   H11B11647   4.082   2.974   6.745 -0.2832 -0.0631  0.0643
  113OSM      P11648   3.778   2.962   6.914  0.0597 -0.3072  0.2877
  113OSM    O1311649   3.779   2.868   7.031  0.1834  0.1487 -0.1643
  113OSM    O1411650   3.701   3.088   6.927  0.0835  0.0129  0.1968
  113OSM    O1111651   3.721   2.876   6.791 -0.5364 -0.6866 -0.2946
  113OSM    O1211652   3.928   2.991   6.871 -0.2195  0.3296 -0.3445
  113OSM    C1S11653   3.658   2.941   6.680 -0.0075 -0.1248  0.2604
  113OSM    H1S11654   3.620   3.043   6.698 -3.9052 -1.2822 -0.4822
  113OSM    H1T11655   3.564   2.885   6.663  0.6224 -0.7037 -1.5673
  113OSM     NF11656   3.682   3.025   6.444 -0.0234  0.7745  0.5493
  113OSM    HNF11657   3.659   2.982   6.357  2.4358  3.6419 -1.7367
  113OSM    C2S11658   3.743   2.943   6.546 -0.1349 -0.2667 -0.2449
  113OSM    H2S11659   3.838   2.998   6.564 -1.2696  1.8295 -0.2580
  113OSM    C3S11660   3.786   2.807   6.499 -0.6604  0.1517 -0.2756
  113OSM    H3S11661   3.703   2.748   6.455  1.4617 -1.6071 -2.1587
  113OSM     O311662   3.816   2.708   6.595  0.4361  0.4747  0.2883
  113OSM    HO311663   3.796   2.749   6.679  1.1882  0.0450  0.6846
  113OSM    C4S11664   3.887   2.827   6.378  0.1592 -0.1426  0.1137
  113OSM    H4S11665   3.841   2.858   6.283  0.1714 -0.3556  0.0375
  113OSM    C5S11666   4.021   2.809   6.389  0.1763  0.0330  0.1343
  113OSM    H5S11667   4.059   2.756   6.478  0.2831 -0.7349 -0.3561
  113OSM    C6S11668   4.118   2.813   6.275 -0.6036  0.5129 -0.2426
  113OSM    H6S11669   4.165   2.713   6.283 -0.7679  0.3974 -0.6752
  113OSM    H6T11670   4.193   2.893   6.290  0.0800  0.0649 -1.2074
  113OSM    C7S11671   4.068   2.828   6.127 -0.4876 -0.3397 -1.0409
  113OSM    H7S11672   4.019   2.927   6.118 -1.0776 -0.4173  0.8885
  113OSM    H7T11673   3.993   2.749   6.106  0.3794 -1.4839 -0.0239
  113OSM    C8S11674   4.176   2.833   6.018  0.3833 -0.0314 -0.3774
  113OSM    H8S11675   4.242   2.744   6.029 -1.3277 -1.6469 -2.4528
  113OSM    H8T11676   4.240   2.923   6.029 -0.4312  0.5279 -0.0866
  113OSM    C9S11677   4.110   2.817   5.879  0.5977 -0.0665 -0.7072
  113OSM    H9S11678   4.015   2.876   5.874  0.8672  0.4058 -0.2832
  113OSM    H9T11679   4.093   2.709   5.858  0.0689  0.0232 -0.7584
  113OSM   C10S11680   4.202   2.874   5.768 -0.6441 -0.3650  0.0766
  113OSM   H10S11681   4.303   2.826   5.774 -0.9096 -0.7976  1.4443
  113OSM   H10T11682   4.231   2.978   5.791  1.5311 -1.0081  0.5230
  113OSM   C11S11683   4.138   2.858   5.624  0.2049  0.3530  0.4708
  113OSM   H11S11684   4.053   2.929   5.614  0.9209  1.0609 -0.8227
  113OSM   H11T11685   4.111   2.751   5.611  1.5283  0.0990 -0.3658
  113OSM   C12S11686   4.231   2.914   5.518 -0.7001  0.2515 -0.0437
  113OSM   H12S11687   4.326   2.864   5.547 -0.2214  1.0550 -0.2040
  113OSM   H12T11688   4.237   3.023   5.537 -0.9644  0.7881 -2.6520
  113OSM   C13S11689   4.184   2.883   5.376 -0.7187  0.4780 -0.4826
  113OSM   H13S11690   4.236   2.952   5.306  4.2476 -1.0750  1.2306
  113OSM   H13T11691   4.075   2.903   5.379 -0.8127 -0.1618  1.8402
  113OSM   C14S11692   4.211   2.745   5.327  0.1063  0.2321 -0.5023
  113OSM   H14S11693   4.162   2.670   5.393  2.9393 -0.9698  0.3953
  113OSM   H14T11694   4.319   2.724   5.335  0.2910  1.6438  1.2555
  113OSM   C15S11695   4.147   2.705   5.192  0.1910 -0.2184 -0.0452
  113OSM   H15S11696   4.050   2.759   5.183  0.1276 -0.2048  0.7132
  113OSM   H15T11697   4.116   2.599   5.190  0.1379 -0.3301  2.7477
  113OSM   C16S11698   4.239   2.749   5.075 -0.3167 -0.8931  0.3347
  113OSM   H16S11699   4.301   2.661   5.047  0.2258 -0.3997 -0.0570
  113OSM   H16T11700   4.294   2.836   5.118 -0.0511 -0.6477 -0.4892
  113OSM   C17S11701   4.172   2.805   4.948 -0.3785 -0.4486 -0.3053
  113OSM   H17S11702   4.112   2.896   4.970  0.9701  0.5978 -0.7911
  113OSM   H17T11703   4.103   2.733   4.899  0.3832 -0.5154 -1.3065
  113OSM   C18S11704   4.278   2.853   4.838 -0.3088  0.5236 -0.5421
  113OSM   H18S11705   4.222   2.916   4.765 -1.7235 -2.0527 -1.8141
  113OSM   H18T11706   4.320   2.759   4.797 -1.8696 -1.6638  2.4764
  113OSM   H18U11707   4.362   2.910   4.882  0.1049 -0.3499 -0.1749
  113OSM    C1F11708   3.680   3.155   6.451  1.0719 -0.5297 -0.3051
  113OSM     OF11709   3.724   3.215   6.546 -0.3010 -0.5101 -0.2563
  113OSM    C2F11710   3.631   3.234   6.339 -0.1566 -0.9821 -0.7282
  113OSM    H2F11711   3.614   3.163   6.255 -0.1454  0.1493 -1.7215
  113OSM    H2G11712   3.708   3.305   6.300 -2.4389  1.2595 -1.4582
  113OSM    C3F11713   3.505   3.326   6.377 -0.3651  0.3327 -0.0072
  113OSM    H3F11714   3.549   3.407   6.439 -1.1008  0.6087  0.1513
  113OSM    H3G11715   3.437   3.279   6.451  2.2573  0.6564  2.8196
  113OSM    C4F11716   3.426   3.369   6.259 -0.4813 -0.9987 -0.5643
  113OSM    H4F11717   3.352   3.448   6.285 -0.4908 -0.9684 -0.6836
  113OSM    H4G11718   3.369   3.278   6.230 -2.8679  0.1517  0.2542
  113OSM    C5F11719   3.511   3.410   6.139 -0.3540  0.1907  0.3568
  113OSM    H5F11720   3.575   3.326   6.103  0.1933  0.4244  0.7711
  113OSM    H5G11721   3.584   3.488   6.170  1.3900 -1.2746  0.1100
  113OSM    C6F11722   3.432   3.463   6.012 -1.1045  0.4563 -0.2462
  113OSM    H6F11723   3.503   3.538   5.970  0.7025  0.2271  2.1646
  113OSM    H6G11724   3.335   3.502   6.049 -2.6033 -1.8059 -1.5449
  113OSM    C7F11725   3.398   3.354   5.907 -0.5113 -0.2380  0.5607
  113OSM    H7F11726   3.333   3.275   5.950  2.3612 -3.0884  0.0565
  113OSM    H7G11727   3.498   3.312   5.882 -1.1079 -0.9486 -0.7052
  113OSM    C8F11728   3.347   3.405   5.769  0.8244 -0.7218  0.4821
  113OSM    H8F11729   3.249   3.451   5.793  1.6100  1.7844 -0.7557
  113OSM    H8G11730   3.317   3.309   5.721  1.8962 -0.6034 -0.4651
  113OSM    C9F11731   3.439   3.484   5.679  0.7687 -0.0472  0.4642
  113OSM    H9F11732   3.480   3.575   5.726 -1.0492  0.5329  1.0218
  113OSM   C10F11733   3.475   3.455   5.554  0.2064 -0.1126 -0.9073
  113OSM   H10F11734   3.534   3.526   5.494 -0.9321  1.2701 -0.4722
  113OSM   C11F11735   3.442   3.333   5.463 -0.3119  0.5514 -0.5412
  113OSM   H11F11736   3.378   3.257   5.514  3.2129  0.3440  4.3152
  113OSM   H11G11737   3.538   3.282   5.444 -0.7409  0.0312 -1.3335
  113OSM   C12F11738   3.371   3.369   5.332  0.1629 -0.4174  0.0183
  113OSM   H12F11739   3.451   3.421   5.276 -0.1444 -0.9851 -0.9663
  113OSM   H12G11740   3.290   3.439   5.363  1.3657  1.2723 -0.5218
  113OSM   C13F11741   3.333   3.247   5.241  0.5420  0.0147 -0.0686
  113OSM   H13F11742   3.256   3.192   5.298  0.9417 -1.1915 -0.6598
  113OSM   H13G11743   3.424   3.185   5.228  0.5013  0.3290 -2.2363
  113OSM   C14F11744   3.266   3.282   5.107 -0.2984 -0.2322 -0.2935
  113OSM   H14F11745   3.331   3.351   5.048 -0.8015  0.2053 -0.3361
  113OSM   H14G11746   3.178   3.343   5.136  0.5313  0.6832  0.4005
  113OSM   C15F11747   3.220   3.160   5.041 -0.6241 -0.3628  0.6730
  113OSM   H15F11748   3.144   3.108   5.103 -1.1460  0.8520  1.0827
  113OSM   H15G11749   3.308   3.094   5.026 -0.9247 -1.0591  1.8974
  113OSM   C16F11750   3.154   3.205   4.907 -0.8035 -0.2308  0.1514
  113OSM   H16F11751   3.228   3.270   4.855  0.5534 -2.5531 -0.9935
  113OSM   H16G11752   3.061   3.258   4.937  0.1130  1.6573 -0.1988
  113OSM   C17F11753   3.128   3.084   4.808  0.2270 -0.2734 -1.0751
  113OSM   H17F11754   3.195   3.002   4.842 -0.9616 -1.2097 -0.9277
  113OSM   H17G11755   3.146   3.120   4.704 -2.3984 -0.5541 -1.6890
  113OSM   C18F11756   2.975   3.055   4.828 -0.3319  0.1987  0.1265
  113OSM   H18F11757   2.972   3.012   4.931  0.0510 -0.0361  0.0439
  113OSM   H18G11758   2.947   2.975   4.756  0.3846 -0.5183  0.6274
  113OSM   H18H11759   2.907   3.142   4.823  1.0965  1.3512  0.2224
  114OSM      N11760   3.179   6.452   7.344  0.2182  0.4823  0.9764
  114OSM    C1511761   3.087   6.396   7.449  0.0483 -1.0210  0.0033
  114OSM   H15A11762   2.982   6.391   7.422 -0.0695  0.1434  0.1661
  114OSM   H15B11763   3.081   6.455   7.540 -2.9461 -1.7585  0.4017
  114OSM   H15C11764   3.121   6.306   7.497 -0.7634 -0.7008  1.2488
  114OSM    C1411765   3.185   6.343   7.237  0.4743 -0.1995  0.2093
  114OSM   H14A11766   3.085   6.308   7.217  0.4953  0.4432 -1.1419
  114OSM   H14B11767   3.236   6.252   7.265 -0.9998 -1.2804 -0.4455
  114OSM   H14C11768   3.219   6.381   7.142 -1.6964  1.1130 -0.1170
  114OSM    C1311769   3.115   6.569   7.274 -0.2177  0.1401  0.0178
  114OSM   H13A11770   3.184   6.614   7.204 -1.5591  0.9777 -0.8070
  114OSM   H13B11771   3.092   6.650   7.342  0.0396  0.9797 -0.8592
  114OSM   H13C11772   3.021   6.534   7.233 -0.3744 -1.8292  1.9095
  114OSM    C1211773   3.320   6.483   7.388 -0.6196 -0.5581  0.2864
  114OSM   H12A11774   3.367   6.530   7.303 -1.5863  0.7646  0.4552
  114OSM   H12B11775   3.370   6.391   7.417 -0.4331  0.3410  3.0987
  114OSM    C1111776   3.333   6.581   7.510  0.2364  0.2267 -0.0784
  114OSM   H11A11777   3.438   6.578   7.548  1.2494  1.1829 -2.5438
  114OSM   H11B11778   3.274   6.538   7.593 -1.5182 -2.1022 -2.3645
  114OSM      P11779   3.385   6.817   7.406 -0.1293 -0.2097 -0.3111
  114OSM    O1311780   3.303   6.916   7.332  0.2638  0.1806 -0.0400
  114OSM    O1411781   3.484   6.872   7.505 -0.0710  0.1041 -0.2920
  114OSM    O1111782   3.473   6.735   7.305 -0.0819  0.3634 -0.1860
  114OSM    O1211783   3.291   6.714   7.479 -0.5277 -0.0450  0.3354
  114OSM    C1S11784   3.425   6.717   7.169 -0.6678 -0.4750 -0.5703
  114OSM    H1S11785   3.384   6.808   7.119 -0.3968 -0.4643 -0.7792
  114OSM    H1T11786   3.348   6.638   7.165 -0.6393 -0.6558  1.6680
  114OSM     NF11787   3.481   6.639   6.949 -0.6063  0.2109 -0.8123
  114OSM    HNF11788   3.442   6.547   6.941  1.6062 -0.8013 -0.7013
  114OSM    C2S11789   3.538   6.660   7.078 -0.0651  0.1572 -0.2453
  114OSM    H2S11790   3.619   6.737   7.076  0.6137 -0.3977  2.2894
  114OSM    C3S11791   3.600   6.528   7.141 -0.5853 -0.3104 -0.5203
  114OSM    H3S11792   3.508   6.465   7.145 -1.0493  0.4071  2.2851
  114OSM     O311793   3.635   6.542   7.277 -0.4291 -0.3029 -0.5804
  114OSM    HO311794   3.589   6.624   7.298  0.1696 -0.1786  0.2708
  114OSM    C4S11795   3.709   6.474   7.059  0.2173 -0.0770  0.0613
  114OSM    H4S11796   3.677   6.377   7.017  1.0837 -1.7630  3.0360
  114OSM    C5S11797   3.836   6.521   7.031  0.5143 -0.6981  0.2389
  114OSM    H5S11798   3.867   6.621   7.066 -0.8021 -0.0281 -0.4396
  114OSM    C6S11799   3.936   6.448   6.939  0.0108 -0.2807 -0.5365
  114OSM    H6S11800   3.931   6.337   6.946 -0.1756 -0.2371  0.1427
  114OSM    H6T11801   4.040   6.483   6.955 -0.2445  0.7839 -1.1518
  114OSM    C7S11802   3.911   6.492   6.791 -0.2791  0.1722 -0.2817
  114OSM    H7S11803   3.938   6.600   6.793 -2.9185  0.8941  0.7312
  114OSM    H7T11804   3.803   6.478   6.769 -0.7660  1.8398  0.8192
  114OSM    C8S11805   3.996   6.411   6.692  0.0326 -0.5773  0.4284
  114OSM    H8S11806   3.951   6.310   6.679 -0.1126 -0.5127  0.4328
  114OSM    H8T11807   4.106   6.409   6.706 -0.1452 -2.4550  1.8853
  114OSM    C9S11808   3.963   6.475   6.557 -0.4337 -0.3100  0.3838
  114OSM    H9S11809   3.994   6.581   6.561 -0.0179 -0.4614  2.2109
  114OSM    H9T11810   3.853   6.462   6.542 -0.1466 -1.2256 -1.1549
  114OSM   C10S11811   4.034   6.417   6.435 -0.2085 -0.0617  0.2491
  114OSM   H10S11812   4.018   6.308   6.449  0.1186 -0.4216 -1.8265
  114OSM   H10T11813   4.143   6.440   6.437 -0.6180  2.2164  0.0102
  114OSM   C11S11814   3.963   6.466   6.308 -0.3984  0.6836  0.2264
  114OSM   H11S11815   3.976   6.576   6.303 -1.6947  0.8218 -0.5002
  114OSM   H11T11816   3.859   6.430   6.323 -0.0908  0.8168  3.3786
  114OSM   C12S11817   4.012   6.401   6.178 -0.0705 -0.0327 -0.9198
  114OSM   H12S11818   4.027   6.291   6.182 -0.1529  0.0027  1.0495
  114OSM   H12T11819   4.105   6.447   6.137  0.0942 -0.7523 -1.3759
  114OSM   C13S11820   3.908   6.415   6.064  0.0561 -0.0062 -0.2293
  114OSM   H13S11821   3.888   6.521   6.037 -1.6769 -0.5541 -1.2736
  114OSM   H13T11822   3.807   6.373   6.084 -0.4728  0.6793 -1.3735
  114OSM   C14S11823   3.957   6.351   5.936  0.1314 -0.2409 -0.4277
  114OSM   H14S11824   3.969   6.243   5.955 -1.0255 -0.5338 -1.2521
  114OSM   H14T11825   4.062   6.379   5.911  0.9441 -1.6552  1.2663
  114OSM   C15S11826   3.876   6.377   5.810  0.3647  0.7228 -0.5101
  114OSM   H15S11827   3.846   6.484   5.797 -1.8368  0.7669  3.2845
  114OSM   H15T11828   3.781   6.320   5.822  0.2679  0.9925  0.0168
  114OSM   C16S11829   3.942   6.316   5.684 -0.3933 -0.5773 -0.3782
  114OSM   H16S11830   3.942   6.205   5.677  0.5202 -0.6966  0.9984
  114OSM   H16T11831   4.049   6.344   5.679  0.3498 -2.4038  2.6424
  114OSM   C17S11832   3.864   6.365   5.556 -0.2353 -0.9083  0.1340
  114OSM   H17S11833   3.859   6.475   5.569 -1.8129 -1.0360  0.9213
  114OSM   H17T11834   3.758   6.329   5.554 -0.3429 -0.5788 -0.1916
  114OSM   C18S11835   3.945   6.339   5.424 -0.1928  0.3510 -0.0411
  114OSM   H18S11836   4.049   6.376   5.439 -1.1600  3.5704 -0.6212
  114OSM   H18T11837   3.907   6.396   5.336  0.7394 -0.3577 -0.9342
  114OSM   H18U11838   3.951   6.228   5.412  0.1885  0.3892 -0.2306
  114OSM    C1F11839   3.464   6.717   6.845 -0.4786 -0.0208 -0.1367
  114OSM     OF11840   3.482   6.838   6.858  0.3742  0.3382 -0.4954
  114OSM    C2F11841   3.418   6.665   6.710  0.4553 -0.3248 -0.8261
  114OSM    H2F11842   3.339   6.735   6.673 -1.9052 -3.0816 -1.3791
  114OSM    H2G11843   3.359   6.572   6.724 -0.3489  0.0804 -1.4031
  114OSM    C3F11844   3.535   6.665   6.613  0.5370 -0.1293  0.6113
  114OSM    H3F11845   3.617   6.599   6.648  0.4351 -0.1947  0.7281
  114OSM    H3G11846   3.573   6.769   6.611  0.2398  0.0040  1.3621
  114OSM    C4F11847   3.496   6.611   6.474  0.1202  0.0973 -0.1082
  114OSM    H4F11848   3.415   6.672   6.431 -0.0294 -0.2256 -0.2906
  114OSM    H4G11849   3.459   6.507   6.490  1.6077 -0.3875  0.4018
  114OSM    C5F11850   3.615   6.600   6.383  0.0282  1.2337  0.2090
  114OSM    H5F11851   3.696   6.540   6.430  0.0213 -0.5638 -1.8937
  114OSM    H5G11852   3.661   6.701   6.369  1.3457  0.9373  2.0469
  114OSM    C6F11853   3.584   6.535   6.248  0.4391 -0.1695  1.0976
  114OSM    H6F11854   3.534   6.437   6.268 -1.2136  0.4188  0.0997
  114OSM    H6G11855   3.673   6.531   6.182  0.0582 -0.1198  0.5724
  114OSM    C7F11856   3.483   6.614   6.159 -0.1138  1.2092  0.3833
  114OSM    H7F11857   3.520   6.717   6.141  3.0425  0.2824  1.0848
  114OSM    H7G11858   3.390   6.627   6.218 -0.3800 -2.6201  1.0557
  114OSM    C8F11859   3.437   6.526   6.032  0.2006  0.4639  0.1671
  114OSM    H8F11860   3.344   6.570   5.990 -1.4988 -1.3753  1.7685
  114OSM    H8G11861   3.431   6.422   6.071 -0.0548  0.5627  0.3952
  114OSM    C9F11862   3.550   6.538   5.925  0.4446 -0.6304  0.3317
  114OSM    H9F11863   3.651   6.554   5.967  0.6736  1.5170 -0.8433
  114OSM   C10F11864   3.539   6.506   5.797  0.2986  0.2620 -0.3695
  114OSM   H10F11865   3.628   6.521   5.734  1.1484  0.1622  0.7709
  114OSM   C11F11866   3.418   6.463   5.728  0.8035  0.0015  0.6793
  114OSM   H11F11867   3.335   6.446   5.800 -0.1378  0.9314 -0.1759
  114OSM   H11G11868   3.433   6.359   5.691 -1.8830  0.2911 -1.4752
  114OSM   C12F11869   3.378   6.539   5.603  0.1408  0.1128  0.4037
  114OSM   H12F11870   3.408   6.646   5.599  3.2508 -0.6783 -0.8736
  114OSM   H12G11871   3.270   6.524   5.584  0.1451 -0.5914  0.8883
  114OSM   C13F11872   3.460   6.498   5.474  0.0908 -0.4690  0.1627
  114OSM   H13F11873   3.565   6.517   5.505 -0.3564 -0.9209  2.0808
  114OSM   H13G11874   3.438   6.574   5.395  0.4681 -1.2989 -0.7649
  114OSM   C14F11875   3.416   6.371   5.417  0.0933  0.6761 -0.5929
  114OSM   H14F11876   3.309   6.346   5.428  0.6997 -1.6814  0.4822
  114OSM   H14G11877   3.476   6.289   5.462  0.6061  0.5020 -1.5747
  114OSM   C15F11878   3.443   6.367   5.266  0.4690 -0.1748  0.1212
  114OSM   H15F11879   3.403   6.453   5.209 -0.6104  0.1927  1.3680
  114OSM   H15G11880   3.383   6.279   5.232  0.7747 -0.5464  0.5350
  114OSM   C16F11881   3.592   6.344   5.242 -0.4967 -0.3804  0.1979
  114OSM   H16F11882   3.616   6.247   5.291 -1.1556 -1.6102 -1.8219
  114OSM   H16G11883   3.652   6.427   5.286  1.9200 -0.3254 -2.8665
  114OSM   C17F11884   3.626   6.320   5.094  0.0583 -0.4464 -0.9803
  114OSM   H17F11885   3.622   6.421   5.048  1.0398  0.1230  0.1241
  114OSM   H17G11886   3.557   6.245   5.050 -1.1143  0.7009 -1.1371
  114OSM   C18F11887   3.772   6.277   5.073 -0.6661  0.2149  0.5942
  114OSM   H18F11888   3.782   6.173   5.110  2.8414  0.2689  0.1404
  114OSM   H18G11889   3.851   6.342   5.115  0.1652 -1.3461  1.5365
  114OSM   H18H11890   3.787   6.272   4.963 -0.4172 -0.9447  0.6653
  115OSM      N11891   4.492   3.538   7.170 -0.1957 -0.9083 -0.2052
  115OSM    C1511892   4.404   3.456   7.250  0.3520  0.0076  0.4099
  115OSM   H15A11893   4.430   3.352   7.238 -1.8440 -0.6403  0.7968
  115OSM   H15B11894   4.303   3.452   7.213  0.7324 -2.3862 -0.5226
  115OSM   H15C11895   4.395   3.489   7.352 -0.6211 -1.6246  0.8902
  115OSM    C1411896   4.452   3.685   7.169  0.5196  0.0106 -0.7531
  115OSM   H14A11897   4.468   3.723   7.269  0.9388  0.1468 -0.8681
  115OSM   H14B11898   4.345   3.690   7.159  0.4458 -1.4130 -0.8848
  115OSM   H14C11899   4.509   3.747   7.101  1.0197  0.4987  0.0907
  115OSM    C1311900   4.631   3.538   7.222 -0.3936 -0.6233  0.3476
  115OSM   H13A11901   4.623   3.568   7.326 -3.7751 -2.8482  0.8872
  115OSM   H13B11902   4.684   3.610   7.162  0.2954 -0.1253  1.5108
  115OSM   H13C11903   4.678   3.441   7.213 -0.4812 -0.5908 -0.5452
  115OSM    C1211904   4.482   3.488   7.023 -0.2458  0.4067 -0.1490
  115OSM   H12A11905   4.539   3.399   7.001  0.0241  0.7344 -0.8026
  115OSM   H12B11906   4.532   3.567   6.969  2.6075 -1.6506 -0.7229
  115OSM    C1111907   4.337   3.475   6.968 -0.2496  0.4760  0.0229
  115OSM   H11A11908   4.334   3.472   6.857 -2.2965 -2.0281  0.0755
  115OSM   H11B11909   4.291   3.568   7.009  2.1520  2.1618 -0.8539
  115OSM      P11910   4.296   3.218   6.962 -0.3618 -0.0681 -0.2470
  115OSM    O1311911   4.442   3.193   6.950 -0.1552 -0.2796  0.7819
  115OSM    O1411912   4.218   3.116   7.031 -0.0806  0.1166 -0.1482
  115OSM    O1111913   4.235   3.226   6.820  0.3350  0.4557  0.5593
  115OSM    O1211914   4.270   3.362   7.020 -0.1495 -0.5349  0.1177
  115OSM    C1S11915   4.102   3.268   6.792 -0.1135 -0.4269 -0.9391
  115OSM    H1S11916   4.082   3.358   6.854  0.3183 -0.3476 -0.9178
  115OSM    H1T11917   4.036   3.183   6.819 -0.8488  0.3711 -0.1133
  115OSM     NF11918   3.952   3.385   6.622 -0.5867  0.8579 -0.2407
  115OSM    HNF11919   3.880   3.327   6.584 -1.6951  1.9477  0.1044
  115OSM    C2S11920   4.075   3.317   6.648 -0.0627 -0.2583  0.1674
  115OSM    H2S11921   4.152   3.391   6.619 -2.8452  2.4720 -0.8452
  115OSM    C3S11922   4.101   3.205   6.542 -0.6199  0.4108  0.0332
  115OSM    H3S11923   4.028   3.121   6.543  0.3453 -0.4745 -1.1816
  115OSM     O311924   4.235   3.148   6.562  0.8551 -0.1965 -0.1079
  115OSM    HO311925   4.263   3.183   6.647  2.7209  0.8331 -1.0804
  115OSM    C4S11926   4.098   3.252   6.395  0.2166 -0.0563 -0.2788
  115OSM    H4S11927   4.165   3.333   6.365  0.1326 -0.3856 -1.4187
  115OSM    C5S11928   4.019   3.203   6.296 -0.8362 -0.9423 -0.8879
  115OSM    H5S11929   3.957   3.115   6.313  1.3502 -2.4635 -0.2969
  115OSM    C6S11930   4.038   3.236   6.152 -0.0292 -0.1281 -0.5928
  115OSM    H6S11931   4.036   3.138   6.099  0.6632  0.0563 -0.9736
  115OSM    H6T11932   4.138   3.277   6.126  0.0247 -0.1961 -0.4910
  115OSM    C7S11933   3.925   3.308   6.083  0.4097 -0.3214 -0.2900
  115OSM    H7S11934   3.913   3.413   6.117 -2.0330  0.0895 -2.1069
  115OSM    H7T11935   3.829   3.262   6.116  1.4567 -0.1259  3.4727
  115OSM    C8S11936   3.940   3.341   5.929 -0.3368 -0.7917  0.8511
  115OSM    H8S11937   3.976   3.250   5.876  0.7296  0.9370 -1.5853
  115OSM    H8T11938   4.029   3.407   5.919  0.0392 -1.4948 -0.6781
  115OSM    C9S11939   3.811   3.396   5.867 -0.6103 -0.6330 -0.0499
  115OSM    H9S11940   3.780   3.482   5.929  0.2416  0.8371 -1.5667
  115OSM    H9T11941   3.730   3.321   5.875 -0.2440 -0.8947  1.3747
  115OSM   C10S11942   3.818   3.430   5.717  0.3522  0.6127  0.6288
  115OSM   H10S11943   3.907   3.489   5.687  1.7096 -0.9503  1.4340
  115OSM   H10T11944   3.730   3.483   5.675  0.0348 -0.4486 -0.1214
  115OSM   C11S11945   3.814   3.307   5.622 -0.4655  0.9869 -0.1081
  115OSM   H11S11946   3.713   3.268   5.600 -0.7722  1.4365  0.5141
  115OSM   H11T11947   3.875   3.226   5.668 -0.3497 -0.6716 -2.9144
  115OSM   C12S11948   3.888   3.356   5.494 -0.4797 -0.0065 -0.0498
  115OSM   H12S11949   3.980   3.410   5.524 -2.0188  1.6241  2.1002
  115OSM   H12T11950   3.825   3.431   5.443  0.7516  1.5293  0.6107
  115OSM   C13S11951   3.923   3.238   5.402 -0.0448 -0.4577  0.3397
  115OSM   H13S11952   3.835   3.171   5.390 -1.1114  0.9989 -0.4332
  115OSM   H13T11953   3.999   3.172   5.448 -0.0877 -0.4605  0.4059
  115OSM   C14S11954   3.976   3.292   5.266  0.0655  0.1397  0.1113
  115OSM   H14S11955   4.017   3.205   5.210  0.4197  0.5307 -0.2427
  115OSM   H14T11956   4.063   3.359   5.283 -0.6070  0.9816  0.3142
  115OSM   C15S11957   3.872   3.368   5.177  0.0651 -0.2468  0.1308
  115OSM   H15S11958   3.880   3.474   5.209 -0.1325  0.0771 -0.8907
  115OSM   H15T11959   3.768   3.333   5.193  0.0200  0.0771  0.5653
  115OSM   C16S11960   3.914   3.350   5.033  0.5995 -0.3816  0.3998
  115OSM   H16S11961   4.022   3.369   5.014  0.1504  2.0018 -0.0248
  115OSM   H16T11962   3.855   3.416   4.966 -1.8963 -2.7673  0.0767
  115OSM   C17S11963   3.908   3.211   4.978 -0.2992 -0.8673 -0.4851
  115OSM   H17S11964   3.801   3.183   4.964 -0.4908 -1.6500  2.0019
  115OSM   H17T11965   3.940   3.128   5.044 -1.2015 -0.2695  0.7427
  115OSM   C18S11966   3.964   3.212   4.836 -0.4283 -0.7513 -0.9318
  115OSM   H18S11967   3.911   3.141   4.770  1.0048 -1.0861 -1.7709
  115OSM   H18T11968   4.072   3.185   4.837  0.4097  2.2603  0.5703
  115OSM   H18U11969   3.964   3.309   4.782 -0.1126  0.0547  0.4725
  115OSM    C1F11970   3.928   3.509   6.664 -0.2760  0.3540  0.3146
  115OSM     OF11971   4.022   3.571   6.709  0.4193 -1.0006  0.1161
  115OSM    C2F11972   3.789   3.561   6.649  0.1480  0.6671 -0.1225
  115OSM    H2F11973   3.745   3.591   6.746  1.8700  1.4096  0.4687
  115OSM    H2G11974   3.733   3.472   6.612 -1.4938  1.3111  0.7179
  115OSM    C3F11975   3.791   3.678   6.543  0.5245  0.3716  0.5105
  115OSM    H3F11976   3.859   3.763   6.563  0.2761  0.9375 -0.9246
  115OSM    H3G11977   3.696   3.735   6.536  0.6616  0.7311  1.5371
  115OSM    C4F11978   3.809   3.640   6.389  0.5071  0.3800 -1.2452
  115OSM    H4F11979   3.734   3.559   6.372  0.5121  0.0764  0.1187
  115OSM    H4G11980   3.909   3.598   6.367  0.6287  0.5573 -1.0286
  115OSM    C5F11981   3.790   3.761   6.299  0.5126  0.1237  0.1400
  115OSM    H5F11982   3.858   3.845   6.326 -1.4498  2.0766 -0.7110
  115OSM    H5G11983   3.688   3.799   6.315  0.8863  1.0279  0.4303
  115OSM    C6F11984   3.793   3.734   6.151 -0.0183 -0.2353 -0.4702
  115OSM    H6F11985   3.705   3.672   6.124  0.9243 -1.0067 -1.8792
  115OSM    H6G11986   3.887   3.676   6.135  0.2243 -0.2134  0.7941
  115OSM    C7F11987   3.802   3.860   6.062  0.1275  0.0760 -0.0818
  115OSM    H7F11988   3.897   3.910   6.093 -0.3162  0.7651  0.2075
  115OSM    H7G11989   3.716   3.925   6.089 -0.4665 -0.8590  0.3437
  115OSM    C8F11990   3.816   3.834   5.917 -0.8177  0.7490  0.9767
  115OSM    H8F11991   3.740   3.763   5.877 -1.7130  1.5827  1.1779
  115OSM    H8G11992   3.915   3.788   5.896 -0.0226  2.7967 -0.0626
  115OSM    C9F11993   3.815   3.960   5.828  0.6439 -0.3774  0.4817
  115OSM    H9F11994   3.819   4.052   5.889  1.7221  1.0171 -1.5350
  115OSM   C10F11995   3.820   3.966   5.691 -0.0700  0.5014 -0.8563
  115OSM   H10F11996   3.826   4.063   5.638  0.0563 -0.2392 -2.2606
  115OSM   C11F11997   3.814   3.845   5.598  0.3201  0.5461  0.9898
  115OSM   H11F11998   3.714   3.798   5.591  0.9274 -0.6967  0.2780
  115OSM   H11G11999   3.887   3.766   5.626 -0.0410 -0.6950 -1.3230
  115OSM   C12F12000   3.838   3.890   5.452  0.0652  0.4575 -0.6863
  115OSM   H12F12001   3.943   3.927   5.446 -0.2223  1.9331  1.7075
  115OSM   H12G12002   3.771   3.978   5.443 -1.3976 -0.3369  1.6662
  115OSM   C13F12003   3.820   3.776   5.346 -0.7591 -0.3900 -0.8817
  115OSM   H13F12004   3.757   3.696   5.389 -0.4821 -0.7496 -1.1370
  115OSM   H13G12005   3.918   3.732   5.315 -0.6248 -1.8675  1.4381
  115OSM   C14F12006   3.751   3.830   5.222  0.2639 -0.8779  0.1140
  115OSM   H14F12007   3.814   3.908   5.174 -1.9945  0.9282 -0.0973
  115OSM   H14G12008   3.652   3.869   5.252  0.2166 -1.8851  1.3497
  115OSM   C15F12009   3.717   3.735   5.117  0.3118  0.8705  0.2097
  115OSM   H15F12010   3.655   3.657   5.165 -0.4066  0.6092 -1.0789
  115OSM   H15G12011   3.808   3.683   5.081  0.6853  0.8192  1.1986
  115OSM   C16F12012   3.641   3.800   5.004  0.6021  0.1845  0.0660
  115OSM   H16F12013   3.697   3.888   4.966 -0.3166  1.0650  0.7157
  115OSM   H16G12014   3.538   3.827   5.033  0.1938 -1.9430  0.7873
  115OSM   C17F12015   3.598   3.704   4.890  0.5271  0.1853  0.9820
  115OSM   H17F12016   3.686   3.679   4.827  0.5483  1.2022  0.5831
  115OSM   H17G12017   3.534   3.770   4.829  0.8795  2.6469  3.0758
  115OSM   C18F12018   3.522   3.580   4.935 -0.3857  0.3537  0.0925
  115OSM   H18F12019   3.518   3.514   4.846 -0.2968 -0.1636  0.4653
  115OSM   H18G12020   3.422   3.592   4.981  0.5507 -1.9387  3.0978
  115OSM   H18H12021   3.581   3.528   5.013  0.6468  0.8083 -0.3627
  116OSM      N12022   3.779   1.769   6.351 -0.0608 -0.2332 -0.2000
  116OSM    C1512023   3.886   1.867   6.394  0.0648 -0.1704  0.9284
  116OSM   H15A12024   3.977   1.858   6.336  0.2606  1.8789  0.8320
  116OSM   H15B12025   3.921   1.876   6.496  1.1219  1.6218  0.4537
  116OSM   H15C12026   3.858   1.966   6.359  1.4160 -0.4106 -0.9937
  116OSM    C1412027   3.750   1.803   6.212  0.4036  0.4510  0.6862
  116OSM   H14A12028   3.831   1.769   6.150 -1.4179  0.9717 -2.1679
  116OSM   H14B12029   3.726   1.908   6.199 -2.1563 -0.1155  0.2204
  116OSM   H14C12030   3.659   1.752   6.183  0.0484  0.7857  1.1843
  116OSM    C1312031   3.845   1.631   6.349  0.6607 -0.6322 -1.2422
  116OSM   H13A12032   3.936   1.643   6.293 -0.2185 -0.2998 -2.6624
  116OSM   H13B12033   3.778   1.558   6.305 -0.2459 -1.4747  1.3903
  116OSM   H13C12034   3.859   1.612   6.454  1.0150  1.7813 -0.7948
  116OSM    C1212035   3.657   1.775   6.445 -0.3514  0.0479  0.7054
  116OSM   H12A12036   3.614   1.874   6.449 -0.8069  0.1006 -2.5013
  116OSM   H12B12037   3.680   1.739   6.544  1.9408 -0.5839  0.0002
  116OSM    C1112038   3.539   1.693   6.395 -0.6800 -0.3366  0.8513
  116OSM   H11A12039   3.559   1.591   6.354 -0.8377 -0.5935  1.4024
  116OSM   H11B12040   3.492   1.750   6.312 -1.1332 -2.0086 -0.1030
  116OSM      P12041   3.476   1.597   6.624  0.0974  0.2314  0.0830
  116OSM    O1312042   3.551   1.676   6.718  0.0893  0.2637 -0.2095
  116OSM    O1412043   3.344   1.545   6.678  0.3083 -0.0249  0.2895
  116OSM    O1112044   3.568   1.484   6.564 -0.1704 -0.4106  0.0722
  116OSM    O1212045   3.446   1.688   6.500 -0.1253 -0.3753 -0.2779
  116OSM    C1S12046   3.513   1.369   6.504  0.0115  0.2366  0.9869
  116OSM    H1S12047   3.508   1.384   6.394 -0.9532 -0.8093  0.8708
  116OSM    H1T12048   3.414   1.339   6.545 -0.4597 -0.9215 -0.9015
  116OSM     NF12049   3.523   1.129   6.480 -0.1195 -0.6664  0.2662
  116OSM    HNF12050   3.469   1.080   6.548  1.7631 -1.6618  1.1389
  116OSM    C2S12051   3.595   1.243   6.538 -0.0854  0.0084  0.2155
  116OSM    H2S12052   3.689   1.246   6.479 -0.1810 -2.0238 -0.0898
  116OSM    C3S12053   3.624   1.228   6.687 -0.7170 -0.2006  0.2439
  116OSM    H3S12054   3.547   1.179   6.750  0.2488 -0.5531  1.1753
  116OSM     O312055   3.675   1.343   6.761  0.3392 -0.0623  0.8209
  116OSM    HO312056   3.666   1.417   6.700  0.1787 -1.2377 -0.6149
  116OSM    C4S12057   3.742   1.137   6.691 -0.8847 -0.4945  0.3240
  116OSM    H4S12058   3.835   1.156   6.635 -0.5577 -0.6948  0.7876
  116OSM    C5S12059   3.740   1.011   6.737  0.4357 -0.2645  0.1518
  116OSM    H5S12060   3.636   0.974   6.732 -0.2266  1.4230  0.7687
  116OSM    C6S12061   3.858   0.919   6.722 -0.6257  0.8796  0.1927
  116OSM    H6S12062   3.870   0.858   6.814 -3.0168  1.1199  0.7243
  116OSM    H6T12063   3.957   0.968   6.711  0.4532 -1.7337 -4.5065
  116OSM    C7S12064   3.827   0.826   6.601 -0.6918  0.3817 -0.1860
  116OSM    H7S12065   3.729   0.776   6.619 -0.4935  0.7266  2.1406
  116OSM    H7T12066   3.901   0.744   6.610 -1.8560 -0.5917  0.9066
  116OSM    C8S12067   3.822   0.897   6.464 -0.1318 -0.0407 -0.1942
  116OSM    H8S12068   3.911   0.962   6.450  1.0477 -1.2814  1.1431
  116OSM    H8T12069   3.732   0.962   6.462  0.8521  1.3355 -0.9784
  116OSM    C9S12070   3.820   0.800   6.341  0.2165 -0.1288  0.4137
  116OSM    H9S12071   3.728   0.738   6.333 -0.0457  0.5002 -2.5136
  116OSM    H9T12072   3.910   0.736   6.344 -1.9979 -3.5498 -0.4313
  116OSM   C10S12073   3.830   0.892   6.215 -0.1556  0.3040  0.7461
  116OSM   H10S12074   3.913   0.965   6.208 -1.0278  1.1633 -1.9188
  116OSM   H10T12075   3.736   0.949   6.200 -0.0679  0.6975  1.6006
  116OSM   C11S12076   3.836   0.796   6.098 -0.4572  0.0367  0.5537
  116OSM   H11S12077   3.778   0.707   6.129  1.4832 -0.6979  2.3834
  116OSM   H11T12078   3.944   0.772   6.087 -0.6768 -0.3461 -0.8605
  116OSM   C12S12079   3.782   0.865   5.975  0.5776 -0.5208 -0.3611
  116OSM   H12S12080   3.839   0.958   5.958  0.3096 -0.4132 -0.6906
  116OSM   H12T12081   3.673   0.883   5.986  0.4392 -1.7708  0.5263
  116OSM   C13S12082   3.783   0.771   5.858  0.0743 -0.6973 -0.0142
  116OSM   H13S12083   3.733   0.675   5.883 -1.0370 -0.7955 -2.3380
  116OSM   H13T12084   3.882   0.741   5.819  1.1534  1.2447  1.1116
  116OSM   C14S12085   3.704   0.833   5.740  0.4479 -0.0622  0.4054
  116OSM   H14S12086   3.755   0.929   5.719  0.5380  0.2000  1.7056
  116OSM   H14T12087   3.597   0.849   5.768  0.2521 -0.2640 -0.2194
  116OSM   C15S12088   3.715   0.748   5.616  0.1065  0.3984  0.2089
  116OSM   H15S12089   3.678   0.644   5.623 -2.6723  1.4103  1.9240
  116OSM   H15T12090   3.825   0.746   5.599  0.0953 -0.7209  0.1837
  116OSM   C16S12091   3.661   0.812   5.479 -0.2169  0.2240 -0.5251
  116OSM   H16S12092   3.703   0.914   5.469  0.6650 -0.1968 -1.2216
  116OSM   H16T12093   3.551   0.822   5.488 -0.3003 -0.3677 -0.8961
  116OSM   C17S12094   3.688   0.737   5.346  0.7495 -0.4930 -0.2600
  116OSM   H17S12095   3.631   0.797   5.272  2.7932  0.5978 -1.0266
  116OSM   H17T12096   3.642   0.639   5.369  1.6225 -1.2008 -1.4485
  116OSM   C18S12097   3.833   0.715   5.310  0.3848 -0.5388  0.7288
  116OSM   H18S12098   3.894   0.808   5.313 -0.0239 -0.2664  0.8243
  116OSM   H18T12099   3.835   0.677   5.206  1.2301  2.2252 -0.3505
  116OSM   H18U12100   3.876   0.640   5.379 -2.4716 -2.0048  1.0807
  116OSM    C1F12101   3.508   1.105   6.352  0.0539  0.4706  0.5676
  116OSM     OF12102   3.573   1.168   6.263  0.2679  0.1025 -0.8165
  116OSM    C2F12103   3.406   0.990   6.324  0.3548  0.6997  0.7172
  116OSM    H2F12104   3.302   1.020   6.347  0.3807  0.2381  1.4610
  116OSM    H2G12105   3.436   0.896   6.375 -2.4107 -0.2240  0.8138
  116OSM    C3F12106   3.398   0.956   6.172 -0.1807  0.5555  0.1661
  116OSM    H3F12107   3.494   0.909   6.142 -0.6901 -0.1855 -0.3185
  116OSM    H3G12108   3.400   1.050   6.112  0.7721 -0.7535 -1.9684
  116OSM    C4F12109   3.289   0.867   6.130  0.1206  0.1412 -0.3932
  116OSM    H4F12110   3.194   0.922   6.148 -0.7323 -1.0581 -1.0723
  116OSM    H4G12111   3.277   0.770   6.183 -0.8417 -1.5101 -3.3887
  116OSM    C5F12112   3.283   0.828   5.980 -0.2153  0.6998  0.1608
  116OSM    H5F12113   3.188   0.778   5.953  0.8127 -0.4759 -1.4733
  116OSM    H5G12114   3.365   0.755   5.970 -0.3929  0.3223  1.2728
  116OSM    C6F12115   3.280   0.950   5.892 -0.6848 -0.4393  0.1917
  116OSM    H6F12116   3.379   0.999   5.884 -0.5598 -0.6988  0.1244
  116OSM    H6G12117   3.202   1.025   5.915 -0.0238  1.1136 -2.3253
  116OSM    C7F12118   3.254   0.907   5.744 -0.5444  0.2732  0.0145
  116OSM    H7F12119   3.157   0.855   5.729 -1.2001  0.7255  2.2684
  116OSM    H7G12120   3.336   0.835   5.721 -1.4800 -0.5077 -0.9740
  116OSM    C8F12121   3.257   1.035   5.649 -0.3726 -0.0462  0.2979
  116OSM    H8F12122   3.343   1.093   5.688  0.2063 -0.8902  0.3267
  116OSM    H8G12123   3.163   1.091   5.664  1.2413  3.4274 -1.4786
  116OSM    C9F12124   3.269   0.987   5.505  0.3069  0.1184  0.5900
  116OSM    H9F12125   3.341   0.905   5.489 -1.2383 -1.7403  2.5791
  116OSM   C10F12126   3.174   1.012   5.403 -0.1178 -0.6492 -0.1447
  116OSM   H10F12127   3.192   0.949   5.315  1.1866  0.6580 -0.8486
  116OSM   C11F12128   3.063   1.118   5.396 -0.2506  0.3203 -0.2389
  116OSM   H11F12129   3.035   1.157   5.496  1.6546 -0.8388  0.8033
  116OSM   H11G12130   2.979   1.062   5.350 -0.0545 -0.9405  0.8622
  116OSM   C12F12131   3.091   1.231   5.301 -0.2445  0.1928  0.0085
  116OSM   H12F12132   3.180   1.286   5.338 -1.2326  1.8406  0.0813
  116OSM   H12G12133   3.003   1.299   5.297  0.7198  1.4168 -1.0427
  116OSM   C13F12134   3.121   1.189   5.161  0.0938  0.6848 -0.4236
  116OSM   H13F12135   3.047   1.115   5.125  0.2558  0.7508 -0.9051
  116OSM   H13G12136   3.216   1.131   5.159 -0.5502 -0.4502  0.7034
  116OSM   C14F12137   3.133   1.308   5.065  0.1283  0.3215 -0.3989
  116OSM   H14F12138   3.224   1.364   5.095 -1.2122  1.7957  1.0963
  116OSM   H14G12139   3.044   1.369   5.089 -0.7627 -1.1734  0.2037
  116OSM   C15F12140   3.150   1.270   4.919  0.0739  0.2652  0.6689
  116OSM   H15F12141   3.236   1.201   4.922 -0.4452 -0.6456 -2.3154
  116OSM   H15G12142   3.183   1.354   4.854 -0.9971 -0.4970 -0.9132
  116OSM   C16F12143   3.029   1.201   4.851 -0.5760 -0.2596  0.6339
  116OSM   H16F12144   2.941   1.269   4.863 -1.9772 -1.7617 -0.5473
  116OSM   H16G12145   2.999   1.110   4.907 -1.3636  0.1670  0.9304
  116OSM   C17F12146   3.062   1.173   4.699 -0.2518  0.6738  0.2056
  116OSM   H17F12147   3.127   1.258   4.671  0.0112  0.4611  0.1642
  116OSM   H17G12148   2.965   1.166   4.645 -0.5700 -0.2525  0.8668
  116OSM   C18F12149   3.147   1.048   4.677 -0.0051 -0.5791  0.6245
  116OSM   H18F12150   3.204   1.044   4.582  0.5467 -1.7916  0.9805
  116OSM   H18G12151   3.081   0.958   4.671  1.1665 -1.3493 -1.8367
  116OSM   H18H12152   3.223   1.033   4.757  0.5248 -1.7528 -0.0771
  117OSM      N12153   3.375   4.390   7.209  0.7041 -0.2024  0.2784
  117OSM    C1512154   3.237   4.438   7.236  0.0579 -0.0784 -0.0165
  117OSM   H15A12155   3.207   4.412   7.336  1.6785  2.1793  1.1704
  117OSM   H15B12156   3.165   4.388   7.174 -0.8450 -0.1653  1.0802
  117OSM   H15C12157   3.233   4.546   7.239  0.1889 -0.0797  0.2985
  117OSM    C1412158   3.409   4.448   7.070  0.0712 -0.3750 -0.3548
  117OSM   H14A12159   3.346   4.408   6.992 -1.0303  1.2411 -0.3386
  117OSM   H14B12160   3.512   4.428   7.042  1.1927  1.5042  2.0077
  117OSM   H14C12161   3.382   4.552   7.061 -1.6302 -0.8901 -1.7424
  117OSM    C1312162   3.473   4.450   7.317 -0.2041 -0.0037  0.0383
  117OSM   H13A12163   3.472   4.558   7.308  0.4135 -0.0013 -0.0684
  117OSM   H13B12164   3.574   4.418   7.300 -0.1700  0.6511 -1.1839
  117OSM   H13C12165   3.444   4.420   7.416 -0.7497 -1.9939 -0.6892
  117OSM    C1212166   3.382   4.243   7.208 -0.3361  0.6725 -0.3723
  117OSM   H12A12167   3.483   4.224   7.174  0.5111 -0.1569  2.3010
  117OSM   H12B12168   3.320   4.192   7.136  0.1394  0.1929 -0.4496
  117OSM    C1112169   3.355   4.174   7.346  0.0567  0.3866 -1.0630
  117OSM   H11A12170   3.396   4.231   7.432 -2.5271  0.8650 -0.0689
  117OSM   H11B12171   3.402   4.073   7.339 -0.3013  0.2621 -1.7817
  117OSM      P12172   3.136   4.030   7.330  0.5357 -0.0318  0.5840
  117OSM    O1312173   3.214   3.909   7.311  0.4943  0.1643 -0.5813
  117OSM    O1412174   3.017   4.014   7.414  0.0938 -0.5265  0.0660
  117OSM    O1112175   3.091   4.073   7.182 -0.6646 -0.2417 -0.0285
  117OSM    O1212176   3.211   4.164   7.364  0.2454  0.8560  0.2050
  117OSM    C1S12177   3.144   3.992   7.076 -0.2745  0.1591  0.0363
  117OSM    H1S12178   3.142   3.883   7.096 -1.7459  0.0088 -0.7298
  117OSM    H1T12179   3.250   4.015   7.051 -0.6083  2.2193  0.3651
  117OSM     NF12180   3.095   3.923   6.829 -0.1530  0.3193 -0.1258
  117OSM    HNF12181   3.151   3.936   6.748  0.1876  3.2428  0.4780
  117OSM    C2S12182   3.074   4.027   6.932  0.1749 -0.1794  0.3573
  117OSM    H2S12183   2.965   4.027   6.951  0.4825 -1.1711  2.4034
  117OSM    C3S12184   3.118   4.177   6.891 -0.0175  0.8349 -0.3975
  117OSM    H3S12185   3.226   4.165   6.866  0.0825 -0.9039  0.6909
  117OSM     O312186   3.129   4.265   6.999  0.4380  0.2404  0.0290
  117OSM    HO312187   3.101   4.219   7.078  0.2633 -0.1055 -0.2367
  117OSM    C4S12188   3.040   4.222   6.777 -0.1955 -0.3852 -0.2930
  117OSM    H4S12189   3.079   4.183   6.682 -2.3824  0.4602 -1.6090
  117OSM    C5S12190   2.933   4.310   6.767  0.1327  0.2417 -0.1705
  117OSM    H5S12191   2.891   4.353   6.860 -2.2617  0.5234 -1.2968
  117OSM    C6S12192   2.843   4.340   6.647 -0.3430 -0.1754  0.1180
  117OSM    H6S12193   2.841   4.448   6.621 -2.4386  0.1072  1.2265
  117OSM    H6T12194   2.741   4.309   6.678 -0.0735 -0.3582  0.8256
  117OSM    C7S12195   2.881   4.258   6.526  0.3258 -0.3237 -0.9000
  117OSM    H7S12196   2.872   4.150   6.550  0.8921 -0.4042 -1.0185
  117OSM    H7T12197   2.988   4.276   6.502  0.5951  0.1777  0.5686
  117OSM    C8S12198   2.802   4.286   6.397  0.2044 -0.3733  0.1076
  117OSM    H8S12199   2.692   4.275   6.414  0.6146 -2.9169  1.5752
  117OSM    H8T12200   2.828   4.206   6.324  0.5210 -1.0223  0.9283
  117OSM    C9S12201   2.844   4.425   6.333  0.6911  0.2725  0.1453
  117OSM    H9S12202   2.954   4.419   6.327  0.8138  1.5483  0.8976
  117OSM    H9T12203   2.819   4.503   6.408  0.2324 -2.3908  2.9691
  117OSM   C10S12204   2.770   4.455   6.189  0.2993  0.3250  0.1498
  117OSM   H10S12205   2.796   4.561   6.167  3.6714 -0.3133  0.5262
  117OSM   H10T12206   2.660   4.444   6.184  0.0363  2.0198  1.4370
  117OSM   C11S12207   2.827   4.367   6.078 -0.3348 -0.4676  0.4212
  117OSM   H11S12208   2.764   4.275   6.073 -1.7037  0.2641  2.6961
  117OSM   H11T12209   2.931   4.330   6.083 -0.1751 -0.1451 -0.3179
  117OSM   C12S12210   2.809   4.438   5.937 -0.5245 -0.2248 -1.0688
  117OSM   H12S12211   2.887   4.515   5.952 -1.0349 -0.1920  1.8723
  117OSM   H12T12212   2.709   4.485   5.932 -0.4944  0.5887  2.8040
  117OSM   C13S12213   2.849   4.349   5.821 -0.0006 -0.7922 -0.6578
  117OSM   H13S12214   2.757   4.293   5.797  0.2986 -1.3665 -0.4860
  117OSM   H13T12215   2.926   4.271   5.839 -0.7346 -1.8716 -1.9803
  117OSM   C14S12216   2.891   4.434   5.702 -0.3937  0.4022 -0.4408
  117OSM   H14S12217   2.950   4.381   5.624  1.8590 -0.4562  1.7221
  117OSM   H14T12218   2.961   4.515   5.730  1.0866 -0.5682 -1.1946
  117OSM   C15S12219   2.773   4.507   5.631  0.4935 -0.5638  0.0467
  117OSM   H15S12220   2.732   4.584   5.700 -0.1640 -1.2649  0.4470
  117OSM   H15T12221   2.692   4.433   5.614 -0.2056 -0.0034  0.8800
  117OSM   C16S12222   2.818   4.575   5.500  0.0207  0.2716 -0.3698
  117OSM   H16S12223   2.809   4.486   5.434 -2.1163  0.5577 -0.5229
  117OSM   H16T12224   2.924   4.608   5.507 -0.1739  0.7833  0.2779
  117OSM   C17S12225   2.716   4.677   5.451 -0.7416  0.0545 -0.4190
  117OSM   H17S12226   2.709   4.748   5.536  1.7740 -0.4999  0.3107
  117OSM   H17T12227   2.621   4.625   5.427 -1.0752  0.3191  0.2774
  117OSM   C18S12228   2.760   4.751   5.318  0.2885  0.8335 -0.8386
  117OSM   H18S12229   2.860   4.793   5.342  0.2611  0.4918 -0.0890
  117OSM   H18T12230   2.686   4.833   5.306  0.8509  2.0755  2.9552
  117OSM   H18U12231   2.754   4.676   5.237  0.5025 -0.5085  0.3642
  117OSM    C1F12232   3.029   3.806   6.846 -0.4035  0.6968  0.0041
  117OSM     OF12233   2.943   3.793   6.934 -0.0072 -0.1755  0.2228
  117OSM    C2F12234   3.059   3.685   6.759 -0.1152 -0.1008 -0.0501
  117OSM    H2F12235   3.085   3.605   6.833  1.8531  0.9259  0.4425
  117OSM    H2G12236   3.145   3.717   6.696 -1.1441  2.3009 -0.3530
  117OSM    C3F12237   2.937   3.669   6.676  0.4053  0.3067 -0.4522
  117OSM    H3F12238   2.847   3.659   6.739  0.8468  1.2694  0.3610
  117OSM    H3G12239   2.944   3.575   6.617  2.0157  0.9880 -1.4370
  117OSM    C4F12240   2.921   3.778   6.569 -0.2571 -0.1711 -0.1596
  117OSM    H4F12241   3.023   3.797   6.531  0.9117 -3.3745  1.0446
  117OSM    H4G12242   2.894   3.864   6.634  0.9491 -0.3550  0.6127
  117OSM    C5F12243   2.813   3.749   6.468  0.5689 -0.5340  0.6066
  117OSM    H5F12244   2.715   3.729   6.515  1.1298  0.5419  2.3298
  117OSM    H5G12245   2.841   3.658   6.410  0.5175 -0.9100  1.1690
  117OSM    C6F12246   2.798   3.867   6.367 -0.3463  0.3733  0.9205
  117OSM    H6F12247   2.893   3.897   6.319 -0.4103 -1.6114 -0.5272
  117OSM    H6G12248   2.767   3.963   6.414 -1.9555  0.4943 -0.3061
  117OSM    C7F12249   2.696   3.840   6.253  0.0303  0.6053  0.1210
  117OSM    H7F12250   2.600   3.803   6.295  1.6278 -3.4834  0.5617
  117OSM    H7G12251   2.738   3.754   6.196 -0.4802 -1.2979  2.4470
  117OSM    C8F12252   2.668   3.964   6.169  0.1265 -0.6760  0.7018
  117OSM    H8F12253   2.642   4.047   6.238 -2.0078 -0.8360  0.1342
  117OSM    H8G12254   2.575   3.953   6.110 -0.0475  2.0163  0.3860
  117OSM    C9F12255   2.784   4.001   6.077 -0.2660 -0.1781 -0.4389
  117OSM    H9F12256   2.863   4.057   6.129 -0.8270  0.7060 -0.5134
  117OSM   C10F12257   2.800   3.949   5.955  0.0384 -0.1129  1.1360
  117OSM   H10F12258   2.880   3.982   5.887  0.2101  0.0862  1.4305
  117OSM   C11F12259   2.707   3.852   5.882  0.6660 -0.1166 -0.1049
  117OSM   H11F12260   2.601   3.859   5.914  0.6734  0.9405 -0.2667
  117OSM   H11G12261   2.745   3.750   5.908  3.3842  0.6070 -0.8808
  117OSM   C12F12262   2.704   3.862   5.726  0.0803 -0.2522  1.0909
  117OSM   H12F12263   2.654   3.774   5.681 -0.1244  0.8734 -0.9956
  117OSM   H12G12264   2.805   3.860   5.681 -0.5895 -0.3318 -0.4984
  117OSM   C13F12265   2.626   3.982   5.687 -0.2470 -0.3031  0.3063
  117OSM   H13F12266   2.697   4.067   5.687  1.2546 -1.5084  0.5736
  117OSM   H13G12267   2.534   3.989   5.748 -0.4462 -0.5320  0.0352
  117OSM   C14F12268   2.585   3.984   5.532 -0.9130  0.3737 -0.3219
  117OSM   H14F12269   2.511   4.066   5.524 -1.7085 -0.4330 -1.8116
  117OSM   H14G12270   2.535   3.887   5.506 -0.4265 -0.2545  1.0100
  117OSM   C15F12271   2.695   4.008   5.434  0.0429 -0.3249  0.0331
  117OSM   H15F12272   2.660   4.016   5.328 -1.0745 -1.6946  0.2682
  117OSM   H15G12273   2.750   3.911   5.441 -0.0372 -0.2532  1.9753
  117OSM   C16F12274   2.803   4.124   5.457  0.1674  0.7173 -0.0580
  117OSM   H16F12275   2.852   4.100   5.554 -0.6647 -0.6442  0.0538
  117OSM   H16G12276   2.764   4.227   5.467  0.0421  0.7720 -1.0681
  117OSM   C17F12277   2.918   4.142   5.355 -0.4561 -0.0150 -0.3230
  117OSM   H17F12278   2.985   4.058   5.383  2.1143  2.4447  1.4942
  117OSM   H17G12279   2.982   4.227   5.386 -0.3077 -1.2970  3.2719
  117OSM   C18F12280   2.881   4.150   5.209 -0.0452 -0.2366  0.4935
  117OSM   H18F12281   2.971   4.112   5.157 -0.3331 -0.4516  0.1456
  117OSM   H18G12282   2.864   4.256   5.180  0.3137  0.0876  1.4385
  117OSM   H18H12283   2.794   4.087   5.179 -0.1582 -0.1639  0.6664
  118OSM      N12284   5.974   3.841   7.309 -0.2504  0.0287 -0.4100
  118OSM    C1512285   6.070   3.910   7.221  0.2981 -0.1085 -0.7202
  118OSM   H15A12286   6.085   3.849   7.133 -1.6031  0.8936 -1.7939
  118OSM   H15B12287   6.171   3.909   7.260  0.4839  0.0200 -1.1835
  118OSM   H15C12288   6.043   4.014   7.217 -1.4086 -0.3373  2.3680
  118OSM    C1412289   6.008   3.696   7.307  0.6889 -0.4533  0.2544
  118OSM   H14A12290   5.929   3.636   7.349 -0.0127  0.9760  1.0459
  118OSM   H14B12291   6.097   3.676   7.365  0.5685 -2.4955 -0.2111
  118OSM   H14C12292   6.018   3.659   7.206 -1.9628 -1.7822  0.4248
  118OSM    C1312293   5.985   3.896   7.448  0.2828  1.2991  0.5305
  118OSM   H13A12294   5.965   3.998   7.476  2.2135  1.8805 -0.0319
  118OSM   H13B12295   6.090   3.887   7.471  0.8609 -0.0667 -2.1641
  118OSM   H13C12296   5.925   3.833   7.512  1.1601  0.0495  0.1729
  118OSM    C1212297   5.835   3.860   7.252 -0.1108 -0.5755 -0.3810
  118OSM   H12A12298   5.802   3.960   7.275 -1.9662 -1.1826 -0.2230
  118OSM   H12B12299   5.760   3.800   7.301  0.4873 -1.2192 -0.2406
  118OSM    C1112300   5.819   3.845   7.091 -0.9381  0.8363 -0.2091
  118OSM   H11A12301   5.870   3.921   7.027 -0.4255 -0.8488 -1.8968
  118OSM   H11B12302   5.712   3.863   7.067 -0.9677 -0.2210 -0.9148
  118OSM      P12303   5.765   3.595   7.054  0.3073 -0.1027 -0.0489
  118OSM    O1312304   5.833   3.466   7.025  0.4565 -0.4747  0.0355
  118OSM    O1412305   5.693   3.605   7.181  0.0716 -0.6679  0.3012
  118OSM    O1112306   5.654   3.609   6.939  0.4231 -0.3181 -0.0134
  118OSM    O1212307   5.863   3.717   7.045 -0.1280  0.2387  0.1518
  118OSM    C1S12308   5.684   3.642   6.801  0.0174 -0.7084  0.0863
  118OSM    H1S12309   5.790   3.631   6.771  0.0394  0.3610 -0.2628
  118OSM    H1T12310   5.659   3.749   6.783 -1.1490 -0.2809  3.5018
  118OSM     NF12311   5.683   3.545   6.576  0.4934  0.3316 -0.5598
  118OSM    HNF12312   5.645   3.583   6.493 -0.1093  0.4387 -0.2428
  118OSM    C2S12313   5.616   3.543   6.704  0.2356  0.7974 -0.0012
  118OSM    H2S12314   5.622   3.441   6.747  2.5773 -0.0925 -2.1692
  118OSM    C3S12315   5.460   3.563   6.696 -0.4443 -0.2502 -0.2028
  118OSM    H3S12316   5.457   3.671   6.670  2.0193  0.0605  0.5342
  118OSM     O312317   5.394   3.543   6.823 -0.1215  0.2668  0.2226
  118OSM    HO312318   5.459   3.542   6.894 -0.8304  0.1152  0.8739
  118OSM    C4S12319   5.394   3.490   6.582  0.2826 -0.2899  0.1119
  118OSM    H4S12320   5.395   3.537   6.483  1.7661 -1.8394 -0.6640
  118OSM    C5S12321   5.324   3.379   6.590 -0.3176  0.2635 -0.3513
  118OSM    H5S12322   5.307   3.328   6.686  1.2375  0.5090  0.0742
  118OSM    C6S12323   5.258   3.309   6.466  0.2166  0.3228 -0.3625
  118OSM    H6S12324   5.152   3.285   6.489  0.1335  0.2565 -0.8017
  118OSM    H6T12325   5.307   3.209   6.473  1.0928  0.7595 -0.0315
  118OSM    C7S12326   5.278   3.372   6.326 -0.0627  0.5065  0.9718
  118OSM    H7S12327   5.386   3.353   6.305  0.2735 -2.0514  4.2236
  118OSM    H7T12328   5.246   3.479   6.324 -0.3818  0.4028 -0.3575
  118OSM    C8S12329   5.186   3.309   6.213  0.0757 -0.0114 -0.1027
  118OSM    H8S12330   5.081   3.338   6.236 -0.2061 -0.1701 -1.1237
  118OSM    H8T12331   5.200   3.200   6.227  2.9004  0.4519  1.2541
  118OSM    C9S12332   5.227   3.363   6.077  0.0078 -1.1819 -0.3301
  118OSM    H9S12333   5.336   3.382   6.089  0.6281 -3.8149 -1.2799
  118OSM    H9T12334   5.189   3.467   6.065  1.8300 -0.4507 -0.0243
  118OSM   C10S12335   5.168   3.299   5.948 -0.5470  0.1752 -0.2989
  118OSM   H10S12336   5.060   3.276   5.964 -0.4232 -0.4526 -0.3143
  118OSM   H10T12337   5.205   3.194   5.938 -1.1836 -0.5649  3.3586
  118OSM   C11S12338   5.195   3.381   5.827 -0.5656  0.1450 -0.3972
  118OSM   H11S12339   5.302   3.410   5.836 -0.6483  0.1181  0.8340
  118OSM   H11T12340   5.135   3.474   5.833 -0.8675 -0.1522  2.2802
  118OSM   C12S12341   5.159   3.316   5.693 -0.6105  0.0322  0.1461
  118OSM   H12S12342   5.048   3.313   5.686 -0.4602 -1.1312 -3.0524
  118OSM   H12T12343   5.193   3.211   5.704  0.2384 -0.0727 -2.8444
  118OSM   C13S12344   5.230   3.360   5.559 -0.6631  0.1342  0.0486
  118OSM   H13S12345   5.338   3.362   5.586 -0.4860 -1.2614 -0.4842
  118OSM   H13T12346   5.193   3.460   5.528 -0.8781  0.0064 -0.1092
  118OSM   C14S12347   5.195   3.266   5.444  0.0983 -0.1657 -0.6080
  118OSM   H14S12348   5.092   3.274   5.402 -0.3057 -2.2349 -0.1265
  118OSM   H14T12349   5.213   3.165   5.487 -0.1886 -0.0780 -0.2820
  118OSM   C15S12350   5.293   3.298   5.325  0.0394 -0.1806 -0.6232
  118OSM   H15S12351   5.295   3.214   5.252  0.4800  0.3915 -1.2784
  118OSM   H15T12352   5.398   3.299   5.359 -0.2408 -3.3852  0.6802
  118OSM   C16S12353   5.260   3.429   5.255  0.4450  0.2232 -0.1945
  118OSM   H16S12354   5.287   3.505   5.330 -0.8513 -0.6907  1.2638
  118OSM   H16T12355   5.152   3.424   5.226  0.6226 -0.9704 -0.7149
  118OSM   C17S12356   5.337   3.451   5.122  0.0779 -0.3964  0.4350
  118OSM   H17S12357   5.311   3.372   5.049 -4.2517 -0.4076  1.6939
  118OSM   H17T12358   5.445   3.441   5.145 -0.2462 -0.7069  1.9320
  118OSM   C18S12359   5.304   3.591   5.058 -0.5179 -0.3840 -0.3614
  118OSM   H18S12360   5.216   3.584   4.991 -0.7592 -2.0599  0.0759
  118OSM   H18T12361   5.379   3.604   4.976  0.1266 -0.5820  0.1842
  118OSM   H18U12362   5.310   3.679   5.126  1.1755 -1.2668  0.7082
  118OSM    C1F12363   5.795   3.473   6.565 -0.0521  0.5967  0.8637
  118OSM     OF12364   5.840   3.407   6.656 -0.1688  0.1256 -0.7442
  118OSM    C2F12365   5.849   3.475   6.424  0.7546 -0.3286  0.2017
  118OSM    H2F12366   5.882   3.574   6.386 -0.4638 -1.0743 -3.1007
  118OSM    H2G12367   5.761   3.446   6.364  1.0831 -1.7652  0.3599
  118OSM    C3F12368   5.964   3.381   6.398 -0.5786  0.3440  0.4458
  118OSM    H3F12369   5.936   3.277   6.426  1.6685 -1.3531 -2.8566
  118OSM    H3G12370   6.048   3.420   6.460 -1.1216  0.0332  1.3899
  118OSM    C4F12371   6.026   3.375   6.258 -0.5436 -0.5358  0.9790
  118OSM    H4F12372   6.106   3.299   6.269 -0.2851 -0.2440  1.1211
  118OSM    H4G12373   6.075   3.473   6.236 -2.9141  0.3054 -0.9912
  118OSM    C5F12374   5.918   3.340   6.153 -0.1249 -0.5376 -0.6224
  118OSM    H5F12375   5.834   3.413   6.158  0.6953  0.5239 -1.6900
  118OSM    H5G12376   5.869   3.248   6.191  0.0957 -0.2583  0.3526
  118OSM    C6F12377   5.984   3.333   6.018 -0.8021 -0.2638  0.3937
  118OSM    H6F12378   6.077   3.272   6.020 -0.1751  0.5989 -0.8905
  118OSM    H6G12379   6.028   3.435   6.014 -1.4904  0.0053 -1.1396
  118OSM    C7F12380   5.896   3.299   5.901 -0.1817 -0.2735 -0.2248
  118OSM    H7F12381   5.797   3.345   5.921 -0.6517  0.3559 -3.4263
  118OSM    H7G12382   5.878   3.190   5.898 -0.8075 -0.1548 -1.2162
  118OSM    C8F12383   5.942   3.355   5.765 -0.3766  0.4177  0.0974
  118OSM    H8F12384   6.043   3.312   5.743  0.5519  3.1432 -1.4605
  118OSM    H8G12385   5.963   3.461   5.789 -4.5045  0.6969  3.7023
  118OSM    C9F12386   5.844   3.332   5.648 -0.8054  0.2125  0.6524
  118OSM    H9F12387   5.737   3.333   5.673 -1.4845  0.8533 -2.0118
  118OSM   C10F12388   5.868   3.325   5.513  0.2404 -0.6207 -0.1154
  118OSM   H10F12389   5.779   3.321   5.449  0.4302  0.7319 -0.5057
  118OSM   C11F12390   5.993   3.328   5.435 -0.2748 -0.2987 -0.1418
  118OSM   H11F12391   6.022   3.222   5.416 -0.2340 -0.4122  0.5375
  118OSM   H11G12392   6.063   3.386   5.499  0.0961 -0.3963 -0.4566
  118OSM   C12F12393   5.976   3.394   5.300 -0.5319  0.1878  0.0552
  118OSM   H12F12394   6.080   3.403   5.262 -0.8753 -0.8080 -1.1884
  118OSM   H12G12395   5.932   3.496   5.314 -0.6051  0.4181 -1.5962
  118OSM   C13F12396   5.904   3.314   5.188  0.1134 -0.2797  0.5065
  118OSM   H13F12397   5.802   3.302   5.230 -0.2459 -0.1696 -0.3248
  118OSM   H13G12398   5.959   3.218   5.173 -1.8828 -1.2313 -1.2461
  118OSM   C14F12399   5.888   3.409   5.065  0.5795 -0.5461  0.4214
  118OSM   H14F12400   5.991   3.448   5.052 -0.5194  2.1580 -0.9059
  118OSM   H14G12401   5.821   3.495   5.085 -0.0008 -0.1436 -2.8340
  118OSM   C15F12402   5.849   3.350   4.926 -0.5011  0.0156  0.2012
  118OSM   H15F12403   5.751   3.303   4.946 -0.0184 -1.2500 -0.3236
  118OSM   H15G12404   5.938   3.291   4.896  0.3421  2.2801 -2.0715
  118OSM   C16F12405   5.821   3.461   4.821 -0.1756 -0.1674 -0.3616
  118OSM   H16F12406   5.919   3.511   4.802  0.1860 -1.1985 -1.3193
  118OSM   H16G12407   5.739   3.528   4.854 -0.9900 -0.1655 -2.2412
  118OSM   C17F12408   5.787   3.398   4.681 -0.8240  1.0428 -0.6649
  118OSM   H17F12409   5.685   3.352   4.683 -0.0635 -1.0921 -3.4734
  118OSM   H17G12410   5.860   3.315   4.678  0.1293  1.6493  2.4585
  118OSM   C18F12411   5.806   3.483   4.556  0.3090 -0.3600  0.6275
  118OSM   H18F12412   5.737   3.570   4.559 -0.0522 -0.5799 -0.6201
  118OSM   H18G12413   5.782   3.429   4.461 -1.5336  0.7913  0.3931
  118OSM   H18H12414   5.906   3.530   4.558 -0.2256  0.8292  0.4671
  119OSM      N12415   5.761   0.312   7.421 -0.1208  0.5996 -0.5842
  119OSM    C1512416   5.733   0.165   7.459  0.5404 -0.2700  0.3215
  119OSM   H15A12417   5.649   0.144   7.395  1.2721 -0.1793 -0.6907
  119OSM   H15B12418   5.691   0.162   7.558 -1.3379 -0.2620 -0.4324
  119OSM   H15C12419   5.822   0.108   7.437  1.5985  1.3444  0.1932
  119OSM    C1412420   5.630   0.380   7.386 -0.3823 -0.3898  0.1665
  119OSM   H14A12421   5.565   0.359   7.469 -0.5862  0.1536  0.1486
  119OSM   H14B12422   5.591   0.337   7.295 -1.0846 -1.1283  0.8098
  119OSM   H14C12423   5.646   0.485   7.364 -0.7523 -0.7021 -1.7690
  119OSM    C1312424   5.822   0.367   7.546  0.6234 -0.4044  0.1809
  119OSM   H13A12425   5.924   0.337   7.566  1.1686 -0.5220 -2.4697
  119OSM   H13B12426   5.762   0.343   7.633  0.8729  3.1090  1.5107
  119OSM   H13C12427   5.822   0.475   7.545  2.4851 -0.2645  2.8600
  119OSM    C1212428   5.854   0.318   7.303  0.1226 -0.5945  0.7947
  119OSM   H12A12429   5.951   0.274   7.320  1.1227  1.1068 -0.2368
  119OSM   H12B12430   5.874   0.420   7.274  0.8078 -0.1003  2.8171
  119OSM    C1112431   5.808   0.244   7.171  0.5671  0.0802  0.1062
  119OSM   H11A12432   5.878   0.272   7.090  0.6880 -0.8096 -0.1105
  119OSM   H11B12433   5.704   0.274   7.147  1.6932  2.8813 -1.6919
  119OSM      P12434   5.778   0.006   7.085 -0.2861  0.0427  0.1376
  119OSM    O1312435   5.859  -0.115   7.089  0.2746 -0.2363  0.4230
  119OSM    O1412436   5.632  -0.006   7.105  0.4646 -0.2318  0.0144
  119OSM    O1112437   5.805   0.089   6.954 -0.6002 -0.0223 -0.0887
  119OSM    O1212438   5.830   0.104   7.196  0.5953 -0.8511  0.0015
  119OSM    C1S12439   5.937   0.077   6.887 -0.1430 -0.2821  0.1161
  119OSM    H1S12440   5.985  -0.021   6.908 -1.8696 -1.0331  0.7520
  119OSM    H1T12441   5.999   0.156   6.934 -1.0671  0.6880 -0.2318
  119OSM     NF12442   6.053   0.049   6.673 -0.4710 -0.6433  0.1046
  119OSM    HNF12443   6.103   0.130   6.642  0.1794 -0.2335  2.0552
  119OSM    C2S12444   5.928   0.086   6.737 -0.4063  0.4191  0.3395
  119OSM    H2S12445   5.858   0.016   6.686 -1.1222  2.5431 -1.8056
  119OSM    C3S12446   5.877   0.228   6.695 -0.7546  0.0971 -0.2075
  119OSM    H3S12447   5.965   0.289   6.725 -0.3596 -0.3133 -0.5270
  119OSM     O312448   5.765   0.274   6.763  0.0656  0.3839 -0.6381
  119OSM    HO312449   5.760   0.216   6.840  0.2921  1.1364 -0.0473
  119OSM    C4S12450   5.856   0.241   6.549 -0.2898  1.0509 -0.2762
  119OSM    H4S12451   5.784   0.167   6.512  0.8036 -1.4964  2.3141
  119OSM    C5S12452   5.919   0.335   6.477  0.3473 -0.0489 -0.2284
  119OSM    H5S12453   5.960   0.410   6.545  2.2115 -1.4848  0.3036
  119OSM    C6S12454   5.906   0.359   6.324 -0.0779 -0.1142 -0.1478
  119OSM    H6S12455   5.988   0.424   6.288  1.3486 -0.4709  2.2598
  119OSM    H6T12456   5.808   0.407   6.300 -0.4864 -1.2626 -0.8889
  119OSM    C7S12457   5.922   0.237   6.240 -0.1130  1.1302  0.1321
  119OSM    H7S12458   5.908   0.272   6.136  2.4526  0.5910 -0.4737
  119OSM    H7T12459   5.847   0.156   6.254  1.1773  0.0936  1.3618
  119OSM    C8S12460   6.069   0.179   6.249  0.6081 -0.1813  0.0481
  119OSM    H8S12461   6.079   0.133   6.350  3.4143 -1.7206 -0.8284
  119OSM    H8T12462   6.140   0.264   6.255  0.2166  0.1160  0.5373
  119OSM    C9S12463   6.105   0.086   6.133 -0.4333  0.1460  0.4276
  119OSM    H9S12464   6.038  -0.001   6.120  1.4775 -1.4194  0.5738
  119OSM    H9T12465   6.203   0.034   6.144 -0.8337 -1.0013 -1.1678
  119OSM   C10S12466   6.112   0.157   5.995 -0.2160  0.4054 -0.3674
  119OSM   H10S12467   6.164   0.252   6.017 -0.1657  0.3536 -0.2632
  119OSM   H10T12468   6.010   0.169   5.952  0.3381  0.5036 -1.7127
  119OSM   C11S12469   6.190   0.075   5.891 -0.2319 -0.6922  0.0184
  119OSM   H11S12470   6.147  -0.027   5.900 -0.5708 -0.6506 -0.9448
  119OSM   H11T12471   6.295   0.082   5.924 -0.1827  1.4403 -0.3924
  119OSM   C12S12472   6.176   0.113   5.740 -0.5344  0.0540 -0.2319
  119OSM   H12S12473   6.232   0.207   5.724 -0.5771 -0.1103 -1.4628
  119OSM   H12T12474   6.066   0.119   5.723 -0.6398  0.6819  0.6177
  119OSM   C13S12475   6.234   0.006   5.647  0.3612 -0.5914 -0.0599
  119OSM   H13S12476   6.185  -0.092   5.660 -0.3174 -0.3346 -0.6077
  119OSM   H13T12477   6.342  -0.013   5.669  0.8231  1.7069 -0.0523
  119OSM   C14S12478   6.216   0.036   5.499  0.2594 -0.0965 -0.4768
  119OSM   H14S12479   6.271  -0.037   5.435 -0.4988 -0.2979 -0.9217
  119OSM   H14T12480   6.260   0.136   5.481 -1.4785  0.7771 -0.0348
  119OSM   C15S12481   6.073   0.028   5.445 -0.5166 -0.1497 -0.1216
  119OSM   H15S12482   6.000   0.072   5.516  1.4191 -0.9676  2.5941
  119OSM   H15T12483   6.043  -0.079   5.445 -2.0392  0.2315  1.3739
  119OSM   C16S12484   6.040   0.077   5.304 -0.7994 -0.2919  0.3663
  119OSM   H16S12485   5.930   0.070   5.289 -0.6610 -2.3626 -0.0332
  119OSM   H16T12486   6.104   0.019   5.235 -2.5861 -0.0267 -1.6091
  119OSM   C17S12487   6.077   0.233   5.288 -1.0716 -0.0740 -0.1439
  119OSM   H17S12488   6.186   0.251   5.298 -1.1979  0.8566 -0.3055
  119OSM   H17T12489   6.027   0.290   5.368 -0.9401 -1.7959  1.2207
  119OSM   C18S12490   6.033   0.292   5.148 -0.1282  0.2973 -0.2755
  119OSM   H18S12491   5.923   0.294   5.139 -0.2563 -3.0907 -0.9765
  119OSM   H18T12492   6.080   0.228   5.071 -1.7315 -0.7922 -0.3937
  119OSM   H18U12493   6.071   0.395   5.133  0.7325 -0.1250 -1.0543
  119OSM    C1F12494   6.095  -0.072   6.656  0.7414  0.0798 -0.1722
  119OSM     OF12495   6.031  -0.158   6.716 -0.4522  0.2097 -0.0492
  119OSM    C2F12496   6.218  -0.094   6.573 -0.3355  0.2577 -0.2544
  119OSM    H2F12497   6.306  -0.045   6.619 -0.5757 -0.0798  0.5737
  119OSM    H2G12498   6.202  -0.036   6.479  0.4438  2.7416  1.0548
  119OSM    C3F12499   6.245  -0.245   6.547  0.0803 -0.6117  0.1404
  119OSM    H3F12500   6.216  -0.306   6.635 -0.5200  1.1992  1.2423
  119OSM    H3G12501   6.356  -0.245   6.536  0.1957  0.8635  1.0551
  119OSM    C4F12502   6.173  -0.308   6.433  0.1166 -0.3585 -0.3768
  119OSM    H4F12503   6.062  -0.306   6.444 -0.2279 -4.2878 -1.6662
  119OSM    H4G12504   6.201  -0.414   6.451 -2.5411 -0.9255  1.0304
  119OSM    C5F12505   6.229  -0.270   6.295 -0.1608 -0.7828 -0.3022
  119OSM    H5F12506   6.340  -0.277   6.299  0.0004 -0.8239 -2.9123
  119OSM    H5G12507   6.208  -0.162   6.276 -0.5836 -0.7767  0.2012
  119OSM    C6F12508   6.175  -0.352   6.177  0.7420  0.2513  1.2124
  119OSM    H6F12509   6.065  -0.342   6.184  0.8371 -0.0852  4.3747
  119OSM    H6G12510   6.189  -0.462   6.191 -0.6964  0.1821  2.2428
  119OSM    C7F12511   6.218  -0.295   6.043 -0.0703 -0.4960  0.7919
  119OSM    H7F12512   6.327  -0.316   6.034  0.0221  0.6689 -1.6575
  119OSM    H7G12513   6.203  -0.185   6.037  3.9095  0.1505 -0.2716
  119OSM    C8F12514   6.149  -0.359   5.919  0.2917  0.0268 -0.5618
  119OSM    H8F12515   6.173  -0.290   5.835 -1.7200  0.1905 -1.0483
  119OSM    H8G12516   6.040  -0.356   5.941  0.3723  2.7462 -0.1963
  119OSM    C9F12517   6.216  -0.500   5.898  0.0079  0.2694 -0.6638
  119OSM    H9F12518   6.206  -0.573   5.980  1.3270 -0.8471 -1.4426
  119OSM   C10F12519   6.279  -0.541   5.790  0.1064  0.3726 -0.7753
  119OSM   H10F12520   6.312  -0.644   5.775  4.9578  1.7749 -1.5583
  119OSM   C11F12521   6.307  -0.460   5.662  0.6656 -0.2437 -0.2609
  119OSM   H11F12522   6.378  -0.514   5.597  0.9583 -0.4928  0.2601
  119OSM   H11G12523   6.365  -0.367   5.682 -0.5601  0.3186  0.8627
  119OSM   C12F12524   6.188  -0.423   5.576 -0.5487  0.1970 -0.0227
  119OSM   H12F12525   6.129  -0.342   5.624  0.0972  1.4063 -1.1964
  119OSM   H12G12526   6.126  -0.512   5.550 -1.0931  0.4171  0.5127
  119OSM   C13F12527   6.228  -0.363   5.439 -0.1999 -0.2047 -0.4261
  119OSM   H13F12528   6.300  -0.434   5.394  1.0740  0.4888  0.4596
  119OSM   H13G12529   6.269  -0.261   5.450 -0.2148 -0.0324 -1.8746
  119OSM   C14F12530   6.106  -0.357   5.349 -0.2113  0.6101 -0.1085
  119OSM   H14F12531   6.028  -0.285   5.382 -2.1345 -0.8772 -1.1572
  119OSM   H14G12532   6.060  -0.458   5.340  0.8975 -0.1503  2.0159
  119OSM   C15F12533   6.152  -0.304   5.212  0.1545 -0.1850 -0.6134
  119OSM   H15F12534   6.249  -0.340   5.171  0.0555 -0.0523 -0.9704
  119OSM   H15G12535   6.181  -0.201   5.239  0.4901 -0.6105  0.7113
  119OSM   C16F12536   6.034  -0.299   5.108 -0.3194  0.1729 -0.8535
  119OSM   H16F12537   5.943  -0.300   5.172 -0.2410 -3.1152 -0.6006
  119OSM   H16G12538   6.039  -0.403   5.069  1.7994 -0.3790  0.7089
  119OSM   C17F12539   6.025  -0.192   4.999 -0.0905 -0.3644  0.3933
  119OSM   H17F12540   6.007  -0.094   5.047 -0.5663  0.5899 -1.6170
  119OSM   H17G12541   5.941  -0.212   4.929 -1.3629  1.4994  1.3104
  119OSM   C18F12542   6.158  -0.202   4.925  0.4461 -0.0120  0.2980
  119OSM   H18F12543   6.203  -0.303   4.937  2.7704  0.6906 -1.6352
  119OSM   H18G12544   6.231  -0.125   4.961 -0.0437  0.2956  0.6469
  119OSM   H18H12545   6.136  -0.179   4.819 -1.0099  3.0191  1.1580
  120OSM      N12546   1.996   4.844   8.148 -0.0403 -0.2442  0.3060
  120OSM    C1512547   1.909   4.912   8.250  0.1792  0.2431  0.2824
  120OSM   H15A12548   1.841   4.837   8.287 -1.1141  0.8147 -0.8427
  120OSM   H15B12549   1.850   4.987   8.200 -1.2465 -0.4650  0.8609
  120OSM   H15C12550   1.966   4.962   8.327  1.0393 -2.1060  1.2445
  120OSM    C1412551   1.906   4.781   8.047  0.4927  0.3180 -0.2661
  120OSM   H14A12552   1.830   4.849   8.011  0.0663 -1.1026 -2.1803
  120OSM   H14B12553   1.857   4.694   8.088 -1.1330  0.0973 -2.5024
  120OSM   H14C12554   1.954   4.747   7.956  0.0065  0.1610 -0.4654
  120OSM    C1312555   2.073   4.942   8.075 -0.3328  0.3368 -0.1181
  120OSM   H13A12556   2.109   5.026   8.133  0.6648  0.8951 -1.4816
  120OSM   H13B12557   2.008   5.000   8.011 -0.0340  0.0471 -0.6874
  120OSM   H13C12558   2.155   4.886   8.035 -0.8377 -0.2533 -0.3386
  120OSM    C1212559   2.087   4.737   8.212  1.0738 -0.6411 -0.2214
  120OSM   H12A12560   2.020   4.674   8.268 -2.2927  3.8708  1.4011
  120OSM   H12B12561   2.152   4.773   8.291  0.3059 -1.1044  0.6294
  120OSM    C1112562   2.175   4.652   8.112  0.5496  0.7181  0.4125
  120OSM   H11A12563   2.110   4.637   8.023  0.1901  1.0886  0.6085
  120OSM   H11B12564   2.184   4.555   8.167 -3.0529  0.0568  0.0904
  120OSM      P12565   2.344   4.730   7.938 -0.6217  0.3727 -0.0335
  120OSM    O1312566   2.246   4.820   7.869 -1.1956 -0.5338 -0.3371
  120OSM    O1412567   2.488   4.770   7.932 -0.6694  0.0165 -0.4288
  120OSM    O1112568   2.337   4.575   7.893  0.7632 -0.7769  0.2005
  120OSM    O1212569   2.299   4.717   8.091  0.1882 -0.0310 -0.2251
  120OSM    C1S12570   2.304   4.550   7.757  0.9333 -0.1938 -0.2621
  120OSM    H1S12571   2.244   4.629   7.708 -0.5736 -1.5505 -0.6857
  120OSM    H1T12572   2.246   4.456   7.749  0.6337  0.0119 -0.4976
  120OSM     NF12573   2.393   4.509   7.520 -0.3127  0.7698  0.7572
  120OSM    HNF12574   2.433   4.426   7.482  2.4694  0.5208  3.7643
  120OSM    C2S12575   2.428   4.540   7.660  0.8554  0.3941 -0.3329
  120OSM    H2S12576   2.468   4.643   7.663  0.7491  0.4296  2.1945
  120OSM    C3S12577   2.535   4.441   7.724  0.5052  0.5090 -0.0100
  120OSM    H3S12578   2.491   4.338   7.723  2.8604 -0.6204  1.9191
  120OSM     O312579   2.568   4.453   7.867  0.5613  0.4617  0.8343
  120OSM    HO312580   2.519   4.531   7.895 -1.0146 -0.1144 -0.1675
  120OSM    C4S12581   2.661   4.441   7.645 -0.6440 -0.6775 -0.2521
  120OSM    H4S12582   2.678   4.545   7.611  0.9062 -0.7015  0.3435
  120OSM    C5S12583   2.736   4.331   7.604  0.4141 -0.2566 -0.2373
  120OSM    H5S12584   2.695   4.229   7.614 -0.4846 -0.0962 -1.8571
  120OSM    C6S12585   2.853   4.346   7.511  0.1577 -0.2433  0.6118
  120OSM    H6S12586   2.855   4.274   7.426  0.9738  1.6510 -1.0613
  120OSM    H6T12587   2.950   4.332   7.563 -0.1000  1.1624  1.5140
  120OSM    C7S12588   2.867   4.478   7.424  0.5178  0.6081  0.6919
  120OSM    H7S12589   2.965   4.470   7.373  0.5543  1.6505  0.5927
  120OSM    H7T12590   2.889   4.562   7.493  0.1111  0.6696  0.7516
  120OSM    C8S12591   2.753   4.487   7.325  0.8078 -0.4053  0.3879
  120OSM    H8S12592   2.656   4.518   7.368 -0.6688 -2.1291 -1.5123
  120OSM    H8T12593   2.722   4.386   7.289 -0.4249  0.0119  0.2466
  120OSM    C9S12594   2.787   4.579   7.218 -0.2177  0.0205 -0.0092
  120OSM    H9S12595   2.887   4.553   7.177 -0.7823 -0.1668 -1.3366
  120OSM    H9T12596   2.784   4.681   7.263 -0.8890  0.0045 -0.0126
  120OSM   C10S12597   2.696   4.554   7.094 -0.7868 -0.1356  0.5106
  120OSM   H10S12598   2.587   4.545   7.115 -1.9663  1.2438 -3.8201
  120OSM   H10T12599   2.721   4.455   7.050  0.8330 -0.0539  1.2051
  120OSM   C11S12600   2.715   4.644   6.978 -0.7405  0.5439 -0.2686
  120OSM   H11S12601   2.819   4.640   6.940 -0.8361 -1.7052 -0.4166
  120OSM   H11T12602   2.698   4.752   7.000  0.4032  0.7813 -0.4974
  120OSM   C12S12603   2.630   4.600   6.855  0.4552 -0.5015  0.1294
  120OSM   H12S12604   2.521   4.604   6.880  0.0999  1.9691 -1.4436
  120OSM   H12T12605   2.661   4.494   6.842 -0.5782 -0.6101 -1.8992
  120OSM   C13S12606   2.646   4.675   6.722  0.9501  0.3217 -1.0388
  120OSM   H13S12607   2.753   4.663   6.691  1.6988  2.1413  0.6415
  120OSM   H13T12608   2.624   4.784   6.727  1.2870  0.3332  2.6129
  120OSM   C14S12609   2.551   4.622   6.613  0.3534 -0.2018 -0.3599
  120OSM   H14S12610   2.451   4.633   6.660  0.8761  1.3636  0.4495
  120OSM   H14T12611   2.576   4.515   6.596 -1.5584 -0.7588  0.0852
  120OSM   C15S12612   2.568   4.697   6.476  0.0513  0.7905 -0.1754
  120OSM   H15S12613   2.676   4.696   6.449 -0.1763  0.5060 -1.0836
  120OSM   H15T12614   2.533   4.802   6.482  0.0442  0.9739 -2.6275
  120OSM   C16S12615   2.495   4.635   6.353 -0.0004  0.6485  0.6021
  120OSM   H16S12616   2.385   4.638   6.364  0.0499  4.4714  1.2279
  120OSM   H16T12617   2.535   4.531   6.360  2.3372  1.3295 -1.3320
  120OSM   C17S12618   2.538   4.697   6.215 -0.2038  0.1396 -0.5179
  120OSM   H17S12619   2.520   4.623   6.134 -0.4326 -0.6948  0.2835
  120OSM   H17T12620   2.648   4.718   6.213 -0.1963  0.2695 -3.4831
  120OSM   C18S12621   2.470   4.829   6.189  0.5971 -0.1585 -0.6001
  120OSM   H18S12622   2.494   4.913   6.257  1.3207 -0.6565 -0.2239
  120OSM   H18T12623   2.360   4.812   6.195  0.5512 -0.6448 -2.1968
  120OSM   H18U12624   2.498   4.872   6.090 -2.5035 -2.1828 -2.5476
  120OSM    C1F12625   2.325   4.587   7.443  0.3781 -0.2025  0.1373
  120OSM     OF12626   2.292   4.699   7.472 -0.3925  0.0703  0.7196
  120OSM    C2F12627   2.309   4.526   7.305  0.5593  0.2472  0.0506
  120OSM    H2F12628   2.245   4.435   7.307 -2.5232  2.2538 -0.9648
  120OSM    H2G12629   2.409   4.496   7.268  0.9118 -0.0733  1.2103
  120OSM    C3F12630   2.238   4.621   7.209 -0.4049  0.0589  0.5073
  120OSM    H3F12631   2.292   4.718   7.216  2.5507 -1.4410 -0.0592
  120OSM    H3G12632   2.131   4.633   7.237 -0.9395 -1.2425 -0.8428
  120OSM    C4F12633   2.249   4.572   7.064  0.1322  0.4106 -0.4281
  120OSM    H4F12634   2.353   4.565   7.028  0.2671  1.4325 -0.2618
  120OSM    H4G12635   2.203   4.639   6.989 -0.6874 -1.1647 -1.3844
  120OSM    C5F12636   2.162   4.440   7.047 -0.0770 -0.3584 -0.3243
  120OSM    H5F12637   2.052   4.448   7.061 -0.3083 -1.6699 -1.1808
  120OSM    H5G12638   2.197   4.350   7.101 -0.9935  0.0408  0.9848
  120OSM    C6F12639   2.181   4.397   6.899 -0.2725  0.5650  0.0798
  120OSM    H6F12640   2.284   4.357   6.900  0.0393  1.3501  0.0825
  120OSM    H6G12641   2.184   4.482   6.827 -1.0885 -0.1404 -0.8308
  120OSM    C7F12642   2.074   4.297   6.860 -0.0266  0.1243  0.2613
  120OSM    H7F12643   1.985   4.354   6.826  0.1365 -0.2100 -0.7451
  120OSM    H7G12644   2.058   4.224   6.943  1.6886 -0.0300  0.4992
  120OSM    C8F12645   2.125   4.199   6.752 -0.0902  0.4235  0.8388
  120OSM    H8F12646   2.201   4.126   6.789 -0.7257 -1.7705 -1.8350
  120OSM    H8G12647   2.158   4.258   6.664 -1.8381 -1.0393 -0.8807
  120OSM    C9F12648   2.022   4.092   6.715  0.5183 -0.4618  0.1862
  120OSM    H9F12649   2.019   4.007   6.786  1.7980 -1.8936 -1.4001
  120OSM   C10F12650   1.942   4.102   6.604  0.4613 -0.1663  0.4656
  120OSM   H10F12651   1.886   4.012   6.574  0.2421  0.2354 -0.3452
  120OSM   C11F12652   1.941   4.209   6.492  0.4110  0.0913  0.2227
  120OSM   H11F12653   2.042   4.255   6.482 -0.8882  3.4156  1.1902
  120OSM   H11G12654   1.867   4.287   6.520 -0.9192 -1.2194  0.4414
  120OSM   C12F12655   1.907   4.130   6.358 -0.5599  0.5210 -0.3439
  120OSM   H12F12656   1.803   4.092   6.371 -0.2138  0.2001  1.6864
  120OSM   H12G12657   1.967   4.040   6.335  0.5063  0.6796  1.6120
  120OSM   C13F12658   1.911   4.215   6.227  0.0493  0.0362  0.1442
  120OSM   H13F12659   2.018   4.238   6.206  0.2921  0.0050  1.2959
  120OSM   H13G12660   1.862   4.314   6.243 -0.7774 -0.5967  1.6635
  120OSM   C14F12661   1.859   4.153   6.097  0.4169  0.2399  0.5853
  120OSM   H14F12662   1.749   4.137   6.095  0.4980 -0.4848 -2.1121
  120OSM   H14G12663   1.902   4.051   6.093  0.7888  0.3504  1.4946
  120OSM   C15F12664   1.900   4.233   5.974 -0.7043  0.2186 -0.2978
  120OSM   H15F12665   2.011   4.244   5.971 -0.6911 -0.0458 -2.0296
  120OSM   H15G12666   1.855   4.335   5.977  0.4893  0.8615 -2.1839
  120OSM   C16F12667   1.860   4.159   5.842 -0.3795  0.1490 -0.4241
  120OSM   H16F12668   1.750   4.150   5.851 -0.3047  0.3324  0.8704
  120OSM   H16G12669   1.901   4.057   5.827 -2.0103 -0.8535  1.4150
  120OSM   C17F12670   1.886   4.244   5.720  0.8195 -0.0944  0.2114
  120OSM   H17F12671   1.992   4.255   5.687 -0.4127  0.7436 -4.2361
  120OSM   H17G12672   1.849   4.346   5.740  0.7929 -0.4662  2.2158
  120OSM   C18F12673   1.814   4.187   5.604  0.1224 -0.3261  0.1011
  120OSM   H18F12674   1.857   4.087   5.582 -0.7416 -0.9057  0.9471
  120OSM   H18G12675   1.825   4.260   5.522  2.5320  1.5351  1.9430
  120OSM   H18H12676   1.704   4.173   5.614 -0.2184  2.2667  0.7352
  121OSM      N12677   3.576   1.228   7.159 -0.7174  0.4680  0.3708
  121OSM    C1512678   3.628   1.355   7.204  0.0242  0.4013 -0.1881
  121OSM   H15A12679   3.637   1.356   7.311 -1.2636  1.6233 -0.0610
  121OSM   H15B12680   3.561   1.434   7.172 -1.4390 -0.5646  0.4053
  121OSM   H15C12681   3.720   1.387   7.157 -0.5332  1.5586 -0.5416
  121OSM    C1412682   3.462   1.193   7.256 -0.7684  0.0394  0.5764
  121OSM   H14A12683   3.376   1.256   7.240 -0.2763  1.2940  2.4389
  121OSM   H14B12684   3.491   1.194   7.360 -1.0853  1.0597  0.6650
  121OSM   H14C12685   3.435   1.093   7.227  0.4332 -0.3093  0.6068
  121OSM    C1312686   3.517   1.241   7.017  0.4027  0.2918 -0.1485
  121OSM   H13A12687   3.461   1.153   6.988  0.6893 -0.0711  0.4009
  121OSM   H13B12688   3.594   1.266   6.946  1.4239 -1.1004  0.4401
  121OSM   H13C12689   3.450   1.327   7.015 -0.2243 -0.1689  0.6576
  121OSM    C1212690   3.690   1.121   7.157 -0.0437  0.4908 -0.0539
  121OSM   H12A12691   3.733   1.119   7.256 -2.8344 -3.1282  1.3548
  121OSM   H12B12692   3.762   1.146   7.080  0.5928  3.0882  1.2709
  121OSM    C1112693   3.663   0.970   7.138 -0.1183  0.1316  0.1967
  121OSM   H11A12694   3.755   0.908   7.126  0.5111  0.8353  1.1810
  121OSM   H11B12695   3.607   0.966   7.043  0.3821 -0.6740 -0.0825
  121OSM      P12696   3.605   0.790   7.319  0.0658  0.0510  0.2537
  121OSM    O1312697   3.731   0.820   7.396  0.3892  0.1554 -0.0275
  121OSM    O1412698   3.492   0.742   7.401  0.3758  0.4509  0.4481
  121OSM    O1112699   3.633   0.682   7.218 -0.1532  0.0141  0.1582
  121OSM    O1212700   3.571   0.918   7.234  0.2324  0.1068  0.2283
  121OSM    C1S12701   3.539   0.637   7.110 -0.3813  0.0092 -0.3392
  121OSM    H1S12702   3.451   0.705   7.105 -1.4404 -1.0631  2.1871
  121OSM    H1T12703   3.487   0.542   7.133  0.0315 -0.0016  0.6023
  121OSM     NF12704   3.517   0.599   6.868  0.3822 -0.3155 -0.2843
  121OSM    HNF12705   3.502   0.505   6.841  1.4106 -1.1208  1.7365
  121OSM    C2S12706   3.614   0.623   6.977  0.0430  0.3179 -0.4496
  121OSM    H2S12707   3.677   0.714   6.967 -0.5689  1.1617  2.4213
  121OSM    C3S12708   3.719   0.508   6.988  0.0126  0.6682  0.0733
  121OSM    H3S12709   3.675   0.410   7.015 -0.9320  1.8681  3.3915
  121OSM     O312710   3.817   0.542   7.084  0.4559 -0.2738 -0.2427
  121OSM    HO312711   3.799   0.633   7.107 -0.3264 -0.5428  0.2488
  121OSM    C4S12712   3.798   0.499   6.860 -0.8940  0.1604 -0.8103
  121OSM    H4S12713   3.866   0.584   6.844  0.9055 -1.4047 -1.9093
  121OSM    C5S12714   3.804   0.399   6.770 -0.1524  0.6878  0.2965
  121OSM    H5S12715   3.733   0.316   6.783  0.3007 -0.0761 -1.7169
  121OSM    C6S12716   3.884   0.391   6.645 -0.0778 -0.3176  0.5512
  121OSM    H6S12717   3.918   0.285   6.640  0.2942 -0.1699 -4.0378
  121OSM    H6T12718   3.973   0.457   6.647 -0.3347  0.0843 -0.5610
  121OSM    C7S12719   3.809   0.422   6.511  0.1947 -0.3544 -0.6040
  121OSM    H7S12720   3.783   0.530   6.507 -0.2123 -0.4625 -0.9299
  121OSM    H7T12721   3.712   0.368   6.504 -0.9800  1.7391 -1.7008
  121OSM    C8S12722   3.887   0.377   6.392  0.2432  0.8566  0.0161
  121OSM    H8S12723   3.898   0.267   6.398  0.1447  0.8239 -0.3757
  121OSM    H8T12724   3.994   0.406   6.398  0.3606  0.2308  1.2576
  121OSM    C9S12725   3.831   0.411   6.259 -0.1496  0.0586  0.5358
  121OSM    H9S12726   3.806   0.518   6.242  1.2375  0.5622  1.4708
  121OSM    H9T12727   3.739   0.349   6.248  0.3898 -0.7778  0.6793
  121OSM   C10S12728   3.930   0.373   6.147 -0.3454 -0.2138  0.3322
  121OSM   H10S12729   3.960   0.267   6.165  1.2148 -0.5388 -3.1957
  121OSM   H10T12730   4.023   0.435   6.146 -0.4784 -0.0220 -0.0969
  121OSM   C11S12731   3.861   0.401   6.009 -0.1408  0.1733  0.4548
  121OSM   H11S12732   3.852   0.511   5.992  1.0034  0.0852 -0.9086
  121OSM   H11T12733   3.758   0.359   6.013  0.1234 -0.4074  1.3906
  121OSM   C12S12734   3.927   0.325   5.891 -0.7897  0.1133 -0.3416
  121OSM   H12S12735   3.924   0.216   5.909 -0.0825  0.1771  0.2291
  121OSM   H12T12736   4.036   0.340   5.909 -0.4155 -2.3756 -0.2128
  121OSM   C13S12737   3.900   0.378   5.751 -0.1372 -0.2887 -0.3345
  121OSM   H13S12738   4.001   0.375   5.703  0.3606  0.8468  0.5997
  121OSM   H13T12739   3.850   0.477   5.754 -2.8406 -1.5702  0.0978
  121OSM   C14S12740   3.816   0.279   5.667 -0.0897 -0.9180 -0.4299
  121OSM   H14S12741   3.713   0.274   5.708  0.1546  1.2594  0.6104
  121OSM   H14T12742   3.868   0.182   5.678  0.3504 -0.5762  0.5766
  121OSM   C15S12743   3.829   0.320   5.519 -0.1033 -0.0817  0.1075
  121OSM   H15S12744   3.936   0.309   5.490 -0.5685  1.3246 -2.5342
  121OSM   H15T12745   3.809   0.429   5.510  0.6292  0.1291  0.8859
  121OSM   C16S12746   3.739   0.240   5.426  0.9651  0.2535 -0.3023
  121OSM   H16S12747   3.635   0.237   5.465 -0.6374  1.2611 -3.9953
  121OSM   H16T12748   3.772   0.134   5.419  0.1539  0.0636 -1.7418
  121OSM   C17S12749   3.722   0.291   5.279 -0.4284 -0.5699  0.0505
  121OSM   H17S12750   3.826   0.296   5.241  0.3828  0.9194  2.2860
  121OSM   H17T12751   3.666   0.387   5.277 -1.4651 -1.1410 -2.1992
  121OSM   C18S12752   3.638   0.203   5.186 -0.3392  0.2686 -0.1448
  121OSM   H18S12753   3.588   0.254   5.101 -0.8310 -1.0295 -0.6586
  121OSM   H18T12754   3.560   0.153   5.247  0.0940 -0.8048 -0.4383
  121OSM   H18U12755   3.708   0.121   5.156  0.8411  1.1986 -0.0102
  121OSM    C1F12756   3.447   0.691   6.815  0.2842 -0.2901  0.0538
  121OSM     OF12757   3.459   0.810   6.846 -0.7902 -0.5577 -0.6200
  121OSM    C2F12758   3.358   0.649   6.701  0.3247  0.4047  0.0325
  121OSM    H2F12759   3.290   0.734   6.680 -0.4312  0.1426  1.2918
  121OSM    H2G12760   3.292   0.563   6.724  2.2552 -2.2015 -3.2573
  121OSM    C3F12761   3.437   0.614   6.571 -0.0643 -0.4800  0.5817
  121OSM    H3F12762   3.525   0.553   6.601  1.0796  0.9384  0.1942
  121OSM    H3G12763   3.484   0.704   6.527  0.4729 -1.1461 -0.2164
  121OSM    C4F12764   3.354   0.549   6.455  0.3357  0.1812 -1.3451
  121OSM    H4F12765   3.265   0.615   6.450 -2.0182 -2.5595  0.7511
  121OSM    H4G12766   3.315   0.453   6.494  0.0560  1.3166  1.4426
  121OSM    C5F12767   3.419   0.538   6.323  0.2535 -0.2565  0.0602
  121OSM    H5F12768   3.509   0.474   6.333  1.0224  0.5568 -1.4708
  121OSM    H5G12769   3.458   0.636   6.289 -0.0345 -0.7791 -1.9115
  121OSM    C6F12770   3.330   0.480   6.213 -0.0315 -0.4336  0.2962
  121OSM    H6F12771   3.237   0.537   6.192  1.3292  2.0159  0.5970
  121OSM    H6G12772   3.304   0.374   6.236  0.3299 -0.6630 -0.3349
  121OSM    C7F12773   3.416   0.482   6.076 -0.3902  0.7861 -0.4641
  121OSM    H7F12774   3.498   0.412   6.103 -1.4076 -0.0009  0.7392
  121OSM    H7G12775   3.452   0.587   6.077  0.8390  0.3830 -0.9151
  121OSM    C8F12776   3.340   0.448   5.949  0.2705  0.2625 -0.0286
  121OSM    H8F12777   3.297   0.542   5.908 -0.1853 -0.2373 -0.7333
  121OSM    H8G12778   3.256   0.377   5.966  0.6675 -0.3550 -0.5699
  121OSM    C9F12779   3.444   0.397   5.848  0.0627 -0.3819 -0.3210
  121OSM    H9F12780   3.491   0.304   5.881 -1.3099 -1.2840 -0.8175
  121OSM   C10F12781   3.459   0.438   5.720 -0.2046  0.8130 -0.2528
  121OSM   H10F12782   3.534   0.388   5.657 -2.8851 -0.8014 -2.3728
  121OSM   C11F12783   3.376   0.536   5.638 -0.1583 -0.2494 -0.2856
  121OSM   H11F12784   3.449   0.610   5.597 -0.7183 -0.4972 -1.7907
  121OSM   H11G12785   3.309   0.596   5.704  1.3074  0.8676  0.2449
  121OSM   C12F12786   3.280   0.489   5.527 -0.3953  0.3087  0.2842
  121OSM   H12F12787   3.219   0.575   5.493  1.1898  0.5223 -2.2826
  121OSM   H12G12788   3.208   0.421   5.577 -0.3508 -0.6115 -0.8848
  121OSM   C13F12789   3.347   0.408   5.414 -0.5287 -0.5422 -0.0063
  121OSM   H13F12790   3.412   0.333   5.464  1.9309  0.8791 -0.8985
  121OSM   H13G12791   3.420   0.473   5.362  0.7111 -1.6606  0.3046
  121OSM   C14F12792   3.239   0.364   5.318  0.4823  0.6518  1.1520
  121OSM   H14F12793   3.196   0.456   5.272  1.0588 -0.0522 -0.8789
  121OSM   H14G12794   3.154   0.310   5.364 -0.2543  0.2529 -0.6009
  121OSM   C15F12795   3.301   0.270   5.201  0.2604  0.0908  0.1164
  121OSM   H15F12796   3.336   0.180   5.256  1.2585 -1.2951 -2.6060
  121OSM   H15G12797   3.391   0.321   5.162  0.7714 -2.1754 -1.9014
  121OSM   C16F12798   3.199   0.206   5.100  0.3607 -0.5383  0.2686
  121OSM   H16F12799   3.124   0.279   5.064 -1.4843 -3.0791 -1.3400
  121OSM   H16G12800   3.139   0.123   5.142 -1.7584  0.5406 -0.5191
  121OSM   C17F12801   3.273   0.143   4.976  0.0636 -0.2891  1.0682
  121OSM   H17F12802   3.347   0.071   5.016  0.7583 -0.5139 -0.5229
  121OSM   H17G12803   3.330   0.226   4.927  1.3648 -1.1046  1.1587
  121OSM   C18F12804   3.183   0.084   4.862  0.3443 -0.7016 -0.4276
  121OSM   H18F12805   3.110   0.009   4.899  1.3343 -2.2787 -1.5333
  121OSM   H18G12806   3.244   0.035   4.783  0.0435  0.3152 -1.3248
  121OSM   H18H12807   3.131   0.166   4.807  1.4160 -1.6311 -3.0140
  122OSM      N12808   2.959   3.551   7.268  0.5007  0.2725 -0.2852
  122OSM    C1512809   2.877   3.626   7.369  0.3766  0.5029  0.3212
  122OSM   H15A12810   2.817   3.553   7.422 -1.1890  0.6394 -1.1630
  122OSM   H15B12811   2.807   3.698   7.329 -0.0482 -1.0733 -1.9664
  122OSM   H15C12812   2.937   3.689   7.433  0.4990 -1.2028  1.9600
  122OSM    C1412813   3.047   3.649   7.195 -0.4511  0.3539  0.0187
  122OSM   H14A12814   2.994   3.711   7.125 -1.0771  1.4024  1.3780
  122OSM   H14B12815   3.126   3.593   7.147  0.1770  0.2453  1.1411
  122OSM   H14C12816   3.091   3.716   7.267 -0.6420  0.3563  0.1341
  122OSM    C1312817   3.045   3.451   7.343  0.1154 -0.0225  0.9461
  122OSM   H13A12818   3.124   3.498   7.399 -1.0815  0.8567  1.9443
  122OSM   H13B12819   3.087   3.382   7.271  2.2598 -0.5389  2.6282
  122OSM   H13C12820   2.992   3.389   7.413  0.4819  0.9039  2.0724
  122OSM    C1212821   2.875   3.476   7.169  0.4297  0.9323  0.4773
  122OSM   H12A12822   2.784   3.520   7.131  0.8233  0.4777 -1.0301
  122OSM   H12B12823   2.827   3.398   7.226  2.5048 -1.0504 -0.3322
  122OSM    C1112824   2.937   3.409   7.040  0.5162 -0.2045 -0.2494
  122OSM   H11A12825   2.968   3.490   6.971 -1.5860  0.3925 -0.5741
  122OSM   H11B12826   2.853   3.350   6.997 -0.1600 -0.1597  0.9539
  122OSM      P12827   3.194   3.330   7.021 -0.2457 -0.0001  0.0282
  122OSM    O1312828   3.266   3.451   7.064  0.0947 -0.1560 -0.0803
  122OSM    O1412829   3.263   3.200   7.037  0.4606 -0.1152  0.4961
  122OSM    O1112830   3.165   3.336   6.867  0.7640  0.2201 -0.3793
  122OSM    O1212831   3.041   3.320   7.074 -0.1227 -0.1846  0.7102
  122OSM    C1S12832   3.112   3.211   6.806  0.7252  0.4313 -0.5223
  122OSM    H1S12833   3.015   3.170   6.840 -0.5538  3.3283 -0.3946
  122OSM    H1T12834   3.191   3.132   6.805  0.2677 -0.0361 -0.1879
  122OSM     NF12835   3.065   3.100   6.591 -0.0535  0.3918  0.0400
  122OSM    HNF12836   3.142   3.071   6.534 -0.3414  0.4791 -0.3988
  122OSM    C2S12837   3.079   3.235   6.652 -0.0356 -0.0018  0.3148
  122OSM    H2S12838   2.983   3.289   6.640  0.3760  0.9739  1.3176
  122OSM    C3S12839   3.178   3.313   6.574 -0.0891 -0.1825  0.1158
  122OSM    H3S12840   3.263   3.244   6.561 -1.0094 -1.4396  0.5452
  122OSM     O312841   3.227   3.434   6.629  0.1277 -0.6254 -0.0543
  122OSM    HO312842   3.186   3.434   6.716  2.3414  1.9289  1.1356
  122OSM    C4S12843   3.127   3.351   6.434  0.1529 -0.9242  0.3408
  122OSM    H4S12844   3.123   3.267   6.363 -1.5479 -0.6595  0.0822
  122OSM    C5S12845   3.080   3.466   6.384 -0.0213 -0.4042 -0.1196
  122OSM    H5S12846   3.078   3.556   6.447 -2.1048  0.0068 -0.7097
  122OSM    C6S12847   3.025   3.495   6.248 -0.0501  0.0531 -0.2883
  122OSM    H6S12848   3.104   3.554   6.196  0.3651 -0.4298 -0.2184
  122OSM    H6T12849   2.930   3.551   6.262 -0.2150 -0.0012 -1.1262
  122OSM    C7S12850   3.000   3.369   6.161 -1.1263  0.2126 -0.4323
  122OSM    H7S12851   2.943   3.290   6.216 -1.4334 -1.4901 -3.0278
  122OSM    H7T12852   3.095   3.320   6.129  0.2356  1.3903  1.5630
  122OSM    C8S12853   2.907   3.394   6.043 -0.0864 -0.1169 -0.6359
  122OSM    H8S12854   2.835   3.466   6.088  2.8774  1.3634  2.1000
  122OSM    H8T12855   2.854   3.305   6.005  2.9340 -1.1279 -2.8075
  122OSM    C9S12856   2.984   3.449   5.917  0.0798 -0.7024 -0.1106
  122OSM    H9S12857   3.055   3.372   5.880  1.2660  1.2674 -2.2391
  122OSM    H9T12858   3.044   3.538   5.944  2.6670 -2.1753 -0.6885
  122OSM   C10S12859   2.898   3.496   5.797  0.0918  0.7753  0.0340
  122OSM   H10S12860   2.814   3.553   5.841  0.5458  2.2485 -0.9230
  122OSM   H10T12861   2.856   3.402   5.754 -0.2837  0.3511  1.2931
  122OSM   C11S12862   2.969   3.577   5.690  0.2733  0.3954 -0.4306
  122OSM   H11S12863   3.063   3.526   5.662  0.7009  0.3169  1.0775
  122OSM   H11T12864   2.994   3.680   5.723  0.4775  0.9356 -2.1867
  122OSM   C12S12865   2.905   3.593   5.557 -0.4452  0.2462  0.0838
  122OSM   H12S12866   2.835   3.679   5.568  1.0778  1.6004 -0.4283
  122OSM   H12T12867   2.855   3.495   5.543  1.7116 -1.1470  1.4976
  122OSM   C13S12868   3.011   3.627   5.453  0.4806 -0.5274  0.0351
  122OSM   H13S12869   3.103   3.566   5.467  0.0725 -1.1698 -0.0535
  122OSM   H13T12870   3.044   3.730   5.480  0.7682 -0.5645 -0.1694
  122OSM   C14S12871   2.952   3.603   5.308  0.2159 -0.0236  0.2629
  122OSM   H14S12872   2.855   3.657   5.300  1.1669  1.4986 -1.9877
  122OSM   H14T12873   2.951   3.494   5.287  0.5495 -0.0713  0.4926
  122OSM   C15S12874   3.058   3.655   5.208  0.0778  0.2491 -0.4953
  122OSM   H15S12875   3.151   3.604   5.243 -1.5202 -1.9670  0.7508
  122OSM   H15T12876   3.079   3.764   5.205  1.3387  0.0458  0.0293
  122OSM   C16S12877   3.056   3.596   5.066  0.0130  0.3752  0.0106
  122OSM   H16S12878   3.022   3.491   5.068  1.2379 -0.0406  0.2271
  122OSM   H16T12879   3.159   3.596   5.022  0.2555 -1.7187  0.4698
  122OSM   C17S12880   2.971   3.673   4.975 -0.9720  0.4701  0.2577
  122OSM   H17S12881   2.982   3.779   5.006  1.4653  0.7339 -1.2536
  122OSM   H17T12882   2.865   3.641   4.986 -0.3565 -1.0023  2.9493
  122OSM   C18S12883   3.012   3.659   4.825  0.0789  0.1010  0.3715
  122OSM   H18S12884   2.949   3.721   4.758  1.0142 -0.5511 -1.1708
  122OSM   H18T12885   2.997   3.552   4.800  0.2598 -0.5729  2.8468
  122OSM   H18U12886   3.120   3.685   4.813 -0.2285  1.7704  0.9238
  122OSM    C1F12887   2.967   3.017   6.622 -0.4419  0.1563  0.2924
  122OSM     OF12888   2.868   3.047   6.690 -0.4187 -0.0486 -0.1739
  122OSM    C2F12889   2.997   2.880   6.591 -0.3603  0.4210  0.1725
  122OSM    H2F12890   3.005   2.818   6.683 -2.2918 -1.9258 -1.1294
  122OSM    H2G12891   3.098   2.876   6.545 -0.2553  0.2702  0.4121
  122OSM    C3F12892   2.903   2.819   6.486  0.1677  0.5449 -0.3740
  122OSM    H3F12893   2.800   2.799   6.522 -1.0020  1.2307 -3.0734
  122OSM    H3G12894   2.934   2.713   6.472 -0.7375  0.2132  0.0895
  122OSM    C4F12895   2.881   2.898   6.364  0.0625 -0.0318  0.0558
  122OSM    H4F12896   2.836   2.999   6.376  0.9475  0.8057 -2.7952
  122OSM    H4G12897   2.815   2.838   6.297 -0.4523  2.2305 -1.6191
  122OSM    C5F12898   3.013   2.916   6.298  0.4745  0.2831  0.1193
  122OSM    H5F12899   3.048   2.813   6.278 -1.6884 -1.4232  4.0914
  122OSM    H5G12900   3.089   2.964   6.363 -1.1264  0.8440  1.6471
  122OSM    C6F12901   2.998   2.983   6.158 -0.4191  0.4043  0.3933
  122OSM    H6F12902   2.949   3.079   6.184 -0.7752 -0.2159  2.1393
  122OSM    H6G12903   2.924   2.921   6.103  1.5722 -0.1537 -1.8095
  122OSM    C7F12904   3.136   3.000   6.077  0.2093 -0.0949 -0.5635
  122OSM    H7F12905   3.176   2.898   6.060  0.4697 -0.0430 -0.2810
  122OSM    H7G12906   3.212   3.053   6.139  0.6138 -0.4696 -0.7313
  122OSM    C8F12907   3.112   3.072   5.944 -0.2694 -0.4498  0.8630
  122OSM    H8F12908   3.211   3.102   5.906 -0.8360  0.4738  0.0692
  122OSM    H8G12909   3.056   3.163   5.975  0.4977  0.9754 -1.6842
  122OSM    C9F12910   3.021   3.004   5.844  0.4058  0.5950  0.5039
  122OSM    H9F12911   2.938   2.941   5.880  0.5407  0.1147  0.0002
  122OSM   C10F12912   3.020   3.007   5.705  0.1498 -0.1261 -0.5173
  122OSM   H10F12913   2.939   2.952   5.654 -0.1257 -2.7042  2.4200
  122OSM   C11F12914   3.119   3.077   5.618 -0.5769  0.1493 -0.8578
  122OSM   H11F12915   3.142   3.024   5.524  0.3604 -1.6946  0.3534
  122OSM   H11G12916   3.213   3.097   5.674  0.0472 -0.9495 -1.4848
  122OSM   C12F12917   3.067   3.211   5.565  0.3623 -0.0410  0.3743
  122OSM   H12F12918   3.149   3.250   5.501  1.8788 -0.3856  2.0300
  122OSM   H12G12919   3.059   3.288   5.645 -0.9729 -0.4515  0.6573
  122OSM   C13F12920   2.936   3.214   5.483  0.4310 -0.2102 -0.4941
  122OSM   H13F12921   2.932   3.308   5.424 -0.0709 -0.2956 -0.6023
  122OSM   H13G12922   2.852   3.208   5.555  0.1651  2.2778 -0.5205
  122OSM   C14F12923   2.943   3.109   5.382  0.3899  0.4792 -0.0758
  122OSM   H14F12924   2.951   3.006   5.423  2.2043 -1.1011 -3.8505
  122OSM   H14G12925   3.027   3.117   5.309  0.3805  2.0802  0.0580
  122OSM   C15F12926   2.816   3.116   5.297 -0.5730 -0.4527  0.8773
  122OSM   H15F12927   2.734   3.136   5.368 -0.4527  1.5974  0.4903
  122OSM   H15G12928   2.794   3.021   5.244 -1.7964 -1.6020  3.2925
  122OSM   C16F12929   2.822   3.219   5.185 -0.0459  0.6910  0.2910
  122OSM   H16F12930   2.910   3.200   5.120  0.4816  1.2307  0.8272
  122OSM   H16G12931   2.833   3.316   5.239  0.8561  0.8170 -0.1012
  122OSM   C17F12932   2.705   3.229   5.095  0.2202 -0.5327 -0.6588
  122OSM   H17F12933   2.611   3.234   5.154 -0.4893 -0.6547 -1.7450
  122OSM   H17G12934   2.690   3.140   5.031  0.3022 -1.1370  0.1516
  122OSM   C18F12935   2.709   3.357   5.017  0.1276  0.8646 -0.6855
  122OSM   H18F12936   2.623   3.422   5.045 -0.9025 -0.1695 -1.3459
  122OSM   H18G12937   2.691   3.337   4.909 -0.5301 -0.4444 -0.3520
  122OSM   H18H12938   2.807   3.409   5.024  0.2406  0.6711 -0.8318
  123OSM      N12939   2.871   3.270   1.831 -0.0276  0.0751 -0.2784
  123OSM    C1512940   2.738   3.212   1.880 -0.0272 -0.4455 -0.0663
  123OSM   H15A12941   2.723   3.243   1.982  0.6971  0.8666 -0.3418
  123OSM   H15B12942   2.755   3.107   1.898 -2.3151 -0.5421  1.9539
  123OSM   H15C12943   2.647   3.225   1.823 -1.3511 -0.0201  2.0601
  123OSM    C1412944   2.889   3.233   1.686 -0.1038  0.1129  0.3732
  123OSM   H14A12945   2.981   3.270   1.644 -0.0045 -0.7170 -0.1574
  123OSM   H14B12946   2.817   3.274   1.617  1.7983  1.4159 -0.9245
  123OSM   H14C12947   2.876   3.126   1.680 -2.1886  0.4019 -4.0550
  123OSM    C1312948   2.860   3.417   1.851  0.0774  0.1583 -0.0959
  123OSM   H13A12949   2.935   3.466   1.791  0.7295 -0.1979  0.4151
  123OSM   H13B12950   2.882   3.440   1.955  2.3341 -0.4811 -0.3753
  123OSM   H13C12951   2.758   3.440   1.823 -2.1854 -1.7389  5.1484
  123OSM    C1212952   2.988   3.201   1.909 -0.0240 -0.0541  0.1330
  123OSM   H12A12953   3.072   3.220   1.843 -0.1590 -0.2797 -0.1075
  123OSM   H12B12954   2.961   3.097   1.906 -1.0098  0.2091 -1.1753
  123OSM    C1112955   3.022   3.242   2.055  0.1078 -1.4246  0.2938
  123OSM   H11A12956   3.067   3.343   2.043 -2.1799 -0.6495 -2.6322
  123OSM   H11B12957   3.096   3.168   2.094 -0.3632 -1.4252  1.2268
  123OSM      P12958   2.857   3.127   2.217 -0.0380 -0.1780 -0.1153
  123OSM    O1312959   2.755   3.178   2.313  0.6957 -0.5962  0.6857
  123OSM    O1412960   2.814   3.023   2.122  0.4538  0.0946 -0.0329
  123OSM    O1112961   2.990   3.094   2.290  0.1317  0.8445 -0.2518
  123OSM    O1212962   2.906   3.254   2.141  0.4018 -0.1173  0.1607
  123OSM    C1S12963   3.036   3.174   2.397 -0.0356 -0.0819 -0.1466
  123OSM    H1S12964   2.962   3.189   2.479  0.3022 -1.8522  0.5253
  123OSM    H1T12965   3.074   3.273   2.363 -1.2157  0.2254 -0.5946
  123OSM     NF12966   3.175   3.157   2.609 -0.4680 -0.5187  0.3777
  123OSM    HNF12967   3.246   3.225   2.620 -0.2960 -0.3404 -1.5142
  123OSM    C2S12968   3.156   3.106   2.475  0.2500  0.6307  0.0525
  123OSM    H2S12969   3.116   3.003   2.480 -0.8077  0.7775 -3.4423
  123OSM    C3S12970   3.278   3.109   2.384  0.0292  0.5348  1.0478
  123OSM    H3S12971   3.303   3.214   2.358  0.3932  0.1340 -0.3170
  123OSM     O312972   3.237   3.047   2.260 -0.2434  0.1484 -0.5493
  123OSM    HO312973   3.141   3.052   2.267 -0.1820  2.4481 -0.4756
  123OSM    C4S12974   3.399   3.041   2.441 -0.0404 -0.1922  0.6318
  123OSM    H4S12975   3.449   3.114   2.507 -1.1582  0.7928  0.4284
  123OSM    C5S12976   3.447   2.911   2.433 -0.5330  0.0683 -0.3197
  123OSM    H5S12977   3.382   2.841   2.378 -1.1045  0.2236  0.1442
  123OSM    C6S12978   3.570   2.861   2.513  0.3970  0.7288 -0.0676
  123OSM    H6S12979   3.659   2.889   2.453 -0.0365  2.6576  0.1356
  123OSM    H6T12980   3.570   2.750   2.515  0.8430  0.7387  0.6454
  123OSM    C7S12981   3.564   2.904   2.663 -0.1782 -0.4615 -0.4323
  123OSM    H7S12982   3.570   3.014   2.677  0.0525 -0.8601  4.0988
  123OSM    H7T12983   3.658   2.874   2.714 -1.9947 -3.1465  1.6798
  123OSM    C8S12984   3.457   2.851   2.751 -0.5263 -0.2190 -0.3445
  123OSM    H8S12985   3.444   2.742   2.733  1.3046 -0.3599 -0.9548
  123OSM    H8T12986   3.359   2.902   2.737 -1.1910 -1.3567  0.0146
  123OSM    C9S12987   3.492   2.881   2.901 -0.0610 -0.5145  0.3699
  123OSM    H9S12988   3.507   2.990   2.918 -0.6787 -0.6080  1.6525
  123OSM    H9T12989   3.590   2.833   2.922 -0.6402 -1.9394 -0.1294
  123OSM   C10S12990   3.392   2.828   3.000  0.2418  0.4435 -0.0802
  123OSM   H10S12991   3.364   2.722   2.980 -1.0390  0.5247  1.1082
  123OSM   H10T12992   3.298   2.887   2.994 -0.5120 -0.7460 -0.4916
  123OSM   C11S12993   3.447   2.841   3.143 -0.3619  0.2507  0.0024
  123OSM   H11S12994   3.497   2.938   3.162 -0.6449  0.5977 -0.9687
  123OSM   H11T12995   3.528   2.765   3.149 -2.9946 -2.7794  0.2205
  123OSM   C12S12996   3.354   2.805   3.259  0.2210  0.9086  0.3939
  123OSM   H12S12997   3.312   2.704   3.236  0.7639  0.5764  0.8170
  123OSM   H12T12998   3.268   2.875   3.266 -0.2981  0.3416 -0.1305
  123OSM   C13S12999   3.424   2.826   3.397  0.1967  0.4433  0.6379
  123OSM   H13S13000   3.464   2.929   3.408 -0.4596  0.7770 -0.0522
  123OSM   H13T13001   3.515   2.764   3.415  0.7466  1.5102  1.6575
  123OSM   C14S13002   3.330   2.789   3.513  0.0550 -0.1972  0.4319
  123OSM   H14S13003   3.305   2.683   3.493 -0.4274  0.1097 -0.6617
  123OSM   H14T13004   3.244   2.860   3.512  0.8312  0.7851  0.8255
  123OSM   C15S13005   3.393   2.805   3.650  0.4390  0.2132 -0.4428
  123OSM   H15S13006   3.442   2.904   3.659  0.8552 -0.1187  1.4614
  123OSM   H15T13007   3.480   2.737   3.662  1.3402  1.4317  0.1629
  123OSM   C16S13008   3.289   2.764   3.758 -0.0893 -0.6898  0.9801
  123OSM   H16S13009   3.244   2.667   3.730  0.4907 -0.3823 -1.3101
  123OSM   H16T13010   3.210   2.843   3.755  0.8488  0.3368 -2.5210
  123OSM   C17S13011   3.352   2.736   3.894  0.5859  0.0117  0.0802
  123OSM   H17S13012   3.384   2.827   3.948  1.4426 -0.5314  0.5097
  123OSM   H17T13013   3.448   2.681   3.886 -0.4292 -1.7754 -0.6104
  123OSM   C18S13014   3.261   2.655   3.990 -0.3030 -0.3076 -0.3213
  123OSM   H18S13015   3.180   2.716   4.035 -0.3437 -1.1046  0.7195
  123OSM   H18T13016   3.326   2.614   4.069  1.9524  1.2911 -1.2310
  123OSM   H18U13017   3.216   2.573   3.930 -1.4095  0.7978 -1.0523
  123OSM    C1F13018   3.090   3.135   2.706  0.0135  0.4674  0.2232
  123OSM     OF13019   2.986   3.081   2.685  0.5018  0.9298  0.5552
  123OSM    C2F13020   3.125   3.185   2.840  0.5001 -1.4158  0.1584
  123OSM    H2F13021   3.100   3.293   2.843 -0.6492 -1.6583 -0.4161
  123OSM    H2G13022   3.228   3.153   2.870  0.2009 -1.0396  1.6612
  123OSM    C3F13023   3.038   3.118   2.952 -0.2509  0.6439  0.1967
  123OSM    H3F13024   3.046   3.007   2.948  0.7375  0.7440 -2.0230
  123OSM    H3G13025   2.934   3.147   2.928 -0.0252  1.0189 -0.3462
  123OSM    C4F13026   3.087   3.152   3.091 -0.2427  0.0962 -0.3704
  123OSM    H4F13027   3.106   3.258   3.118  1.3519 -0.8631  2.8361
  123OSM    H4G13028   3.181   3.095   3.107 -1.0681 -1.3190 -0.4200
  123OSM    C5F13029   2.984   3.093   3.194 -0.4993 -0.2734  0.5301
  123OSM    H5F13030   2.969   2.990   3.154  0.9356 -0.2535 -0.1121
  123OSM    H5G13031   2.896   3.159   3.180  0.7611  1.3212 -0.2181
  123OSM    C6F13032   3.018   3.109   3.348 -0.4911 -0.3677  0.4018
  123OSM    H6F13033   3.042   3.215   3.370  1.5597 -0.0945 -2.5328
  123OSM    H6G13034   3.114   3.053   3.361  0.1245  0.0928 -1.7808
  123OSM    C7F13035   2.900   3.058   3.432  0.1058  0.5982  0.4389
  123OSM    H7F13036   2.893   2.948   3.419  0.3908  0.0773  3.7111
  123OSM    H7G13037   2.808   3.113   3.404 -1.7459 -3.1821 -1.6981
  123OSM    C8F13038   2.931   3.089   3.578  0.4675  0.2346 -0.0676
  123OSM    H8F13039   3.030   3.057   3.614 -0.4406  0.4152  2.8484
  123OSM    H8G13040   2.849   3.041   3.636  1.1944  0.2631  1.0012
  123OSM    C9F13041   2.918   3.231   3.616 -0.1834  0.3166  0.2593
  123OSM    H9F13042   2.836   3.295   3.581  1.3238  2.3865  0.3297
  123OSM   C10F13043   3.001   3.289   3.701  0.1333 -0.0672  0.5695
  123OSM   H10F13044   2.985   3.396   3.725 -0.9814 -0.5885  2.3597
  123OSM   C11F13045   3.125   3.241   3.778  0.0989 -0.4052  0.6486
  123OSM   H11F13046   3.168   3.329   3.831 -1.2908  1.5394 -1.2416
  123OSM   H11G13047   3.196   3.204   3.700 -0.9388 -1.4723  0.1899
  123OSM   C12F13048   3.110   3.125   3.883  0.3621 -0.5574 -0.1396
  123OSM   H12F13049   3.208   3.116   3.934 -0.9697  0.8679  2.9419
  123OSM   H12G13050   3.081   3.033   3.828 -0.0522 -0.1929 -0.5455
  123OSM   C13F13051   3.000   3.160   3.988 -0.0247 -0.0508 -0.0404
  123OSM   H13F13052   2.902   3.182   3.941 -0.8095 -0.5774  1.2956
  123OSM   H13G13053   3.034   3.252   4.041 -0.4156  1.4810 -2.3175
  123OSM   C14F13054   2.993   3.044   4.096  0.0454 -0.3421  0.0907
  123OSM   H14F13055   2.961   2.948   4.050 -1.9090  0.8148 -1.1328
  123OSM   H14G13056   2.921   3.073   4.175 -2.0886 -2.6517 -0.8570
  123OSM   C15F13057   3.127   3.022   4.164 -0.3416  0.3737 -0.3317
  123OSM   H15F13058   3.167   3.113   4.214  0.4097  0.8682 -1.7837
  123OSM   H15G13059   3.202   2.978   4.096 -0.8654 -0.9753 -0.0713
  123OSM   C16F13060   3.100   2.920   4.280 -0.1834 -0.3909  0.2657
  123OSM   H16F13061   3.056   2.829   4.234  0.9595 -0.2892 -1.1131
  123OSM   H16G13062   3.024   2.971   4.342 -1.4306  1.3578 -2.4792
  123OSM   C17F13063   3.218   2.881   4.366 -0.3515 -0.3136  0.2988
  123OSM   H17F13064   3.282   2.817   4.301 -0.9264  0.9912 -1.6447
  123OSM   H17G13065   3.175   2.824   4.451 -1.7208 -1.1707 -0.9269
  123OSM   C18F13066   3.305   3.005   4.420 -0.5663  0.2243 -1.0476
  123OSM   H18F13067   3.256   3.087   4.476  1.3945  1.1498 -0.6120
  123OSM   H18G13068   3.365   3.052   4.339  2.9029 -0.2899  1.0464
  123OSM   H18H13069   3.390   2.982   4.488  0.6511  1.0978 -2.2146
  124OSM      N13070   4.939   4.580   2.036 -0.1646 -0.2217 -0.2685
  124OSM    C1513071   4.861   4.694   1.973  0.4090 -0.4409  0.0734
  124OSM   H15A13072   4.769   4.724   2.021 -0.6931 -3.5899  0.1823
  124OSM   H15B13073   4.845   4.680   1.867 -0.3145  0.0134  0.1136
  124OSM   H15C13074   4.919   4.785   1.980 -0.1875 -0.1406  1.4005
  124OSM    C1413075   4.879   4.448   2.012  0.3524  0.3207  0.3083
  124OSM   H14A13076   4.789   4.431   2.070 -1.3258 -0.6850 -2.3588
  124OSM   H14B13077   4.942   4.375   2.059 -3.5138 -3.4495  0.3150
  124OSM   H14C13078   4.857   4.431   1.907 -0.7075  0.8368  0.4323
  124OSM    C1313079   5.071   4.582   1.968 -0.1962 -0.3265  0.0476
  124OSM   H13A13080   5.133   4.670   1.969  2.4976 -2.1157 -0.4468
  124OSM   H13B13081   5.071   4.560   1.863 -0.8519  0.4618 -0.1300
  124OSM   H13C13082   5.137   4.511   2.015  0.2521 -0.0661 -0.1856
  124OSM    C1213083   4.958   4.602   2.186 -0.5763 -0.3115 -0.5345
  124OSM   H12A13084   4.862   4.627   2.228 -0.3049 -0.8010  0.4021
  124OSM   H12B13085   5.027   4.684   2.194 -1.0900  0.2200 -1.4645
  124OSM    C1113086   5.019   4.491   2.275 -0.9285  0.1480 -0.1044
  124OSM   H11A13087   5.065   4.530   2.368 -0.3027  0.3010 -0.4768
  124OSM   H11B13088   5.112   4.470   2.218  0.1826  4.4211 -0.2155
  124OSM      P13089   4.813   4.374   2.373  0.6629 -0.2952 -0.2747
  124OSM    O1313090   4.720   4.469   2.315  0.4782 -0.3297  0.3697
  124OSM    O1413091   4.762   4.233   2.380  0.5438 -0.3488  0.3928
  124OSM    O1113092   4.853   4.429   2.514 -0.3304 -0.1843 -0.0146
  124OSM    O1213093   4.946   4.374   2.292  0.3475 -0.0671  0.3054
  124OSM    C1S13094   4.930   4.355   2.604 -0.2150 -0.1946 -0.5289
  124OSM    H1S13095   5.031   4.369   2.560 -0.0542 -0.8694 -0.3873
  124OSM    H1T13096   4.910   4.246   2.615  0.5240 -0.2762  0.1697
  124OSM     NF13097   5.044   4.352   2.834 -0.3825 -0.1721  0.3492
  124OSM    HNF13098   5.022   4.264   2.875  1.3581 -1.2866 -0.9144
  124OSM    C2S13099   4.932   4.404   2.755  0.2551 -0.5944 -0.2543
  124OSM    H2S13100   4.945   4.515   2.751  0.4661 -0.5556  1.1661
  124OSM    C3S13101   4.785   4.390   2.825  0.3220  0.3872  0.8568
  124OSM    H3S13102   4.792   4.279   2.826  4.6363  0.4863  1.8467
  124OSM     O313103   4.675   4.420   2.731 -0.3542  0.0850 -0.2790
  124OSM    HO313104   4.724   4.415   2.648 -1.3115  1.0927 -0.9347
  124OSM    C4S13105   4.773   4.439   2.970  0.3399 -0.2823  0.0106
  124OSM    H4S13106   4.814   4.368   3.043  0.6929  0.5882  0.6685
  124OSM    C5S13107   4.710   4.547   3.018  0.3053  0.1771 -0.3223
  124OSM    H5S13108   4.671   4.615   2.942 -0.7549  0.6189  0.5898
  124OSM    C6S13109   4.694   4.585   3.165  0.1632 -0.2814  0.6836
  124OSM    H6S13110   4.588   4.563   3.190 -0.7167  1.5692 -1.1524
  124OSM    H6T13111   4.716   4.693   3.169  0.3294 -0.3299  1.1318
  124OSM    C7S13112   4.779   4.504   3.262  0.3398 -0.4420  0.5451
  124OSM    H7S13113   4.884   4.519   3.229 -0.3170 -0.5490 -1.7691
  124OSM    H7T13114   4.755   4.396   3.268  0.3952 -0.4615  0.4090
  124OSM    C8S13115   4.779   4.570   3.408  0.3994  0.0699  0.1042
  124OSM    H8S13116   4.675   4.549   3.440  1.3767 -2.6728  1.8782
  124OSM    H8T13117   4.784   4.680   3.389 -1.3838  0.2135  0.3516
  124OSM    C9S13118   4.887   4.509   3.497 -0.2439  0.0196  0.0318
  124OSM    H9S13119   4.982   4.543   3.452 -0.1773  1.0802  0.9326
  124OSM    H9T13120   4.900   4.398   3.498 -0.7351 -0.0442  0.8124
  124OSM   C10S13121   4.882   4.562   3.642  0.4937  0.5876  0.1525
  124OSM   H10S13122   4.880   4.673   3.642 -0.8743  0.5888  1.2799
  124OSM   H10T13123   4.969   4.520   3.697  0.3420 -2.0410 -1.4106
  124OSM   C11S13124   4.751   4.526   3.711  0.1478 -0.0784  0.2772
  124OSM   H11S13125   4.716   4.421   3.701  0.3902 -0.4612  2.7812
  124OSM   H11T13126   4.664   4.585   3.674 -0.1840 -0.9393 -0.3293
  124OSM   C12S13127   4.773   4.565   3.863  0.1386  0.1379  0.4770
  124OSM   H12S13128   4.669   4.574   3.900  0.9824  3.1992  2.4471
  124OSM   H12T13129   4.814   4.668   3.863 -0.2722  0.3042  1.0306
  124OSM   C13S13130   4.847   4.462   3.946  0.9853 -0.4256 -0.4198
  124OSM   H13S13131   4.953   4.454   3.913  1.0008 -1.1072 -0.2174
  124OSM   H13T13132   4.813   4.359   3.922  0.5655  0.0556 -2.0318
  124OSM   C14S13133   4.843   4.492   4.097 -0.0736  0.7368 -0.3440
  124OSM   H14S13134   4.736   4.497   4.126  0.4605 -0.5325  2.0620
  124OSM   H14T13135   4.897   4.587   4.114  2.2455 -0.8737  2.0644
  124OSM   C15S13136   4.916   4.391   4.193 -0.2644 -0.0593 -0.3670
  124OSM   H15S13137   5.012   4.359   4.148 -1.3891  0.6804 -3.5325
  124OSM   H15T13138   4.850   4.302   4.206 -0.7776  0.2177 -1.0210
  124OSM   C16S13139   4.932   4.463   4.330 -0.5722 -0.4385 -0.8576
  124OSM   H16S13140   4.839   4.505   4.374  0.9815  0.6278  1.6302
  124OSM   H16T13141   5.005   4.545   4.310 -0.0394 -0.8645 -0.6910
  124OSM   C17S13142   4.985   4.360   4.435  0.0560  0.7620  0.6182
  124OSM   H17S13143   5.019   4.424   4.519  1.7367  0.7873 -0.0486
  124OSM   H17T13144   5.076   4.313   4.393  0.8239  1.9035  0.9424
  124OSM   C18S13145   4.887   4.259   4.490 -0.0331 -0.1859  0.4318
  124OSM   H18S13146   4.797   4.313   4.527 -1.2034 -2.6729  1.4492
  124OSM   H18T13147   4.930   4.222   4.585 -0.1244  1.4493  1.1327
  124OSM   H18U13148   4.863   4.178   4.417  1.4215  0.0436 -0.3297
  124OSM    C1F13149   5.166   4.386   2.805 -0.2803  0.0295  0.1829
  124OSM     OF13150   5.190   4.462   2.717 -0.3853 -0.4639  0.3876
  124OSM    C2F13151   5.276   4.332   2.894  0.0012  0.4503 -0.3373
  124OSM    H2F13152   5.265   4.222   2.897 -2.9143  0.5698 -2.4066
  124OSM    H2G13153   5.253   4.373   2.995  0.4468 -0.3106  0.0802
  124OSM    C3F13154   5.417   4.367   2.859 -1.2613  0.0483  0.0220
  124OSM    H3F13155   5.442   4.475   2.865  2.0158 -0.6381  1.0443
  124OSM    H3G13156   5.435   4.330   2.756  2.3354  4.4961 -1.2934
  124OSM    C4F13157   5.512   4.307   2.964  0.3593 -0.2134 -0.1406
  124OSM    H4F13158   5.617   4.329   2.936  1.0466  0.5609  2.6950
  124OSM    H4G13159   5.510   4.196   2.968 -0.6626 -0.1811  0.7243
  124OSM    C5F13160   5.477   4.346   3.109 -0.2718  0.2769  0.2130
  124OSM    H5F13161   5.381   4.296   3.133 -0.4039  0.4182 -0.0081
  124OSM    H5G13162   5.450   4.454   3.103  1.2238  0.6071 -1.1673
  124OSM    C6F13163   5.580   4.308   3.215 -0.5440 -0.2988 -0.4977
  124OSM    H6F13164   5.681   4.348   3.191  0.0720  0.0648  2.3277
  124OSM    H6G13165   5.586   4.198   3.229  0.0396 -0.4542 -1.8320
  124OSM    C7F13166   5.560   4.376   3.347  0.1204 -0.0948  0.3816
  124OSM    H7F13167   5.470   4.350   3.405 -1.0663  0.0638 -1.3231
  124OSM    H7G13168   5.557   4.485   3.323  0.0206  0.1501  1.4439
  124OSM    C8F13169   5.686   4.358   3.442 -0.7414  0.1320 -0.0798
  124OSM    H8F13170   5.770   4.407   3.389 -1.5200  0.8098 -0.7204
  124OSM    H8G13171   5.709   4.250   3.451  0.7408  0.6499  5.0556
  124OSM    C9F13172   5.668   4.419   3.576  1.0370  0.1651 -0.2710
  124OSM    H9F13173   5.698   4.524   3.588 -0.3799  0.6687 -0.8328
  124OSM   C10F13174   5.634   4.355   3.690  0.2323 -0.2193  0.0287
  124OSM   H10F13175   5.628   4.419   3.779 -1.4939  0.1091 -0.2749
  124OSM   C11F13176   5.594   4.209   3.705 -0.1438  0.4413 -0.6605
  124OSM   H11F13177   5.539   4.174   3.616  2.7862 -3.4151 -1.2322
  124OSM   H11G13178   5.525   4.198   3.792  1.2178 -2.3324  0.2092
  124OSM   C12F13179   5.711   4.118   3.722  0.2872 -0.0557  0.0347
  124OSM   H12F13180   5.790   4.130   3.645 -2.0974 -2.8889 -3.1092
  124OSM   H12G13181   5.678   4.014   3.703 -0.1779  0.4812 -2.4034
  124OSM   C13F13182   5.779   4.134   3.858  0.0123 -0.2294 -0.0883
  124OSM   H13F13183   5.806   4.240   3.877  0.5640 -0.1128 -1.4129
  124OSM   H13G13184   5.883   4.094   3.856  0.2778  0.4249 -2.4215
  124OSM   C14F13185   5.708   4.061   3.971  0.0438 -0.6100 -0.1130
  124OSM   H14F13186   5.673   3.962   3.936  1.4046 -1.9101  2.0063
  124OSM   H14G13187   5.614   4.112   4.000  0.8653  0.0028  1.6580
  124OSM   C15F13188   5.791   4.032   4.096 -0.5675  0.4748  0.5544
  124OSM   H15F13189   5.843   4.123   4.132 -2.6337  2.0673 -0.2988
  124OSM   H15G13190   5.859   3.949   4.065 -0.0085  0.5196  1.6173
  124OSM   C16F13191   5.706   3.977   4.218 -0.3277 -0.2721  0.0940
  124OSM   H16F13192   5.657   3.881   4.191 -4.6702  2.0010 -0.9428
  124OSM   H16G13193   5.616   4.040   4.225 -0.4994 -0.5952  0.9723
  124OSM   C17F13194   5.782   3.986   4.347 -0.5399  0.4729  0.0547
  124OSM   H17F13195   5.706   3.956   4.422 -0.0683 -0.0572  0.3251
  124OSM   H17G13196   5.824   4.084   4.378  1.2136 -0.7001  1.5170
  124OSM   C18F13197   5.894   3.889   4.359 -0.2223  0.2824  0.4478
  124OSM   H18F13198   5.932   3.869   4.461 -1.6950 -2.0802  0.6265
  124OSM   H18G13199   5.978   3.932   4.301  0.0448  2.0916  2.0824
  124OSM   H18H13200   5.869   3.791   4.313 -1.2550  0.5492  0.4066
  125OSM      N13201   0.873   2.522   2.253 -0.2738 -0.3168  0.6676
  125OSM    C1513202   0.967   2.407   2.240 -0.2622  0.2324 -0.3427
  125OSM   H15A13203   0.992   2.408   2.135 -0.4397  0.0103 -0.3882
  125OSM   H15B13204   0.911   2.319   2.269  0.8138 -0.4829 -0.3742
  125OSM   H15C13205   1.056   2.416   2.301 -0.4705 -0.6756  0.1124
  125OSM    C1413206   0.927   2.643   2.181  0.6817  0.2839  0.1460
  125OSM   H14A13207   1.016   2.686   2.224  1.8223 -0.5290 -1.3241
  125OSM   H14B13208   0.851   2.720   2.182 -1.7995 -1.8927 -2.1372
  125OSM   H14C13209   0.945   2.628   2.075 -0.7427  0.7205 -0.1782
  125OSM    C1313210   0.756   2.483   2.173  0.5254  0.6542  0.1476
  125OSM   H13A13211   0.786   2.467   2.070  5.1302 -0.1288  1.3962
  125OSM   H13B13212   0.683   2.562   2.180  0.4776  0.5167  1.2790
  125OSM   H13C13213   0.711   2.390   2.204  0.0884  0.7131 -0.2822
  125OSM    C1213214   0.825   2.547   2.394 -0.4204 -0.4437  0.1828
  125OSM   H12A13215   0.906   2.574   2.461 -0.5303  0.5760 -0.0822
  125OSM   H12B13216   0.780   2.456   2.431  0.7406 -1.2792 -0.4180
  125OSM    C1113217   0.720   2.663   2.414 -0.1898  0.8596 -0.4583
  125OSM   H11A13218   0.761   2.756   2.368  2.9482  0.4379  1.2167
  125OSM   H11B13219   0.709   2.693   2.520 -2.3539 -0.9551 -0.1037
  125OSM      P13220   0.492   2.543   2.437 -0.0156  0.0663  0.1004
  125OSM    O1313221   0.392   2.500   2.339  0.4089 -0.0032 -0.4117
  125OSM    O1413222   0.557   2.442   2.516 -0.1511 -0.6324 -0.2106
  125OSM    O1113223   0.431   2.649   2.533  0.1146  0.3695  0.1373
  125OSM    O1213224   0.595   2.629   2.354  0.1253  0.1554 -0.1767
  125OSM    C1S13225   0.444   2.793   2.517 -0.5065  0.0295  0.8893
  125OSM    H1S13226   0.386   2.827   2.429  1.3617 -1.8783 -1.1956
  125OSM    H1T13227   0.549   2.821   2.492 -0.9158  0.1563 -0.7759
  125OSM     NF13228   0.384   3.010   2.616  0.1080 -0.5945  0.0188
  125OSM    HNF13229   0.449   3.072   2.660 -0.7743  2.1062 -2.1694
  125OSM    C2S13230   0.394   2.866   2.643  0.2160 -0.1482 -0.1398
  125OSM    H2S13231   0.291   2.826   2.652  1.1020 -3.0787 -1.5627
  125OSM    C3S13232   0.480   2.838   2.765 -0.8959  0.6302 -0.4184
  125OSM    H3S13233   0.579   2.887   2.757 -0.8658  1.1151  2.0943
  125OSM     O313234   0.523   2.703   2.777 -0.8247  0.1740  0.1365
  125OSM    HO313235   0.477   2.650   2.712  2.0535 -0.7701 -1.3046
  125OSM    C4S13236   0.400   2.867   2.887  0.0369 -0.3003 -0.1681
  125OSM    H4S13237   0.311   2.807   2.906 -1.1576  1.2128 -0.7371
  125OSM    C5S13238   0.435   2.955   2.981  0.4280  0.0848 -0.0458
  125OSM    H5S13239   0.521   3.023   2.968  0.3775 -0.0321 -0.9974
  125OSM    C6S13240   0.342   2.998   3.087 -0.1411 -0.4329  0.2384
  125OSM    H6S13241   0.234   2.977   3.066 -0.2910  1.9432 -1.8007
  125OSM    H6T13242   0.347   3.106   3.111  1.4139 -0.7421  1.4378
  125OSM    C7S13243   0.381   2.919   3.215  0.1253 -0.7225  0.5627
  125OSM    H7S13244   0.476   2.965   3.251  0.1210  0.6358 -1.0145
  125OSM    H7T13245   0.397   2.813   3.184  1.4408 -0.0290 -1.3628
  125OSM    C8S13246   0.281   2.921   3.328  0.5095  0.4597  0.2345
  125OSM    H8S13247   0.180   2.881   3.303  0.5289 -0.6967  1.8188
  125OSM    H8T13248   0.284   3.024   3.370 -0.6654  0.1415  1.1659
  125OSM    C9S13249   0.335   2.822   3.433 -0.4527  0.6222  0.0355
  125OSM    H9S13250   0.443   2.840   3.450  0.1938 -2.4521 -0.3883
  125OSM    H9T13251   0.317   2.721   3.393 -0.3243  0.6320 -0.0466
  125OSM   C10S13252   0.253   2.844   3.559 -0.9306  1.1246 -0.5499
  125OSM   H10S13253   0.145   2.838   3.535 -1.1314  2.2544 -0.0156
  125OSM   H10T13254   0.262   2.951   3.590 -1.1764  0.6743  1.2205
  125OSM   C11S13255   0.294   2.749   3.674  0.1353  0.5489  0.1727
  125OSM   H11S13256   0.402   2.759   3.699 -0.0917  1.5319  0.7904
  125OSM   H11T13257   0.286   2.642   3.642 -0.6585  0.6087  0.1591
  125OSM   C12S13258   0.209   2.749   3.802  0.6560  0.5125  0.2992
  125OSM   H12S13259   0.103   2.719   3.790  1.0896 -0.9397 -0.0930
  125OSM   H12T13260   0.219   2.853   3.841  1.1278  0.9569 -0.9477
  125OSM   C13S13261   0.277   2.664   3.910 -0.5705  0.2010  0.0398
  125OSM   H13S13262   0.384   2.692   3.916  0.5701 -3.2242 -1.6406
  125OSM   H13T13263   0.286   2.559   3.873  2.4513  0.1470  0.6637
  125OSM   C14S13264   0.226   2.680   4.057 -0.1639  0.3164  0.4045
  125OSM   H14S13265   0.192   2.786   4.062  1.7294  0.9490  0.9652
  125OSM   H14T13266   0.311   2.660   4.126 -1.3211 -2.9688  1.0523
  125OSM   C15S13267   0.125   2.578   4.102  0.2605  0.1973 -0.0011
  125OSM   H15S13268   0.097   2.532   4.004 -3.7406 -0.4756  1.2559
  125OSM   H15T13269   0.028   2.620   4.134 -0.1186 -0.7326  0.1216
  125OSM   C16S13270   0.169   2.481   4.209  0.6292  0.0848  0.7762
  125OSM   H16S13271   0.273   2.447   4.190  0.2930 -1.2692  1.2863
  125OSM   H16T13272   0.100   2.396   4.223 -1.5593  1.6877  0.2231
  125OSM   C17S13273   0.182   2.527   4.354  0.2897 -0.9182 -0.0204
  125OSM   H17S13274   0.088   2.522   4.414 -0.5201 -1.0513 -1.2553
  125OSM   H17T13275   0.223   2.631   4.352 -2.7299  0.3782 -0.4454
  125OSM   C18S13276   0.283   2.439   4.433 -0.5474  0.4045 -0.3055
  125OSM   H18S13277   0.387   2.442   4.394  0.3886  1.3417  2.0372
  125OSM   H18T13278   0.260   2.331   4.441  1.6614 -0.0123  2.2045
  125OSM   H18U13279   0.291   2.491   4.531 -0.0881 -1.0339  0.4526
  125OSM    C1F13280   0.301   3.066   2.527 -0.1253 -0.9593  1.1699
  125OSM     OF13281   0.214   3.004   2.473  0.3125 -0.0784 -0.0090
  125OSM    C2F13282   0.326   3.214   2.494 -0.5306  0.0551 -0.3500
  125OSM    H2F13283   0.321   3.222   2.383  1.7370  0.1606 -0.4861
  125OSM    H2G13284   0.424   3.251   2.530 -0.9654  1.1884 -0.2998
  125OSM    C3F13285   0.220   3.298   2.570  0.2157  0.3281  0.5493
  125OSM    H3F13286   0.116   3.286   2.531 -0.8862  1.9819  2.7214
  125OSM    H3G13287   0.257   3.401   2.548  1.7715 -0.4018 -0.3539
  125OSM    C4F13288   0.210   3.268   2.723 -0.3760  0.0666  0.7392
  125OSM    H4F13289   0.309   3.247   2.769 -0.2197  3.3027  2.1218
  125OSM    H4G13290   0.145   3.180   2.742 -0.3908  0.3503  2.0730
  125OSM    C5F13291   0.152   3.388   2.800 -0.8890  0.5672  0.0626
  125OSM    H5F13292   0.060   3.427   2.751 -0.6448  0.9321 -0.1120
  125OSM    H5G13293   0.235   3.461   2.807  0.5980 -1.0887  0.3584
  125OSM    C6F13294   0.119   3.346   2.939 -0.2506  0.4741 -0.4407
  125OSM    H6F13295   0.207   3.291   2.981 -1.0481 -0.5440 -0.0673
  125OSM    H6G13296   0.044   3.266   2.923  1.8194 -1.8578  0.8083
  125OSM    C7F13297   0.081   3.451   3.045  0.6752  0.4991 -0.1073
  125OSM    H7F13298  -0.020   3.488   3.018  0.1743 -0.8481 -0.1791
  125OSM    H7G13299   0.157   3.532   3.043  0.6448  0.5140 -0.8218
  125OSM    C8F13300   0.064   3.378   3.182  0.0317 -0.1251 -0.0904
  125OSM    H8F13301  -0.014   3.300   3.164 -0.7892  0.8429 -0.8044
  125OSM    H8G13302   0.008   3.445   3.251  1.0354 -1.8258  2.5722
  125OSM    C9F13303   0.180   3.317   3.257 -0.0327 -0.3180  0.5224
  125OSM    H9F13304   0.274   3.314   3.201  0.0458 -0.6614  0.6676
  125OSM   C10F13305   0.198   3.294   3.388  0.2958 -0.2657 -0.3430
  125OSM   H10F13306   0.292   3.245   3.420  1.1908  1.4523 -0.2369
  125OSM   C11F13307   0.102   3.306   3.499  0.1352 -0.2543 -0.3681
  125OSM   H11F13308   0.059   3.205   3.515  0.7143 -0.4304  0.0991
  125OSM   H11G13309   0.019   3.373   3.471  0.7044  1.5774  1.9909
  125OSM   C12F13310   0.154   3.354   3.636  0.7064  0.5711  0.0196
  125OSM   H12F13311   0.070   3.392   3.697  1.0396  0.4021  0.5908
  125OSM   H12G13312   0.229   3.436   3.639  0.5313  0.7608 -0.5505
  125OSM   C13F13313   0.218   3.244   3.713 -1.2929 -0.6376  0.3361
  125OSM   H13F13314   0.316   3.225   3.664 -2.3602 -1.0292 -1.7280
  125OSM   H13G13315   0.147   3.159   3.706  0.2851 -1.8792 -3.6610
  125OSM   C14F13316   0.244   3.282   3.863  0.3959  0.0484 -0.4816
  125OSM   H14F13317   0.142   3.283   3.908  0.8140 -3.4082  0.8274
  125OSM   H14G13318   0.280   3.387   3.859 -0.1649  0.4590  2.6494
  125OSM   C15F13319   0.339   3.180   3.933  0.4272  0.0922  0.8337
  125OSM   H15F13320   0.444   3.204   3.904  0.1916 -1.9868 -2.2245
  125OSM   H15G13321   0.306   3.077   3.907  2.1564 -0.0072 -1.3112
  125OSM   C16F13322   0.335   3.198   4.083  0.7397  0.6468  0.4649
  125OSM   H16F13323   0.230   3.224   4.110  0.0218  0.5975 -1.9988
  125OSM   H16G13324   0.385   3.292   4.117 -1.7404  1.3535  2.5419
  125OSM   C17F13325   0.399   3.087   4.155 -0.5184  0.5318  0.0222
  125OSM   H17F13326   0.509   3.085   4.139 -0.4586 -1.2855  0.4119
  125OSM   H17G13327   0.362   2.990   4.114  3.2235  0.2628 -3.3506
  125OSM   C18F13328   0.383   3.096   4.310 -0.8723 -0.8937 -0.0115
  125OSM   H18F13329   0.289   3.045   4.340 -1.4696 -0.1365 -0.5585
  125OSM   H18G13330   0.376   3.203   4.338  2.4894  0.0947 -2.2738
  125OSM   H18H13331   0.466   3.044   4.362 -0.9414 -0.7782  0.2177
  126OSM      N13332   3.523   0.096   2.073  0.4126 -0.1677 -0.3209
  126OSM    C1513333   3.533  -0.044   2.017  0.1445  0.0828  0.2667
  126OSM   H15A13334   3.621  -0.092   2.057  0.7736 -0.2324 -1.4042
  126OSM   H15B13335   3.535  -0.037   1.909  0.2764  1.1158  0.3223
  126OSM   H15C13336   3.445  -0.095   2.055  1.6160 -1.4403  1.8041
  126OSM    C1413337   3.626   0.183   2.006  0.1470 -0.1923 -0.4600
  126OSM   H14A13338   3.620   0.174   1.899 -0.1312  0.3428 -0.4931
  126OSM   H14B13339   3.721   0.136   2.026  0.2145  0.3827  0.6731
  126OSM   H14C13340   3.633   0.285   2.042  2.3369 -0.3176 -0.4103
  126OSM    C1313341   3.384   0.153   2.051 -0.1246 -0.0080 -0.1170
  126OSM   H13A13342   3.310   0.104   2.112  1.5892  0.5090  2.5528
  126OSM   H13B13343   3.354   0.149   1.947 -1.5235 -4.8399  0.2592
  126OSM   H13C13344   3.389   0.258   2.076  3.6731 -0.0219 -0.2729
  126OSM    C1213345   3.542   0.090   2.232  0.0668 -0.0039  0.7093
  126OSM   H12A13346   3.547   0.192   2.268  3.7553  0.1535  0.1385
  126OSM   H12B13347   3.643   0.056   2.251 -0.0226  1.0409  3.4562
  126OSM    C1113348   3.449  -0.001   2.320  0.0351  0.5672 -0.1143
  126OSM   H11A13349   3.480   0.008   2.426 -0.5146 -0.3655  0.1349
  126OSM   H11B13350   3.464  -0.108   2.293 -0.7208  0.2875  0.5263
  126OSM      P13351   3.187  -0.060   2.312 -0.4186 -0.5695 -0.5957
  126OSM    O1313352   3.076   0.012   2.372  0.7471  0.3588 -0.4565
  126OSM    O1413353   3.163  -0.102   2.180 -0.0759  0.1114  0.4026
  126OSM    O1113354   3.226  -0.178   2.401  0.5462  0.3722 -0.2317
  126OSM    O1213355   3.316   0.039   2.309  0.8009  0.3820 -0.3278
  126OSM    C1S13356   3.230  -0.172   2.547  0.4957  0.1842  0.2593
  126OSM    H1S13357   3.134  -0.143   2.594 -0.8060  0.1454 -2.2371
  126OSM    H1T13358   3.301  -0.093   2.579 -1.7259  2.7560 -0.7913
  126OSM     NF13359   3.208  -0.320   2.753  0.8055  0.1069 -0.2465
  126OSM    HNF13360   3.273  -0.291   2.823  0.9643 -1.1765  0.1560
  126OSM    C2S13361   3.261  -0.309   2.614  0.3682  0.3848  0.1864
  126OSM    H2S13362   3.216  -0.387   2.549 -1.5197  1.1553  0.4987
  126OSM    C3S13363   3.412  -0.325   2.611  1.0633  0.4688  0.0071
  126OSM    H3S13364   3.453  -0.246   2.677  0.4071  0.4974  0.3858
  126OSM     O313365   3.477  -0.305   2.479  0.3844 -0.6803  0.0744
  126OSM    HO313366   3.407  -0.265   2.427  2.2090  1.6253 -0.7705
  126OSM    C4S13367   3.450  -0.457   2.664  0.0616  0.0554 -0.2430
  126OSM    H4S13368   3.394  -0.531   2.605 -1.2160  1.3991 -0.8016
  126OSM    C5S13369   3.553  -0.487   2.741 -0.0869 -1.0033 -0.2251
  126OSM    H5S13370   3.599  -0.394   2.778 -4.2584  0.7669  1.1755
  126OSM    C6S13371   3.588  -0.623   2.796 -0.1538 -0.6345  0.6394
  126OSM    H6S13372   3.695  -0.649   2.780 -0.6142 -3.4241  1.5233
  126OSM    H6T13373   3.525  -0.703   2.751 -2.6095 -0.2350  3.0772
  126OSM    C7S13374   3.567  -0.632   2.943 -0.0426 -0.9486 -0.7763
  126OSM    H7S13375   3.576  -0.738   2.976 -1.3589 -0.1100  2.6690
  126OSM    H7T13376   3.466  -0.594   2.969  0.3349  1.3281 -2.3511
  126OSM    C8S13377   3.660  -0.543   3.024  0.7296 -0.5425  0.3642
  126OSM    H8S13378   3.663  -0.436   2.994 -0.1324 -0.3288  1.0143
  126OSM    H8T13379   3.765  -0.575   3.007 -0.1106 -2.9789 -0.7335
  126OSM    C9S13380   3.641  -0.556   3.177 -0.0026 -0.3585  0.0553
  126OSM    H9S13381   3.661  -0.659   3.211 -0.1973 -0.6176 -0.5976
  126OSM    H9T13382   3.535  -0.527   3.195 -0.2593 -0.5815 -1.0104
  126OSM   C10S13383   3.736  -0.460   3.251 -0.2315  0.8688 -0.5223
  126OSM   H10S13384   3.750  -0.360   3.203  0.6728  1.2380  0.4753
  126OSM   H10T13385   3.839  -0.501   3.254 -0.4034  0.4914  1.5203
  126OSM   C11S13386   3.693  -0.435   3.397 -0.3689  0.2110  0.1747
  126OSM   H11S13387   3.596  -0.383   3.409  0.4465  1.6865  0.7900
  126OSM   H11T13388   3.763  -0.371   3.455 -1.4357  2.0053 -0.4351
  126OSM   C12S13389   3.676  -0.562   3.480 -0.1647  0.3169 -0.0627
  126OSM   H12S13390   3.774  -0.616   3.484 -0.7641 -0.7496  0.7271
  126OSM   H12T13391   3.613  -0.630   3.419  0.0974  0.1781 -0.1811
  126OSM   C13S13392   3.612  -0.538   3.617 -0.3504  0.6750  0.4215
  126OSM   H13S13393   3.593  -0.637   3.664  0.0851  0.5560  0.3545
  126OSM   H13T13394   3.512  -0.492   3.608 -0.2613  0.5439 -1.8067
  126OSM   C14S13395   3.704  -0.456   3.710  0.4698  0.2577  1.4035
  126OSM   H14S13396   3.708  -0.349   3.683  2.1797 -0.4253 -1.5843
  126OSM   H14T13397   3.809  -0.486   3.686  0.5277  2.2439 -1.3446
  126OSM   C15S13398   3.682  -0.481   3.857 -0.2348  0.2052  0.6058
  126OSM   H15S13399   3.687  -0.587   3.890  1.0581  0.2753  0.6939
  126OSM   H15T13400   3.580  -0.451   3.889 -0.4507 -0.1268  0.2440
  126OSM   C16S13401   3.790  -0.406   3.940 -0.1988  0.3566 -0.0391
  126OSM   H16S13402   3.785  -0.300   3.908  0.4663  0.6038  0.6367
  126OSM   H16T13403   3.889  -0.454   3.929 -1.2778 -2.0492  0.1764
  126OSM   C17S13404   3.753  -0.402   4.091 -0.1803  0.0271  0.1100
  126OSM   H17S13405   3.645  -0.379   4.102 -0.3626 -0.9256  0.3887
  126OSM   H17T13406   3.803  -0.323   4.152  0.4458  0.8863 -1.4754
  126OSM   C18S13407   3.785  -0.542   4.140 -1.1238  0.1789 -0.4879
  126OSM   H18S13408   3.794  -0.551   4.251  1.2040 -2.1848 -0.7694
  126OSM   H18T13409   3.879  -0.579   4.095 -0.1182  1.0117  0.8443
  126OSM   H18U13410   3.709  -0.613   4.101  0.7413 -2.8577  1.0402
  126OSM    C1F13411   3.078  -0.332   2.781  0.3072  0.2423 -0.5786
  126OSM     OF13412   3.000  -0.374   2.695  0.5426  0.3470  0.1384
  126OSM    C2F13413   3.037  -0.289   2.919  0.1912 -0.7701 -0.3784
  126OSM    H2F13414   2.968  -0.201   2.918  2.0268  0.7785  1.1655
  126OSM    H2G13415   3.121  -0.263   2.987 -0.2568 -0.6011  0.1224
  126OSM    C3F13416   2.959  -0.396   2.996 -0.1532  0.3863 -0.0650
  126OSM    H3F13417   2.878  -0.429   2.927  0.2498 -0.7697 -0.0053
  126OSM    H3G13418   2.908  -0.349   3.083 -0.3803  0.3991 -0.2058
  126OSM    C4F13419   3.040  -0.512   3.046 -0.1017  0.5329 -0.4005
  126OSM    H4F13420   3.108  -0.537   2.963 -1.4975 -1.8119 -0.9392
  126OSM    H4G13421   2.981  -0.600   3.081  0.1376  0.6530  0.3207
  126OSM    C5F13422   3.139  -0.478   3.166  0.2390  0.5276  0.7137
  126OSM    H5F13423   3.184  -0.380   3.141 -0.9186  0.7264 -0.7696
  126OSM    H5G13424   3.222  -0.550   3.180  0.6243  0.7281 -0.4221
  126OSM    C6F13425   3.057  -0.460   3.298 -0.3889  0.1964 -0.1477
  126OSM    H6F13426   2.980  -0.538   3.315 -0.4886  0.4216  0.4642
  126OSM    H6G13427   2.998  -0.366   3.296  0.3490  0.7357  1.2736
  126OSM    C7F13428   3.154  -0.440   3.417 -0.0593 -0.2636 -0.8837
  126OSM    H7F13429   3.225  -0.525   3.414  1.9414  1.1909  1.5053
  126OSM    H7G13430   3.100  -0.460   3.512  0.0481  0.0886 -0.7451
  126OSM    C8F13431   3.232  -0.306   3.421  0.0847  0.8321  0.1452
  126OSM    H8F13432   3.279  -0.321   3.321 -1.6022  1.1691 -0.7250
  126OSM    H8G13433   3.310  -0.299   3.500 -0.1693  1.1671  0.3646
  126OSM    C9F13434   3.154  -0.179   3.422  0.0457  0.4236  0.0160
  126OSM    H9F13435   3.095  -0.182   3.329  0.5616 -3.3949 -0.3215
  126OSM   C10F13436   3.133  -0.079   3.509  0.0850 -0.9269  0.1028
  126OSM   H10F13437   3.052  -0.010   3.482  0.5515 -0.0186  0.9561
  126OSM   C11F13438   3.172  -0.079   3.649 -1.1102 -0.0263  0.0755
  126OSM   H11F13439   3.131   0.006   3.708  0.7933  1.9926 -1.3692
  126OSM   H11G13440   3.282  -0.075   3.660 -1.0565 -1.3803  0.2445
  126OSM   C12F13441   3.141  -0.205   3.733  0.5558 -0.9666  0.6228
  126OSM   H12F13442   3.154  -0.295   3.670 -0.1143 -0.7599  0.1775
  126OSM   H12G13443   3.040  -0.198   3.777 -0.2067 -1.1303 -1.0378
  126OSM   C13F13444   3.245  -0.225   3.848 -0.4226  0.0527  0.1786
  126OSM   H13F13445   3.233  -0.148   3.928 -1.7357 -0.7402  0.8000
  126OSM   H13G13446   3.348  -0.231   3.809 -0.2626 -2.7429  0.8022
  126OSM   C14F13447   3.226  -0.352   3.922 -0.3085  0.9471  0.3453
  126OSM   H14F13448   3.246  -0.439   3.856 -2.1435  1.5308 -1.0789
  126OSM   H14G13449   3.120  -0.366   3.953 -0.1488  0.9139  0.8881
  126OSM   C15F13450   3.312  -0.361   4.046  0.4895 -0.7281 -0.0162
  126OSM   H15F13451   3.297  -0.271   4.109  1.9800  0.3575 -1.1192
  126OSM   H15G13452   3.416  -0.356   4.007  1.0461  1.5471  1.5491
  126OSM   C16F13453   3.298  -0.496   4.118 -0.1809  0.2343 -0.0811
  126OSM   H16F13454   3.372  -0.569   4.079 -0.8765 -0.5080 -0.0311
  126OSM   H16G13455   3.203  -0.543   4.085 -0.2500  1.7355 -2.2140
  126OSM   C17F13456   3.301  -0.490   4.275  0.3302 -0.2794 -0.2959
  126OSM   H17F13457   3.398  -0.446   4.306 -0.1234  0.7837 -0.3248
  126OSM   H17G13458   3.295  -0.598   4.299  0.7007  0.1081  1.7676
  126OSM   C18F13459   3.178  -0.425   4.350  0.6856  0.7887 -0.0669
  126OSM   H18F13460   3.182  -0.448   4.458  3.1985 -1.7421 -0.5595
  126OSM   H18G13461   3.084  -0.460   4.302  0.3197  0.3307  0.9745
  126OSM   H18H13462   3.180  -0.314   4.341 -0.3961  0.7604 -0.7904
  127OSM      N13463   3.531   3.131   1.945  0.3257 -0.4268  0.4996
  127OSM    C1513464   3.577   3.250   1.876 -0.5722  0.1631  0.4375
  127OSM   H15A13465   3.620   3.324   1.941 -0.2541 -0.4220  0.8996
  127OSM   H15B13466   3.493   3.299   1.828 -0.8534 -0.7081  0.0138
  127OSM   H15C13467   3.652   3.227   1.802 -0.6877 -0.9565  0.6572
  127OSM    C1413468   3.404   3.166   2.014  0.3302  0.3282  0.3030
  127OSM   H14A13469   3.421   3.258   2.069  0.3625  0.0979  0.6794
  127OSM   H14B13470   3.364   3.094   2.084 -0.5490  1.7926  1.3681
  127OSM   H14C13471   3.335   3.179   1.932 -0.9631 -1.6382  1.0038
  127OSM    C1313472   3.504   3.022   1.847 -0.4868 -0.2386 -0.2216
  127OSM   H13A13473   3.422   3.039   1.779  0.2344  0.8702 -0.8525
  127OSM   H13B13474   3.505   2.930   1.904 -0.8969  0.3303  0.7269
  127OSM   H13C13475   3.586   3.005   1.779  1.6372 -1.2872  2.3867
  127OSM    C1213476   3.638   3.090   2.039  0.2556 -0.0422 -0.4146
  127OSM   H12A13477   3.735   3.102   1.993  0.3980 -1.7721 -0.6243
  127OSM   H12B13478   3.633   2.982   2.039 -0.0917 -0.0538  1.4678
  127OSM    C1113479   3.640   3.152   2.178 -0.0549 -0.3432 -0.1600
  127OSM   H11A13480   3.720   3.104   2.239 -1.5337 -1.7009  0.7897
  127OSM   H11B13481   3.542   3.138   2.229  0.0135 -0.9843 -0.1888
  127OSM      P13482   3.828   3.332   2.162 -0.4862 -0.0941  0.2276
  127OSM    O1313483   3.895   3.259   2.051 -0.4890  0.0159 -0.4951
  127OSM    O1413484   3.834   3.483   2.155  0.0775 -0.0178 -0.3184
  127OSM    O1113485   3.883   3.281   2.299 -0.0762  0.2249 -0.0427
  127OSM    O1213486   3.668   3.290   2.163 -0.4992  0.2300  0.1550
  127OSM    C1S13487   3.849   3.342   2.421  0.0596  0.4972  0.2233
  127OSM    H1S13488   3.751   3.393   2.409 -1.1226 -1.5012  0.9199
  127OSM    H1T13489   3.920   3.419   2.458  0.0646  1.3682 -1.4934
  127OSM     NF13490   3.795   3.280   2.656 -0.4331  0.8513 -0.0819
  127OSM    HNF13491   3.864   3.294   2.727 -0.7538  0.6211  0.2795
  127OSM    C2S13492   3.837   3.229   2.527 -0.6134  0.1684 -0.2360
  127OSM    H2S13493   3.748   3.173   2.492 -3.8522  3.6564  1.6207
  127OSM    C3S13494   3.955   3.127   2.538  0.6563 -0.6834  0.3369
  127OSM    H3S13495   4.042   3.186   2.575  0.5814 -0.7675  0.6503
  127OSM     O313496   3.998   3.082   2.410 -0.0444  0.6215 -0.0804
  127OSM    HO313497   3.946   3.140   2.354  1.3592  2.5117  0.4871
  127OSM    C4S13498   3.942   3.010   2.625  0.6112  0.5751 -0.3592
  127OSM    H4S13499   3.857   2.949   2.589 -1.6546  2.1776  1.9603
  127OSM    C5S13500   4.004   2.959   2.731 -0.2371  0.1845 -0.9277
  127OSM    H5S13501   4.099   3.002   2.766 -0.1145 -0.5127 -0.4058
  127OSM    C6S13502   3.973   2.833   2.815  0.8014  0.1053  0.3851
  127OSM    H6S13503   4.058   2.762   2.808  1.9333  1.4062  0.5204
  127OSM    H6T13504   3.884   2.775   2.782  0.2364  2.0996 -1.8470
  127OSM    C7S13505   3.965   2.866   2.967 -0.6019 -0.2930 -0.3807
  127OSM    H7S13506   4.067   2.887   3.007 -2.1767  0.8007  3.5237
  127OSM    H7T13507   3.925   2.783   3.028 -0.4079 -0.6224 -0.7010
  127OSM    C8S13508   3.871   2.985   2.988 -0.5342  0.0248 -0.5190
  127OSM    H8S13509   3.798   2.992   2.905  0.3526  0.0416 -1.3050
  127OSM    H8T13510   3.932   3.078   2.988  0.2706 -0.4843 -0.0054
  127OSM    C9S13511   3.787   2.969   3.115 -0.2493  0.0619 -0.0517
  127OSM    H9S13512   3.694   2.913   3.092  2.1198 -3.3116 -2.3007
  127OSM    H9T13513   3.740   3.067   3.141  1.5190  0.8341  0.4011
  127OSM   C10S13514   3.851   2.922   3.240 -0.1308  0.3130  0.7656
  127OSM   H10S13515   3.952   2.970   3.247  0.1240 -0.0975 -0.0128
  127OSM   H10T13516   3.879   2.815   3.233  0.8403  0.1706  4.6063
  127OSM   C11S13517   3.765   2.933   3.370 -0.3693  0.9700  0.1082
  127OSM   H11S13518   3.681   2.862   3.353  0.2828 -0.4373  2.3767
  127OSM   H11T13519   3.731   3.038   3.368  0.8086  1.3701 -1.9454
  127OSM   C12S13520   3.841   2.909   3.499 -0.4543  0.2631  0.1704
  127OSM   H12S13521   3.921   2.985   3.497 -0.0756 -0.1429 -0.8030
  127OSM   H12T13522   3.893   2.810   3.503 -0.6191  0.0473 -1.8731
  127OSM   C13S13523   3.750   2.922   3.622  0.0049  0.5180  0.0682
  127OSM   H13S13524   3.673   2.842   3.612  0.7936 -0.0188 -2.2547
  127OSM   H13T13525   3.684   3.011   3.624  0.2413  0.6899  1.8381
  127OSM   C14S13526   3.828   2.921   3.751 -0.2893  0.1609 -0.1401
  127OSM   H14S13527   3.893   3.010   3.763 -0.2164  0.0531  0.3027
  127OSM   H14T13528   3.895   2.832   3.748 -0.6013 -0.0902  0.2746
  127OSM   C15S13529   3.730   2.908   3.876 -0.8337  0.1262  0.7001
  127OSM   H15S13530   3.655   2.832   3.846  0.5178 -1.0811  0.2049
  127OSM   H15T13531   3.681   3.003   3.907 -0.3369  0.5265  0.2911
  127OSM   C16S13532   3.813   2.858   3.991 -0.2333 -0.5831  0.4872
  127OSM   H16S13533   3.905   2.918   4.006  0.3983 -0.8259 -1.9574
  127OSM   H16T13534   3.843   2.754   3.966  1.2238 -0.2309  0.6779
  127OSM   C17S13535   3.725   2.853   4.114 -0.3461  0.1774 -0.3048
  127OSM   H17S13536   3.635   2.791   4.094  0.4725 -0.8211 -0.9335
  127OSM   H17T13537   3.682   2.954   4.132  1.1297  0.7786 -0.0038
  127OSM   C18S13538   3.807   2.796   4.239  0.4074 -0.9617 -0.4412
  127OSM   H18S13539   3.904   2.852   4.238  0.8926 -1.7771 -1.1840
  127OSM   H18T13540   3.826   2.687   4.226  1.2136 -0.6534 -2.0772
  127OSM   H18U13541   3.752   2.822   4.332  1.0863 -0.3943 -0.1847
  127OSM    C1F13542   3.675   3.338   2.661 -0.2339 -0.3839  0.2339
  127OSM     OF13543   3.600   3.334   2.566 -0.1894 -0.3802  0.7654
  127OSM    C2F13544   3.641   3.420   2.782 -0.9971 -0.3824 -0.0172
  127OSM    H2F13545   3.570   3.496   2.744  0.4528  1.4970  0.8583
  127OSM    H2G13546   3.728   3.470   2.830  0.6592 -2.3421 -0.8052
  127OSM    C3F13547   3.572   3.322   2.881  0.6817 -0.6349 -0.3113
  127OSM    H3F13548   3.628   3.226   2.891  0.3344 -0.7436  0.7477
  127OSM    H3G13549   3.473   3.311   2.834  1.2768  0.1485 -1.8047
  127OSM    C4F13550   3.551   3.386   3.016  0.8667 -0.3613 -1.5784
  127OSM    H4F13551   3.488   3.476   3.000 -0.2747 -1.0314 -1.0072
  127OSM    H4G13552   3.648   3.420   3.058  0.6014  0.5964 -1.7199
  127OSM    C5F13553   3.482   3.291   3.108  0.2984  0.2914  0.2859
  127OSM    H5F13554   3.547   3.201   3.107  1.1701  0.9148  0.2615
  127OSM    H5G13555   3.378   3.265   3.076  0.5203  0.6707 -0.7972
  127OSM    C6F13556   3.466   3.331   3.250 -0.1160 -0.2133 -0.0097
  127OSM    H6F13557   3.372   3.391   3.249 -0.9838 -1.5047  0.0619
  127OSM    H6G13558   3.558   3.390   3.266  0.0350  0.0709 -1.6938
  127OSM    C7F13559   3.446   3.224   3.354  0.0900 -0.1671 -0.4019
  127OSM    H7F13560   3.534   3.157   3.340 -0.5255 -0.9824 -0.4201
  127OSM    H7G13561   3.360   3.159   3.329 -1.3212  1.6353 -0.4612
  127OSM    C8F13562   3.427   3.276   3.491 -0.2744  0.4643  0.0023
  127OSM    H8F13563   3.418   3.189   3.560  0.9967 -1.7821 -2.4944
  127OSM    H8G13564   3.336   3.339   3.495  0.5194  1.6010  1.2332
  127OSM    C9F13565   3.543   3.359   3.546 -0.5892 -0.5662  0.3213
  127OSM    H9F13566   3.580   3.438   3.479  0.4980 -0.3098  1.2125
  127OSM   C10F13567   3.599   3.360   3.660 -0.0832  0.0376  0.2284
  127OSM   H10F13568   3.682   3.429   3.683 -2.1463  2.6359  0.2691
  127OSM   C11F13569   3.568   3.270   3.782 -0.5630  0.0206  0.0631
  127OSM   H11F13570   3.650   3.200   3.810 -0.0418  1.2600  1.8133
  127OSM   H11G13571   3.484   3.202   3.755  0.1686 -0.7616 -0.2970
  127OSM   C12F13572   3.530   3.344   3.912 -0.2404  0.6329  0.1171
  127OSM   H12F13573   3.451   3.418   3.890 -0.1037  1.3770  1.9551
  127OSM   H12G13574   3.622   3.393   3.951  0.1698 -0.9686  1.2869
  127OSM   C13F13575   3.468   3.256   4.018 -0.6357  0.8307 -0.0147
  127OSM   H13F13576   3.530   3.164   4.018  0.2574  1.4144  0.2118
  127OSM   H13G13577   3.364   3.231   3.990 -0.8337  1.9689 -0.3590
  127OSM   C14F13578   3.488   3.318   4.154  0.5282  0.6009  0.4589
  127OSM   H14F13579   3.424   3.276   4.234  2.1345 -0.0878  1.4238
  127OSM   H14G13580   3.474   3.428   4.144  3.2050  1.0471  0.8227
  127OSM   C15F13581   3.631   3.289   4.204  0.4086 -0.0883 -0.5198
  127OSM   H15F13582   3.702   3.333   4.131 -2.6615 -0.7221 -4.1509
  127OSM   H15G13583   3.642   3.180   4.219  1.5993  0.3414  2.3859
  127OSM   C16F13584   3.660   3.353   4.343 -0.3830  0.0180  0.4432
  127OSM   H16F13585   3.616   3.455   4.350 -0.9108 -0.0965 -0.8918
  127OSM   H16G13586   3.767   3.370   4.365  0.4402 -5.3119  1.9077
  127OSM   C17F13587   3.614   3.265   4.460 -0.5307  0.5052  0.0484
  127OSM   H17F13588   3.644   3.161   4.434 -3.4988 -0.7100  1.0087
  127OSM   H17G13589   3.503   3.253   4.457 -0.5315 -0.1432  1.8238
  127OSM   C18F13590   3.666   3.304   4.597  0.1872  0.1581  0.5951
  127OSM   H18F13591   3.770   3.268   4.605 -0.2398 -1.5300 -0.7659
  127OSM   H18G13592   3.624   3.236   4.673 -0.0237  1.9817  2.1947
  127OSM   H18H13593   3.654   3.412   4.620 -1.2384 -0.4138  2.8878
  128OSM      N13594   2.367   1.086   2.383 -0.1416 -1.0569 -0.3494
  128OSM    C1513595   2.309   1.191   2.300 -0.3011  0.3396 -0.3725
  128OSM   H15A13596   2.380   1.267   2.273  0.0098  0.4739  0.7853
  128OSM   H15B13597   2.223   1.239   2.344 -0.7272 -2.9537  2.8740
  128OSM   H15C13598   2.271   1.160   2.203 -0.1692 -0.8004 -0.0666
  128OSM    C1413599   2.427   0.980   2.298 -0.4967 -0.3071  0.1894
  128OSM   H14A13600   2.473   0.901   2.356 -2.9650 -3.0976 -1.3471
  128OSM   H14B13601   2.495   1.032   2.233 -2.5296 -0.0278 -1.8303
  128OSM   H14C13602   2.342   0.943   2.243 -1.4805  0.2817  1.2502
  128OSM    C1313603   2.485   1.150   2.469  0.1184  0.6170 -0.1064
  128OSM   H13A13604   2.558   1.189   2.400  0.9104  1.6259  1.2547
  128OSM   H13B13605   2.533   1.074   2.528  2.6257 -0.0739 -2.7958
  128OSM   H13C13606   2.458   1.235   2.530  0.2872  0.0457  0.7824
  128OSM    C1213607   2.261   1.041   2.482 -0.2228  0.4055  1.1323
  128OSM   H12A13608   2.244   1.121   2.552 -1.7620  0.2884  0.9309
  128OSM   H12B13609   2.305   0.976   2.556  1.2688  0.0699  0.0127
  128OSM    C1113610   2.127   0.979   2.427  0.5339 -0.0650 -0.1723
  128OSM   H11A13611   2.094   0.919   2.515  2.7329 -0.0243  0.7549
  128OSM   H11B13612   2.150   0.908   2.345 -0.5536 -2.5257  1.5238
  128OSM      P13613   1.937   1.150   2.482  0.1056  0.4163  0.3046
  128OSM    O1313614   1.876   1.265   2.418  0.3639 -0.3326 -0.0439
  128OSM    O1413615   1.846   1.035   2.514 -0.4461  0.0899 -0.1431
  128OSM    O1113616   2.029   1.181   2.596  0.0346 -0.3364 -0.1055
  128OSM    O1213617   2.040   1.081   2.383  0.1441  0.5815  0.4663
  128OSM    C1S13618   2.041   1.316   2.650 -0.3811 -0.4485  0.9943
  128OSM    H1S13619   1.950   1.377   2.632  0.8204  0.6883 -1.6946
  128OSM    H1T13620   2.128   1.364   2.600 -1.1290 -0.8345 -0.7396
  128OSM     NF13621   2.051   1.444   2.861 -0.2437  0.7295 -0.6048
  128OSM    HNF13622   2.142   1.482   2.872 -0.0442  0.1483 -0.1420
  128OSM    C2S13623   2.052   1.311   2.808  0.2321  0.0406  0.2069
  128OSM    H2S13624   1.968   1.253   2.851  2.3739 -2.5781  1.1932
  128OSM    C3S13625   2.171   1.227   2.848  0.2534  0.4702 -0.6764
  128OSM    H3S13626   2.267   1.281   2.831 -0.6593  3.2078  1.9186
  128OSM     O313627   2.189   1.098   2.786 -0.1894  0.1318  0.5122
  128OSM    HO313628   2.119   1.111   2.721 -0.8343 -1.5776  0.8013
  128OSM    C4S13629   2.170   1.223   2.997  0.5776  0.0870 -0.0232
  128OSM    H4S13630   2.191   1.316   3.050  0.2197 -0.4974  1.1929
  128OSM    C5S13631   2.127   1.130   3.086 -0.0415  0.2777  0.1656
  128OSM    H5S13632   2.106   1.028   3.052 -0.3271 -0.9315  3.6287
  128OSM    C6S13633   2.123   1.143   3.243  0.4538  0.0456 -0.3434
  128OSM    H6S13634   2.025   1.190   3.268 -0.6763 -1.8788 -0.9091
  128OSM    H6T13635   2.201   1.209   3.285 -0.0447 -1.5925  3.5012
  128OSM    C7S13636   2.124   1.005   3.314  0.7382  0.3076  0.0568
  128OSM    H7S13637   2.226   0.962   3.321  0.3929 -0.3420  1.6367
  128OSM    H7T13638   2.057   0.947   3.248  2.8011  1.8317 -3.6540
  128OSM    C8S13639   2.061   1.005   3.453 -0.0695  0.1326 -0.0758
  128OSM    H8S13640   1.952   1.023   3.438 -0.1705  0.5264  0.9967
  128OSM    H8T13641   2.098   1.088   3.517  1.9470 -2.1905  2.0147
  128OSM    C9S13642   2.080   0.881   3.543 -0.0569 -0.0831 -0.5120
  128OSM    H9S13643   2.187   0.851   3.548 -0.2228 -0.8523 -1.4987
  128OSM    H9T13644   2.016   0.798   3.506  0.4244 -0.1182 -1.2764
  128OSM   C10S13645   2.030   0.902   3.692 -0.2772 -0.2609  0.4950
  128OSM   H10S13646   2.026   0.801   3.738  2.0570 -0.7633 -0.2787
  128OSM   H10T13647   1.935   0.959   3.691 -0.0264  0.1657 -0.6595
  128OSM   C11S13648   2.136   0.973   3.776  0.4568  0.0405  0.2762
  128OSM   H11S13649   2.160   1.070   3.727 -0.0362  0.3442  0.6284
  128OSM   H11T13650   2.235   0.921   3.774 -0.0813 -0.9808 -1.1048
  128OSM   C12S13651   2.070   1.000   3.915 -0.6306  0.5735  0.5850
  128OSM   H12S13652   2.061   0.912   3.981 -0.5196  1.0565  1.2634
  128OSM   H12T13653   1.963   1.028   3.904 -1.4958 -2.1902  1.2486
  128OSM   C13S13654   2.148   1.092   4.012  1.2961  0.1313  0.2473
  128OSM   H13S13655   2.174   1.183   3.954  1.9225 -0.7406 -0.8915
  128OSM   H13T13656   2.244   1.038   4.030  1.0167 -0.8594 -1.1188
  128OSM   C14S13657   2.066   1.116   4.140  0.4854  0.2327  0.8905
  128OSM   H14S13658   2.035   1.017   4.181  1.6106  0.2487  1.8199
  128OSM   H14T13659   1.981   1.184   4.117 -0.4878 -1.6434 -1.4449
  128OSM   C15S13660   2.157   1.171   4.254  0.1689 -0.5998  0.2607
  128OSM   H15S13661   2.205   1.258   4.204  3.5552 -3.2556 -1.4994
  128OSM   H15T13662   2.232   1.091   4.272  0.2663 -1.7984 -4.3596
  128OSM   C16S13663   2.081   1.213   4.381 -0.1776 -0.0779  0.4696
  128OSM   H16S13664   2.035   1.122   4.424  1.1942 -1.9484 -1.8128
  128OSM   H16T13665   2.006   1.288   4.346  0.5399  0.5278  0.2040
  128OSM   C17S13666   2.155   1.300   4.487 -0.0792  0.1215 -0.2831
  128OSM   H17S13667   2.078   1.350   4.550 -2.5206 -4.4921  0.8592
  128OSM   H17T13668   2.210   1.377   4.429 -0.1430  0.3366 -0.0613
  128OSM   C18S13669   2.251   1.216   4.566 -0.6040  0.4045 -0.1012
  128OSM   H18S13670   2.202   1.122   4.600  0.4202 -0.0894  0.0384
  128OSM   H18T13671   2.281   1.282   4.651 -0.2482  1.6788 -1.1740
  128OSM   H18U13672   2.342   1.190   4.509  0.3766  0.7396  1.2481
  128OSM    C1F13673   1.947   1.528   2.867 -0.9426 -0.1403 -0.1058
  128OSM     OF13674   1.838   1.488   2.823 -0.4047  0.4452  0.1631
  128OSM    C2F13675   1.975   1.665   2.920  0.2586 -0.0845 -0.5589
  128OSM    H2F13676   1.940   1.748   2.856 -1.0158  1.2825  1.7771
  128OSM    H2G13677   2.084   1.680   2.934  0.4163  0.0322 -1.7858
  128OSM    C3F13678   1.906   1.669   3.059  0.2795 -0.0887  0.2226
  128OSM    H3F13679   1.799   1.647   3.042  0.2286 -1.6681  2.2817
  128OSM    H3G13680   1.901   1.774   3.095  0.6805  0.6112 -1.6016
  128OSM    C4F13681   1.962   1.578   3.170  0.4765  0.6435  0.1162
  128OSM    H4F13682   1.981   1.471   3.148 -0.8967  0.2475  0.7865
  128OSM    H4G13683   1.884   1.582   3.248  0.0508  3.4081 -0.3662
  128OSM    C5F13684   2.085   1.630   3.234  0.1062  0.3664  0.6896
  128OSM    H5F13685   2.063   1.735   3.264  0.2124  1.3114 -2.2666
  128OSM    H5G13686   2.159   1.613   3.154  0.2095 -2.9454  1.3246
  128OSM    C6F13687   2.137   1.549   3.355 -0.2778 -0.3662  0.3838
  128OSM    H6F13688   2.230   1.602   3.387  0.4151 -0.0661 -1.9737
  128OSM    H6G13689   2.151   1.442   3.332 -0.2590 -0.6303  1.5558
  128OSM    C7F13690   2.045   1.549   3.473  0.6964  0.9051  1.1951
  128OSM    H7F13691   1.951   1.496   3.445  1.5275 -0.2802  0.5461
  128OSM    H7G13692   2.006   1.648   3.504 -2.4272  0.1177  0.2155
  128OSM    C8F13693   2.113   1.480   3.592  0.0913 -0.6756  0.1230
  128OSM    H8F13694   2.198   1.547   3.616 -1.0516  0.6476  0.6425
  128OSM    H8G13695   2.148   1.382   3.555  2.1189  0.0960 -0.1044
  128OSM    C9F13696   2.024   1.460   3.716  0.3614  0.2373  0.3904
  128OSM    H9F13697   1.917   1.447   3.693  0.2286  0.9023  0.6183
  128OSM   C10F13698   2.057   1.481   3.840 -0.6479  0.2358  0.2201
  128OSM   H10F13699   1.973   1.461   3.909 -1.6583 -3.3778 -1.7681
  128OSM   C11F13700   2.196   1.493   3.900 -0.1142  0.2471  0.1174
  128OSM   H11F13701   2.260   1.505   3.811  0.6231 -1.5559  0.3748
  128OSM   H11G13702   2.216   1.392   3.941 -1.1177 -0.1830 -0.3953
  128OSM   C12F13703   2.190   1.602   4.008 -0.3292  0.6269 -0.3765
  128OSM   H12F13704   2.147   1.694   3.965 -0.1588  1.1067  0.4589
  128OSM   H12G13705   2.296   1.621   4.036 -0.0423 -1.7190  0.4155
  128OSM   C13F13706   2.114   1.570   4.136 -0.2848 -0.2444  0.9701
  128OSM   H13F13707   2.170   1.480   4.170 -0.1361  0.4269  2.5738
  128OSM   H13G13708   2.009   1.538   4.119  0.6995 -1.7962 -3.5226
  128OSM   C14F13709   2.133   1.689   4.235 -0.2012 -0.1219 -0.3329
  128OSM   H14F13710   2.049   1.761   4.235 -0.7267 -0.7182 -0.8858
  128OSM   H14G13711   2.229   1.736   4.203 -0.5470 -0.4004 -1.8468
  128OSM   C15F13712   2.151   1.637   4.379 -0.0106  0.0486  0.2778
  128OSM   H15F13713   2.244   1.579   4.394  0.5075  0.6402 -0.5513
  128OSM   H15G13714   2.071   1.560   4.383  0.5517 -0.4860  2.6008
  128OSM   C16F13715   2.145   1.754   4.492 -0.0994  0.6585  0.6380
  128OSM   H16F13716   2.060   1.820   4.466 -0.4937 -0.2094 -0.3462
  128OSM   H16G13717   2.235   1.818   4.492  0.5473 -0.1419  2.6952
  128OSM   C17F13718   2.112   1.705   4.639 -0.4966  0.0123 -0.1409
  128OSM   H17F13719   2.015   1.653   4.631 -0.8006  0.4285  0.6990
  128OSM   H17G13720   2.106   1.788   4.713  0.0448 -0.6985  0.7175
  128OSM   C18F13721   2.224   1.611   4.695 -0.0618 -0.1141 -0.1469
  128OSM   H18F13722   2.322   1.659   4.676 -0.0741  0.2777  0.7427
  128OSM   H18G13723   2.224   1.511   4.647 -0.4059 -1.2773  2.1406
  128OSM   H18H13724   2.198   1.588   4.800  0.0554 -1.5174 -0.4071
  129OSM      N13725   5.763   2.509   1.689 -0.0092 -0.4668 -0.3732
  129OSM    C1513726   5.706   2.637   1.734  0.3065 -0.6968  0.1068
  129OSM   H15A13727   5.628   2.614   1.805  0.0771 -2.4941 -0.6532
  129OSM   H15B13728   5.663   2.685   1.647 -0.5653 -1.0151  0.3572
  129OSM   H15C13729   5.782   2.694   1.786  0.1311 -0.4445  0.0859
  129OSM    C1413730   5.661   2.418   1.639 -0.1706 -0.0458  0.0002
  129OSM   H14A13731   5.710   2.329   1.602  0.5553  0.1900  0.3674
  129OSM   H14B13732   5.599   2.461   1.563  0.6065 -0.9709 -1.1984
  129OSM   H14C13733   5.604   2.367   1.715 -1.9437 -1.2217 -2.0275
  129OSM    C1313734   5.867   2.528   1.585  0.7401 -1.0173  0.1547
  129OSM   H13A13735   5.938   2.601   1.623  0.3686 -0.0592 -0.9248
  129OSM   H13B13736   5.826   2.580   1.500  2.7720  0.0903 -0.2211
  129OSM   H13C13737   5.929   2.442   1.564  2.6875  0.4343 -0.4193
  129OSM    C1213738   5.828   2.438   1.807  0.5232 -0.6498  0.3254
  129OSM   H12A13739   5.915   2.498   1.830  1.0588 -0.7377 -1.3164
  129OSM   H12B13740   5.865   2.341   1.776  2.2086  0.0573 -0.0271
  129OSM    C1113741   5.745   2.413   1.933  0.5323 -0.6425  0.0105
  129OSM   H11A13742   5.706   2.513   1.964  2.0602  0.6496 -2.0014
  129OSM   H11B13743   5.817   2.380   2.011  1.8214 -1.6124 -1.5327
  129OSM      P13744   5.633   2.179   1.957  0.0812  0.2509  0.2243
  129OSM    O1313745   5.496   2.134   1.919 -0.0408  0.0470 -0.6466
  129OSM    O1413746   5.739   2.099   1.895 -0.4158 -0.1665 -0.0695
  129OSM    O1113747   5.654   2.197   2.114  0.0748  0.2793  0.2948
  129OSM    O1213748   5.636   2.328   1.905 -0.7884 -0.9434 -0.1579
  129OSM    C1S13749   5.602   2.308   2.194  0.0977  0.6977  0.1883
  129OSM    H1S13750   5.529   2.367   2.134  0.5218 -1.1581 -2.3337
  129OSM    H1T13751   5.682   2.381   2.221  0.9060  0.6649 -1.9074
  129OSM     NF13752   5.448   2.353   2.399  0.0584  0.3594 -0.1728
  129OSM    HNF13753   5.489   2.403   2.475 -2.0234 -0.9979  2.0046
  129OSM    C2S13754   5.531   2.252   2.325 -0.9891 -0.5434 -0.2166
  129OSM    H2S13755   5.457   2.176   2.292  0.3809 -1.6684 -0.7876
  129OSM    C3S13756   5.641   2.171   2.401 -0.0030  0.8412 -0.0140
  129OSM    H3S13757   5.716   2.245   2.437  1.2112 -0.8687  1.0825
  129OSM     O313758   5.736   2.091   2.331 -0.4148 -0.3337 -0.1719
  129OSM    HO313759   5.729   2.125   2.241  0.1775 -2.6445 -1.1514
  129OSM    C4S13760   5.589   2.089   2.514 -0.1090 -0.2049  0.0508
  129OSM    H4S13761   5.518   2.011   2.481 -0.6836  0.0838  0.5793
  129OSM    C5S13762   5.631   2.088   2.644 -0.2531 -0.2838 -0.3145
  129OSM    H5S13763   5.719   2.151   2.665 -0.2061 -0.4223 -0.0977
  129OSM    C6S13764   5.573   2.006   2.760 -0.2662 -0.7434 -0.4041
  129OSM    H6S13765   5.565   1.898   2.735 -2.1118 -1.6225  3.3166
  129OSM    H6T13766   5.467   2.033   2.778  0.6887  2.8034  0.7706
  129OSM    C7S13767   5.655   2.018   2.892  0.0227  0.5518  0.3515
  129OSM    H7S13768   5.648   2.121   2.933  0.3624 -0.1320  2.2134
  129OSM    H7T13769   5.760   1.994   2.865 -0.3487  0.8224 -1.4213
  129OSM    C8S13770   5.621   1.916   3.002  0.5823  0.0157 -0.6506
  129OSM    H8S13771   5.674   1.944   3.095 -0.2923  0.5539 -0.2982
  129OSM    H8T13772   5.661   1.815   2.980  0.0987 -0.3159 -0.0476
  129OSM    C9S13773   5.471   1.894   3.025  0.0828  0.5705  0.2251
  129OSM    H9S13774   5.424   1.841   2.939 -0.1110  1.7488 -0.4188
  129OSM    H9T13775   5.427   1.996   3.032 -0.4980  0.2914  0.7600
  129OSM   C10S13776   5.433   1.828   3.163  0.1590  0.3189  0.0592
  129OSM   H10S13777   5.505   1.876   3.232  1.3330  0.6820 -1.3614
  129OSM   H10T13778   5.467   1.722   3.155 -1.3862 -0.1890 -0.0416
  129OSM   C11S13779   5.281   1.843   3.199 -0.5986 -0.1190 -0.4488
  129OSM   H11S13780   5.219   1.823   3.108 -0.9547 -1.3450  0.0436
  129OSM   H11T13781   5.271   1.948   3.233  2.1555  0.5488 -1.4265
  129OSM   C12S13782   5.230   1.751   3.316  0.6843 -0.1104 -0.2276
  129OSM   H12S13783   5.240   1.648   3.274 -3.1906 -0.9297  0.4917
  129OSM   H12T13784   5.121   1.763   3.330  0.3134 -1.3744 -1.7675
  129OSM   C13S13785   5.302   1.757   3.449 -0.1576  0.4293 -0.2336
  129OSM   H13S13786   5.410   1.754   3.425 -0.4558  0.6070 -1.6805
  129OSM   H13T13787   5.286   1.670   3.516 -0.5527 -0.0374 -0.9264
  129OSM   C14S13788   5.279   1.889   3.522 -0.2302  0.8091  0.6141
  129OSM   H14S13789   5.188   1.876   3.584 -0.7291  0.5602 -0.1517
  129OSM   H14T13790   5.251   1.974   3.456 -1.7746  1.3886  1.9445
  129OSM   C15S13791   5.391   1.948   3.605  0.2658  0.0519  0.5982
  129OSM   H15S13792   5.491   1.943   3.556  0.2421 -4.6387  0.6594
  129OSM   H15T13793   5.403   1.884   3.695 -0.2261 -0.0815  0.5718
  129OSM   C16S13794   5.377   2.091   3.651  0.3170 -0.9788  0.6310
  129OSM   H16S13795   5.336   2.147   3.563  1.9994 -2.2065 -1.0048
  129OSM   H16T13796   5.478   2.136   3.662 -0.2099  0.6646 -0.7201
  129OSM   C17S13797   5.286   2.102   3.777  0.0697 -0.1324 -0.0837
  129OSM   H17S13798   5.343   2.053   3.859  0.5534  0.0442 -0.3097
  129OSM   H17T13799   5.187   2.051   3.780  0.7491 -1.4550  0.6963
  129OSM   C18S13800   5.263   2.248   3.813  0.0185 -0.0240  0.2265
  129OSM   H18S13801   5.181   2.245   3.889  0.3004  1.2698  0.6225
  129OSM   H18T13802   5.239   2.311   3.725 -1.7003  0.2520  0.8439
  129OSM   H18U13803   5.358   2.287   3.855  1.2367 -3.0478  0.4803
  129OSM    C1F13804   5.336   2.402   2.350  0.5568  0.5315  0.1975
  129OSM     OF13805   5.301   2.361   2.239  0.0114  0.2868  0.2406
  129OSM    C2F13806   5.261   2.507   2.422  0.1004  0.2154 -0.6983
  129OSM    H2F13807   5.313   2.604   2.406  2.2580 -0.3779  1.9211
  129OSM    H2G13808   5.259   2.483   2.531  1.2575 -0.4270 -0.8051
  129OSM    C3F13809   5.115   2.521   2.384 -0.4312 -0.5068 -0.1436
  129OSM    H3F13810   5.066   2.423   2.401 -1.0714 -0.3527 -1.0204
  129OSM    H3G13811   5.094   2.558   2.281  0.4602 -2.9011 -1.2623
  129OSM    C4F13812   5.036   2.618   2.473  0.0837  0.0110  0.1559
  129OSM    H4F13813   4.941   2.646   2.422 -0.4084 -2.0662 -0.1603
  129OSM    H4G13814   5.088   2.716   2.475  0.5724 -0.2398 -0.0544
  129OSM    C5F13815   5.012   2.571   2.621 -0.2501 -0.0958  0.7123
  129OSM    H5F13816   5.110   2.538   2.664  0.0287  1.2703  1.1652
  129OSM    H5G13817   4.940   2.487   2.620  0.0281 -0.3365  0.4209
  129OSM    C6F13818   4.972   2.683   2.713 -0.5403 -0.9991  0.7281
  129OSM    H6F13819   4.863   2.703   2.702 -0.6257  0.0579  2.9333
  129OSM    H6G13820   5.020   2.780   2.687 -1.7994 -0.7175 -0.6657
  129OSM    C7F13821   4.983   2.653   2.866  0.4044  0.1597  0.1706
  129OSM    H7F13822   5.091   2.631   2.883  1.1756  1.3087 -2.7610
  129OSM    H7G13823   4.929   2.561   2.895  3.1579 -1.9015 -0.7888
  129OSM    C8F13824   4.952   2.780   2.944  0.4528  0.3716 -0.5313
  129OSM    H8F13825   5.005   2.869   2.906 -2.4695  1.8525 -1.4413
  129OSM    H8G13826   5.004   2.766   3.041 -0.2977  0.9953 -0.0260
  129OSM    C9F13827   4.808   2.817   2.951  0.5641  0.5076  0.3170
  129OSM    H9F13828   4.755   2.851   2.861  1.7788 -1.4731 -1.2347
  129OSM   C10F13829   4.731   2.809   3.060 -0.1112 -0.4778 -0.2743
  129OSM   H10F13830   4.628   2.849   3.058 -0.3767 -1.1584 -0.6684
  129OSM   C11F13831   4.789   2.784   3.196  0.8788  0.0616  0.6526
  129OSM   H11F13832   4.838   2.877   3.231 -1.2611  2.5232 -2.3000
  129OSM   H11G13833   4.865   2.703   3.193 -0.2525 -1.0473  0.9324
  129OSM   C12F13834   4.676   2.752   3.296  0.3059  0.0632  0.0753
  129OSM   H12F13835   4.605   2.675   3.262  0.4578  1.0496 -2.7768
  129OSM   H12G13836   4.614   2.844   3.301  1.1032  0.6364 -0.2415
  129OSM   C13F13837   4.730   2.715   3.436 -0.2439 -0.2959 -1.4588
  129OSM   H13F13838   4.798   2.791   3.479  2.3210 -2.4130 -1.5074
  129OSM   H13G13839   4.794   2.625   3.424  0.1538 -0.1771 -0.3018
  129OSM   C14F13840   4.634   2.676   3.550  0.6514 -0.5743  0.9104
  129OSM   H14F13841   4.585   2.583   3.512 -1.0811  0.7026 -0.1563
  129OSM   H14G13842   4.548   2.747   3.557  0.9705  0.8279 -4.6180
  129OSM   C15F13843   4.718   2.661   3.678  0.0241 -0.1624 -0.3890
  129OSM   H15F13844   4.765   2.759   3.701  3.2075 -1.8491  0.7850
  129OSM   H15G13845   4.800   2.590   3.660 -1.0025 -0.7458 -3.2853
  129OSM   C16F13846   4.624   2.630   3.802 -0.2228  0.2390  0.3708
  129OSM   H16F13847   4.598   2.522   3.812 -0.9513  0.0720 -2.3791
  129OSM   H16G13848   4.528   2.679   3.776  0.7464  0.9044 -2.3146
  129OSM   C17F13849   4.693   2.675   3.929 -0.1448  0.3877 -0.0144
  129OSM   H17F13850   4.705   2.785   3.918 -0.5953  0.5085  0.6652
  129OSM   H17G13851   4.792   2.625   3.929 -0.7201 -0.7688 -0.1505
  129OSM   C18F13852   4.610   2.657   4.054 -0.2812  0.7143  0.3320
  129OSM   H18F13853   4.668   2.647   4.149 -0.1394 -2.3454  0.0191
  129OSM   H18G13854   4.556   2.561   4.051  0.0848  0.5341 -1.2999
  129OSM   H18H13855   4.528   2.730   4.071 -1.2113  0.1625 -1.5383
  130OSM      N13856   4.341   3.345   2.036 -0.0649  0.1084  0.3606
  130OSM    C1513857   4.193   3.357   2.029 -0.6406 -0.0336  0.5295
  130OSM   H15A13858   4.161   3.456   2.002 -0.2460 -0.3193 -1.0957
  130OSM   H15B13859   4.148   3.327   2.123 -0.5056 -1.6705  0.1013
  130OSM   H15C13860   4.161   3.279   1.963  1.4579 -0.6662  0.1940
  130OSM    C1413861   4.353   3.194   2.052 -0.1224 -0.4002  0.0037
  130OSM   H14A13862   4.460   3.177   2.061 -0.1259 -0.3338  0.1721
  130OSM   H14B13863   4.319   3.134   1.969 -0.5818  0.2803 -0.3081
  130OSM   H14C13864   4.301   3.158   2.139 -1.0647 -0.5578 -0.6087
  130OSM    C1313865   4.405   3.392   1.903 -0.8952 -0.0679 -0.0002
  130OSM   H13A13866   4.358   3.360   1.811 -0.4456  0.1433 -0.3011
  130OSM   H13B13867   4.506   3.356   1.911 -1.0194 -0.2718  0.7403
  130OSM   H13C13868   4.403   3.499   1.894 -0.3820 -0.1122 -0.7510
  130OSM    C1213869   4.395   3.422   2.157 -0.8448 -0.7329 -0.0705
  130OSM   H12A13870   4.355   3.383   2.249 -0.4070  1.1099  0.9675
  130OSM   H12B13871   4.365   3.526   2.156  1.3346 -0.0428 -1.1256
  130OSM    C1113872   4.549   3.425   2.165  0.4174 -0.6452 -0.0257
  130OSM   H11A13873   4.580   3.321   2.139  0.8343 -0.2585 -1.1369
  130OSM   H11B13874   4.585   3.433   2.270  0.8377 -1.7339 -0.0670
  130OSM      P13875   4.748   3.498   2.025 -0.5207 -0.0950 -0.4480
  130OSM    O1313876   4.747   3.388   1.924  0.3621 -0.7169 -0.1573
  130OSM    O1413877   4.806   3.629   1.983 -0.0172  0.2826  0.0031
  130OSM    O1113878   4.823   3.445   2.155 -0.0169 -0.2047  0.1324
  130OSM    O1213879   4.604   3.523   2.080  0.4461  0.6931  0.8154
  130OSM    C1S13880   4.914   3.530   2.220 -0.5916  0.1549 -1.1279
  130OSM    H1S13881   4.860   3.611   2.273  2.9337  0.7513  1.9813
  130OSM    H1T13882   4.995   3.566   2.153  0.1109 -0.3078 -0.5450
  130OSM     NF13883   5.088   3.536   2.397  0.1149  0.2926 -0.1759
  130OSM    HNF13884   5.183   3.523   2.371 -0.1549 -2.3092 -0.1111
  130OSM    C2S13885   4.987   3.448   2.336  0.0916  0.3398  0.0405
  130OSM    H2S13886   4.909   3.425   2.412  0.5604  0.1910  0.4792
  130OSM    C3S13887   5.056   3.325   2.283  0.2452 -0.0740  0.7436
  130OSM    H3S13888   5.118   3.357   2.196  1.1741 -1.4029  0.8789
  130OSM     O313889   4.977   3.233   2.212  0.0934 -0.1202 -0.0976
  130OSM    HO313890   4.899   3.285   2.191  1.1612  1.5182 -0.2629
  130OSM    C4S13891   5.146   3.258   2.381 -0.0788 -0.4151 -0.2617
  130OSM    H4S13892   5.246   3.302   2.390  0.2503 -1.2425  0.3226
  130OSM    C5S13893   5.112   3.160   2.465 -0.2431  0.0042  1.3006
  130OSM    H5S13894   5.007   3.130   2.455 -0.5906  1.6236 -0.3684
  130OSM    C6S13895   5.203   3.094   2.563 -0.4470  0.3448 -0.3059
  130OSM    H6S13896   5.309   3.109   2.533 -0.9048 -0.1517 -2.3524
  130OSM    H6T13897   5.179   2.985   2.562  0.2004  0.0767  2.9493
  130OSM    C7S13898   5.184   3.135   2.712  0.2505  0.3905  0.5667
  130OSM    H7S13899   5.230   3.237   2.714 -1.5437  1.2980 -0.9732
  130OSM    H7T13900   5.255   3.074   2.771 -0.2751 -0.4707  0.3242
  130OSM    C8S13901   5.042   3.132   2.756  0.2947 -0.0016  0.0794
  130OSM    H8S13902   4.992   3.035   2.735 -2.5943  1.2054  0.8519
  130OSM    H8T13903   5.002   3.213   2.691  2.3978  0.5052 -0.6669
  130OSM    C9S13904   5.009   3.165   2.906 -0.0577 -0.2109 -0.5187
  130OSM    H9S13905   5.072   3.254   2.924  2.3774 -1.6470 -1.4462
  130OSM    H9T13906   5.043   3.083   2.973  0.5195  0.9108  0.5834
  130OSM   C10S13907   4.864   3.203   2.921 -0.0639  0.1355 -0.1227
  130OSM   H10S13908   4.796   3.118   2.898 -0.7325  0.6436 -0.0393
  130OSM   H10T13909   4.831   3.280   2.848 -0.9504 -0.5864 -0.5055
  130OSM   C11S13910   4.846   3.273   3.060 -0.3009 -0.5112 -0.7684
  130OSM   H11S13911   4.736   3.291   3.062 -0.0314  1.4265  2.0053
  130OSM   H11T13912   4.890   3.374   3.057 -0.5220 -0.4262 -1.1662
  130OSM   C12S13913   4.872   3.181   3.180  0.6733  0.4465 -0.0930
  130OSM   H12S13914   4.975   3.144   3.197 -0.1904 -2.2777 -0.3139
  130OSM   H12T13915   4.810   3.089   3.171  0.9936  0.1761  0.4938
  130OSM   C13S13916   4.827   3.246   3.306 -0.0623  0.0741 -0.5016
  130OSM   H13S13917   4.719   3.275   3.307  1.0823  5.3225  1.1569
  130OSM   H13T13918   4.889   3.337   3.311  2.0130 -1.2797 -0.5499
  130OSM   C14S13919   4.839   3.152   3.427  0.1985  0.4190  0.1664
  130OSM   H14S13920   4.943   3.119   3.449  0.2508 -0.0292 -0.6966
  130OSM   H14T13921   4.792   3.055   3.397 -0.2218  0.3549  1.0138
  130OSM   C15S13922   4.750   3.209   3.534 -0.5433  0.0257  0.2657
  130OSM   H15S13923   4.647   3.205   3.492 -1.0079  3.6086  0.7452
  130OSM   H15T13924   4.773   3.317   3.547  1.1301 -0.2993  0.2306
  130OSM   C16S13925   4.759   3.138   3.671 -0.0629  0.7026 -0.3226
  130OSM   H16S13926   4.711   3.037   3.670  1.7815 -0.2117 -0.4192
  130OSM   H16T13927   4.700   3.197   3.744  0.5938 -0.5583  1.3062
  130OSM   C17S13928   4.904   3.133   3.730 -0.2158  0.1671  0.5361
  130OSM   H17S13929   4.943   3.237   3.726  0.6386 -0.1762 -0.5322
  130OSM   H17T13930   4.961   3.056   3.673 -1.2375 -1.5357  1.7163
  130OSM   C18S13931   4.891   3.066   3.865  0.3342  0.2311 -0.6994
  130OSM   H18S13932   4.993   3.060   3.908  0.2171 -1.4852 -0.5971
  130OSM   H18T13933   4.851   2.963   3.854  0.0703 -0.4239  4.1735
  130OSM   H18U13934   4.829   3.131   3.929  1.7471  0.9382  0.0035
  130OSM    C1F13935   5.061   3.636   2.484  0.7073 -0.1292  0.0638
  130OSM     OF13936   4.944   3.653   2.524 -0.3198  0.2084 -0.0605
  130OSM    C2F13937   5.174   3.723   2.529 -0.4792 -0.1478 -0.0668
  130OSM    H2F13938   5.137   3.828   2.534  1.5316  0.5495  2.0446
  130OSM    H2G13939   5.260   3.723   2.458 -1.2440 -0.0652 -1.0157
  130OSM    C3F13940   5.223   3.683   2.667  0.3419  0.5395 -0.0152
  130OSM    H3F13941   5.134   3.685   2.733  0.5536 -0.8987  0.3460
  130OSM    H3G13942   5.305   3.751   2.698  1.4061  0.4778 -2.4365
  130OSM    C4F13943   5.260   3.535   2.679  0.2155  0.1868  0.3916
  130OSM    H4F13944   5.345   3.501   2.616  0.4322  2.6738 -0.7924
  130OSM    H4G13945   5.176   3.468   2.654 -0.6482  2.0349 -2.1257
  130OSM    C5F13946   5.316   3.503   2.821 -0.0465 -1.1241  0.1804
  130OSM    H5F13947   5.423   3.533   2.821  0.6036 -3.2882  0.2147
  130OSM    H5G13948   5.320   3.393   2.831  1.0437 -1.4105 -2.4953
  130OSM    C6F13949   5.229   3.566   2.936  0.1148 -0.0339 -0.1078
  130OSM    H6F13950   5.121   3.542   2.927  0.3628 -1.4969  0.6116
  130OSM    H6G13951   5.237   3.677   2.945 -0.4668  0.0574 -0.6430
  130OSM    C7F13952   5.272   3.512   3.072  0.0080 -0.5434 -0.6181
  130OSM    H7F13953   5.382   3.521   3.069 -0.0147  0.7598  0.9308
  130OSM    H7G13954   5.235   3.408   3.084 -1.2661  0.0293  0.8393
  130OSM    C8F13955   5.229   3.603   3.194 -0.8870  0.0215  0.7111
  130OSM    H8F13956   5.269   3.705   3.176 -3.1927  0.8196 -0.3068
  130OSM    H8G13957   5.291   3.558   3.274 -0.6580 -0.8061  0.0842
  130OSM    C9F13958   5.091   3.611   3.231 -0.5558  0.4600 -0.4352
  130OSM    H9F13959   5.018   3.647   3.156 -2.5857  0.1491  1.3043
  130OSM   C10F13960   5.041   3.558   3.345 -0.4858  0.7115 -0.3246
  130OSM   H10F13961   4.934   3.576   3.357 -0.6394 -0.4712  0.2008
  130OSM   C11F13962   5.114   3.477   3.455  0.2911  0.3788 -0.2000
  130OSM   H11F13963   5.225   3.486   3.450  0.5032 -0.8785  1.2999
  130OSM   H11G13964   5.088   3.369   3.455  0.0117  0.3248 -3.6537
  130OSM   C12F13965   5.084   3.528   3.599 -0.5316 -0.5004  0.4993
  130OSM   H12F13966   4.974   3.535   3.613 -0.3197  0.7300  1.8157
  130OSM   H12G13967   5.116   3.634   3.588  0.2169 -0.7734 -0.0618
  130OSM   C13F13968   5.141   3.451   3.716 -0.0085  0.2349  0.1314
  130OSM   H13F13969   5.252   3.454   3.708 -0.1472  0.4207 -3.9840
  130OSM   H13G13970   5.107   3.345   3.707  2.5512 -0.6348  0.0365
  130OSM   C14F13971   5.100   3.520   3.847  0.2128  0.0639 -0.6424
  130OSM   H14F13972   4.991   3.510   3.868  0.3636  0.0221  0.1525
  130OSM   H14G13973   5.121   3.629   3.846 -2.5915  0.6953 -1.7237
  130OSM   C15F13974   5.159   3.448   3.978  0.4065 -0.7485  1.1101
  130OSM   H15F13975   5.269   3.431   3.967 -0.0119 -2.2254 -2.0390
  130OSM   H15G13976   5.093   3.361   3.995  0.5156 -0.5580  2.6273
  130OSM   C16F13977   5.138   3.537   4.102  1.3681  0.0531  0.0595
  130OSM   H16F13978   5.054   3.607   4.083  0.0686 -1.1080  1.2961
  130OSM   H16G13979   5.216   3.616   4.107  0.2334  1.1541  0.8262
  130OSM   C17F13980   5.150   3.472   4.240 -0.8004 -0.1730  0.5012
  130OSM   H17F13981   5.247   3.418   4.240  0.0969  1.3746 -0.0792
  130OSM   H17G13982   5.070   3.405   4.279  0.7996 -2.4975  0.0645
  130OSM   C18F13983   5.150   3.571   4.358 -0.4166  0.1951 -0.0459
  130OSM   H18F13984   5.167   3.517   4.453  1.3378  0.4175 -0.2110
  130OSM   H18G13985   5.050   3.618   4.365 -0.8203  0.0591 -3.2643
  130OSM   H18H13986   5.234   3.643   4.349 -0.5935  0.5117  0.8002
  131OSM      N13987   1.920   0.568   2.323 -0.1721  0.0538 -0.2318
  131OSM    C1513988   1.847   0.656   2.232  0.4508 -0.3189 -0.2986
  131OSM   H15A13989   1.776   0.712   2.290 -0.7795 -0.3092 -1.7461
  131OSM   H15B13990   1.785   0.598   2.164  0.0924 -1.4732  0.9627
  131OSM   H15C13991   1.918   0.720   2.182  0.2529  2.7202  2.9653
  131OSM    C1413992   2.001   0.478   2.235 -0.2365  0.6516 -0.2607
  131OSM   H14A13993   2.040   0.386   2.276  2.3184  2.2570  1.1186
  131OSM   H14B13994   2.092   0.521   2.198  0.6410 -0.7116  0.2125
  131OSM   H14C13995   1.945   0.448   2.148  2.9049  0.2202 -2.2778
  131OSM    C1313996   2.019   0.644   2.405  0.9484  0.3184 -0.4655
  131OSM   H13A13997   2.090   0.706   2.352  0.3688  2.1485  0.8018
  131OSM   H13B13998   2.078   0.573   2.461  1.2389  0.0374 -1.1191
  131OSM   H13C13999   1.968   0.713   2.471  0.6636 -0.0763 -0.2709
  131OSM    C1214000   1.819   0.487   2.395 -0.1555  0.0210  0.1930
  131OSM   H12A14001   1.762   0.426   2.327 -1.8829 -0.2182  1.7594
  131OSM   H12B14002   1.750   0.554   2.445 -1.6605 -1.5765  0.3843
  131OSM    C1114003   1.862   0.392   2.502  0.0465  0.0371 -0.7054
  131OSM   H11A14004   1.769   0.349   2.545 -0.0916 -0.2487 -1.2859
  131OSM   H11B14005   1.918   0.446   2.581 -0.2936  1.8712 -1.6504
  131OSM      P14006   1.868   0.155   2.395  0.3313  0.4885 -0.5474
  131OSM    O1314007   1.748   0.199   2.311 -0.3055 -0.8591  0.1851
  131OSM    O1414008   1.968   0.067   2.332 -0.1286 -0.1116 -0.1146
  131OSM    O1114009   1.818   0.086   2.524  0.2199  0.0470  0.5617
  131OSM    O1214010   1.950   0.286   2.455 -0.1924  0.5727 -0.2721
  131OSM    C1S14011   1.921   0.033   2.612  0.0668 -0.0506  0.6298
  131OSM    H1S14012   2.023   0.074   2.596 -0.0616  0.2352  0.5445
  131OSM    H1T14013   1.938  -0.074   2.588  3.2127  0.4544  0.2637
  131OSM     NF14014   2.020   0.053   2.839  0.2073 -0.6052 -0.3784
  131OSM    HNF14015   2.050  -0.027   2.892  0.3033 -0.2298  0.1457
  131OSM    C2S14016   1.897   0.047   2.760 -0.2801 -0.1738  0.7080
  131OSM    H2S14017   1.857   0.150   2.774 -2.3302 -1.2136  3.3979
  131OSM    C3S14018   1.773  -0.038   2.802  0.4301  0.0643  0.0225
  131OSM    H3S14019   1.788  -0.147   2.793 -2.0706 -0.4174  0.8653
  131OSM     O314020   1.652  -0.016   2.732  0.3500  0.7394 -0.2726
  131OSM    HO314021   1.683   0.045   2.666  0.8691  1.3858  0.5480
  131OSM    C4S14022   1.744  -0.022   2.955  0.0438  1.2882  0.2621
  131OSM    H4S14023   1.768  -0.115   3.009 -3.1038  0.9474  1.2716
  131OSM    C5S14024   1.690   0.081   3.017  0.2352  0.8603 -0.4257
  131OSM    H5S14025   1.655   0.163   2.952 -1.7886 -0.4496 -1.0979
  131OSM    C6S14026   1.660   0.077   3.161  0.1736 -0.1870  0.1356
  131OSM    H6S14027   1.655  -0.023   3.209  0.9771  0.1884  1.0346
  131OSM    H6T14028   1.563   0.120   3.194  0.2007 -1.2557  1.7056
  131OSM    C7S14029   1.777   0.156   3.233  0.9117  0.1600 -0.4720
  131OSM    H7S14030   1.752   0.161   3.341  1.7789 -1.2579 -0.1676
  131OSM    H7T14031   1.773   0.260   3.196 -1.8434  0.0969 -0.5504
  131OSM    C8S14032   1.912   0.093   3.227  0.1077  0.4667  0.2189
  131OSM    H8S14033   1.957   0.104   3.126  0.0498 -0.5912  0.0731
  131OSM    H8T14034   1.895  -0.015   3.250  0.5777  0.5394  0.9616
  131OSM    C9S14035   2.008   0.152   3.327  0.0044  0.5715  0.2101
  131OSM    H9S14036   1.957   0.150   3.425  1.2333 -1.8156  0.9077
  131OSM    H9T14037   2.026   0.259   3.306 -0.5246  0.0672 -3.5201
  131OSM   C10S14038   2.149   0.086   3.337  0.5326  0.3166  0.0712
  131OSM   H10S14039   2.216   0.155   3.282  2.2574 -1.4623 -0.1931
  131OSM   H10T14040   2.157  -0.016   3.293  0.5898  0.2009  0.3473
  131OSM   C11S14041   2.204   0.098   3.477  0.2509 -0.0782 -0.2145
  131OSM   H11S14042   2.135   0.035   3.538 -1.4041 -0.1781 -2.0879
  131OSM   H11T14043   2.215   0.206   3.497  1.2724  0.4329 -3.1060
  131OSM   C12S14044   2.354   0.074   3.502  0.4305  0.7142  0.2221
  131OSM   H12S14045   2.407   0.141   3.430 -0.1762  0.3421 -0.5974
  131OSM   H12T14046   2.374  -0.033   3.479 -1.3433  0.4723 -0.3868
  131OSM   C13S14047   2.399   0.128   3.643  0.1555 -0.3388 -0.0058
  131OSM   H13S14048   2.315   0.116   3.715  0.0985 -1.7966 -0.2861
  131OSM   H13T14049   2.430   0.233   3.623 -0.3141  0.2104  1.9484
  131OSM   C14S14050   2.522   0.052   3.693  0.6130 -0.6342  0.3527
  131OSM   H14S14051   2.609   0.052   3.623  0.2323 -1.5613 -0.1385
  131OSM   H14T14052   2.490  -0.054   3.702 -1.9028 -0.0252 -0.6264
  131OSM   C15S14053   2.580   0.127   3.820  0.4996  0.4537  0.1651
  131OSM   H15S14054   2.606   0.232   3.795 -0.7646  1.2403  1.9580
  131OSM   H15T14055   2.673   0.077   3.857  0.2647 -0.4730 -0.4613
  131OSM   C16S14056   2.477   0.133   3.929 -0.2968 -0.0095 -0.6781
  131OSM   H16S14057   2.436   0.031   3.948 -1.7328  1.0553  2.6071
  131OSM   H16T14058   2.401   0.210   3.905  1.4118  1.8592 -0.3112
  131OSM   C17S14059   2.543   0.186   4.056 -0.6296  0.6840  0.0246
  131OSM   H17S14060   2.559   0.293   4.033 -1.9610  0.7091 -0.9910
  131OSM   H17T14061   2.645   0.144   4.064 -1.6273 -2.2256 -0.9919
  131OSM   C18S14062   2.462   0.179   4.178  0.0812 -0.0599 -0.8734
  131OSM   H18S14063   2.530   0.203   4.263 -0.7270 -4.5393  1.3654
  131OSM   H18T14064   2.421   0.077   4.196  2.3263 -0.9611 -0.4606
  131OSM   H18U14065   2.376   0.249   4.183  0.1917  0.0690 -0.7728
  131OSM    C1F14066   2.106   0.160   2.837 -0.7283  0.0150 -0.0041
  131OSM     OF14067   2.101   0.246   2.756 -0.8899  0.3949  0.6002
  131OSM    C2F14068   2.220   0.155   2.939 -0.1241 -0.0175 -1.1672
  131OSM    H2F14069   2.310   0.122   2.883  0.4131 -1.0291  0.2436
  131OSM    H2G14070   2.189   0.082   3.017 -0.3372  0.1108 -1.1309
  131OSM    C3F14071   2.263   0.287   3.001 -0.0663  0.2654  0.4818
  131OSM    H3F14072   2.210   0.300   3.097  2.0545  0.8121  1.6470
  131OSM    H3G14073   2.242   0.367   2.927 -0.5691 -1.5139 -1.3865
  131OSM    C4F14074   2.411   0.288   3.037 -0.6325 -0.1267  0.0260
  131OSM    H4F14075   2.491   0.316   2.965 -1.0550  0.3540 -0.2638
  131OSM    H4G14076   2.429   0.183   3.067  1.8031  0.4077  0.6632
  131OSM    C5F14077   2.433   0.369   3.169 -0.1421  0.0820  0.1332
  131OSM    H5F14078   2.382   0.319   3.255 -1.0504 -0.3490 -0.6390
  131OSM    H5G14079   2.392   0.466   3.132  1.2842  1.1586  1.2509
  131OSM    C6F14080   2.579   0.391   3.214 -0.0771 -0.9728  0.1736
  131OSM    H6F14081   2.584   0.459   3.302 -1.1012  0.7113 -1.0081
  131OSM    H6G14082   2.637   0.442   3.134 -0.0123  0.9275  1.3717
  131OSM    C7F14083   2.644   0.263   3.258 -0.3901  0.8553 -0.0716
  131OSM    H7F14084   2.677   0.202   3.171  0.0114  0.2571  0.4871
  131OSM    H7G14085   2.568   0.192   3.298  2.9986 -3.1868 -0.0396
  131OSM    C8F14086   2.756   0.263   3.366  0.0428 -0.0113  0.2313
  131OSM    H8F14087   2.832   0.325   3.314 -0.2346  0.0025 -0.1678
  131OSM    H8G14088   2.805   0.165   3.382  1.8102  0.7750 -0.1461
  131OSM    C9F14089   2.703   0.323   3.494  0.3055 -0.0879  0.2304
  131OSM    H9F14090   2.596   0.303   3.508 -0.1201  0.7276 -1.5317
  131OSM   C10F14091   2.770   0.396   3.586  0.4576  0.1548 -0.4177
  131OSM   H10F14092   2.720   0.431   3.677  2.1458 -0.9350  0.9870
  131OSM   C11F14093   2.917   0.421   3.578  0.0224 -0.3329 -0.0217
  131OSM   H11F14094   2.935   0.520   3.531 -0.5347  0.3236  1.1101
  131OSM   H11G14095   2.964   0.346   3.512 -2.4969 -1.3356 -0.8121
  131OSM   C12F14096   2.983   0.422   3.710 -0.0019  0.2379  0.1576
  131OSM   H12F14097   2.966   0.514   3.770 -1.6813 -0.5711  0.9763
  131OSM   H12G14098   3.090   0.409   3.683  0.5371 -0.1032  2.2757
  131OSM   C13F14099   2.956   0.292   3.788  0.4998  0.5830 -0.3810
  131OSM   H13F14100   2.986   0.204   3.727 -1.4395 -0.7671  0.5160
  131OSM   H13G14101   2.848   0.277   3.808  0.6347 -1.4773 -0.9943
  131OSM   C14F14102   3.036   0.295   3.918  0.6013 -0.2048  0.6951
  131OSM   H14F14103   3.020   0.385   3.980  0.3119  0.8389 -0.8308
  131OSM   H14G14104   3.145   0.292   3.900  0.7051 -1.3415  1.4062
  131OSM   C15F14105   3.013   0.158   3.994 -0.8021 -0.3563  0.1736
  131OSM   H15F14106   3.013   0.071   3.926 -0.2713 -0.1049 -0.1540
  131OSM   H15G14107   2.921   0.165   4.056 -1.4153 -0.2662 -0.7327
  131OSM   C16F14108   3.123   0.140   4.104 -0.4812 -0.0279  0.8312
  131OSM   H16F14109   3.217   0.157   4.048 -1.9757  1.0765 -1.5125
  131OSM   H16G14110   3.131   0.036   4.144  2.7205 -0.6365 -1.0276
  131OSM   C17F14111   3.111   0.233   4.225 -0.0038 -0.1895 -0.7122
  131OSM   H17F14112   3.007   0.220   4.262 -0.8105  0.6079 -2.5811
  131OSM   H17G14113   3.112   0.343   4.210 -2.4236 -0.0493 -0.3339
  131OSM   C18F14114   3.221   0.191   4.333 -0.0068  0.6085  0.2324
  131OSM   H18F14115   3.224   0.271   4.409 -1.0609  1.2292 -0.3570
  131OSM   H18G14116   3.315   0.176   4.276 -0.1997 -1.4634  0.3535
  131OSM   H18H14117   3.198   0.090   4.374  1.8853  0.0282 -0.0221
  132OSM      N14118   2.638   3.794   2.065  0.4775 -0.2992  0.5501
  132OSM    C1514119   2.500   3.801   2.003 -0.5498 -0.0189 -0.4356
  132OSM   H15A14120   2.491   3.739   1.915  0.7651 -3.0919  1.4128
  132OSM   H15B14121   2.465   3.902   1.991  0.2357  0.1695 -1.2608
  132OSM   H15C14122   2.438   3.753   2.077 -0.4352  0.2742 -0.1477
  132OSM    C1414123   2.679   3.657   2.067 -0.3288 -0.2344 -0.4798
  132OSM   H14A14124   2.704   3.631   1.965 -0.4394  1.0476 -0.8455
  132OSM   H14B14125   2.602   3.595   2.110  0.7459 -1.1742  0.1561
  132OSM   H14C14126   2.770   3.651   2.125 -0.1823  1.0336 -0.5449
  132OSM    C1314127   2.734   3.872   1.983  0.6073 -0.1114 -0.9248
  132OSM   H13A14128   2.694   3.972   1.972 -3.3502 -1.2675  0.9495
  132OSM   H13B14129   2.755   3.823   1.889  0.5174 -0.1671 -0.9162
  132OSM   H13C14130   2.826   3.893   2.035 -0.2644  0.5094  0.4285
  132OSM    C1214131   2.631   3.860   2.204 -0.2717 -0.2317  0.3056
  132OSM   H12A14132   2.552   3.818   2.263 -1.4935 -1.4722 -2.0715
  132OSM   H12B14133   2.596   3.961   2.188 -1.3281 -0.3689  1.5789
  132OSM    C1114134   2.769   3.872   2.275 -0.1450  0.2908 -0.0196
  132OSM   H11A14135   2.831   3.785   2.245  0.1468  1.0699 -1.7489
  132OSM   H11B14136   2.777   3.866   2.386  1.8923  2.3947  0.0078
  132OSM      P14137   2.809   4.122   2.332 -0.0465  0.1909 -0.4349
  132OSM    O1314138   2.937   4.196   2.351  0.1649 -0.2685  0.5333
  132OSM    O1414139   2.692   4.189   2.271 -0.6003 -0.2425 -0.2844
  132OSM    O1114140   2.760   4.071   2.469 -0.5864  0.7371 -0.8277
  132OSM    O1214141   2.833   3.992   2.234 -0.0306 -0.1381 -0.4566
  132OSM    C1S14142   2.855   4.037   2.573  0.3751  0.2861  0.2411
  132OSM    H1S14143   2.924   4.123   2.583 -0.8190  1.4737 -1.2644
  132OSM    H1T14144   2.924   3.955   2.542 -0.4147  0.6765 -2.8697
  132OSM     NF14145   2.909   3.975   2.794 -0.2356  0.3047  0.6264
  132OSM    HNF14146   2.942   3.881   2.785 -1.0374  0.1278 -0.7523
  132OSM    C2S14147   2.797   4.002   2.709  0.7175  0.5563 -0.0646
  132OSM    H2S14148   2.740   4.089   2.749  0.9357  0.9044 -0.4979
  132OSM    C3S14149   2.684   3.888   2.691 -0.6958 -0.3482  0.2449
  132OSM    H3S14150   2.729   3.802   2.636  1.5473 -0.4742  2.1312
  132OSM     O314151   2.572   3.928   2.615  0.3312  0.2721  1.0079
  132OSM    HO314152   2.606   3.995   2.556 -0.5027 -1.3114 -1.4072
  132OSM    C4S14153   2.645   3.834   2.833  0.3951 -0.8370 -0.1618
  132OSM    H4S14154   2.701   3.747   2.871 -1.2634 -2.0433 -0.3824
  132OSM    C5S14155   2.551   3.898   2.915  0.1605  0.3219  0.1964
  132OSM    H5S14156   2.495   3.981   2.869  1.2019 -0.0975 -1.9690
  132OSM    C6S14157   2.514   3.851   3.055  0.3061 -0.2134  0.0782
  132OSM    H6S14158   2.552   3.921   3.132 -2.0858 -0.3778  1.5183
  132OSM    H6T14159   2.544   3.745   3.066  1.6957 -0.0301 -1.4920
  132OSM    C7S14160   2.360   3.852   3.083 -0.4334  0.4912  0.0513
  132OSM    H7S14161   2.303   3.784   3.015  1.8009 -2.3213  0.7944
  132OSM    H7T14162   2.315   3.950   3.055 -2.3405 -0.2256  0.4648
  132OSM    C8S14163   2.324   3.816   3.225  0.2268  0.4975  0.1380
  132OSM    H8S14164   2.334   3.708   3.251 -0.5511  0.1625 -0.9088
  132OSM    H8T14165   2.214   3.832   3.229  0.3728  2.0222 -1.2840
  132OSM    C9S14166   2.383   3.902   3.338 -0.6210  1.0191  0.0611
  132OSM    H9S14167   2.361   4.010   3.323 -1.7540  0.5817 -1.7317
  132OSM    H9T14168   2.493   3.890   3.332 -0.7510 -1.2604  1.0294
  132OSM   C10S14169   2.336   3.868   3.482  0.9031 -0.1301 -0.0864
  132OSM   H10S14170   2.346   3.759   3.503 -0.7574  0.0712  2.0619
  132OSM   H10T14171   2.227   3.889   3.486  1.3270  2.0637  2.3498
  132OSM   C11S14172   2.413   3.940   3.596  0.3832 -0.1587  0.4383
  132OSM   H11S14173   2.397   4.049   3.578  0.0469 -0.1675  0.6705
  132OSM   H11T14174   2.523   3.927   3.584  0.1525 -1.4689 -0.3748
  132OSM   C12S14175   2.360   3.898   3.737  1.0336 -0.1947  0.4396
  132OSM   H12S14176   2.374   3.788   3.740 -3.3244 -1.0747 -1.9075
  132OSM   H12T14177   2.249   3.900   3.736  1.0399  0.5038 -0.8165
  132OSM   C13S14178   2.421   3.981   3.852  0.4634 -0.3690  0.0098
  132OSM   H13S14179   2.375   4.083   3.849  1.2394  0.0653  1.6897
  132OSM   H13T14180   2.531   3.979   3.837  0.3824 -1.7068 -0.5516
  132OSM   C14S14181   2.374   3.937   3.988  0.7038  0.5847 -0.0689
  132OSM   H14S14182   2.404   3.832   4.009  0.8556  0.4768 -0.8160
  132OSM   H14T14183   2.264   3.935   3.978  0.6138 -1.6159  0.9270
  132OSM   C15S14184   2.418   4.020   4.108 -0.0471 -0.3715  0.0997
  132OSM   H15S14185   2.407   4.128   4.088  1.9290 -0.0559  0.5159
  132OSM   H15T14186   2.527   4.000   4.115 -0.0909 -0.1511  1.6072
  132OSM   C16S14187   2.352   3.966   4.244  0.3179 -0.2017 -0.2588
  132OSM   H16S14188   2.350   3.855   4.244 -0.2424 -0.3620  3.9682
  132OSM   H16T14189   2.244   3.991   4.251  0.3132  0.3756 -1.9864
  132OSM   C17S14190   2.429   3.995   4.371 -0.1194 -0.7686 -0.1092
  132OSM   H17S14191   2.532   3.956   4.371  0.9807  1.9156 -0.6324
  132OSM   H17T14192   2.375   3.937   4.450  0.8422 -0.8961  0.4631
  132OSM   C18S14193   2.434   4.146   4.410  0.5158  0.0210  0.0282
  132OSM   H18S14194   2.514   4.194   4.349 -2.0403  1.1349 -2.7200
  132OSM   H18T14195   2.446   4.165   4.519 -3.1006 -0.3902  0.6213
  132OSM   H18U14196   2.339   4.198   4.386  0.2757 -1.0460 -1.4863
  132OSM    C1F14197   2.999   4.069   2.839  0.2646  0.1698  0.0412
  132OSM     OF14198   2.986   4.190   2.828 -0.2890 -0.4259 -0.0079
  132OSM    C2F14199   3.122   4.010   2.895  0.3904 -0.4421  0.0312
  132OSM    H2F14200   3.152   3.928   2.826 -0.0564 -0.7423  0.1832
  132OSM    H2G14201   3.099   3.965   2.994 -0.2136 -0.8958 -0.3055
  132OSM    C3F14202   3.242   4.111   2.928 -0.2202 -0.3291  0.0739
  132OSM    H3F14203   3.257   4.168   2.834 -1.0862  0.1956  0.2462
  132OSM    H3G14204   3.329   4.042   2.926  0.9182  1.0502 -2.1724
  132OSM    C4F14205   3.225   4.192   3.056 -0.6472  0.0933 -0.4920
  132OSM    H4F14206   3.127   4.244   3.068 -0.5301  0.6356 -1.7130
  132OSM    H4G14207   3.302   4.272   3.046  0.3200 -0.7685 -0.0487
  132OSM    C5F14208   3.280   4.108   3.173 -0.2115  0.0469  0.6715
  132OSM    H5F14209   3.362   4.040   3.143 -1.8378 -1.5310 -0.4229
  132OSM    H5G14210   3.196   4.051   3.219  0.7190 -1.2811  0.7652
  132OSM    C6F14211   3.328   4.194   3.286  0.3928 -0.4716  0.8088
  132OSM    H6F14212   3.242   4.262   3.306  1.3156  0.6534  1.0353
  132OSM    H6G14213   3.421   4.248   3.260 -0.0660  0.1122  0.3422
  132OSM    C7F14214   3.350   4.120   3.418  0.0966  0.0953  0.4273
  132OSM    H7F14215   3.449   4.075   3.395 -0.7634  0.0333 -3.9913
  132OSM    H7G14216   3.276   4.040   3.435  1.5899 -0.9015  2.6862
  132OSM    C8F14217   3.361   4.213   3.538 -0.6634  0.2276 -0.6776
  132OSM    H8F14218   3.262   4.260   3.561 -0.2665  0.7797 -0.0444
  132OSM    H8G14219   3.427   4.299   3.514 -0.9000  0.5284 -0.2834
  132OSM    C9F14220   3.425   4.128   3.653  0.0675  0.9122 -0.2211
  132OSM    H9F14221   3.527   4.095   3.628 -0.5152 -3.0036  1.7928
  132OSM   C10F14222   3.366   4.080   3.763  0.3858 -0.8437  0.1360
  132OSM   H10F14223   3.416   4.021   3.841 -0.6928 -1.9450  0.0217
  132OSM   C11F14224   3.224   4.125   3.809 -0.8309  0.1551  0.4107
  132OSM   H11F14225   3.147   4.046   3.794 -2.7368  1.7161  1.4333
  132OSM   H11G14226   3.194   4.218   3.756  1.3007 -0.6444 -2.4527
  132OSM   C12F14227   3.213   4.146   3.958 -1.3406  0.4405  0.2165
  132OSM   H12F14228   3.240   4.056   4.017 -1.8220  0.5749  0.6513
  132OSM   H12G14229   3.111   4.187   3.977 -1.2392  0.2603  1.2247
  132OSM   C13F14230   3.307   4.266   3.991  0.2422  0.2687 -0.3540
  132OSM   H13F14231   3.256   4.359   3.958 -0.9984 -0.5966 -0.9405
  132OSM   H13G14232   3.402   4.265   3.934  0.0275 -0.0997 -0.7112
  132OSM   C14F14233   3.337   4.267   4.137 -0.1435 -0.0552 -0.4607
  132OSM   H14F14234   3.246   4.291   4.197 -0.5846  0.4158 -1.2876
  132OSM   H14G14235   3.404   4.354   4.153  0.3130 -0.3511 -0.7625
  132OSM   C15F14236   3.415   4.141   4.181 -0.4863 -0.6416 -0.4177
  132OSM   H15F14237   3.472   4.098   4.095  1.6708  0.8098  0.1939
  132OSM   H15G14238   3.342   4.064   4.212 -0.0067 -1.8005 -2.0175
  132OSM   C16F14239   3.514   4.163   4.298 -0.0492  0.3828 -0.5781
  132OSM   H16F14240   3.614   4.192   4.261  0.5477 -1.5508 -0.5995
  132OSM   H16G14241   3.549   4.069   4.346  1.6233  2.0886  1.7538
  132OSM   C17F14242   3.481   4.277   4.394  0.4959 -0.1430 -0.8276
  132OSM   H17F14243   3.382   4.255   4.439  1.8286 -1.7695  1.5203
  132OSM   H17G14244   3.471   4.379   4.351 -1.2904  0.1871  0.2612
  132OSM   C18F14245   3.567   4.293   4.521 -0.3904  0.0206  0.4170
  132OSM   H18F14246   3.676   4.287   4.502 -0.0004  0.7311  2.1692
  132OSM   H18G14247   3.535   4.216   4.594  1.8530 -0.4420  0.9747
  132OSM   H18H14248   3.544   4.394   4.562 -0.7469 -0.2045  0.7787
  133OSM      N14249   6.054   0.439   2.573 -0.3140 -0.1346 -0.5994
  133OSM    C1514250   5.953   0.427   2.469  0.2637 -0.8009 -0.3250
  133OSM   H15A14251   5.858   0.430   2.519 -0.1019 -0.7224 -1.0121
  133OSM   H15B14252   5.962   0.334   2.414  0.7456  0.8361 -3.2241
  133OSM   H15C14253   5.966   0.506   2.397  0.4570 -0.6418 -0.1152
  133OSM    C1414254   6.194   0.437   2.518 -0.2360 -0.0285 -0.3197
  133OSM   H14A14255   6.222   0.336   2.496  0.9235  0.4140 -0.9291
  133OSM   H14B14256   6.263   0.469   2.595  1.2914  3.3985 -2.8482
  133OSM   H14C14257   6.205   0.500   2.431 -0.4298 -0.6241 -0.7839
  133OSM    C1314258   6.049   0.574   2.644  0.7424 -0.8012  0.6419
  133OSM   H13A14259   6.101   0.582   2.738  0.2028  0.7739  0.8456
  133OSM   H13B14260   5.947   0.599   2.670  0.2186 -1.3458 -0.7785
  133OSM   H13C14261   6.073   0.659   2.581 -0.9639  0.5856  1.7719
  133OSM    C1214262   6.047   0.339   2.685  0.4619 -0.7409 -0.3319
  133OSM   H12A14263   5.946   0.347   2.723  0.7319  2.3417  0.0237
  133OSM   H12B14264   6.118   0.358   2.764 -0.4939 -2.0934  0.9193
  133OSM    C1114265   6.080   0.187   2.664  0.6528  0.5923  0.1020
  133OSM   H11A14266   6.033   0.142   2.574  1.4423 -1.8958  0.8631
  133OSM   H11B14267   6.035   0.135   2.751 -0.3745  2.0256  0.4647
  133OSM      P14268   6.294   0.046   2.648  0.3092 -0.2101  0.4005
  133OSM    O1314269   6.218  -0.052   2.567  0.2229  0.0943  0.2347
  133OSM    O1414270   6.437   0.079   2.614  0.5253 -0.0196  0.1596
  133OSM    O1114271   6.295  -0.014   2.795  0.2643  0.7461 -0.1655
  133OSM    O1214272   6.219   0.187   2.662 -0.4272 -0.1127  0.3057
  133OSM    C1S14273   6.334   0.063   2.910 -0.0498 -0.6076 -0.3485
  133OSM    H1S14274   6.360   0.168   2.883  1.0611 -1.0587 -1.1698
  133OSM    H1T14275   6.432   0.020   2.941  0.4097 -0.5039 -1.5880
  133OSM     NF14276   6.322   0.123   3.152  0.3885  0.3115 -0.2713
  133OSM    HNF14277   6.358   0.064   3.224 -2.0564 -1.5132 -0.4174
  133OSM    C2S14278   6.245   0.065   3.044  0.0098 -0.2749  0.8513
  133OSM    H2S14279   6.152   0.124   3.028  0.4971  0.6883  1.5190
  133OSM    C3S14280   6.193  -0.076   3.063  1.1382 -0.6499  0.0277
  133OSM    H3S14281   6.284  -0.139   3.075  0.3582 -2.0106 -0.9125
  133OSM     O314282   6.140  -0.138   2.951  0.1538  0.3521 -0.1361
  133OSM    HO314283   6.172  -0.082   2.880 -0.3129  0.3213 -0.3702
  133OSM    C4S14284   6.108  -0.092   3.191  0.1588  0.0117 -0.0597
  133OSM    H4S14285   6.168  -0.104   3.283  1.4182  1.0273 -0.7056
  133OSM    C5S14286   5.980  -0.096   3.197  0.3424  0.6347  0.5038
  133OSM    H5S14287   5.933  -0.091   3.098  2.2715  2.0663 -0.3866
  133OSM    C6S14288   5.896  -0.113   3.322  0.1582 -0.4446  0.0889
  133OSM    H6S14289   5.850  -0.214   3.327  1.6911 -1.2289 -0.8900
  133OSM    H6T14290   5.826  -0.027   3.319 -1.3784 -1.5907  1.1181
  133OSM    C7S14291   5.975  -0.104   3.453 -0.4471  0.5800 -0.0284
  133OSM    H7S14292   6.008   0.002   3.463  1.9554 -0.0638 -0.7231
  133OSM    H7T14293   6.069  -0.162   3.450 -2.2090 -2.4885 -0.8967
  133OSM    C8S14294   5.896  -0.128   3.575 -0.8235 -0.0050 -0.2448
  133OSM    H8S14295   5.845  -0.226   3.565 -3.0886  1.2520 -1.7776
  133OSM    H8T14296   5.815  -0.052   3.575 -0.0684  0.9082  2.1314
  133OSM    C9S14297   5.977  -0.114   3.706 -0.1142  0.3004  0.0955
  133OSM    H9S14298   6.022  -0.013   3.698 -0.2867  0.3554 -0.1834
  133OSM    H9T14299   6.049  -0.197   3.692  0.3462  0.3462  1.9251
  133OSM   C10S14300   5.908  -0.132   3.839  0.2153 -0.3934 -0.2777
  133OSM   H10S14301   5.857  -0.231   3.833 -0.8700  0.0571  1.0640
  133OSM   H10T14302   5.831  -0.052   3.840  1.0279  0.4514 -1.6389
  133OSM   C11S14303   5.991  -0.119   3.969  0.8654 -0.4504 -0.4781
  133OSM   H11S14304   6.037  -0.019   3.959  1.3191 -0.6475 -0.4165
  133OSM   H11T14305   6.076  -0.192   3.969  0.6884 -0.7367  2.0640
  133OSM   C12S14306   5.897  -0.123   4.084 -0.1395 -0.2178  0.7328
  133OSM   H12S14307   5.839  -0.217   4.090  0.5043 -0.5544  2.3385
  133OSM   H12T14308   5.822  -0.042   4.073  1.0944  0.7470 -1.1035
  133OSM   C13S14309   5.967  -0.108   4.217  0.3816  0.0824  0.0893
  133OSM   H13S14310   6.026  -0.015   4.204  1.4261 -0.6935 -0.9326
  133OSM   H13T14311   6.030  -0.199   4.232 -0.0721 -0.5016 -1.3719
  133OSM   C14S14312   5.866  -0.087   4.331 -0.2729 -0.5591 -0.3686
  133OSM   H14S14313   5.795  -0.172   4.342 -1.8613  0.9639  2.2084
  133OSM   H14T14314   5.804   0.002   4.309 -0.0685 -0.6759 -1.4649
  133OSM   C15S14315   5.931  -0.073   4.474  0.0695  0.0202  1.1670
  133OSM   H15S14316   6.011   0.003   4.472 -0.0245  0.1283 -1.2542
  133OSM   H15T14317   5.958  -0.175   4.509 -0.4356 -0.1432  1.0794
  133OSM   C16S14318   5.830  -0.018   4.578  0.1412  1.3954  0.2958
  133OSM   H16S14319   5.768  -0.094   4.629  1.2383 -0.9828 -1.7113
  133OSM   H16T14320   5.774   0.067   4.535  1.5107  2.3968  0.4072
  133OSM   C17S14321   5.903   0.029   4.708 -0.3981  0.2218  0.0525
  133OSM   H17S14322   5.947   0.128   4.683 -2.0076  0.3690 -2.5651
  133OSM   H17T14323   5.997  -0.030   4.713  1.1576  2.6157  1.3025
  133OSM   C18S14324   5.820   0.028   4.837  0.5458 -0.3817  0.3023
  133OSM   H18S14325   5.894   0.060   4.913  0.4463  0.5457  0.0258
  133OSM   H18T14326   5.782  -0.071   4.868 -2.0830 -0.1006 -1.6805
  133OSM   H18U14327   5.733   0.097   4.835  0.4584 -0.5019 -1.4499
  133OSM    C1F14328   6.368   0.246   3.144 -0.0298  0.2205  0.6000
  133OSM     OF14329   6.303   0.331   3.080 -0.1572  0.4389 -0.7920
  133OSM    C2F14330   6.504   0.261   3.202 -0.4072 -0.5772 -0.1412
  133OSM    H2F14331   6.579   0.289   3.124 -1.9468  2.3486 -0.7269
  133OSM    H2G14332   6.537   0.160   3.235  2.9543  0.0875 -1.0068
  133OSM    C3F14333   6.515   0.343   3.333  0.1880 -0.3761 -0.3364
  133OSM    H3F14334   6.598   0.309   3.399 -0.5620  0.2252  0.9670
  133OSM    H3G14335   6.421   0.318   3.386 -0.1368 -1.6452 -1.4758
  133OSM    C4F14336   6.535   0.495   3.317 -0.1322 -0.4509  0.1755
  133OSM    H4F14337   6.437   0.531   3.278 -0.6200 -2.0433 -0.1051
  133OSM    H4G14338   6.601   0.523   3.232 -0.6144 -1.1854 -0.4526
  133OSM    C5F14339   6.596   0.564   3.435 -0.0606  0.3728  0.0912
  133OSM    H5F14340   6.602   0.674   3.423  2.6501  0.2650 -0.1620
  133OSM    H5G14341   6.705   0.544   3.439  0.4454  2.5773 -0.8784
  133OSM    C6F14342   6.530   0.532   3.571 -0.5421  0.6039  0.5246
  133OSM    H6F14343   6.561   0.430   3.602 -0.1073  0.9033  1.1118
  133OSM    H6G14344   6.420   0.541   3.553 -0.6728  0.1750  1.0768
  133OSM    C7F14345   6.576   0.627   3.688  0.1118 -0.4496 -0.3103
  133OSM    H7F14346   6.547   0.731   3.664  0.5336 -0.3169 -0.2500
  133OSM    H7G14347   6.687   0.620   3.692  0.2082  0.3812 -1.2605
  133OSM    C8F14348   6.519   0.596   3.825  0.1178  0.5472  0.0211
  133OSM    H8F14349   6.542   0.493   3.861 -0.8792 -0.1943 -1.3464
  133OSM    H8G14350   6.411   0.581   3.804  0.0061 -0.3817  1.0926
  133OSM    C9F14351   6.544   0.694   3.936  0.6294 -0.3916  0.5196
  133OSM    H9F14352   6.519   0.798   3.909 -0.9555 -1.4075 -2.3938
  133OSM   C10F14353   6.589   0.671   4.059 -0.2873 -0.2206 -0.7771
  133OSM   H10F14354   6.603   0.764   4.115 -1.3491 -1.3298  1.4177
  133OSM   C11F14355   6.635   0.542   4.123 -0.2382  0.0637  0.0599
  133OSM   H11F14356   6.738   0.562   4.159 -0.1148  3.2783 -1.6711
  133OSM   H11G14357   6.656   0.466   4.046  1.0334  1.9752 -1.5719
  133OSM   C12F14358   6.540   0.497   4.240 -0.4153  0.3908  0.4030
  133OSM   H12F14359   6.548   0.393   4.276 -1.0512  0.1523 -0.1074
  133OSM   H12G14360   6.437   0.500   4.198 -0.1423  1.5979 -0.2228
  133OSM   C13F14361   6.538   0.586   4.362 -0.3463  0.1440 -0.1773
  133OSM   H13F14362   6.528   0.694   4.338 -0.9416  0.2714  0.5980
  133OSM   H13G14363   6.637   0.578   4.413 -0.9447 -2.2769  0.7495
  133OSM   C14F14364   6.425   0.556   4.467  0.7484 -0.5351  0.0947
  133OSM   H14F14365   6.327   0.561   4.414  0.4704  1.2419  0.7114
  133OSM   H14G14366   6.434   0.640   4.539 -1.6031 -0.6757  0.6367
  133OSM   C15F14367   6.455   0.428   4.545  0.1682  0.0848  0.0603
  133OSM   H15F14368   6.557   0.435   4.587 -0.4846  0.6498  1.6518
  133OSM   H15G14369   6.452   0.344   4.472 -1.8087  1.5987 -1.7349
  133OSM   C16F14370   6.354   0.402   4.661 -0.2581 -0.2361 -0.8101
  133OSM   H16F14371   6.251   0.429   4.630 -0.1167  2.3077  0.6812
  133OSM   H16G14372   6.365   0.480   4.740 -1.3261  0.8180 -1.6785
  133OSM   C17F14373   6.373   0.259   4.714  0.4894  0.4347 -0.4296
  133OSM   H17F14374   6.478   0.247   4.750  0.0790 -0.3852  0.5406
  133OSM   H17G14375   6.366   0.185   4.632  0.3145 -0.9430  0.7920
  133OSM   C18F14376   6.274   0.202   4.815 -0.0199 -0.2556  0.0094
  133OSM   H18F14377   6.255   0.290   4.881 -2.5761 -0.8267  0.1237
  133OSM   H18G14378   6.322   0.124   4.878 -1.2548 -1.8310 -0.9240
  133OSM   H18H14379   6.181   0.167   4.765 -0.9132  0.7840  0.8795
  134OSM      N14380   5.158   6.110   2.263 -0.6308 -0.7545  0.3541
  134OSM    C1514381   5.244   6.230   2.235  0.3237  0.1482 -0.4712
  134OSM   H15A14382   5.191   6.320   2.210  0.0887 -0.2673 -1.4801
  134OSM   H15B14383   5.311   6.202   2.155  0.0890 -0.9555 -0.2913
  134OSM   H15C14384   5.316   6.246   2.315  5.5471 -0.4531 -4.5195
  134OSM    C1414385   5.062   6.131   2.365 -0.2913 -0.8285  0.3004
  134OSM   H14A14386   5.007   6.041   2.389 -1.1603  0.5712  4.1568
  134OSM   H14B14387   4.991   6.210   2.346 -1.7709 -2.4493 -1.4069
  134OSM   H14C14388   5.109   6.156   2.458 -1.2478 -1.9682  1.1319
  134OSM    C1314389   5.088   6.073   2.137  0.6634 -0.3502  0.1575
  134OSM   H13A14390   5.009   6.000   2.146 -0.6061  0.4791 -2.8979
  134OSM   H13B14391   5.156   6.031   2.063 -3.1363 -1.0125 -3.3038
  134OSM   H13C14392   5.041   6.156   2.088  1.8056 -0.0272 -0.4284
  134OSM    C1214393   5.240   5.989   2.292  0.3159  0.4645  0.0699
  134OSM   H12A14394   5.314   5.984   2.213  0.6044  0.7406  0.3238
  134OSM   H12B14395   5.175   5.903   2.283  2.7833 -1.6231  1.2146
  134OSM    C1114396   5.325   5.981   2.425  0.7969  0.2449  0.7325
  134OSM   H11A14397   5.363   5.877   2.433 -1.5619 -0.9220 -1.5185
  134OSM   H11B14398   5.256   5.997   2.510 -1.2729 -2.3124 -0.3445
  134OSM      P14399   5.563   6.056   2.349  0.1045  0.2738 -0.1732
  134OSM    O1314400   5.547   5.944   2.250 -0.0324 -0.6179  0.2125
  134OSM    O1414401   5.612   6.184   2.294  0.1571 -0.9366 -0.0781
  134OSM    O1114402   5.676   6.012   2.449 -0.4261  0.1114  0.5954
  134OSM    O1214403   5.435   6.079   2.436  0.3446 -0.0058  0.0460
  134OSM    C1S14404   5.685   6.085   2.571 -0.0872 -0.3910 -0.8311
  134OSM    H1S14405   5.637   6.185   2.577  0.1168 -0.2836 -0.9582
  134OSM    H1T14406   5.794   6.109   2.576  0.2098 -1.3961 -2.0154
  134OSM     NF14407   5.643   6.097   2.812  0.2230 -0.0139  0.2861
  134OSM    HNF14408   5.722   6.074   2.869  0.4079 -1.1183 -0.3889
  134OSM    C2S14409   5.623   6.018   2.696  0.2503  0.5950  0.4856
  134OSM    H2S14410   5.516   6.010   2.669  0.0548  0.2667  1.3215
  134OSM    C3S14411   5.672   5.868   2.707 -0.4298 -0.3262 -0.8622
  134OSM    H3S14412   5.778   5.872   2.740 -0.9315 -2.7463  1.3146
  134OSM     O314413   5.663   5.788   2.588 -0.0062 -0.6173 -0.1390
  134OSM    HO314414   5.648   5.868   2.538  0.5286  0.2270  0.9917
  134OSM    C4S14415   5.619   5.802   2.835 -0.3073 -0.2703  0.0025
  134OSM    H4S14416   5.686   5.817   2.921  0.2889 -0.7623 -0.3576
  134OSM    C5S14417   5.506   5.731   2.843  0.4484  0.4772 -0.5995
  134OSM    H5S14418   5.443   5.721   2.754  0.1477 -0.5326 -0.2878
  134OSM    C6S14419   5.442   5.674   2.968  0.3410 -0.3151  0.4695
  134OSM    H6S14420   5.466   5.566   2.962  1.7221  0.0230 -0.5158
  134OSM    H6T14421   5.334   5.699   2.969  0.4015  0.2189  3.7032
  134OSM    C7S14422   5.500   5.731   3.101  0.3026  0.2576  0.0623
  134OSM    H7S14423   5.482   5.840   3.113  0.0344  0.1325  0.8610
  134OSM    H7T14424   5.610   5.717   3.102  0.5246  1.7479  1.0434
  134OSM    C8S14425   5.432   5.656   3.219 -0.3734 -0.0138 -0.4622
  134OSM    H8S14426   5.466   5.550   3.213  0.1505  0.1782 -1.0312
  134OSM    H8T14427   5.321   5.662   3.211 -0.3249  0.8656 -0.5739
  134OSM    C9S14428   5.488   5.707   3.351  0.3705 -0.2014  0.1961
  134OSM    H9S14429   5.473   5.817   3.353 -1.4222 -0.4251  0.1093
  134OSM    H9T14430   5.597   5.683   3.358  0.2063 -1.4808 -1.1703
  134OSM   C10S14431   5.412   5.649   3.471  0.2233  0.2342 -0.1356
  134OSM   H10S14432   5.414   5.538   3.470 -0.3073  0.1730  1.5754
  134OSM   H10T14433   5.309   5.689   3.460  0.3402  0.5125 -0.2378
  134OSM   C11S14434   5.478   5.713   3.598 -0.0357 -0.1029  0.8058
  134OSM   H11S14435   5.492   5.823   3.594  2.2475 -0.3773 -2.8389
  134OSM   H11T14436   5.584   5.680   3.593  0.3356  1.1239  0.1590
  134OSM   C12S14437   5.414   5.668   3.726  0.3910 -0.1147 -0.7475
  134OSM   H12S14438   5.422   5.558   3.735 -2.9989 -0.3971  0.4271
  134OSM   H12T14439   5.304   5.687   3.725 -0.0328 -1.9044  1.8909
  134OSM   C13S14440   5.461   5.745   3.854 -0.3965  0.2570  0.2636
  134OSM   H13S14441   5.450   5.855   3.840 -2.7778  0.3923  2.4315
  134OSM   H13T14442   5.571   5.728   3.857 -0.5548 -1.6697 -1.9189
  134OSM   C14S14443   5.382   5.698   3.974 -0.1092  0.9473 -0.4626
  134OSM   H14S14444   5.383   5.588   3.967  1.9068  1.0314 -2.7719
  134OSM   H14T14445   5.281   5.742   3.962  0.5164  2.2665 -1.1034
  134OSM   C15S14446   5.435   5.749   4.110 -0.3318 -0.1256 -0.2057
  134OSM   H15S14447   5.439   5.860   4.110 -1.9374 -0.0337  0.4159
  134OSM   H15T14448   5.536   5.713   4.138  0.0195 -0.8036 -2.2089
  134OSM   C16S14449   5.334   5.706   4.222  0.1565 -0.1267 -0.6303
  134OSM   H16S14450   5.339   5.595   4.224  0.9895 -0.0909  0.5633
  134OSM   H16T14451   5.228   5.725   4.194 -1.0046 -3.7965  0.7009
  134OSM   C17S14452   5.375   5.774   4.349  0.1037  0.0522 -0.0261
  134OSM   H17S14453   5.372   5.884   4.336  2.5231  0.0400 -1.1784
  134OSM   H17T14454   5.478   5.746   4.378  0.6661  2.2026  0.2221
  134OSM   C18S14455   5.287   5.742   4.470  0.2471 -0.6250 -0.1468
  134OSM   H18S14456   5.318   5.800   4.560  0.7523 -2.5263  0.9467
  134OSM   H18T14457   5.295   5.634   4.492  2.7357 -0.2109  1.4001
  134OSM   H18U14458   5.178   5.762   4.464 -0.5107 -1.8374  4.8298
  134OSM    C1F14459   5.580   6.209   2.836  0.8252 -0.4223  0.5116
  134OSM     OF14460   5.475   6.237   2.776  0.3587 -0.0069 -0.0604
  134OSM    C2F14461   5.622   6.295   2.941 -0.3655  0.8203 -0.4217
  134OSM    H2F14462   5.659   6.394   2.909 -0.9423  0.7758 -1.2504
  134OSM    H2G14463   5.699   6.253   3.010  0.4788  0.6809 -1.4395
  134OSM    C3F14464   5.491   6.344   3.018 -0.6357 -0.0345  0.2440
  134OSM    H3F14465   5.404   6.275   3.014 -0.0319 -0.9198  1.5899
  134OSM    H3G14466   5.459   6.438   2.969  0.6419  0.2589 -0.0625
  134OSM    C4F14467   5.512   6.377   3.165 -0.1968 -0.2754  0.4192
  134OSM    H4F14468   5.441   6.456   3.200 -1.5222 -2.3283  2.6725
  134OSM    H4G14469   5.615   6.419   3.167 -0.3745  0.1889  0.0578
  134OSM    C5F14470   5.512   6.252   3.254 -0.0824 -0.4867  0.4170
  134OSM    H5F14471   5.584   6.179   3.211  0.4806 -1.3399  2.6680
  134OSM    H5G14472   5.411   6.204   3.257  0.2666 -1.2694 -0.0693
  134OSM    C6F14473   5.553   6.290   3.396  0.6329 -0.0049 -0.4105
  134OSM    H6F14474   5.524   6.397   3.407  1.1643  0.1480 -0.4739
  134OSM    H6G14475   5.660   6.261   3.403  1.0263  1.5939  0.8150
  134OSM    C7F14476   5.479   6.211   3.506  0.6670 -0.2323 -0.0712
  134OSM    H7F14477   5.477   6.104   3.476 -0.6167  0.1705 -1.5587
  134OSM    H7G14478   5.377   6.257   3.499  0.7183 -0.1918 -0.5624
  134OSM    C8F14479   5.547   6.227   3.648  0.3399 -0.5860  0.2123
  134OSM    H8F14480   5.535   6.331   3.684  0.6382 -0.4344 -0.1215
  134OSM    H8G14481   5.657   6.212   3.640  0.6514  0.7886  1.5184
  134OSM    C9F14482   5.491   6.128   3.752  0.6881  0.7822  1.1785
  134OSM    H9F14483   5.448   6.041   3.702  1.4063  1.1998 -0.2157
  134OSM   C10F14484   5.509   6.131   3.881  0.0092 -0.8143 -0.9407
  134OSM   H10F14485   5.476   6.049   3.947  0.2046 -0.2625 -0.1399
  134OSM   C11F14486   5.580   6.239   3.962 -0.5584  0.3456  0.8308
  134OSM   H11F14487   5.577   6.329   3.896  0.3857 -1.1157 -1.3261
  134OSM   H11G14488   5.681   6.207   3.995 -1.0323  0.2302  2.2040
  134OSM   C12F14489   5.501   6.281   4.086  0.2271 -0.0349 -1.0304
  134OSM   H12F14490   5.391   6.263   4.085  0.4711 -1.6442 -0.5010
  134OSM   H12G14491   5.530   6.388   4.095  6.1844 -1.3378 -0.5133
  134OSM   C13F14492   5.545   6.206   4.213  0.6822 -0.3559  0.5243
  134OSM   H13F14493   5.656   6.208   4.214  0.7818 -1.7092 -1.4592
  134OSM   H13G14494   5.531   6.097   4.200 -0.1864 -0.4199  1.8688
  134OSM   C14F14495   5.461   6.237   4.339 -0.7521 -0.8778 -0.3614
  134OSM   H14F14496   5.354   6.209   4.329 -0.3811 -1.6675 -2.5605
  134OSM   H14G14497   5.457   6.346   4.363 -0.8256 -1.3472  1.9713
  134OSM   C15F14498   5.511   6.168   4.460 -0.4085 -0.2866  1.2195
  134OSM   H15F14499   5.619   6.188   4.478 -0.7016 -0.0915  2.9593
  134OSM   H15G14500   5.496   6.059   4.443 -1.7754 -0.1962  1.7689
  134OSM   C16F14501   5.434   6.196   4.590  0.0133 -0.0940 -0.4479
  134OSM   H16F14502   5.470   6.122   4.664 -1.5716  1.4932  2.0497
  134OSM   H16G14503   5.324   6.194   4.572  0.1927 -1.2990 -1.5090
  134OSM   C17F14504   5.487   6.328   4.648  0.3771  0.7859  0.5402
  134OSM   H17F14505   5.463   6.408   4.575  1.0971 -1.0735 -1.8700
  134OSM   H17G14506   5.598   6.323   4.648  0.3672  0.5005  0.2107
  134OSM   C18F14507   5.435   6.362   4.794 -0.1496 -0.3181  0.2719
  134OSM   H18F14508   5.495   6.448   4.832  1.5587 -0.5438 -1.6827
  134OSM   H18G14509   5.460   6.283   4.867 -3.0015 -0.5602  1.0771
  134OSM   H18H14510   5.328   6.389   4.788 -0.4411 -1.4146  0.4471
  135OSM      N14511   4.462   4.115   2.232 -0.7870  0.8622  0.8098
  135OSM    C1514512   4.568   4.113   2.125  0.1689  0.1854 -0.1690
  135OSM   H15A14513   4.544   4.032   2.058 -0.4803  0.4661 -0.2923
  135OSM   H15B14514   4.662   4.087   2.170  0.2338 -0.4037 -0.6306
  135OSM   H15C14515   4.576   4.208   2.075 -1.8257  1.2264  1.3307
  135OSM    C1414516   4.328   4.107   2.158  0.3958 -0.3347 -0.5490
  135OSM   H14A14517   4.317   4.006   2.123 -0.9557 -0.1439 -0.7138
  135OSM   H14B14518   4.318   4.181   2.081  2.3249 -1.2866 -1.7912
  135OSM   H14C14519   4.249   4.121   2.231 -1.6728 -2.0569 -2.3208
  135OSM    C1314520   4.492   3.997   2.319 -0.1572  0.6232  0.2950
  135OSM   H13A14521   4.409   3.993   2.389 -0.4527 -1.1946 -0.1176
  135OSM   H13B14522   4.585   4.014   2.371  0.6923 -0.1675 -0.9175
  135OSM   H13C14523   4.493   3.900   2.272  1.3920 -0.2660  2.0503
  135OSM    C1214524   4.463   4.244   2.307  0.4115 -0.7745 -0.0444
  135OSM   H12A14525   4.461   4.325   2.235  0.5338 -1.1341 -0.4544
  135OSM   H12B14526   4.559   4.254   2.357 -1.2527  0.9122  3.1505
  135OSM    C1114527   4.359   4.278   2.418 -0.4618  0.4616 -1.3916
  135OSM   H11A14528   4.407   4.357   2.479 -1.4640  0.3554 -0.4336
  135OSM   H11B14529   4.354   4.194   2.491  1.4163  1.5390  0.0611
  135OSM      P14530   4.195   4.456   2.340 -0.0489  0.2588 -0.3093
  135OSM    O1314531   4.304   4.525   2.263  0.4967  0.0706  0.1774
  135OSM    O1414532   4.062   4.462   2.283 -0.0891 -0.6201  0.4015
  135OSM    O1114533   4.194   4.490   2.493  0.4531  0.0000 -0.1967
  135OSM    O1214534   4.233   4.304   2.355 -0.1276 -0.2337 -0.3199
  135OSM    C1S14535   4.078   4.449   2.578 -0.5413  0.5587  0.1530
  135OSM    H1S14536   3.996   4.401   2.520 -1.0417  0.1440  1.1899
  135OSM    H1T14537   4.025   4.542   2.607  0.1316  1.7670 -2.1786
  135OSM     NF14538   3.998   4.323   2.774 -0.1255 -0.5094  0.4536
  135OSM    HNF14539   3.962   4.383   2.845 -1.0488  0.9504 -1.1588
  135OSM    C2S14540   4.120   4.370   2.707  0.3835  0.3892 -0.4306
  135OSM    H2S14541   4.173   4.283   2.662  0.4998  0.9068 -1.3299
  135OSM    C3S14542   4.218   4.452   2.797  0.3573  0.7481  0.0371
  135OSM    H3S14543   4.162   4.533   2.849 -1.0169  1.1778 -1.9711
  135OSM     O314544   4.325   4.524   2.729  0.0309 -0.2938 -0.0346
  135OSM    HO314545   4.298   4.506   2.639 -0.8321  0.0622  0.1500
  135OSM    C4S14546   4.270   4.365   2.906  0.0621  0.2466  0.3043
  135OSM    H4S14547   4.199   4.361   2.990 -0.6610  2.4239 -0.1307
  135OSM    C5S14548   4.384   4.292   2.906 -0.1716 -0.2092 -0.5421
  135OSM    H5S14549   4.455   4.302   2.822 -1.7071  0.8653 -1.7768
  135OSM    C6S14550   4.428   4.201   3.019  0.0145  0.4323  0.7065
  135OSM    H6S14551   4.539   4.200   3.013  0.0644  1.7294  1.1793
  135OSM    H6T14552   4.385   4.100   3.003 -1.7790  1.3064 -0.3173
  135OSM    C7S14553   4.390   4.261   3.154 -0.0910  0.6015 -0.4098
  135OSM    H7S14554   4.282   4.250   3.178  0.1548  0.8254  0.8276
  135OSM    H7T14555   4.411   4.370   3.156 -0.1938  0.6289 -0.7763
  135OSM    C8S14556   4.458   4.195   3.276  0.2922  0.4659 -0.4769
  135OSM    H8S14557   4.561   4.234   3.278  1.4571 -2.3900  1.1413
  135OSM    H8T14558   4.466   4.085   3.261 -0.6707  0.7169 -3.6434
  135OSM    C9S14559   4.393   4.233   3.409  0.2477  0.7279  0.1733
  135OSM    H9S14560   4.291   4.191   3.418  0.7275 -1.1816 -2.1815
  135OSM    H9T14561   4.383   4.344   3.404 -1.3223  0.5705 -2.0781
  135OSM   C10S14562   4.482   4.182   3.519 -0.2717  0.1372 -0.3966
  135OSM   H10S14563   4.574   4.244   3.508 -1.3032  1.8127  0.1769
  135OSM   H10T14564   4.500   4.072   3.514 -3.3000 -0.6430  2.5110
  135OSM   C11S14565   4.433   4.208   3.664 -0.0799  1.1032  0.6294
  135OSM   H11S14566   4.338   4.160   3.697  1.7631 -0.2748  4.4483
  135OSM   H11T14567   4.418   4.318   3.666 -0.1122  1.1370  3.6493
  135OSM   C12S14568   4.533   4.169   3.773 -0.4362 -0.8184 -0.4158
  135OSM   H12S14569   4.629   4.219   3.749 -0.6380  0.7035  1.6594
  135OSM   H12T14570   4.556   4.061   3.759 -2.9727 -1.5894  0.6703
  135OSM   C13S14571   4.487   4.211   3.911 -0.5909  0.1426  0.5912
  135OSM   H13S14572   4.379   4.185   3.914 -0.3408 -1.0205  0.2502
  135OSM   H13T14573   4.483   4.321   3.927 -0.0946  0.3249 -0.4822
  135OSM   C14S14574   4.557   4.147   4.028  0.3234 -0.6280 -0.6986
  135OSM   H14S14575   4.609   4.226   4.086  1.2989 -1.3820 -0.5087
  135OSM   H14T14576   4.639   4.077   3.998  1.9042  0.6160  0.5588
  135OSM   C15S14577   4.464   4.077   4.126  0.1963  0.0415  0.0782
  135OSM   H15S14578   4.420   3.990   4.072 -0.5589 -0.3859  1.3348
  135OSM   H15T14579   4.379   4.142   4.156 -1.3531 -2.1884  0.7491
  135OSM   C16S14580   4.522   4.029   4.257 -0.6197  0.4601 -0.1915
  135OSM   H16S14581   4.456   3.961   4.315  2.4398 -2.5212  0.1204
  135OSM   H16T14582   4.537   4.120   4.320  1.4717  0.9137 -1.2303
  135OSM   C17S14583   4.657   3.964   4.253 -0.5338  0.6875 -0.3349
  135OSM   H17S14584   4.727   4.036   4.203  0.2732  0.2555  0.1459
  135OSM   H17T14585   4.648   3.878   4.183 -0.3876  1.3219 -1.1579
  135OSM   C18S14586   4.721   3.916   4.385 -0.0287 -0.1699 -0.2945
  135OSM   H18S14587   4.672   3.823   4.420  0.4748 -1.2999 -2.4096
  135OSM   H18T14588   4.723   3.989   4.470  0.3583  0.7771 -1.0950
  135OSM   H18U14589   4.828   3.887   4.378 -0.0338 -0.1180 -0.5664
  135OSM    C1F14590   3.913   4.241   2.711 -0.2476 -0.4880  0.5603
  135OSM     OF14591   3.938   4.201   2.600  0.2968  0.2678  0.4334
  135OSM    C2F14592   3.786   4.204   2.791  0.0582 -0.7553 -0.0753
  135OSM    H2F14593   3.702   4.263   2.747 -0.2350  0.1413  1.6139
  135OSM    H2G14594   3.808   4.223   2.898  0.3499  0.1739 -0.2955
  135OSM    C3F14595   3.761   4.056   2.774  0.1896 -0.2479  0.4039
  135OSM    H3F14596   3.851   3.999   2.806  0.5645  0.8981  1.4572
  135OSM    H3G14597   3.733   4.039   2.668 -1.2876 -0.3977  0.8015
  135OSM    C4F14598   3.646   4.000   2.866  0.7954 -1.0305 -0.3006
  135OSM    H4F14599   3.562   4.058   2.823  1.4398  0.0866 -0.0732
  135OSM    H4G14600   3.658   4.040   2.968 -1.1634 -2.5044  0.5825
  135OSM    C5F14601   3.633   3.850   2.860  0.0841  0.3975 -0.5922
  135OSM    H5F14602   3.734   3.803   2.857 -0.5309 -1.0454  0.3981
  135OSM    H5G14603   3.583   3.819   2.766  0.1465 -0.7465 -0.2696
  135OSM    C6F14604   3.575   3.786   2.983  0.4777 -0.1556 -0.0540
  135OSM    H6F14605   3.541   3.682   2.965  0.6842 -0.0291 -1.2200
  135OSM    H6G14606   3.479   3.835   3.011  0.1784 -0.9000  0.2628
  135OSM    C7F14607   3.669   3.799   3.102  0.0649  0.1117 -0.3504
  135OSM    H7F14608   3.674   3.905   3.134  0.1154  0.1303 -0.4193
  135OSM    H7G14609   3.763   3.760   3.059 -0.0127 -1.3614  0.7476
  135OSM    C8F14610   3.620   3.724   3.229  0.3805  0.6640 -0.6017
  135OSM    H8F14611   3.593   3.621   3.196 -3.1664  1.6382 -1.1544
  135OSM    H8G14612   3.537   3.787   3.267  0.5051 -0.2200  1.2424
  135OSM    C9F14613   3.722   3.707   3.334 -0.3942 -0.0708 -0.7063
  135OSM    H9F14614   3.815   3.664   3.294 -0.0428 -0.5541  0.5903
  135OSM   C10F14615   3.705   3.712   3.468 -0.3117 -0.0091  0.0783
  135OSM   H10F14616   3.789   3.679   3.530  0.2663 -1.2654 -1.3127
  135OSM   C11F14617   3.579   3.761   3.540  0.0012  0.4053 -0.9084
  135OSM   H11F14618   3.502   3.681   3.538 -0.5038  0.8943 -1.0301
  135OSM   H11G14619   3.534   3.845   3.484  0.2607  0.8468 -0.4639
  135OSM   C12F14620   3.607   3.798   3.689 -0.3236 -0.0855  0.2329
  135OSM   H12F14621   3.507   3.814   3.735 -0.3618  0.6497 -0.0849
  135OSM   H12G14622   3.657   3.897   3.692 -3.9694  1.9205  1.2883
  135OSM   C13F14623   3.671   3.691   3.779  0.0616  0.0860 -0.8887
  135OSM   H13F14624   3.756   3.633   3.737  0.6465  0.2418  0.0514
  135OSM   H13G14625   3.599   3.614   3.812 -0.1325 -0.1524 -1.8545
  135OSM   C14F14626   3.719   3.754   3.912 -0.2562 -0.0042  0.6104
  135OSM   H14F14627   3.636   3.820   3.947 -1.9680 -1.7543  0.0470
  135OSM   H14G14628   3.817   3.806   3.902  0.2960 -1.2356 -0.6632
  135OSM   C15F14629   3.724   3.651   4.033 -0.5950 -1.2102  0.1139
  135OSM   H15F14630   3.768   3.556   3.998  0.5949 -0.6016 -0.0842
  135OSM   H15G14631   3.618   3.633   4.062 -0.6761 -1.7764 -0.5177
  135OSM   C16F14632   3.813   3.695   4.155  0.3067  0.1364  0.0017
  135OSM   H16F14633   3.919   3.714   4.130  0.4800  1.4780  1.5618
  135OSM   H16G14634   3.813   3.613   4.230 -0.5267 -0.4712 -0.6476
  135OSM   C17F14635   3.747   3.804   4.237 -0.7336  0.0624  0.1226
  135OSM   H17F14636   3.748   3.900   4.181 -1.5939 -0.1956 -0.3482
  135OSM   H17G14637   3.803   3.813   4.333  0.2085  0.1888 -0.4189
  135OSM   C18F14638   3.606   3.778   4.285 -0.8374  0.6199 -0.7298
  135OSM   H18F14639   3.613   3.692   4.355  0.2597  1.4707  0.2687
  135OSM   H18G14640   3.527   3.749   4.213 -1.3208 -1.0951  0.4304
  135OSM   H18H14641   3.570   3.860   4.351 -1.7685  1.7093 -2.5135
  136OSM      N14642   5.122   5.390   2.158 -0.0663  0.2370 -0.1312
  136OSM    C1514643   5.211   5.468   2.252  0.0275 -0.6772 -0.0694
  136OSM   H15A14644   5.148   5.524   2.318  2.2561 -0.0169  1.6334
  136OSM   H15B14645   5.271   5.539   2.197 -2.0845  0.8940 -0.4627
  136OSM   H15C14646   5.271   5.408   2.319  2.9945  2.5632  0.5127
  136OSM    C1414647   5.215   5.306   2.070 -0.1983  0.0354 -0.0039
  136OSM   H14A14648   5.273   5.245   2.137  0.3812 -0.5684 -1.0344
  136OSM   H14B14649   5.284   5.360   2.008  0.2174 -1.5319 -0.9648
  136OSM   H14C14650   5.165   5.241   2.000  0.5406 -0.1131 -0.4054
  136OSM    C1314651   5.042   5.293   2.241  0.0157  0.3316  0.3040
  136OSM   H13A14652   4.974   5.344   2.308 -0.7553 -1.9524  1.3609
  136OSM   H13B14653   5.102   5.221   2.294  1.4970  0.8937 -0.5448
  136OSM   H13C14654   4.987   5.230   2.172  2.6965  1.5810 -3.2218
  136OSM    C1214655   5.039   5.479   2.076  0.8573  0.0465  0.1169
  136OSM   H12A14656   5.011   5.437   1.980 -0.3538  0.6266  0.1894
  136OSM   H12B14657   5.100   5.562   2.042  0.1027  1.5220  2.1832
  136OSM    C1114658   4.908   5.531   2.140 -0.3371  0.0547  0.1618
  136OSM   H11A14659   4.828   5.459   2.166  0.6886 -0.7733  1.0824
  136OSM   H11B14660   4.863   5.598   2.063  0.7993  1.0692  0.3452
  136OSM      P14661   4.980   5.761   2.259  0.4682  0.1938  0.2011
  136OSM    O1314662   5.088   5.766   2.154  0.4880 -0.3774  0.1955
  136OSM    O1414663   4.862   5.849   2.246  0.3384 -0.1692  0.1536
  136OSM    O1114664   5.037   5.771   2.398 -0.5573 -0.1512 -0.2027
  136OSM    O1214665   4.928   5.608   2.262 -0.4686 -0.2452  0.1671
  136OSM    C1S14666   5.038   5.663   2.498 -1.1350  0.1798 -0.2123
  136OSM    H1S14667   5.101   5.576   2.470  0.7455  0.9743  1.3348
  136OSM    H1T14668   4.934   5.629   2.519 -1.3390  0.3069 -0.9864
  136OSM     NF14669   5.087   5.606   2.735  0.1248 -0.2716  0.0929
  136OSM    HNF14670   5.012   5.608   2.801  1.3384 -2.3101  1.6517
  136OSM    C2S14671   5.095   5.714   2.639 -0.3575 -0.3218  0.5902
  136OSM    H2S14672   5.200   5.746   2.622 -0.8595  1.5646  0.7665
  136OSM    C3S14673   5.025   5.844   2.688  0.1074  0.2117 -0.0549
  136OSM    H3S14674   4.921   5.814   2.716  0.5063  0.9182  2.4461
  136OSM     O314675   5.006   5.951   2.598 -0.3366 -0.1506 -0.2593
  136OSM    HO314676   4.993   5.905   2.515  0.1271 -2.9824  1.1134
  136OSM    C4S14677   5.085   5.893   2.821  0.4464  0.7259  0.2644
  136OSM    H4S14678   5.050   5.835   2.908 -0.0110  1.0537  0.3022
  136OSM    C5S14679   5.179   5.983   2.848 -0.3414  0.0646  0.1391
  136OSM    H5S14680   5.218   6.037   2.761 -1.2852 -1.3132 -1.1959
  136OSM    C6S14681   5.243   6.012   2.981 -0.6091 -0.1453  0.0353
  136OSM    H6S14682   5.262   6.121   2.989 -0.9104 -0.0804 -0.0976
  136OSM    H6T14683   5.341   5.961   2.983 -0.6032 -0.1726  2.7982
  136OSM    C7S14684   5.164   5.964   3.107  1.0089 -0.0491 -0.2554
  136OSM    H7S14685   5.165   5.853   3.104  1.8998 -0.0364 -1.4357
  136OSM    H7T14686   5.060   6.002   3.094  1.4915  1.8784  1.0981
  136OSM    C8S14687   5.214   6.010   3.244 -0.9509  0.0213  1.2453
  136OSM    H8S14688   5.212   6.121   3.254 -1.5914 -0.0496  1.9283
  136OSM    H8T14689   5.321   5.982   3.230 -1.0026  0.6179 -0.5719
  136OSM    C9S14690   5.143   5.948   3.367  0.0028 -0.4720  0.2992
  136OSM    H9S14691   5.169   5.842   3.387  1.0317  0.1723  2.7367
  136OSM    H9T14692   5.033   5.950   3.354 -0.1632  0.2340  1.6265
  136OSM   C10S14693   5.167   6.026   3.491  0.0993  0.1814  0.4238
  136OSM   H10S14694   5.130   6.131   3.483 -4.6327 -0.9154  3.6460
  136OSM   H10T14695   5.276   6.028   3.513  0.8163  0.9304 -2.7395
  136OSM   C11S14696   5.090   5.971   3.614  0.0043 -0.5960  0.2383
  136OSM   H11S14697   5.146   5.878   3.638 -0.9030 -1.1095  0.3981
  136OSM   H11T14698   4.981   5.957   3.595 -0.4801  1.4066  1.2778
  136OSM   C12S14699   5.100   6.073   3.737  0.0540  0.4155  0.1347
  136OSM   H12S14700   5.031   6.158   3.717 -2.0382 -1.6366 -2.1928
  136OSM   H12T14701   5.201   6.113   3.756 -0.1491  0.0215  2.2484
  136OSM   C13S14702   5.052   6.003   3.864 -0.4379  0.3438 -0.3703
  136OSM   H13S14703   5.114   5.915   3.891 -1.7445 -1.0323 -1.7449
  136OSM   H13T14704   4.945   5.976   3.864 -0.1406 -1.0405  1.6034
  136OSM   C14S14705   5.066   6.098   3.981  0.0361 -0.2627 -0.5445
  136OSM   H14S14706   5.000   6.186   3.967 -3.5042 -2.7535 -0.7604
  136OSM   H14T14707   5.172   6.129   3.996  0.6429 -2.5610  0.2903
  136OSM   C15S14708   5.028   6.035   4.113  0.9312 -0.8000 -0.0033
  136OSM   H15S14709   5.086   5.940   4.118  0.0339 -1.3264  3.8959
  136OSM   H15T14710   4.921   6.008   4.105  0.5695 -0.2350  2.2816
  136OSM   C16S14711   5.056   6.118   4.236  0.4751 -0.4593 -0.3936
  136OSM   H16S14712   5.015   6.221   4.237  2.2546  0.2938  1.4601
  136OSM   H16T14713   5.165   6.138   4.239  0.1790  1.2802 -0.3794
  136OSM   C17S14714   4.993   6.053   4.362 -0.2420 -0.1863 -0.7667
  136OSM   H17S14715   5.049   5.960   4.386 -0.5327 -0.0499  0.4870
  136OSM   H17T14716   4.889   6.018   4.347 -0.3599 -0.0679 -0.2270
  136OSM   C18S14717   4.996   6.155   4.483 -0.4377 -0.1054  0.5213
  136OSM   H18S14718   4.952   6.113   4.577 -0.7043  2.0537  1.4194
  136OSM   H18T14719   4.928   6.242   4.468 -2.4523 -1.5635  0.7948
  136OSM   H18U14720   5.099   6.188   4.507  0.2219 -0.5180 -1.5381
  136OSM    C1F14721   5.160   5.494   2.731 -0.4470 -0.8571 -0.2625
  136OSM     OF14722   5.263   5.493   2.661  0.1768  0.1170 -0.8230
  136OSM    C2F14723   5.112   5.374   2.816  0.4689  0.4113  0.0400
  136OSM    H2F14724   5.082   5.297   2.742 -0.1379  0.1977  0.5000
  136OSM    H2G14725   5.025   5.409   2.877  0.9063  3.0363 -0.7417
  136OSM    C3F14726   5.225   5.314   2.901 -0.3950 -0.7034 -0.2175
  136OSM    H3F14727   5.253   5.388   2.979 -1.8825 -0.8608  0.5034
  136OSM    H3G14728   5.315   5.277   2.848  0.4412 -0.2177  0.8030
  136OSM    C4F14729   5.161   5.196   2.979  0.0915 -0.1082  0.4732
  136OSM    H4F14730   5.099   5.143   2.904 -0.4831 -0.6138  1.2897
  136OSM    H4G14731   5.091   5.236   3.055  0.2262  0.3226  0.3772
  136OSM    C5F14732   5.264   5.099   3.046  0.0305 -0.0101  0.0529
  136OSM    H5F14733   5.339   5.065   2.971  0.5022 -1.4458  1.1122
  136OSM    H5G14734   5.209   5.012   3.089  0.8189 -0.2917  0.5123
  136OSM    C6F14735   5.350   5.162   3.162  0.6797  0.0474  0.2696
  136OSM    H6F14736   5.394   5.250   3.109 -1.3527  0.7578 -0.3337
  136OSM    H6G14737   5.431   5.093   3.194 -1.1971 -1.4568  1.9941
  136OSM    C7F14738   5.274   5.216   3.278 -0.7824  0.2019 -0.2289
  136OSM    H7F14739   5.225   5.130   3.327 -0.0008 -0.8040 -1.1655
  136OSM    H7G14740   5.186   5.279   3.249 -0.4808  1.5075  1.4794
  136OSM    C8F14741   5.358   5.286   3.388 -0.1371  0.1552 -0.1246
  136OSM    H8F14742   5.286   5.325   3.464 -0.6977 -0.2843 -0.4247
  136OSM    H8G14743   5.399   5.376   3.338  0.1189  1.7765  2.7649
  136OSM    C9F14744   5.468   5.202   3.457  0.4921 -0.6260 -0.4384
  136OSM    H9F14745   5.564   5.183   3.406  1.0853 -0.2064  0.4998
  136OSM   C10F14746   5.475   5.172   3.591  0.4363 -0.3706  0.2358
  136OSM   H10F14747   5.563   5.114   3.621 -0.7157 -1.6592  1.2759
  136OSM   C11F14748   5.385   5.208   3.706  0.4677 -0.0517  0.0342
  136OSM   H11F14749   5.334   5.114   3.738 -0.2363  0.0212 -0.8272
  136OSM   H11G14750   5.314   5.287   3.675  0.2949 -1.1460 -2.6766
  136OSM   C12F14751   5.466   5.241   3.828 -0.1109  0.1380 -0.8993
  136OSM   H12F14752   5.506   5.344   3.812 -1.8694  1.2765  1.3682
  136OSM   H12G14753   5.556   5.179   3.848 -0.1433  0.4950  0.4972
  136OSM   C13F14754   5.382   5.243   3.960  0.3260  0.6540 -0.3802
  136OSM   H13F14755   5.369   5.137   3.987 -2.5440  0.2175 -2.9313
  136OSM   H13G14756   5.283   5.292   3.945 -0.5392 -0.9035  0.0550
  136OSM   C14F14757   5.447   5.310   4.085 -0.5281 -0.2031  0.5488
  136OSM   H14F14758   5.446   5.420   4.069  1.2806 -0.4930 -2.2252
  136OSM   H14G14759   5.554   5.279   4.082 -0.8176 -1.1846 -1.4115
  136OSM   C15F14760   5.398   5.262   4.218  0.2906  0.3688 -0.1047
  136OSM   H15F14761   5.454   5.314   4.298 -2.6340  1.7173  1.2185
  136OSM   H15G14762   5.416   5.153   4.224 -3.8952 -0.6549 -2.0031
  136OSM   C16F14763   5.256   5.301   4.250 -1.2673 -0.3991  0.8191
  136OSM   H16F14764   5.189   5.250   4.177  0.3843  0.5412 -1.4890
  136OSM   H16G14765   5.248   5.411   4.236 -1.5375 -0.4223  0.7870
  136OSM   C17F14766   5.205   5.249   4.380  0.0821  0.7172 -0.3418
  136OSM   H17F14767   5.253   5.284   4.474 -0.4023  0.0604  0.1676
  136OSM   H17G14768   5.212   5.139   4.368  0.5476  0.5563  1.1668
  136OSM   C18F14769   5.056   5.288   4.404 -0.3116  0.6793 -0.3369
  136OSM   H18F14770   5.032   5.397   4.399 -1.3688  0.5719  1.5113
  136OSM   H18G14771   5.028   5.255   4.506 -0.1268  0.0970 -0.4756
  136OSM   H18H14772   4.990   5.240   4.329  1.0712 -0.7543 -0.6830
  137OSM      N14773   2.079   3.646   2.536 -0.5080  0.3398 -0.2866
  137OSM    C1514774   1.989   3.684   2.429  0.1822 -0.4315  0.0634
  137OSM   H15A14775   1.967   3.790   2.430  1.1318 -0.2305 -0.1052
  137OSM   H15B14776   1.895   3.631   2.440 -0.0814 -0.3639 -1.5401
  137OSM   H15C14777   2.025   3.669   2.328  2.0326  1.3239  0.3949
  137OSM    C1414778   2.158   3.516   2.513  0.2297  0.5478 -0.1657
  137OSM   H14A14779   2.219   3.539   2.427  0.6262 -1.3065 -0.4295
  137OSM   H14B14780   2.086   3.437   2.499  1.4794 -0.6052 -0.2657
  137OSM   H14C14781   2.206   3.487   2.606  0.6820  0.7107 -0.3480
  137OSM    C1314782   2.185   3.757   2.554 -0.0389  0.4155  0.1313
  137OSM   H13A14783   2.257   3.719   2.626  0.2996 -0.2369 -0.5381
  137OSM   H13B14784   2.142   3.854   2.571 -0.2582  1.0112 -3.2351
  137OSM   H13C14785   2.246   3.762   2.465  0.3020 -1.0804  0.2487
  137OSM    C1214786   2.008   3.613   2.664  0.4584  0.1065 -0.5978
  137OSM   H12A14787   1.967   3.707   2.701  1.8290  2.0609 -3.6694
  137OSM   H12B14788   2.077   3.578   2.740 -1.4916  0.1241  1.2937
  137OSM    C1114789   1.881   3.512   2.653  0.4386  0.4357  0.3637
  137OSM   H11A14790   1.853   3.469   2.751  0.9497 -3.1809 -0.9086
  137OSM   H11B14791   1.911   3.428   2.586 -1.3721  0.3791 -0.4417
  137OSM      P14792   1.689   3.687   2.642  0.0249  0.5483 -0.0843
  137OSM    O1314793   1.780   3.797   2.667 -0.5670 -0.5147  0.3094
  137OSM    O1414794   1.572   3.713   2.560 -0.0885 -0.3630 -0.1118
  137OSM    O1114795   1.634   3.634   2.779  0.2374  0.5116 -0.3122
  137OSM    O1214796   1.775   3.574   2.582  0.0275 -0.6426  0.2973
  137OSM    C1S14797   1.589   3.498   2.797  0.0049 -0.2958  0.3605
  137OSM    H1S14798   1.648   3.426   2.736 -0.6363  0.5783 -1.3370
  137OSM    H1T14799   1.481   3.490   2.772  0.6346 -1.2429 -2.4087
  137OSM     NF14800   1.542   3.303   2.947 -0.1742 -0.8185 -0.1662
  137OSM    HNF14801   1.450   3.269   2.968 -1.0042  1.7684  0.7013
  137OSM    C2S14802   1.579   3.444   2.941  0.8726 -0.3007  0.2517
  137OSM    H2S14803   1.682   3.454   2.982  0.5699  1.2696  0.7137
  137OSM    C3S14804   1.476   3.540   3.023  0.1059 -0.1595  0.3306
  137OSM    H3S14805   1.373   3.527   2.981 -0.8195  1.4686  1.9595
  137OSM     O314806   1.503   3.679   3.012 -0.3585  0.2231 -0.6878
  137OSM    HO314807   1.535   3.698   2.924 -0.0965  1.0706 -0.4172
  137OSM    C4S14808   1.470   3.488   3.162  0.2049  0.0304 -0.8029
  137OSM    H4S14809   1.416   3.392   3.170 -1.3523  0.9646  0.9390
  137OSM    C5S14810   1.542   3.536   3.272  0.3949  0.4584  1.0275
  137OSM    H5S14811   1.615   3.615   3.252 -0.4972  1.4009  1.4309
  137OSM    C6S14812   1.542   3.466   3.403  0.5542 -0.3937 -0.2292
  137OSM    H6S14813   1.639   3.430   3.442 -0.1235 -1.5077  0.4538
  137OSM    H6T14814   1.482   3.373   3.393  0.2148 -0.0340 -1.8385
  137OSM    C7S14815   1.483   3.552   3.514 -0.4638 -0.4249 -0.6206
  137OSM    H7S14816   1.385   3.597   3.485 -1.0180  0.3004  2.1216
  137OSM    H7T14817   1.540   3.643   3.544 -0.7668  0.2335 -1.9707
  137OSM    C8S14818   1.460   3.479   3.649  0.0049 -0.0568 -0.4524
  137OSM    H8S14819   1.449   3.369   3.636 -0.2045 -0.0918  0.0322
  137OSM    H8T14820   1.365   3.519   3.692 -1.0782 -1.5481 -1.3681
  137OSM    C9S14821   1.572   3.510   3.748 -0.0469  0.2975 -0.1644
  137OSM    H9S14822   1.613   3.613   3.741  0.0346  0.2386 -0.6050
  137OSM    H9T14823   1.651   3.435   3.725  1.5881  1.6397  0.8450
  137OSM   C10S14824   1.531   3.511   3.896  0.1472  0.4099 -0.2260
  137OSM   H10S14825   1.484   3.415   3.927 -2.6784  1.7528 -0.1011
  137OSM   H10T14826   1.443   3.578   3.897  0.5568  0.9444  0.2858
  137OSM   C11S14827   1.644   3.559   3.994 -0.0233  0.7409  0.6639
  137OSM   H11S14828   1.684   3.653   3.951 -0.7055  0.6187 -0.2755
  137OSM   H11T14829   1.726   3.485   3.980 -0.9995 -0.0000 -1.6637
  137OSM   C12S14830   1.595   3.583   4.135  0.2295  0.4399  0.2056
  137OSM   H12S14831   1.523   3.665   4.118 -0.0713  0.1962  0.2988
  137OSM   H12T14832   1.680   3.621   4.196  1.5432 -3.0154  0.8066
  137OSM   C13S14833   1.527   3.475   4.210  0.5037 -0.7975 -0.0893
  137OSM   H13S14834   1.438   3.429   4.161  0.0108 -1.3190  1.2424
  137OSM   H13T14835   1.483   3.511   4.305 -0.9013 -1.9193 -0.2806
  137OSM   C14S14836   1.626   3.358   4.236 -0.0205 -0.4014 -0.0063
  137OSM   H14S14837   1.724   3.398   4.269 -0.7306  1.8349 -0.3975
  137OSM   H14T14838   1.646   3.305   4.140 -0.4007 -2.8230  1.1814
  137OSM   C15S14839   1.562   3.256   4.334  0.4293 -0.3266  0.5713
  137OSM   H15S14840   1.478   3.215   4.273 -1.8303  2.3717  1.6933
  137OSM   H15T14841   1.530   3.302   4.430  0.4466 -0.1277  0.4824
  137OSM   C16S14842   1.664   3.146   4.368  0.3622 -0.0443 -0.0392
  137OSM   H16S14843   1.737   3.180   4.443  0.6478 -2.2599  0.7667
  137OSM   H16T14844   1.712   3.107   4.275 -0.4379 -1.6615  0.1833
  137OSM   C17S14845   1.586   3.019   4.420  0.4369 -0.0439 -0.3981
  137OSM   H17S14846   1.522   2.972   4.342 -0.5098  0.3737  0.1132
  137OSM   H17T14847   1.524   3.052   4.506  0.5157 -1.3698  0.1961
  137OSM   C18S14848   1.688   2.920   4.464 -0.1263 -0.3894 -0.7095
  137OSM   H18S14849   1.645   2.818   4.452  2.5154 -1.3150 -3.7443
  137OSM   H18T14850   1.723   2.922   4.569 -0.3176 -2.2996 -0.5718
  137OSM   H18U14851   1.780   2.905   4.404 -0.9320 -1.9773 -1.6239
  137OSM    C1F14852   1.625   3.213   2.901 -0.2690 -0.2412  0.1477
  137OSM     OF14853   1.736   3.241   2.847  0.4041 -0.1429 -0.6941
  137OSM    C2F14854   1.578   3.068   2.908 -0.0481  0.0015  1.0432
  137OSM    H2F14855   1.595   3.026   2.807  2.2094  1.5818  0.6894
  137OSM    H2G14856   1.468   3.075   2.924 -0.2970  0.0547 -0.5632
  137OSM    C3F14857   1.648   2.990   3.018  0.3172 -0.6922  0.7210
  137OSM    H3F14858   1.759   2.995   3.010  0.2479 -1.8475 -1.8022
  137OSM    H3G14859   1.615   2.884   3.017 -1.3720 -0.2224 -2.2454
  137OSM    C4F14860   1.615   3.057   3.156  0.6489 -0.0737 -0.5153
  137OSM    H4F14861   1.510   3.093   3.149  0.4476 -0.5857 -0.2662
  137OSM    H4G14862   1.678   3.147   3.171 -2.0390  1.9157 -0.4221
  137OSM    C5F14863   1.648   2.964   3.271 -0.2195  0.2513  0.2319
  137OSM    H5F14864   1.756   2.945   3.254 -0.1208 -0.9684  1.9418
  137OSM    H5G14865   1.592   2.869   3.264  1.8612 -1.2505  2.3037
  137OSM    C6F14866   1.628   3.015   3.417  0.0852 -0.8073 -0.0393
  137OSM    H6F14867   1.522   3.042   3.432  0.6642  1.6499  0.0860
  137OSM    H6G14868   1.684   3.111   3.415 -1.5852  0.1693 -1.3251
  137OSM    C7F14869   1.654   2.930   3.542 -0.8784 -0.1187  0.6002
  137OSM    H7F14870   1.764   2.920   3.559 -1.0811 -0.9925  1.4969
  137OSM    H7G14871   1.623   2.828   3.511  0.7448 -0.7672  0.9917
  137OSM    C8F14872   1.586   2.978   3.668 -0.0665 -1.1506 -1.4137
  137OSM    H8F14873   1.595   2.893   3.738 -0.3621 -1.3803 -1.6519
  137OSM    H8G14874   1.482   3.011   3.651  1.1857  3.0969 -2.0847
  137OSM    C9F14875   1.650   3.100   3.728  0.5445  0.7048  0.5896
  137OSM    H9F14876   1.684   3.177   3.657 -3.2884 -0.7732 -3.2752
  137OSM   C10F14877   1.688   3.111   3.860  0.1534 -0.0436 -0.6555
  137OSM   H10F14878   1.721   3.211   3.890  0.0859  0.6526 -2.7132
  137OSM   C11F14879   1.655   3.019   3.978 -0.2543 -0.9840  0.2904
  137OSM   H11F14880   1.575   2.945   3.958 -0.6520 -1.1569  2.3448
  137OSM   H11G14881   1.605   3.079   4.057  1.2653 -0.8507  1.1857
  137OSM   C12F14882   1.790   2.965   4.026 -0.1937 -0.9617  0.0087
  137OSM   H12F14883   1.842   3.051   4.075 -1.6288 -0.1141  0.1067
  137OSM   H12G14884   1.846   2.939   3.934 -2.0866  1.7306 -2.0596
  137OSM   C13F14885   1.786   2.843   4.113  0.0120  0.0321 -0.0071
  137OSM   H13F14886   1.749   2.876   4.212  1.1992 -1.2669  0.9115
  137OSM   H13G14887   1.891   2.808   4.111  0.3562  1.0053  0.4001
  137OSM   C14F14888   1.705   2.725   4.062 -0.3187 -0.2798  0.2031
  137OSM   H14F14889   1.734   2.687   3.962  0.7918  3.4532 -1.0177
  137OSM   H14G14890   1.601   2.761   4.046  0.3965  0.8981 -2.2381
  137OSM   C15F14891   1.707   2.610   4.167 -0.0698 -0.2077  0.3744
  137OSM   H15F14892   1.635   2.530   4.139 -0.1545 -0.5008  1.3987
  137OSM   H15G14893   1.675   2.652   4.265  0.4031  1.4888 -0.1626
  137OSM   C16F14894   1.841   2.529   4.190  0.0991 -0.1615 -0.6056
  137OSM   H16F14895   1.826   2.448   4.264  2.7386  1.3145  1.7251
  137OSM   H16G14896   1.925   2.594   4.221 -1.6057  0.4954  3.1411
  137OSM   C17F14897   1.878   2.462   4.056 -0.4900  0.4302  0.2129
  137OSM   H17F14898   1.883   2.540   3.977  1.3081 -0.0048 -0.1598
  137OSM   H17G14899   1.806   2.379   4.036  1.7795 -1.7717  0.5751
  137OSM   C18F14900   2.017   2.391   4.066  0.2772  0.5551 -0.2268
  137OSM   H18F14901   2.018   2.308   4.140  0.5562  0.3859 -0.4188
  137OSM   H18G14902   2.085   2.464   4.116 -0.3014  1.7267 -1.1169
  137OSM   H18H14903   2.060   2.345   3.975  1.7435 -2.5449  1.8398
  138OSM      N14904   6.528   6.247   2.707 -0.4468  0.6260 -0.3397
  138OSM    C1514905   6.441   6.236   2.835 -0.1586 -0.7812 -0.0081
  138OSM   H15A14906   6.374   6.152   2.830 -3.6742  1.6323  2.0862
  138OSM   H15B14907   6.382   6.325   2.855  0.6950 -0.5596  1.7481
  138OSM   H15C14908   6.512   6.223   2.916  0.3831  0.5191 -0.2330
  138OSM    C1414909   6.426   6.256   2.587 -0.6862 -0.0531 -0.2619
  138OSM   H14A14910   6.359   6.336   2.615 -1.1949 -1.3604  2.5777
  138OSM   H14B14911   6.372   6.163   2.584 -0.7053 -0.2401  2.8055
  138OSM   H14C14912   6.474   6.292   2.497 -0.1802  0.7364  0.3027
  138OSM    C1314913   6.598   6.376   2.714 -0.4089 -0.1224 -0.3286
  138OSM   H13A14914   6.532   6.458   2.689  1.0180  1.3603  0.6111
  138OSM   H13B14915   6.677   6.385   2.641  0.3854 -0.3952  0.4814
  138OSM   H13C14916   6.645   6.393   2.809  0.9486 -0.0976 -0.9810
  138OSM    C1214917   6.627   6.138   2.698 -0.4181  0.5677 -0.1201
  138OSM   H12A14918   6.698   6.164   2.620 -1.1091  0.0345 -0.9402
  138OSM   H12B14919   6.585   6.050   2.652  2.2091 -0.8400 -0.0604
  138OSM    C1114920   6.721   6.091   2.813  0.9924 -0.0177 -0.2557
  138OSM   H11A14921   6.786   6.009   2.776  0.4281 -0.4118 -0.3935
  138OSM   H11B14922   6.660   6.035   2.888 -1.1080 -0.5821 -2.2815
  138OSM      P14923   6.909   6.275   2.797  0.1485  0.1427  0.4764
  138OSM    O1314924   6.915   6.211   2.658  0.3478 -0.1173  0.2469
  138OSM    O1414925   6.894   6.420   2.802  0.0803 -0.2786 -0.0307
  138OSM    O1114926   7.032   6.248   2.885 -0.5540  0.2703  0.3476
  138OSM    O1214927   6.783   6.200   2.887  0.1876  0.1131 -0.3070
  138OSM    C1S14928   7.019   6.297   3.016  0.1076 -0.0007  0.0420
  138OSM    H1S14929   6.916   6.287   3.058 -0.2483 -0.8392 -0.9825
  138OSM    H1T14930   7.033   6.406   3.027 -0.2006 -0.0426  0.9387
  138OSM     NF14931   7.110   6.260   3.243  0.2702 -0.0091 -0.2450
  138OSM    HNF14932   7.182   6.324   3.269 -0.8016  1.4472 -0.7212
  138OSM    C2S14933   7.128   6.229   3.110  0.4673  0.2217  0.9228
  138OSM    H2S14934   7.099   6.123   3.095  0.8522  0.0837  1.1598
  138OSM    C3S14935   7.273   6.243   3.057  0.2466  0.2244  0.7475
  138OSM    H3S14936   7.308   6.348   3.066 -1.3714  0.9205 -0.4968
  138OSM     O314937   7.283   6.222   2.915 -0.3020 -0.2766 -0.0524
  138OSM    HO314938   7.189   6.225   2.892 -0.9818 -1.8090  2.1563
  138OSM    C4S14939   7.347   6.148   3.143  0.0814  0.6732  0.7489
  138OSM    H4S14940   7.289   6.054   3.148 -0.8231  0.9313 -2.3169
  138OSM    C5S14941   7.462   6.173   3.211  0.5419  0.8231 -0.2844
  138OSM    H5S14942   7.500   6.276   3.200 -2.0171  1.8717  0.0094
  138OSM    C6S14943   7.528   6.068   3.301 -0.2771  0.2771 -0.6120
  138OSM    H6S14944   7.633   6.048   3.273 -0.6684 -1.0222 -1.1930
  138OSM    H6T14945   7.479   5.970   3.284  0.7909 -0.1106 -1.5538
  138OSM    C7S14946   7.520   6.109   3.452  0.1821 -1.3462 -0.0503
  138OSM    H7S14947   7.431   6.173   3.464  1.1446 -0.2242  1.4434
  138OSM    H7T14948   7.603   6.171   3.493  0.5295 -0.7482 -1.5954
  138OSM    C8S14949   7.501   5.988   3.534 -0.3390 -0.2334 -0.4202
  138OSM    H8S14950   7.582   5.912   3.522 -0.2455 -0.0485 -0.9896
  138OSM    H8T14951   7.407   5.943   3.497  0.0124  0.7153 -2.5723
  138OSM    C9S14952   7.499   6.031   3.684  0.1663 -0.3198  0.5634
  138OSM    H9S14953   7.449   6.129   3.693  1.5926  0.7273 -1.9402
  138OSM    H9T14954   7.601   6.058   3.718  0.4117  3.6317 -2.5313
  138OSM   C10S14955   7.420   5.936   3.777 -0.2296 -0.0850  0.2230
  138OSM   H10S14956   7.449   5.831   3.752  0.2858  0.4148 -1.4418
  138OSM   H10T14957   7.314   5.938   3.746 -0.1697  3.3211 -0.1532
  138OSM   C11S14958   7.422   5.979   3.926 -0.0196  0.3820  0.7949
  138OSM   H11S14959   7.380   6.081   3.940  0.2991  0.4372  1.4074
  138OSM   H11T14960   7.529   5.985   3.958  0.4694 -1.4669 -0.3596
  138OSM   C12S14961   7.328   5.901   4.021 -0.5587 -0.5374 -0.1010
  138OSM   H12S14962   7.350   5.793   4.036  1.6876 -0.2634 -0.9828
  138OSM   H12T14963   7.228   5.913   3.973 -0.2950 -0.7140 -0.7098
  138OSM   C13S14964   7.315   5.968   4.156  0.1798  0.5309  1.3092
  138OSM   H13S14965   7.299   6.078   4.159 -0.0653  0.4774  3.1456
  138OSM   H13T14966   7.412   5.978   4.209  0.5861  2.2056  0.3525
  138OSM   C14S14967   7.206   5.902   4.241  0.3938  0.4926  0.4639
  138OSM   H14S14968   7.223   5.792   4.252  1.4791  0.5488 -0.4609
  138OSM   H14T14969   7.106   5.907   4.194 -0.4794 -0.5771  2.0726
  138OSM   C15S14970   7.203   5.961   4.385 -0.2125  0.6789 -0.1664
  138OSM   H15S14971   7.111   5.928   4.437 -1.0032 -1.9323 -2.9446
  138OSM   H15T14972   7.210   6.072   4.389 -0.3215  0.6611  0.6224
  138OSM   C16S14973   7.325   5.918   4.470  0.2365 -0.3405  0.3671
  138OSM   H16S14974   7.416   5.946   4.414  0.2214 -1.2463 -0.1251
  138OSM   H16T14975   7.332   5.808   4.480  0.5305 -0.3177  0.4025
  138OSM   C17S14976   7.316   5.973   4.608 -0.7647 -0.4671 -0.1291
  138OSM   H17S14977   7.222   5.950   4.663 -1.2767  1.5688 -0.0818
  138OSM   H17T14978   7.317   6.084   4.610 -1.6253 -0.4604  0.1601
  138OSM   C18S14979   7.429   5.913   4.698  0.2613 -0.0376 -0.1373
  138OSM   H18S14980   7.425   5.803   4.689 -2.0837  0.0466 -1.0700
  138OSM   H18T14981   7.426   5.945   4.804  0.7497 -0.8841  0.1372
  138OSM   H18U14982   7.530   5.935   4.658  1.3008 -0.4003  2.1598
  138OSM    C1F14983   7.014   6.222   3.328  0.0442  0.6226 -0.7540
  138OSM     OF14984   6.906   6.180   3.297  0.3239  0.0281  0.4509
  138OSM    C2F14985   7.048   6.228   3.476  0.4366 -0.1524 -0.2777
  138OSM    H2F14986   6.996   6.319   3.513  1.3497  0.7168 -1.0774
  138OSM    H2G14987   7.155   6.253   3.488  1.7307 -2.3948 -4.9429
  138OSM    C3F14988   7.024   6.085   3.548  0.5841  0.1612  0.1475
  138OSM    H3F14989   7.078   6.000   3.501  0.2849 -0.4259  0.8402
  138OSM    H3G14990   6.919   6.049   3.544  0.7748 -0.6704  1.6951
  138OSM    C4F14991   7.058   6.096   3.697 -0.8203  0.3366  0.2759
  138OSM    H4F14992   7.167   6.118   3.703 -0.1581 -1.0338 -3.7538
  138OSM    H4G14993   7.039   5.994   3.737  0.3394  0.7380  1.9758
  138OSM    C5F14994   6.973   6.188   3.780 -0.1897 -0.1315  0.1589
  138OSM    H5F14995   6.864   6.169   3.768 -0.1618  0.0717 -0.4997
  138OSM    H5G14996   6.990   6.294   3.750 -2.4414 -0.1262 -1.4172
  138OSM    C6F14997   7.005   6.163   3.930  0.5252  0.3103  0.0761
  138OSM    H6F14998   7.113   6.182   3.945  0.8184 -0.2918 -1.2233
  138OSM    H6G14999   6.996   6.055   3.952  0.8346  0.2693 -0.0028
  138OSM    C7F15000   6.940   6.258   4.024 -0.3309  0.4559 -0.2913
  138OSM    H7F15001   6.829   6.254   4.015 -0.3717 -2.9999  0.3764
  138OSM    H7G15002   6.974   6.361   4.000  0.1203 -0.0724 -2.1321
  138OSM    C8F15003   6.976   6.226   4.172  0.8512 -0.0064  0.1270
  138OSM    H8F15004   7.087   6.225   4.181  1.0044  1.7691 -1.0978
  138OSM    H8G15005   6.928   6.132   4.208  0.4470 -0.0699 -0.5652
  138OSM    C9F15006   6.928   6.346   4.246  0.6934  0.3526  0.0139
  138OSM    H9F15007   6.930   6.441   4.191  2.1308 -0.9607 -2.3722
  138OSM   C10F15008   6.890   6.347   4.370  0.0503  0.6484 -0.2337
  138OSM   H10F15009   6.866   6.450   4.400 -2.8760  1.1034 -3.5495
  138OSM   C11F15010   6.874   6.238   4.472  0.4003 -0.3834 -0.7422
  138OSM   H11F15011   6.867   6.133   4.437 -0.7722 -0.7358  0.4790
  138OSM   H11G15012   6.772   6.263   4.507  0.8490 -0.2829  0.5646
  138OSM   C12F15013   6.976   6.256   4.589  0.1908 -0.1549 -0.2777
  138OSM   H12F15014   6.954   6.356   4.633  1.3665 -0.9108  2.1787
  138OSM   H12G15015   7.078   6.253   4.545  0.7261 -2.6320  0.9550
  138OSM   C13F15016   6.972   6.135   4.682 -0.9657  0.2954  0.0979
  138OSM   H13F15017   7.003   6.052   4.615 -1.2141  0.5379 -0.3220
  138OSM   H13G15018   6.867   6.121   4.714 -0.5036 -0.4260  1.3868
  138OSM   C14F15019   7.063   6.143   4.813 -0.1551  0.7501  1.1734
  138OSM   H14F15020   7.047   6.241   4.862 -0.4950  0.6658  1.2297
  138OSM   H14G15021   7.168   6.141   4.777 -0.7200  3.1558 -0.9439
  138OSM   C15F15022   7.032   6.025   4.902 -0.9880  0.1795  0.7314
  138OSM   H15F15023   7.046   5.934   4.840 -1.6904  0.4837  0.1167
  138OSM   H15G15024   6.930   6.022   4.945 -0.2651 -0.9677  2.5037
  138OSM   C16F15025   7.124   6.022   5.028  0.6861  0.9414 -0.0596
  138OSM   H16F15026   7.105   6.115   5.085  1.5528  0.4472  1.0862
  138OSM   H16G15027   7.232   6.016   5.000  0.5768  0.8381 -0.4698
  138OSM   C17F15028   7.092   5.911   5.121 -1.1628  0.5672 -0.8880
  138OSM   H17F15029   7.090   5.812   5.072  0.7698 -0.0722  0.2159
  138OSM   H17G15030   6.994   5.927   5.170 -0.3127 -0.2210  1.1767
  138OSM   C18F15031   7.194   5.903   5.235 -0.0945  0.4327 -0.2681
  138OSM   H18F15032   7.165   5.827   5.312 -1.9845  0.0877 -1.2503
  138OSM   H18G15033   7.200   6.000   5.288  0.3654 -0.0361  0.5623
  138OSM   H18H15034   7.297   5.873   5.208  0.8530  1.7181  1.7241
  139OSM      N15035   1.454   4.585   2.723  0.6417  0.0569 -0.1373
  139OSM    C1515036   1.357   4.651   2.627 -0.4600  0.4327 -0.1034
  139OSM   H15A15037   1.258   4.652   2.670 -0.0056 -0.6703  1.0278
  139OSM   H15B15038   1.347   4.586   2.541 -0.9228  0.8890 -0.4081
  139OSM   H15C15039   1.391   4.746   2.587  0.4138 -0.5549 -1.8313
  139OSM    C1415040   1.587   4.570   2.646  0.9536 -0.3076  0.1280
  139OSM   H14A15041   1.580   4.495   2.569  0.4594  0.7298 -0.8713
  139OSM   H14B15042   1.663   4.524   2.706  2.5753  1.4119 -0.4930
  139OSM   H14C15043   1.628   4.665   2.613  0.3646 -0.2877 -0.5835
  139OSM    C1315044   1.481   4.676   2.837  0.6587  0.3308 -0.1466
  139OSM   H13A15045   1.386   4.694   2.884  0.0776 -2.1896 -0.2008
  139OSM   H13B15046   1.538   4.766   2.821  1.9090 -0.7035 -1.8462
  139OSM   H13C15047   1.537   4.622   2.912 -1.3156 -0.3261  0.9277
  139OSM    C1215048   1.408   4.447   2.765  0.0221 -0.0114 -0.2696
  139OSM   H12A15049   1.318   4.460   2.824  0.6649 -0.9093  0.9498
  139OSM   H12B15050   1.483   4.412   2.834 -1.1666 -0.1013  1.0276
  139OSM    C1115051   1.399   4.334   2.653  1.7099 -0.3187  0.2069
  139OSM   H11A15052   1.332   4.373   2.574  0.2544 -1.7184  0.6905
  139OSM   H11B15053   1.332   4.252   2.688 -1.5793  0.8668 -2.6807
  139OSM      P15054   1.624   4.211   2.694 -0.5344  0.0327 -0.1152
  139OSM    O1315055   1.720   4.138   2.612 -0.1810  0.3215 -0.7678
  139OSM    O1415056   1.674   4.294   2.804 -0.5506 -0.1784 -0.3773
  139OSM    O1115057   1.513   4.105   2.751 -0.1119 -0.8755  0.4617
  139OSM    O1215058   1.524   4.295   2.602 -0.1156  0.0514 -0.0522
  139OSM    C1S15059   1.556   3.993   2.838 -0.0357  0.1023 -0.1557
  139OSM    H1S15060   1.658   3.956   2.816 -0.4161 -1.4866  0.6286
  139OSM    H1T15061   1.491   3.909   2.807  1.0057 -0.6996 -0.1920
  139OSM     NF15062   1.631   3.917   3.060  0.5567  0.2186  0.4578
  139OSM    HNF15063   1.581   3.832   3.074  1.8364 -1.0127 -1.7667
  139OSM    C2S15064   1.556   4.019   2.991  0.0445  0.7554  0.4537
  139OSM    H2S15065   1.601   4.119   3.013 -2.4573  2.1687 -0.4946
  139OSM    C3S15066   1.403   4.030   3.032 -0.1750 -0.0649 -0.0238
  139OSM    H3S15067   1.366   3.926   3.020 -1.3546  0.1490  1.4950
  139OSM     O315068   1.320   4.118   2.946  0.1549  0.0596  0.5156
  139OSM    HO315069   1.377   4.124   2.868 -0.3091  1.9824  0.2791
  139OSM    C4S15070   1.399   4.065   3.178  0.2286 -0.4265  0.8059
  139OSM    H4S15071   1.439   4.166   3.191 -1.1724  0.4288 -1.1079
  139OSM    C5S15072   1.372   3.991   3.289 -0.4434 -0.0628  0.2227
  139OSM    H5S15073   1.349   3.883   3.284 -1.8975  0.1552  1.6089
  139OSM    C6S15074   1.389   4.033   3.434 -0.3499 -0.5734  0.4010
  139OSM    H6S15075   1.290   4.065   3.474  0.9223 -0.4159  3.7242
  139OSM    H6T15076   1.462   4.113   3.453  0.6585 -1.8194  2.0125
  139OSM    C7S15077   1.450   3.938   3.528 -0.5609  0.0043 -0.7845
  139OSM    H7S15078   1.558   3.941   3.500  0.4338  1.2918  2.6587
  139OSM    H7T15079   1.408   3.835   3.520 -1.9932  0.6461 -1.6773
  139OSM    C8S15080   1.440   3.982   3.670  0.1772  0.2086 -0.9848
  139OSM    H8S15081   1.333   4.001   3.693  0.5708 -0.3554  1.6103
  139OSM    H8T15082   1.487   4.083   3.670 -1.0368  0.8536  1.6370
  139OSM    C9S15083   1.489   3.881   3.769  0.1564  0.3162  0.4569
  139OSM    H9S15084   1.595   3.858   3.744  0.1172  1.2543 -0.6751
  139OSM    H9T15085   1.434   3.785   3.770  0.3922  0.1804  1.5207
  139OSM   C10S15086   1.491   3.923   3.920  0.1945  0.4137  0.1789
  139OSM   H10S15087   1.556   3.847   3.969 -0.7861 -1.5936 -1.4681
  139OSM   H10T15088   1.390   3.912   3.963  1.8174 -1.7187  3.8852
  139OSM   C11S15089   1.543   4.066   3.937  0.6536  0.1384  0.2548
  139OSM   H11S15090   1.471   4.144   3.904 -0.3190 -0.7716  0.1950
  139OSM   H11T15091   1.636   4.070   3.877  1.6638  2.6481  1.8196
  139OSM   C12S15092   1.575   4.099   4.086 -0.4650 -0.2246  0.0993
  139OSM   H12S15093   1.626   4.198   4.094 -0.6667 -0.0844 -0.3370
  139OSM   H12T15094   1.646   4.022   4.123 -0.6576 -0.1515  0.6445
  139OSM   C13S15095   1.448   4.099   4.173  0.7262  0.0597  0.4188
  139OSM   H13S15096   1.413   3.994   4.177  1.7591 -0.2696  1.3128
  139OSM   H13T15097   1.368   4.154   4.118 -1.7644 -2.5214  1.1835
  139OSM   C14S15098   1.462   4.159   4.316  0.1318  0.2586 -0.5908
  139OSM   H14S15099   1.520   4.253   4.318 -0.2921  0.5775 -2.1180
  139OSM   H14T15100   1.518   4.085   4.377  0.9270  1.5301  0.2483
  139OSM   C15S15101   1.319   4.193   4.368  0.1775  0.2019  0.5392
  139OSM   H15S15102   1.264   4.096   4.368 -1.0951  0.9031  0.5898
  139OSM   H15T15103   1.272   4.259   4.292 -0.8510 -1.3442 -0.2144
  139OSM   C16S15104   1.320   4.258   4.501  0.2044 -0.0894 -0.1275
  139OSM   H16S15105   1.410   4.323   4.503  0.3152 -0.2080 -0.7547
  139OSM   H16T15106   1.330   4.190   4.588 -0.3744  1.2319  1.0167
  139OSM   C17S15107   1.200   4.353   4.534  0.4149 -0.3889 -0.1813
  139OSM   H17S15108   1.110   4.292   4.511 -0.0122 -0.1870  0.8821
  139OSM   H17T15109   1.223   4.441   4.471  1.3245  0.0978  0.8062
  139OSM   C18S15110   1.203   4.401   4.677 -0.1507 -0.2877 -0.8691
  139OSM   H18S15111   1.219   4.322   4.754 -1.0907  0.4838  0.1538
  139OSM   H18T15112   1.114   4.463   4.702 -0.5469 -0.9049 -0.7093
  139OSM   H18U15113   1.293   4.465   4.683  0.4743 -1.1022 -1.4282
  139OSM    C1F15114   1.766   3.914   3.051  0.0769 -0.0238 -0.1531
  139OSM     OF15115   1.829   4.012   3.014  0.8401  0.4034  0.1241
  139OSM    C2F15116   1.823   3.782   3.072  0.2991  0.3898  0.5328
  139OSM    H2F15117   1.885   3.760   2.982  1.6801 -1.1252  1.7870
  139OSM    H2G15118   1.742   3.708   3.083 -0.4961  0.7930 -1.9981
  139OSM    C3F15119   1.916   3.785   3.196  0.2155  0.1349  1.1903
  139OSM    H3F15120   1.972   3.880   3.184 -0.0055  0.2784  1.2890
  139OSM    H3G15121   1.977   3.692   3.202 -1.6044 -1.0896  1.6297
  139OSM    C4F15122   1.837   3.796   3.328  0.7657 -0.2589  0.1760
  139OSM    H4F15123   1.768   3.709   3.337 -0.1825  0.2301 -1.8129
  139OSM    H4G15124   1.774   3.888   3.325 -0.0699 -0.8297 -0.2724
  139OSM    C5F15125   1.930   3.817   3.444  0.6167 -0.0537 -0.3693
  139OSM    H5F15126   1.983   3.914   3.440 -1.0718  0.9241 -0.1536
  139OSM    H5G15127   2.007   3.737   3.442  0.7682  0.0753  0.3869
  139OSM    C6F15128   1.854   3.821   3.581 -0.4864  0.1117 -0.5820
  139OSM    H6F15129   1.794   3.728   3.590  0.5468 -0.8585 -2.8903
  139OSM    H6G15130   1.785   3.907   3.593 -1.3851 -0.1245 -3.1900
  139OSM    C7F15131   1.958   3.829   3.695  0.7430 -0.9170 -0.7723
  139OSM    H7F15132   1.999   3.932   3.706  3.0291 -1.7758 -0.6478
  139OSM    H7G15133   2.052   3.776   3.669  1.6434  0.5919 -0.7423
  139OSM    C8F15134   1.906   3.783   3.835  0.4712 -0.2373  0.7146
  139OSM    H8F15135   1.856   3.685   3.822  0.0511  0.0291  0.2562
  139OSM    H8G15136   1.823   3.849   3.871  0.0274  0.3516 -1.2722
  139OSM    C9F15137   2.013   3.786   3.947 -0.1122  0.7396 -0.1582
  139OSM    H9F15138   2.115   3.760   3.916 -0.1096  2.1191 -1.4357
  139OSM   C10F15139   1.995   3.848   4.066 -0.4214 -0.1141 -0.0928
  139OSM   H10F15140   2.076   3.851   4.140  0.6583  0.0493 -1.2557
  139OSM   C11F15141   1.867   3.896   4.131  0.1766 -0.1022 -0.4889
  139OSM   H11F15142   1.788   3.855   4.065 -1.9406  1.6449  0.8242
  139OSM   H11G15143   1.853   4.006   4.132 -1.1062 -0.2498 -0.8823
  139OSM   C12F15144   1.855   3.846   4.278 -0.8695 -0.1777  0.2605
  139OSM   H12F15145   1.935   3.895   4.337 -2.3158 -0.8709  2.9898
  139OSM   H12G15146   1.872   3.737   4.293 -0.1108  0.0124  0.8129
  139OSM   C13F15147   1.725   3.877   4.349 -0.2309  0.4131 -0.1415
  139OSM   H13F15148   1.637   3.825   4.305  0.6884 -0.5629 -0.8722
  139OSM   H13G15149   1.699   3.984   4.341  2.9944  1.3783  0.7879
  139OSM   C14F15150   1.736   3.837   4.499 -0.1469 -0.6280  0.2093
  139OSM   H14F15151   1.743   3.727   4.493  0.3041 -0.5256 -2.2142
  139OSM   H14G15152   1.640   3.865   4.548  0.2264  0.6438  0.2662
  139OSM   C15F15153   1.848   3.890   4.581  0.1005 -1.0803 -0.1977
  139OSM   H15F15154   1.866   3.998   4.567  1.9677 -1.1871  0.9427
  139OSM   H15G15155   1.943   3.849   4.540  0.6061 -1.2293  1.0779
  139OSM   C16F15156   1.847   3.867   4.730 -0.2676  0.6811  0.4702
  139OSM   H16F15157   1.837   3.757   4.746 -0.9256  0.4644 -1.2634
  139OSM   H16G15158   1.761   3.924   4.773  1.1618  2.1461  1.4989
  139OSM   C17F15159   1.974   3.909   4.802  0.2587 -0.3298  0.4918
  139OSM   H17F15160   1.987   4.013   4.765  1.3315 -0.5045  0.3251
  139OSM   H17G15161   2.053   3.841   4.762  1.2729  0.7388  0.6144
  139OSM   C18F15162   1.969   3.905   4.952  0.2852  0.0753 -0.0365
  139OSM   H18F15163   1.974   3.806   5.001 -0.6346  0.8627  1.7142
  139OSM   H18G15164   1.872   3.953   4.974 -0.0551  0.0206 -1.3262
  139OSM   H18H15165   2.044   3.963   5.009  0.4439 -1.3713  1.2914
  140OSM      N15166   0.841   0.079   2.702  0.0248  0.1468  0.1516
  140OSM    C1515167   0.981   0.113   2.730  0.3498  0.3470  0.4291
  140OSM   H15A15168   1.040   0.030   2.765  0.0507 -0.7880 -1.5907
  140OSM   H15B15169   0.979   0.188   2.808  0.6321 -0.5794  1.3395
  140OSM   H15C15170   1.030   0.158   2.645  1.5697 -1.9722 -0.1835
  140OSM    C1415171   0.772   0.203   2.657 -0.3590  0.4056 -0.2340
  140OSM   H14A15172   0.671   0.191   2.621 -0.5931  3.0199 -0.6105
  140OSM   H14B15173   0.832   0.260   2.588  1.0810  1.0085  1.4326
  140OSM   H14C15174   0.753   0.262   2.745 -0.3862  1.7884 -1.1420
  140OSM    C1315175   0.832  -0.017   2.580 -0.0579 -0.5731 -0.2279
  140OSM   H13A15176   0.839   0.045   2.492  1.6935  0.5163  0.6233
  140OSM   H13B15177   0.738  -0.070   2.568 -0.4884 -0.1193  0.9431
  140OSM   H13C15178   0.903  -0.098   2.592 -0.2311 -0.6303  0.5146
  140OSM    C1215179   0.776   0.016   2.824  0.1973  0.4151  0.0573
  140OSM   H12A15180   0.790  -0.090   2.811  2.6722  0.8102 -1.0076
  140OSM   H12B15181   0.669   0.031   2.811 -0.0649 -2.1380 -1.4565
  140OSM    C1115182   0.829   0.060   2.969 -0.4278 -0.6308 -0.3655
  140OSM   H11A15183   0.938   0.037   2.973 -0.1817  0.5939  0.5731
  140OSM   H11B15184   0.772   0.003   3.046 -0.9173 -0.5262 -0.6472
  140OSM      P15185   0.875   0.261   3.117  0.0115  0.0867  0.3644
  140OSM    O1315186   1.020   0.274   3.098  0.9738 -0.1439 -0.3134
  140OSM    O1415187   0.809   0.384   3.162 -0.1173  0.0201  0.0726
  140OSM    O1115188   0.849   0.157   3.238  0.3096 -0.3861 -0.1491
  140OSM    O1215189   0.807   0.204   2.987  0.3982  0.4294 -0.1791
  140OSM    C1S15190   0.959   0.117   3.322  0.1323  0.2395 -0.0382
  140OSM    H1S15191   1.047   0.185   3.325  0.0747  0.3078  0.1012
  140OSM    H1T15192   0.999   0.028   3.269  0.1240 -0.2278  0.7325
  140OSM     NF15193   1.027   0.092   3.566 -0.5717 -0.1718  0.3880
  140OSM    HNF15194   1.060   0.014   3.618 -1.3204 -0.7633 -0.0113
  140OSM    C2S15195   0.922   0.083   3.472  0.7297  0.1621  0.1567
  140OSM    H2S15196   0.852   0.164   3.499  0.5032 -0.5117  1.7139
  140OSM    C3S15197   0.844  -0.053   3.479 -0.0163 -0.0175 -0.4234
  140OSM    H3S15198   0.924  -0.129   3.472 -0.3048 -0.5945  1.6739
  140OSM     O315199   0.750  -0.077   3.377  0.3404 -0.7043 -0.1547
  140OSM    HO315200   0.756   0.004   3.325 -1.4389 -1.3839 -1.5205
  140OSM    C4S15201   0.791  -0.066   3.617  0.4249 -0.0835 -0.0792
  140OSM    H4S15202   0.851  -0.141   3.670 -1.7616 -0.5157  1.9518
  140OSM    C5S15203   0.690   0.002   3.683  0.0641 -0.5604  0.3561
  140OSM    H5S15204   0.647   0.095   3.643 -0.2512 -1.1565 -0.7170
  140OSM    C6S15205   0.643  -0.025   3.822 -0.1757 -0.1080  0.6785
  140OSM    H6S15206   0.655  -0.135   3.835 -1.0306 -0.4370 -1.0733
  140OSM    H6T15207   0.537   0.000   3.841 -0.3258  0.0847 -0.3632
  140OSM    C7S15208   0.714   0.058   3.932 -0.4714  0.2696  0.4185
  140OSM    H7S15209   0.693   0.165   3.911 -0.1885  1.0949  3.7786
  140OSM    H7T15210   0.825   0.054   3.924 -0.3037 -1.6332  2.5791
  140OSM    C8S15211   0.668   0.018   4.069  0.0442  0.4876 -0.3986
  140OSM    H8S15212   0.675  -0.092   4.080 -1.2456  0.5863  2.1728
  140OSM    H8T15213   0.558   0.034   4.068  0.3131  2.9339  0.9373
  140OSM    C9S15214   0.744   0.083   4.183 -0.2723  0.1425 -0.3384
  140OSM    H9S15215   0.728   0.191   4.203  2.6978  0.6503 -0.3314
  140OSM    H9T15216   0.848   0.073   4.145  0.3882  2.9782  0.5481
  140OSM   C10S15217   0.731   0.021   4.314  1.0538  0.8769 -0.3766
  140OSM   H10S15218   0.767  -0.084   4.314 -1.2212  0.0405 -0.0502
  140OSM   H10T15219   0.625   0.037   4.346  1.3348 -0.3923  1.3070
  140OSM   C11S15220   0.809   0.082   4.428 -0.2689 -0.6348 -0.0876
  140OSM   H11S15221   0.759   0.180   4.439 -2.2076 -0.9778 -3.9772
  140OSM   H11T15222   0.918   0.092   4.408  0.2370  0.4824  2.7791
  140OSM   C12S15223   0.796   0.005   4.556  0.0075  0.3765 -0.6193
  140OSM   H12S15224   0.880   0.032   4.623 -0.4445  0.7387 -0.1860
  140OSM   H12T15225   0.804  -0.104   4.536  0.5775  0.0346  1.2533
  140OSM   C13S15226   0.659   0.026   4.630  0.3249  0.3882  0.6910
  140OSM   H13S15227   0.575  -0.017   4.571 -0.3102  2.0971  0.2920
  140OSM   H13T15228   0.634   0.134   4.629  1.0059  0.5485  0.5451
  140OSM   C14S15229   0.654  -0.036   4.771 -0.6000 -0.1516 -0.0897
  140OSM   H14S15230   0.667  -0.147   4.766  0.0166 -0.1736  1.4344
  140OSM   H14T15231   0.551  -0.032   4.812  0.2859 -0.7604  2.4386
  140OSM   C15S15232   0.735   0.036   4.881  0.7750 -0.6756 -1.0115
  140OSM   H15S15233   0.752   0.141   4.849  1.9529 -0.7185 -0.5993
  140OSM   H15T15234   0.841   0.003   4.871  1.2338 -0.1144  1.3119
  140OSM   C16S15235   0.683   0.032   5.027 -0.2656 -0.2790  0.2750
  140OSM   H16S15236   0.679  -0.073   5.064  1.9039  0.1143  1.8617
  140OSM   H16T15237   0.578   0.066   5.040 -0.7183 -1.5033 -0.0339
  140OSM   C17S15238   0.766   0.096   5.141  1.0147 -0.7989 -0.0637
  140OSM   H17S15239   0.864   0.044   5.149  0.5520 -1.6057  0.4645
  140OSM   H17T15240   0.714   0.071   5.236  2.0568  0.2535  0.8184
  140OSM   C18S15241   0.768   0.249   5.127  0.5341 -0.7563 -0.6787
  140OSM   H18S15242   0.843   0.287   5.055  0.2959  0.0293 -0.5255
  140OSM   H18T15243   0.791   0.300   5.223 -0.7003 -1.8980  0.2608
  140OSM   H18U15244   0.673   0.290   5.086  1.5404  0.7412 -1.6281
  140OSM    C1F15245   1.090   0.208   3.583  0.0846  0.1827  0.4858
  140OSM     OF15246   1.059   0.305   3.519 -0.3207  0.0198 -0.5608
  140OSM    C2F15247   1.199   0.216   3.682  0.4754  0.2294  1.0795
  140OSM    H2F15248   1.289   0.249   3.626 -0.1671 -0.3625 -0.3493
  140OSM    H2G15249   1.214   0.116   3.729  1.6289  0.1337  0.5392
  140OSM    C3F15250   1.177   0.321   3.789  0.0638  0.4481  0.1326
  140OSM    H3F15251   1.129   0.410   3.742 -2.8671 -0.6591  0.7572
  140OSM    H3G15252   1.282   0.336   3.822  0.1419  1.4907 -0.5486
  140OSM    C4F15253   1.074   0.282   3.892 -0.0289  0.3492 -0.4496
  140OSM    H4F15254   1.024   0.199   3.839  3.2056 -1.2034 -1.3482
  140OSM    H4G15255   0.998   0.360   3.912  2.1096  2.6376 -0.7275
  140OSM    C5F15256   1.117   0.209   4.013 -0.6248 -0.4712  0.5811
  140OSM    H5F15257   1.198   0.134   4.006 -0.9577 -0.8413  0.6446
  140OSM    H5G15258   1.031   0.145   4.040 -1.2601  0.8123  1.6862
  140OSM    C6F15259   1.138   0.312   4.128  0.0687  0.2574  0.5645
  140OSM    H6F15260   1.071   0.399   4.111 -3.3033 -1.5361  3.3147
  140OSM    H6G15261   1.243   0.346   4.125 -0.2836  1.4511  1.0464
  140OSM    C7F15262   1.113   0.264   4.271 -0.7999  0.0117  0.3880
  140OSM    H7F15263   1.159   0.163   4.282 -0.6410  0.1419  0.9664
  140OSM    H7G15264   1.005   0.247   4.255 -0.4989 -0.4278 -1.4496
  140OSM    C8F15265   1.134   0.360   4.392  0.3406  0.0814  0.5057
  140OSM    H8F15266   1.074   0.452   4.376  0.3057 -0.0479 -0.1093
  140OSM    H8G15267   1.242   0.384   4.391  0.2454  0.5079 -0.7746
  140OSM    C9F15268   1.100   0.299   4.523 -0.7923  0.4358 -0.5885
  140OSM    H9F15269   1.167   0.214   4.545 -0.1086  0.3822 -2.6761
  140OSM   C10F15270   1.022   0.353   4.613 -0.5912  0.2347 -0.2097
  140OSM   H10F15271   1.009   0.303   4.710 -0.1626  1.1482  0.3360
  140OSM   C11F15272   0.943   0.479   4.604  0.0582  0.5455 -0.7032
  140OSM   H11F15273   0.840   0.463   4.642  0.5287  0.8608  0.7364
  140OSM   H11G15274   0.928   0.524   4.503 -1.0410 -0.2952 -0.9278
  140OSM   C12F15275   1.019   0.579   4.702 -0.5003 -0.1511  0.7910
  140OSM   H12F15276   0.984   0.676   4.661  0.1772  1.0710  2.9715
  140OSM   H12G15277   1.129   0.575   4.687 -0.4220  0.1795  1.2806
  140OSM   C13F15278   0.990   0.553   4.849 -0.2248 -0.3316 -0.3409
  140OSM   H13F15279   1.044   0.461   4.880  2.0355  0.3785 -1.8540
  140OSM   H13G15280   0.881   0.545   4.864  0.0059  0.6343  2.4190
  140OSM   C14F15281   1.061   0.657   4.946 -0.1935  0.7729  0.1480
  140OSM   H14F15282   1.046   0.758   4.903  2.5676  0.5297 -1.7095
  140OSM   H14G15283   1.171   0.642   4.941 -0.3160  0.0473 -0.8312
  140OSM   C15F15284   1.017   0.651   5.096  0.6235 -0.2297 -0.3961
  140OSM   H15F15285   1.090   0.586   5.150  0.8512  0.5619  0.2766
  140OSM   H15G15286   0.911   0.625   5.112 -0.1204  2.4914 -0.4455
  140OSM   C16F15287   1.040   0.794   5.152  0.5020  0.6919  0.0185
  140OSM   H16F15288   0.974   0.872   5.108  0.7193  0.1082 -1.3967
  140OSM   H16G15289   1.146   0.816   5.125  0.7321 -2.7153 -2.4670
  140OSM   C17F15290   1.011   0.801   5.305 -0.2410 -0.0292 -0.2719
  140OSM   H17F15291   1.062   0.717   5.356  1.0626 -0.8704 -2.7949
  140OSM   H17G15292   0.901   0.790   5.321 -0.6450  1.4773 -1.7312
  140OSM   C18F15293   1.052   0.936   5.362 -0.5847  0.8773  0.4160
  140OSM   H18F15294   1.037   0.939   5.472  3.1771  4.4407  1.0747
  140OSM   H18G15295   0.986   1.014   5.319 -1.7473  0.3819  1.2401
  140OSM   H18H15296   1.160   0.962   5.356  0.0683 -1.0064  2.4907
  141OSM      N15297   1.516   3.261   2.039  0.5495  0.5213  0.5260
  141OSM    C1515298   1.463   3.400   2.005  0.2844  0.0380  0.6294
  141OSM   H15A15299   1.492   3.435   1.907  0.9675 -0.6286  0.5836
  141OSM   H15B15300   1.493   3.474   2.077 -0.5283  0.2441  0.7629
  141OSM   H15C15301   1.355   3.403   2.002  0.2768 -0.6399 -0.1772
  141OSM    C1415302   1.480   3.169   1.927 -0.4268  0.0251 -0.2847
  141OSM   H14A15303   1.522   3.211   1.837  1.0423 -1.3799 -0.2995
  141OSM   H14B15304   1.372   3.158   1.925 -0.5057  0.2726  1.3205
  141OSM   H14C15305   1.520   3.071   1.948 -1.8437 -0.0554  2.5262
  141OSM    C1315306   1.663   3.285   2.052  0.5335 -0.3363 -0.0794
  141OSM   H13A15307   1.713   3.191   2.074  0.3227 -0.1229  1.4164
  141OSM   H13B15308   1.692   3.359   2.126  3.1240 -0.5309 -0.7938
  141OSM   H13C15309   1.707   3.319   1.959  0.0238  0.5436  0.0001
  141OSM    C1215310   1.457   3.214   2.176 -0.5456 -0.0371 -0.4927
  141OSM   H12A15311   1.507   3.119   2.193  1.0029  0.6795 -0.9080
  141OSM   H12B15312   1.353   3.189   2.165 -0.8962  1.5374 -0.8678
  141OSM    C1115313   1.469   3.310   2.296 -0.3406 -0.6814  1.1261
  141OSM   H11A15314   1.372   3.352   2.329 -0.4408  1.8125 -1.8722
  141OSM   H11B15315   1.534   3.396   2.267 -0.9660 -0.8665 -0.9985
  141OSM      P15316   1.456   3.135   2.484 -0.2987 -0.1864 -0.2180
  141OSM    O1315317   1.349   3.063   2.412  0.2137  0.3430 -0.0792
  141OSM    O1415318   1.555   3.055   2.562  0.0801 -0.0512  1.0338
  141OSM    O1115319   1.392   3.243   2.588  0.3084  0.3825 -0.3388
  141OSM    O1215320   1.539   3.241   2.398  0.0472 -0.9871  0.1974
  141OSM    C1S15321   1.283   3.200   2.673  0.7785 -0.2743 -0.2797
  141OSM    H1S15322   1.328   3.140   2.756  1.0171 -3.3606 -2.4540
  141OSM    H1T15323   1.204   3.143   2.619 -0.9154  1.8940 -0.1853
  141OSM     NF15324   1.129   3.295   2.838 -0.0619 -0.2940  0.1288
  141OSM    HNF15325   1.032   3.292   2.815 -0.8054  0.0468  2.8780
  141OSM    C2S15326   1.226   3.325   2.734 -0.5418  0.9538  0.3239
  141OSM    H2S15327   1.311   3.371   2.788 -0.2556 -0.6329  1.2931
  141OSM    C3S15328   1.166   3.424   2.634 -0.0273  0.6718 -0.1400
  141OSM    H3S15329   1.083   3.365   2.588  0.7106  1.1787 -2.2697
  141OSM     O315330   1.268   3.473   2.539  0.2630  0.4276  0.3964
  141OSM    HO315331   1.348   3.425   2.564 -0.4245 -0.2408  1.3695
  141OSM    C4S15332   1.094   3.537   2.701 -0.0699 -0.1037 -0.2816
  141OSM    H4S15333   0.998   3.497   2.738  0.0732 -0.0508  0.1591
  141OSM    C5S15334   1.133   3.655   2.756 -1.0843  0.0400 -0.2492
  141OSM    H5S15335   1.240   3.680   2.750 -0.7242 -1.2086  0.5427
  141OSM    C6S15336   1.055   3.739   2.852 -0.3216  0.8042  0.4873
  141OSM    H6S15337   0.950   3.703   2.852  0.1141 -0.5786 -0.8282
  141OSM    H6T15338   1.052   3.842   2.811  1.0130  0.5380 -0.3447
  141OSM    C7S15339   1.117   3.709   2.989 -0.1292 -0.0643 -0.1511
  141OSM    H7S15340   1.223   3.742   2.998 -0.2547  0.5939 -0.9812
  141OSM    H7T15341   1.104   3.603   3.022  2.5020  0.3603  2.6531
  141OSM    C8S15342   1.039   3.785   3.091 -0.2941  0.1561  0.6920
  141OSM    H8S15343   0.933   3.761   3.067  0.5787  0.3769 -4.5268
  141OSM    H8T15344   1.051   3.894   3.077  0.1339  0.0142 -0.1101
  141OSM    C9S15345   1.075   3.735   3.235  0.3776  0.4262  0.1867
  141OSM    H9S15346   1.182   3.753   3.258  0.2168  0.5682  0.8537
  141OSM    H9T15347   1.055   3.626   3.237 -1.3395  0.7290  1.1640
  141OSM   C10S15348   0.991   3.819   3.329 -0.6670  0.0377 -0.1332
  141OSM   H10S15349   0.884   3.791   3.333 -0.8240  0.7306  2.4195
  141OSM   H10T15350   0.991   3.927   3.305 -0.2357  0.5489  1.9726
  141OSM   C11S15351   1.052   3.815   3.475  0.2455 -0.7133 -0.3152
  141OSM   H11S15352   1.142   3.879   3.471 -0.1794 -0.1518 -2.0300
  141OSM   H11T15353   1.077   3.712   3.507  2.0997 -0.5531 -1.1579
  141OSM   C12S15354   0.951   3.861   3.579  0.4909 -0.1690 -0.0372
  141OSM   H12S15355   0.867   3.790   3.563  0.3505  0.3288 -1.8028
  141OSM   H12T15356   0.920   3.961   3.543  0.0896 -0.3203 -0.1257
  141OSM   C13S15357   1.004   3.867   3.717  0.0169  0.9381  0.5809
  141OSM   H13S15358   1.099   3.924   3.722 -0.0133  1.2293 -1.4707
  141OSM   H13T15359   1.030   3.761   3.734 -2.6962  0.2224  0.7340
  141OSM   C14S15360   0.896   3.891   3.820  0.3171  0.1631  0.0048
  141OSM   H14S15361   0.821   3.808   3.817 -1.1729  1.4467  0.1613
  141OSM   H14T15362   0.846   3.989   3.809  1.5409  0.6756 -1.2038
  141OSM   C15S15363   0.963   3.897   3.957 -0.3415 -0.1791 -0.6431
  141OSM   H15S15364   0.882   3.905   4.032  0.3676  1.2839 -0.0022
  141OSM   H15T15365   1.035   3.979   3.975  0.6120 -1.1886  0.3216
  141OSM   C16S15366   1.040   3.765   3.989  0.5322  0.9184 -0.1642
  141OSM   H16S15367   1.130   3.764   3.924 -0.0563 -1.9090 -1.0654
  141OSM   H16T15368   0.971   3.680   3.973  1.0475  0.6994 -1.2774
  141OSM   C17S15369   1.097   3.762   4.133  0.1230 -0.1319  0.2571
  141OSM   H17S15370   1.023   3.796   4.208 -0.6809  1.2134 -1.0938
  141OSM   H17T15371   1.167   3.848   4.131 -0.4779  0.3500 -1.1781
  141OSM   C18S15372   1.171   3.637   4.185  0.6564 -0.1408  1.0064
  141OSM   H18S15373   1.168   3.631   4.296 -0.0096 -0.6999  0.9633
  141OSM   H18T15374   1.279   3.648   4.160  0.4915  1.2936  0.8452
  141OSM   H18U15375   1.122   3.548   4.141 -1.8527  1.5750  0.1170
  141OSM    C1F15376   1.157   3.255   2.959 -0.2500  0.8087  0.6605
  141OSM     OF15377   1.272   3.228   2.994 -0.5580  0.6102  0.3363
  141OSM    C2F15378   1.033   3.234   3.042  0.1311  0.4439  0.1529
  141OSM    H2F15379   0.971   3.161   2.987  1.5549  1.1662 -2.6045
  141OSM    H2G15380   0.970   3.325   3.053 -0.5654  0.0896 -0.8056
  141OSM    C3F15381   1.063   3.166   3.174  0.4405  0.7818  0.2481
  141OSM    H3F15382   1.122   3.077   3.146 -0.3906 -0.1085  1.2409
  141OSM    H3G15383   0.973   3.123   3.223 -0.0801 -0.0160 -1.3174
  141OSM    C4F15384   1.150   3.261   3.262  0.2587  0.6931 -0.3354
  141OSM    H4F15385   1.085   3.348   3.286 -0.8085 -0.4203  0.9576
  141OSM    H4G15386   1.255   3.280   3.229  0.7106 -0.8272  0.1598
  141OSM    C5F15387   1.175   3.204   3.407 -0.0732 -0.0700  0.6465
  141OSM    H5F15388   1.272   3.150   3.415 -0.8766 -1.5478  0.7551
  141OSM    H5G15389   1.093   3.133   3.431 -2.4966  3.0678  2.3108
  141OSM    C6F15390   1.173   3.299   3.526  0.3661 -0.0357  0.4334
  141OSM    H6F15391   1.067   3.328   3.537  0.3023  0.6742 -1.6237
  141OSM    H6G15392   1.243   3.385   3.512  1.4009 -0.9550 -0.2301
  141OSM    C7F15393   1.209   3.219   3.657 -0.5993 -0.3908  0.9603
  141OSM    H7F15394   1.315   3.194   3.636 -0.8041 -0.7277  0.2954
  141OSM    H7G15395   1.153   3.123   3.645  1.4011 -1.3804 -1.3633
  141OSM    C8F15396   1.168   3.284   3.793 -0.0973 -0.7742  0.1295
  141OSM    H8F15397   1.060   3.263   3.802  0.0140 -1.0822  0.8384
  141OSM    H8G15398   1.194   3.390   3.815  1.3406 -1.6243  3.1193
  141OSM    C9F15399   1.240   3.203   3.901 -0.3337  0.7313 -0.0870
  141OSM    H9F15400   1.348   3.198   3.877 -0.6321 -0.5467 -1.3180
  141OSM   C10F15401   1.191   3.129   4.004 -0.2013  0.0057 -0.3856
  141OSM   H10F15402   1.267   3.080   4.067 -0.9172 -0.6373 -0.0017
  141OSM   C11F15403   1.051   3.100   4.054 -0.3529  0.2784 -0.9591
  141OSM   H11F15404   1.012   2.999   4.031 -1.5006  0.1570  1.3186
  141OSM   H11G15405   0.977   3.172   4.012 -1.2771  0.3504  0.7275
  141OSM   C12F15406   1.045   3.112   4.215  0.9887  0.2886 -0.5029
  141OSM   H12F15407   1.069   3.217   4.243  0.3493 -0.3563  2.9486
  141OSM   H12G15408   1.114   3.044   4.270 -0.3446  1.2563  2.6375
  141OSM   C13F15409   0.899   3.087   4.270  0.1343 -0.1430 -0.0591
  141OSM   H13F15410   0.887   2.980   4.244  3.9581 -0.4971 -1.0539
  141OSM   H13G15411   0.819   3.154   4.230 -0.9911 -0.4055  1.6668
  141OSM   C14F15412   0.889   3.109   4.421 -0.3323  0.0438 -0.3611
  141OSM   H14F15413   0.942   3.206   4.439  1.3813 -0.2249 -3.3287
  141OSM   H14G15414   0.950   3.033   4.474  0.0514  0.4457 -0.2202
  141OSM   C15F15415   0.747   3.095   4.475  0.2776 -0.2425  0.2390
  141OSM   H15F15416   0.713   2.989   4.467 -0.4526  0.0460 -0.6037
  141OSM   H15G15417   0.686   3.161   4.411 -2.4410  0.0111  2.8757
  141OSM   C16F15418   0.733   3.124   4.627 -0.0115  0.1578 -0.1418
  141OSM   H16F15419   0.767   3.228   4.646  2.5382 -0.6573  0.1536
  141OSM   H16G15420   0.800   3.060   4.689 -0.3688 -0.4765 -0.3970
  141OSM   C17F15421   0.593   3.103   4.676 -0.8992 -0.1548 -0.2376
  141OSM   H17F15422   0.554   3.000   4.659  1.8495 -1.7297  2.2044
  141OSM   H17G15423   0.537   3.183   4.623  3.5241  2.6647 -1.0836
  141OSM   C18F15424   0.596   3.122   4.823  0.1212  0.4627  0.2971
  141OSM   H18F15425   0.654   3.048   4.882  0.1700  0.3995  0.1707
  141OSM   H18G15426   0.490   3.116   4.857 -0.3931  1.1288 -1.1084
  141OSM   H18H15427   0.628   3.227   4.839  1.9253 -0.0776  0.3717
  142OSM      N15428   2.984   5.427   2.338  0.8739  0.6525 -0.8498
  142OSM    C1515429   3.002   5.461   2.486  0.2912 -0.0654  0.1888
  142OSM   H15A15430   3.094   5.513   2.509  0.9294  0.2355 -2.6885
  142OSM   H15B15431   2.991   5.382   2.559 -1.3538  0.3830  0.4560
  142OSM   H15C15432   2.918   5.524   2.511  0.3808  0.1864 -0.1339
  142OSM    C1415433   3.111   5.372   2.294  0.4432  0.1027  0.4422
  142OSM   H14A15434   3.181   5.454   2.306 -0.2726  1.6093 -3.8945
  142OSM   H14B15435   3.104   5.347   2.189 -1.5899  1.9841  0.0518
  142OSM   H14C15436   3.151   5.289   2.350 -0.7264 -2.2579 -2.0130
  142OSM    C1315437   2.877   5.323   2.326  0.3230  0.0396  0.3889
  142OSM   H13A15438   2.783   5.375   2.337  0.9445  1.2621  0.0410
  142OSM   H13B15439   2.895   5.249   2.403  2.2312  1.4940  1.4207
  142OSM   H13C15440   2.885   5.276   2.229 -1.0271  0.6044 -0.0291
  142OSM    C1215441   2.948   5.549   2.255  0.2167  0.2775 -0.2245
  142OSM   H12A15442   2.943   5.520   2.151 -0.9621 -0.0234 -0.0883
  142OSM   H12B15443   3.030   5.620   2.266  0.6719 -0.4145  1.0318
  142OSM    C1115444   2.817   5.614   2.293 -0.5058  0.2271 -0.1270
  142OSM   H11A15445   2.734   5.540   2.289 -0.0207 -0.3071 -0.4225
  142OSM   H11B15446   2.802   5.690   2.213  0.6062  0.1176 -0.4436
  142OSM      P15447   2.688   5.722   2.494 -0.2830 -0.0417  0.2215
  142OSM    O1315448   2.632   5.831   2.408  0.0357  0.4783  0.2140
  142OSM    O1415449   2.606   5.605   2.522 -0.2640 -0.1129  0.1426
  142OSM    O1115450   2.735   5.792   2.636 -0.0432  0.0855 -0.3824
  142OSM    O1215451   2.824   5.678   2.426 -0.0915 -0.1458  0.0785
  142OSM    C1S15452   2.793   5.698   2.735  0.5326 -0.6237  0.5911
  142OSM    H1S15453   2.892   5.661   2.702 -0.7921 -1.9810 -2.3133
  142OSM    H1T15454   2.736   5.603   2.745  0.2032 -0.6436 -1.0885
  142OSM     NF15455   2.877   5.695   2.966 -0.7995  0.3702 -0.4273
  142OSM    HNF15456   2.833   5.647   3.041  0.8894  1.1959  1.1795
  142OSM    C2S15457   2.792   5.764   2.875  0.1812 -0.0903  0.1872
  142OSM    H2S15458   2.834   5.867   2.871 -0.2109  0.2527  2.9028
  142OSM    C3S15459   2.644   5.771   2.932 -0.7891 -0.2284  0.2976
  142OSM    H3S15460   2.603   5.669   2.946 -0.4501 -0.4365 -0.1946
  142OSM     O315461   2.556   5.838   2.839 -0.0139  0.2287  0.0708
  142OSM    HO315462   2.603   5.855   2.758 -1.5325  0.7706 -0.7423
  142OSM    C4S15463   2.649   5.846   3.059  0.0714  0.3312  0.0280
  142OSM    H4S15464   2.693   5.946   3.047  0.2924  0.5616  2.3376
  142OSM    C5S15465   2.613   5.805   3.179  0.3552 -0.0983  0.4635
  142OSM    H5S15466   2.574   5.703   3.196 -1.2417  0.4245  0.0838
  142OSM    C6S15467   2.657   5.863   3.309  0.6480 -1.4820  0.0804
  142OSM    H6S15468   2.581   5.931   3.353  1.1850 -0.8144 -0.0040
  142OSM    H6T15469   2.747   5.926   3.293 -1.0070  0.4524 -2.4661
  142OSM    C7S15470   2.684   5.757   3.415  0.2734  0.2197 -0.4242
  142OSM    H7S15471   2.750   5.678   3.373  0.8060 -0.6229  1.8560
  142OSM    H7T15472   2.602   5.697   3.458  0.1998  1.0151  0.5820
  142OSM    C8S15473   2.739   5.834   3.532  0.5710 -0.0902 -1.2073
  142OSM    H8S15474   2.654   5.888   3.580 -0.1947 -1.2987 -1.1538
  142OSM    H8T15475   2.817   5.901   3.491  1.5762  0.2836  1.1571
  142OSM    C9S15476   2.808   5.740   3.630  0.1274  0.2666 -0.0406
  142OSM    H9S15477   2.892   5.698   3.571  1.3755 -1.1381  2.5503
  142OSM    H9T15478   2.748   5.652   3.663  2.4358 -1.9216 -1.2615
  142OSM   C10S15479   2.862   5.798   3.757 -0.2136  0.0417 -0.4214
  142OSM   H10S15480   2.780   5.860   3.800 -0.9128  0.6760 -2.5197
  142OSM   H10T15481   2.955   5.856   3.738  0.9337 -1.1137  1.4256
  142OSM   C11S15482   2.891   5.695   3.872  0.1819  0.5112 -0.7172
  142OSM   H11S15483   2.959   5.618   3.830  0.2312 -0.8623  1.7153
  142OSM   H11T15484   2.798   5.641   3.896  0.1573  1.3787  1.3492
  142OSM   C12S15485   2.932   5.768   3.997  0.1848  0.1778 -0.1779
  142OSM   H12S15486   2.856   5.842   4.030  1.5435  1.4950  0.1324
  142OSM   H12T15487   3.018   5.835   3.971 -0.8956  1.1932 -1.2725
  142OSM   C13S15488   2.979   5.677   4.107 -0.1257 -0.2563 -0.0452
  142OSM   H13S15489   3.058   5.605   4.076 -0.2342 -1.0653  1.4404
  142OSM   H13T15490   2.894   5.609   4.126 -1.3249  1.1409 -0.2593
  142OSM   C14S15491   3.035   5.739   4.235  0.0102 -0.2600 -0.1827
  142OSM   H14S15492   3.097   5.824   4.198  0.0700 -0.7481 -1.2532
  142OSM   H14T15493   3.090   5.666   4.298 -1.4598 -0.1531  1.2978
  142OSM   C15S15494   2.941   5.785   4.344 -0.3404  0.2876  0.4459
  142OSM   H15S15495   2.869   5.847   4.288 -1.2237 -1.7806 -0.8477
  142OSM   H15T15496   2.993   5.849   4.419 -3.3506  1.5908  1.5751
  142OSM   C16S15497   2.876   5.664   4.410  0.0917 -0.8962  0.5302
  142OSM   H16S15498   2.951   5.623   4.481  0.8857  0.8560  0.7585
  142OSM   H16T15499   2.856   5.595   4.326 -2.1460 -0.7883  0.9067
  142OSM   C17S15500   2.748   5.701   4.483 -0.4947 -0.4441  0.2890
  142OSM   H17S15501   2.687   5.610   4.493  0.1440 -1.0299 -0.8776
  142OSM   H17T15502   2.691   5.776   4.423  0.9472 -0.7671 -1.6030
  142OSM   C18S15503   2.769   5.764   4.615 -0.4297 -0.3748  0.3435
  142OSM   H18S15504   2.674   5.781   4.669  1.2197  1.7135  2.8369
  142OSM   H18T15505   2.816   5.864   4.604 -0.1729 -0.4152  0.9914
  142OSM   H18U15506   2.837   5.706   4.681 -1.0560 -1.0258  0.4298
  142OSM    C1F15507   3.010   5.685   2.950  0.2203 -0.5279 -0.8591
  142OSM     OF15508   3.068   5.734   2.852 -1.1202  0.3192  0.1200
  142OSM    C2F15509   3.075   5.630   3.073 -0.6313 -0.2133  0.0515
  142OSM    H2F15510   3.071   5.520   3.088 -1.5954 -0.0604  1.0325
  142OSM    H2G15511   3.027   5.671   3.164  0.8956  0.4827  0.5663
  142OSM    C3F15512   3.226   5.662   3.080 -1.0837 -0.4611  0.4215
  142OSM    H3F15513   3.238   5.772   3.090 -1.1559 -0.4481  0.3688
  142OSM    H3G15514   3.276   5.619   2.991  1.3295  2.9143 -0.0787
  142OSM    C4F15515   3.293   5.602   3.207  0.7748  0.3466  0.1494
  142OSM    H4F15516   3.400   5.578   3.192  0.9973  0.3711  1.5515
  142OSM    H4G15517   3.243   5.513   3.251  2.6442  0.1432  2.0097
  142OSM    C5F15518   3.293   5.698   3.328 -0.6239  0.7627 -0.1703
  142OSM    H5F15519   3.186   5.716   3.351 -0.9580 -1.4163  0.1697
  142OSM    H5G15520   3.332   5.802   3.314 -0.0026  0.5757  0.1373
  142OSM    C6F15521   3.354   5.626   3.451  0.7376 -0.3534  0.2394
  142OSM    H6F15522   3.463   5.646   3.453  1.3760 -3.3612  1.4357
  142OSM    H6G15523   3.331   5.517   3.445 -0.2528 -0.1223 -0.4044
  142OSM    C7F15524   3.296   5.682   3.584 -0.1431  0.3002  0.3276
  142OSM    H7F15525   3.186   5.664   3.584 -0.5393  2.2187 -1.8128
  142OSM    H7G15526   3.287   5.792   3.574  0.1794  0.2617 -0.4781
  142OSM    C8F15527   3.357   5.640   3.718 -0.2813  0.3288  0.0805
  142OSM    H8F15528   3.464   5.663   3.736 -0.3787 -0.7404  2.4703
  142OSM    H8G15529   3.360   5.529   3.714 -1.7406  0.2948 -3.5146
  142OSM    C9F15530   3.290   5.697   3.838 -0.3070 -0.0002  0.8742
  142OSM    H9F15531   3.188   5.736   3.821 -0.2303 -0.5117 -1.0570
  142OSM   C10F15532   3.334   5.694   3.971  0.4219  0.0862  0.8691
  142OSM   H10F15533   3.272   5.745   4.047  0.9047 -0.5547  1.7027
  142OSM   C11F15534   3.464   5.635   4.015 -0.4598  0.6673  0.1921
  142OSM   H11F15535   3.547   5.704   4.040  1.8399 -1.4086 -1.1857
  142OSM   H11G15536   3.513   5.573   3.936 -1.1449 -1.0582  1.0705
  142OSM   C12F15537   3.456   5.540   4.142 -0.2815 -0.3936  0.1434
  142OSM   H12F15538   3.561   5.509   4.162 -0.4000 -1.4960 -0.8163
  142OSM   H12G15539   3.393   5.452   4.118  2.1134 -1.5738 -2.3075
  142OSM   C13F15540   3.415   5.621   4.269  0.2044 -0.8318 -0.1651
  142OSM   H13F15541   3.313   5.665   4.265 -0.1353 -1.3432  1.9103
  142OSM   H13G15542   3.475   5.715   4.275 -1.9876  0.6184  0.2942
  142OSM   C14F15543   3.436   5.542   4.394  0.2819  0.7092  0.5631
  142OSM   H14F15544   3.541   5.505   4.394  0.5906  1.2820 -2.4920
  142OSM   H14G15545   3.372   5.451   4.387  0.6887  0.4084  0.6935
  142OSM   C15F15546   3.430   5.624   4.523  0.6445  0.2807 -0.0097
  142OSM   H15F15547   3.502   5.708   4.528  0.1373  0.8435 -1.5856
  142OSM   H15G15548   3.462   5.547   4.597 -0.1131 -0.7007 -0.6729
  142OSM   C16F15549   3.279   5.663   4.553 -0.8228  0.1760 -0.1477
  142OSM   H16F15550   3.203   5.587   4.526  0.4501 -0.3437 -2.5732
  142OSM   H16G15551   3.261   5.748   4.485 -1.1871 -0.9421 -1.4910
  142OSM   C17F15552   3.264   5.715   4.697 -0.1185  0.0217  0.0130
  142OSM   H17F15553   3.297   5.628   4.758  2.7334 -1.7338 -3.6141
  142OSM   H17G15554   3.154   5.722   4.708 -0.0303 -0.0930  1.0717
  142OSM   C18F15555   3.322   5.854   4.737  0.5743 -1.0069  0.3562
  142OSM   H18F15556   3.273   5.936   4.680 -1.3916 -0.8449  2.1575
  142OSM   H18G15557   3.427   5.866   4.702 -0.0093  2.6275 -0.5377
  142OSM   H18H15558   3.321   5.873   4.846 -0.5123  1.0035  0.0492
  143OSM      N15559   2.768   4.824   2.892 -0.1633  0.4921 -0.2627
  143OSM    C1515560   2.813   4.719   2.988 -0.7389  0.3053  0.6563
  143OSM   H15A15561   2.898   4.670   2.943  0.7275  1.4468  2.0302
  143OSM   H15B15562   2.734   4.649   3.007  0.9083 -2.2526 -1.3240
  143OSM   H15C15563   2.872   4.762   3.068 -2.9365  2.0230  1.4334
  143OSM    C1415564   2.886   4.918   2.871 -0.7166  0.8539 -0.0066
  143OSM   H14A15565   2.843   4.989   2.801 -0.6170  1.2508  0.3299
  143OSM   H14B15566   2.972   4.876   2.820 -1.0850 -1.1003  0.8894
  143OSM   H14C15567   2.893   4.975   2.962 -1.7294 -0.3704  0.8735
  143OSM    C1315568   2.734   4.753   2.768 -1.2711  0.1978  0.7636
  143OSM   H13A15569   2.665   4.671   2.782 -1.6469  0.4049  0.1438
  143OSM   H13B15570   2.823   4.713   2.722 -1.4014 -1.0179  1.5073
  143OSM   H13C15571   2.697   4.823   2.695 -1.8632 -0.4776  0.4045
  143OSM    C1215572   2.655   4.903   2.947 -0.7986  0.7203  0.2042
  143OSM   H12A15573   2.693   4.962   3.029 -1.3842  0.1580  0.8970
  143OSM   H12B15574   2.584   4.833   2.989  0.9886 -1.0354  0.4050
  143OSM    C1115575   2.599   5.016   2.868 -0.2538 -0.5041 -0.2951
  143OSM   H11A15576   2.501   5.042   2.914 -0.2427 -1.6979  0.4267
  143OSM   H11B15577   2.588   4.985   2.762  2.4377 -2.4986 -0.1015
  143OSM      P15578   2.661   5.274   2.838  0.8522 -0.4604  0.2616
  143OSM    O1315579   2.783   5.326   2.786 -0.0433  0.2702  0.0770
  143OSM    O1415580   2.547   5.278   2.748  0.4500 -0.1191 -0.2558
  143OSM    O1115581   2.625   5.362   2.971  0.3209  0.2628 -0.0536
  143OSM    O1215582   2.686   5.128   2.882 -0.0134  0.0630  0.1476
  143OSM    C1S15583   2.569   5.302   3.087 -0.0732 -0.7808 -0.6748
  143OSM    H1S15584   2.523   5.203   3.065  2.2993 -1.7777 -1.5367
  143OSM    H1T15585   2.488   5.368   3.126 -0.8597 -1.8428 -0.4731
  143OSM     NF15586   2.595   5.230   3.317  0.1168 -0.2298  0.1380
  143OSM    HNF15587   2.546   5.304   3.363  1.0299  1.1845 -1.0856
  143OSM    C2S15588   2.666   5.291   3.207  0.0578  0.2050 -0.2076
  143OSM    H2S15589   2.752   5.227   3.178  1.8676  2.1791  0.5133
  143OSM    C3S15590   2.712   5.433   3.243  0.0476  0.1024  0.1718
  143OSM    H3S15591   2.621   5.489   3.275  0.0016  0.0929  0.0576
  143OSM     O315592   2.768   5.516   3.139  0.4646  1.2466  0.3778
  143OSM    HO315593   2.724   5.475   3.064  1.3714 -0.2293  0.5961
  143OSM    C4S15594   2.801   5.417   3.362 -0.6042 -0.3782  0.2080
  143OSM    H4S15595   2.742   5.419   3.455  0.3254 -4.3703  1.1010
  143OSM    C5S15596   2.937   5.404   3.358  0.3969  0.3259 -0.0615
  143OSM    H5S15597   2.990   5.416   3.263  2.5501 -1.4203  0.8206
  143OSM    C6S15598   3.029   5.384   3.479  0.6220 -0.0823  0.3540
  143OSM    H6S15599   3.101   5.466   3.497 -0.3833  1.3688 -1.8031
  143OSM    H6T15600   3.083   5.287   3.470  0.4345 -0.1844  0.3116
  143OSM    C7S15601   2.956   5.370   3.614 -0.3858  0.5861 -0.2250
  143OSM    H7S15602   2.864   5.308   3.622 -1.1475  1.7854  0.7258
  143OSM    H7T15603   2.907   5.467   3.639  1.7965  1.0617  2.7926
  143OSM    C8S15604   3.052   5.353   3.736 -0.5401  0.2787 -0.1936
  143OSM    H8S15605   3.113   5.446   3.744  2.0146 -1.2158 -1.1360
  143OSM    H8T15606   3.115   5.263   3.721 -3.0878 -1.7753  0.5656
  143OSM    C9S15607   2.977   5.337   3.868  0.3900 -0.6565  0.0251
  143OSM    H9S15608   2.928   5.237   3.863 -0.6844 -0.3559  2.8959
  143OSM    H9T15609   2.891   5.405   3.884  0.6939 -0.3549  0.4037
  143OSM   C10S15610   3.062   5.320   3.998 -0.0859  0.1591  0.1019
  143OSM   H10S15611   3.092   5.424   4.023 -0.0908  0.7426 -2.1577
  143OSM   H10T15612   3.152   5.258   3.977 -0.2287 -0.7074  1.8433
  143OSM   C11S15613   2.987   5.248   4.116 -0.0785  0.0405  1.5348
  143OSM   H11S15614   2.936   5.162   4.069  0.5588  0.2096  0.4973
  143OSM   H11T15615   2.908   5.322   4.145 -2.4915 -0.8667 -2.0689
  143OSM   C12S15616   3.072   5.206   4.236  0.1610 -0.6177  0.4845
  143OSM   H12S15617   3.116   5.298   4.278 -0.5810  0.5349 -1.1240
  143OSM   H12T15618   3.159   5.146   4.203  0.6994  0.6171 -0.4467
  143OSM   C13S15619   2.990   5.141   4.348  0.4187 -0.2381  0.2041
  143OSM   H13S15620   2.937   5.048   4.319  0.7834 -0.4664  0.2716
  143OSM   H13T15621   2.912   5.209   4.391  0.4667 -1.2669  2.0466
  143OSM   C14S15622   3.081   5.104   4.467  0.1814  0.1634  0.8220
  143OSM   H14S15623   3.128   5.196   4.506 -2.5026  1.4792  1.1914
  143OSM   H14T15624   3.164   5.044   4.425  0.4861  1.1372 -0.0035
  143OSM   C15S15625   3.019   5.021   4.583 -0.4960  0.0727 -0.3811
  143OSM   H15S15626   2.995   4.922   4.539  0.4227 -0.0477 -0.6225
  143OSM   H15T15627   2.933   5.070   4.634  0.0025  1.0040 -0.4008
  143OSM   C16S15628   3.130   5.009   4.689 -0.6886 -0.2110  0.1948
  143OSM   H16S15629   3.149   5.113   4.722 -0.7294  0.0861 -0.6930
  143OSM   H16T15630   3.223   4.963   4.648  0.9336  0.7350  2.5872
  143OSM   C17S15631   3.093   4.922   4.809  0.5298  0.0808 -0.1302
  143OSM   H17S15632   3.181   4.931   4.875 -0.2417  0.6400  0.8510
  143OSM   H17T15633   3.072   4.813   4.797  1.7014 -0.3238  1.2496
  143OSM   C18S15634   2.962   4.967   4.886 -0.0881 -0.6178 -0.0524
  143OSM   H18S15635   2.933   4.906   4.974  0.1762  0.7085  0.9888
  143OSM   H18T15636   2.877   4.970   4.813  0.6674 -0.0919 -0.9422
  143OSM   H18U15637   2.981   5.066   4.933  2.3291 -0.2980 -1.5401
  143OSM    C1F15638   2.560   5.100   3.321 -1.1685  0.2276 -0.6165
  143OSM     OF15639   2.610   5.012   3.247 -0.0168 -0.2995  0.0394
  143OSM    C2F15640   2.437   5.059   3.397 -0.1650  0.4417 -0.7228
  143OSM    H2F15641   2.395   4.969   3.346 -2.3359  0.2828  1.1712
  143OSM    H2G15642   2.365   5.143   3.405 -0.5195  0.1887 -1.2016
  143OSM    C3F15643   2.484   5.005   3.536 -0.1570  0.2436 -0.0832
  143OSM    H3F15644   2.530   5.088   3.593  1.6613 -1.2655  0.7818
  143OSM    H3G15645   2.561   4.925   3.527 -0.6071 -0.1543 -0.4977
  143OSM    C4F15646   2.369   4.941   3.608  0.6618 -0.2412 -0.1338
  143OSM    H4F15647   2.328   4.867   3.536 -1.6036 -0.2000  0.9991
  143OSM    H4G15648   2.294   5.018   3.639 -2.0053 -3.2128  1.3762
  143OSM    C5F15649   2.415   4.860   3.728 -0.4237 -0.6394 -0.0520
  143OSM    H5F15650   2.479   4.778   3.690 -1.5742 -0.6179 -2.1923
  143OSM    H5G15651   2.338   4.798   3.780  1.7860 -0.8094  3.2943
  143OSM    C6F15652   2.467   4.949   3.850  0.1032  0.6226  0.6332
  143OSM    H6F15653   2.381   5.016   3.870 -1.1211 -0.7706  0.1548
  143OSM    H6G15654   2.557   5.004   3.814 -0.9091  1.6811 -0.3653
  143OSM    C7F15655   2.506   4.858   3.973  0.2036  0.0685 -0.7055
  143OSM    H7F15656   2.587   4.792   3.938  0.8643 -0.2006  1.2181
  143OSM    H7G15657   2.416   4.802   4.008  1.6239 -0.6480  2.1565
  143OSM    C8F15658   2.551   4.929   4.101 -0.1294 -0.9896  0.0563
  143OSM    H8F15659   2.636   4.997   4.077 -0.4603 -0.5120  0.2144
  143OSM    H8G15660   2.597   4.844   4.154 -0.6097 -0.4110  1.4655
  143OSM    C9F15661   2.443   5.003   4.170  0.5024  0.5981 -0.8100
  143OSM    H9F15662   2.396   5.087   4.116 -4.1549  0.2554  2.1645
  143OSM   C10F15663   2.416   4.988   4.301  0.2840 -0.5221  1.0242
  143OSM   H10F15664   2.320   5.034   4.329  0.0016  0.0195 -0.7358
  143OSM   C11F15665   2.474   4.895   4.401 -1.7256  0.2055 -0.1395
  143OSM   H11F15666   2.540   4.821   4.351 -3.0571 -2.5101  1.8974
  143OSM   H11G15667   2.406   4.835   4.465 -1.4512 -0.6951 -0.6823
  143OSM   C12F15668   2.568   4.984   4.488 -0.2622 -0.3058  0.4727
  143OSM   H12F15669   2.618   5.057   4.421 -0.5559  1.0072  1.6392
  143OSM   H12G15670   2.656   4.924   4.517 -0.6569 -0.6138  1.0573
  143OSM   C13F15671   2.492   5.047   4.610  0.0479 -0.1731  0.4822
  143OSM   H13F15672   2.439   4.968   4.668 -0.4504  0.7946  1.3767
  143OSM   H13G15673   2.416   5.120   4.576 -1.8325 -1.2003  2.2621
  143OSM   C14F15674   2.575   5.124   4.710 -0.1368  0.2254  0.2981
  143OSM   H14F15675   2.632   5.206   4.659  0.1224  0.2657  0.6487
  143OSM   H14G15676   2.653   5.058   4.752 -0.0743  1.0271  1.4943
  143OSM   C15F15677   2.506   5.184   4.835  0.0106  1.0438  0.2079
  143OSM   H15F15678   2.432   5.258   4.798 -0.4976 -0.8304 -2.7762
  143OSM   H15G15679   2.586   5.235   4.893  0.3952  1.0806 -0.3495
  143OSM   C16F15680   2.435   5.078   4.927 -0.3624  0.3231  0.4447
  143OSM   H16F15681   2.340   5.038   4.886 -0.6327 -0.8732  2.1082
  143OSM   H16G15682   2.410   5.122   5.026  2.7471  2.7538  0.3169
  143OSM   C17F15683   2.519   4.949   4.953  0.8714  0.0599  0.3523
  143OSM   H17F15684   2.562   4.895   4.866  0.8839 -1.0509  1.0282
  143OSM   H17G15685   2.435   4.886   4.990 -0.4450  3.0004  2.8162
  143OSM   C18F15686   2.621   4.956   5.059 -0.3745 -0.3437 -0.6179
  143OSM   H18F15687   2.696   5.029   5.020 -0.8561 -0.1201 -1.1437
  143OSM   H18G15688   2.678   4.861   5.062 -2.0898 -1.4584 -1.4233
  143OSM   H18H15689   2.588   4.984   5.161 -0.8464 -1.8705 -0.3275
  144OSM      N15690   2.253   5.566   2.735  0.3898  0.8447  0.4066
  144OSM    C1515691   2.335   5.485   2.826 -0.1807  0.4585 -0.0708
  144OSM   H15A15692   2.347   5.393   2.770  2.2092  1.4178 -1.2938
  144OSM   H15B15693   2.294   5.465   2.924 -1.7944  1.4397 -0.5159
  144OSM   H15C15694   2.431   5.534   2.838  1.1314 -1.4789 -1.8834
  144OSM    C1415695   2.316   5.559   2.602 -0.3686  0.0643 -0.1512
  144OSM   H14A15696   2.277   5.642   2.544  1.5582  1.3645  0.3265
  144OSM   H14B15697   2.300   5.464   2.554 -0.0274  0.1458 -0.4272
  144OSM   H14C15698   2.422   5.578   2.611 -0.0719 -1.2080 -0.8321
  144OSM    C1315699   2.119   5.495   2.720  0.5851  0.0268  0.0401
  144OSM   H13A15700   2.086   5.493   2.617  0.5277 -1.9790  0.0473
  144OSM   H13B15701   2.039   5.535   2.781  0.1806 -0.5801 -0.0863
  144OSM   H13C15702   2.121   5.391   2.750  0.0274  0.0018  0.0074
  144OSM    C1215703   2.250   5.705   2.786  0.2947  0.0290  0.3275
  144OSM   H12A15704   2.205   5.760   2.705  0.0012  0.8687  1.0319
  144OSM   H12B15705   2.350   5.746   2.800 -0.1475  2.4723 -2.5692
  144OSM    C1115706   2.159   5.731   2.913  0.3601  0.2345 -0.3591
  144OSM   H11A15707   2.186   5.829   2.958 -0.9864  0.4449  0.0048
  144OSM   H11B15708   2.178   5.644   2.980  0.3956 -2.4104 -3.5439
  144OSM      P15709   1.948   5.841   2.821  0.4274  0.3080  0.1271
  144OSM    O1315710   2.022   5.908   2.712 -0.7581 -0.3364 -0.2806
  144OSM    O1415711   1.802   5.822   2.798 -0.2016  0.2222  0.6626
  144OSM    O1115712   1.951   5.935   2.947  0.3090  0.6395  0.0467
  144OSM    O1215713   2.024   5.720   2.877  0.2772  0.2741 -0.2598
  144OSM    C1S15714   1.891   5.895   3.074 -0.5120 -0.3239 -0.4667
  144OSM    H1S15715   1.912   5.788   3.094 -2.0767 -0.8464 -1.4838
  144OSM    H1T15716   1.781   5.903   3.070 -0.5667  1.8328  2.1760
  144OSM     NF15717   1.931   5.901   3.318 -0.0663 -0.1606 -0.5395
  144OSM    HNF15718   1.850   5.917   3.373  0.1665  0.2315 -0.3103
  144OSM    C2S15719   1.944   5.979   3.197  0.2548  0.3514 -0.5979
  144OSM    H2S15720   2.052   5.993   3.178  0.5076 -0.3153  0.2898
  144OSM    C3S15721   1.866   6.122   3.200  0.0823  0.1082  0.1498
  144OSM    H3S15722   1.763   6.093   3.231  0.6155 -0.7753  1.2104
  144OSM     O315723   1.866   6.180   3.067  0.3622  0.1075 -0.2165
  144OSM    HO315724   1.906   6.107   3.020  0.9960  1.2856 -1.5889
  144OSM    C4S15725   1.931   6.222   3.300  0.2339 -0.2027 -0.1063
  144OSM    H4S15726   2.040   6.220   3.290  0.2325 -0.7987 -0.0225
  144OSM    C5S15727   1.859   6.290   3.394 -0.3728  0.8329  0.2093
  144OSM    H5S15728   1.758   6.262   3.424  0.7610 -1.8375  1.8714
  144OSM    C6S15729   1.920   6.394   3.487  0.1113 -0.7450  0.3660
  144OSM    H6S15730   1.878   6.493   3.460  2.2966 -0.4511 -2.5141
  144OSM    H6T15731   2.027   6.410   3.463  0.0894  3.6087  2.2916
  144OSM    C7S15732   1.910   6.351   3.640  0.1902  0.1326 -0.0708
  144OSM    H7S15733   1.980   6.267   3.659  0.0762  0.0792  0.1095
  144OSM    H7T15734   1.806   6.328   3.669  1.0652 -1.0864  2.4373
  144OSM    C8S15735   1.954   6.473   3.722  0.1431 -0.1679 -1.1001
  144OSM    H8S15736   1.878   6.546   3.687  0.1870 -0.6909 -2.3021
  144OSM    H8T15737   2.059   6.504   3.703 -0.7983  3.0230 -1.6737
  144OSM    C9S15738   1.938   6.477   3.868  0.0770 -0.7429 -0.2640
  144OSM    H9S15739   1.993   6.395   3.920  1.9292  1.2012  1.0026
  144OSM    H9T15740   1.833   6.455   3.895  0.4592 -3.2995 -0.6340
  144OSM   C10S15741   1.986   6.607   3.947  0.0912 -0.2623  0.2316
  144OSM   H10S15742   1.953   6.700   3.895  0.1518 -1.1764 -1.5056
  144OSM   H10T15743   2.096   6.604   3.932  0.1098 -2.1819  0.4571
  144OSM   C11S15744   1.949   6.608   4.097  0.4812 -0.0682 -0.1928
  144OSM   H11S15745   1.950   6.507   4.141 -0.6291 -0.4757 -1.0502
  144OSM   H11T15746   1.840   6.627   4.104  0.0487 -2.5200  0.3333
  144OSM   C12S15747   2.019   6.709   4.191 -0.2508 -0.0781 -0.3298
  144OSM   H12S15748   1.999   6.806   4.141 -0.9324 -0.0690 -0.0523
  144OSM   H12T15749   2.128   6.687   4.190 -0.0990  0.0378  2.9255
  144OSM   C13S15750   1.978   6.706   4.337  0.3706  0.5002 -0.2279
  144OSM   H13S15751   2.013   6.612   4.383  1.5644  0.7529 -0.5767
  144OSM   H13T15752   1.868   6.723   4.346 -0.1719 -2.3343 -0.6607
  144OSM   C14S15753   2.035   6.828   4.414  0.0207  0.1073  0.6161
  144OSM   H14S15754   2.020   6.925   4.362 -0.0006 -0.2193  0.0007
  144OSM   H14T15755   2.140   6.801   4.437 -0.0800 -1.9569 -1.0157
  144OSM   C15S15756   1.959   6.832   4.550 -0.3739  0.4772 -0.3273
  144OSM   H15S15757   1.972   6.730   4.591  2.4062  0.4958 -0.9787
  144OSM   H15T15758   1.851   6.852   4.532 -0.6668 -1.3155 -0.7876
  144OSM   C16S15759   2.023   6.939   4.636 -0.0874 -0.3874  0.2278
  144OSM   H16S15760   2.022   7.036   4.582  1.5367 -0.4312  0.0783
  144OSM   H16T15761   2.129   6.919   4.663  0.1183 -0.2827 -0.4768
  144OSM   C17S15762   1.955   6.966   4.772  0.3117  0.3142 -0.4433
  144OSM   H17S15763   1.846   6.978   4.757  0.1094 -0.4814  0.3576
  144OSM   H17T15764   1.993   7.063   4.813 -0.3793  2.0008 -3.4646
  144OSM   C18S15765   1.980   6.845   4.871 -0.3567 -0.3861 -0.4521
  144OSM   H18S15766   1.956   6.872   4.976  0.1231  1.0928 -0.6983
  144OSM   H18T15767   2.089   6.826   4.874  0.2632  2.5437 -1.4784
  144OSM   H18U15768   1.915   6.762   4.834 -1.6814  0.2847  0.2955
  144OSM    C1F15769   2.018   5.800   3.350 -0.5561 -0.1784  0.4726
  144OSM     OF15770   2.119   5.783   3.282  0.8392  0.3361  0.0129
  144OSM    C2F15771   1.975   5.715   3.460  0.0308  0.2414  0.3663
  144OSM    H2F15772   1.864   5.718   3.461  0.0040  1.3312 -1.3837
  144OSM    H2G15773   2.015   5.764   3.552  1.9210 -0.3504 -0.0939
  144OSM    C3F15774   2.025   5.572   3.439  0.2167 -0.0561 -0.6766
  144OSM    H3F15775   2.132   5.577   3.409  0.9180 -1.3185  1.4041
  144OSM    H3G15776   1.965   5.523   3.360 -0.6094 -0.6495  0.3008
  144OSM    C4F15777   2.022   5.490   3.572  0.2542 -0.0695 -0.0704
  144OSM    H4F15778   2.077   5.544   3.651 -0.3453 -0.8653  0.9127
  144OSM    H4G15779   2.075   5.393   3.559 -0.2120 -0.2980 -0.3059
  144OSM    C5F15780   1.873   5.466   3.615 -0.3891  0.2149 -0.7683
  144OSM    H5F15781   1.829   5.380   3.559 -1.9220 -0.5766  1.4769
  144OSM    H5G15782   1.815   5.558   3.592 -0.1096  1.0920  1.7732
  144OSM    C6F15783   1.877   5.440   3.770  0.0382 -0.5072 -0.0720
  144OSM    H6F15784   1.961   5.501   3.810 -0.8827  2.4014 -2.2216
  144OSM    H6G15785   1.899   5.333   3.787  0.1042 -0.2642  1.4880
  144OSM    C7F15786   1.739   5.464   3.835 -0.9722  0.1104 -0.0623
  144OSM    H7F15787   1.681   5.380   3.791  1.0331 -0.8778 -0.9507
  144OSM    H7G15788   1.699   5.561   3.799  2.1044  1.2542 -0.7623
  144OSM    C8F15789   1.748   5.458   3.992  0.1501 -0.3956  0.9733
  144OSM    H8F15790   1.835   5.521   4.018  2.3549 -3.1523  0.7793
  144OSM    H8G15791   1.791   5.361   4.025 -0.1813 -0.9492 -0.1647
  144OSM    C9F15792   1.625   5.502   4.068 -0.0478  0.5750 -0.6968
  144OSM    H9F15793   1.546   5.546   4.005 -2.4284 -1.8666  0.3879
  144OSM   C10F15794   1.607   5.469   4.198 -0.3016  0.3353 -0.2914
  144OSM   H10F15795   1.514   5.496   4.250  0.8956  1.1992  1.5284
  144OSM   C11F15796   1.710   5.397   4.289 -0.4514 -0.3273 -0.1344
  144OSM   H11F15797   1.731   5.456   4.380 -1.1841 -1.0260  0.5092
  144OSM   H11G15798   1.806   5.369   4.240  0.7779  0.1943  1.8698
  144OSM   C12F15799   1.645   5.266   4.341 -0.0095 -0.0943  0.2645
  144OSM   H12F15800   1.698   5.178   4.298 -1.2024 -0.1302 -1.2343
  144OSM   H12G15801   1.537   5.263   4.314  0.0595 -0.3166  0.0118
  144OSM   C13F15802   1.663   5.246   4.493 -0.1213 -0.0720 -0.1180
  144OSM   H13F15803   1.620   5.338   4.539 -0.0060  1.5259 -2.9467
  144OSM   H13G15804   1.771   5.241   4.519 -0.1081 -0.7374 -0.2992
  144OSM   C14F15805   1.597   5.124   4.557 -0.7729  0.4403 -0.7393
  144OSM   H14F15806   1.644   5.030   4.521 -1.1397 -1.3901  3.0723
  144OSM   H14G15807   1.492   5.128   4.519 -0.9661 -0.3559 -0.3124
  144OSM   C15F15808   1.615   5.115   4.711 -0.3883 -0.2262 -0.2633
  144OSM   H15F15809   1.577   5.212   4.749  2.7451  0.6156  1.0508
  144OSM   H15G15810   1.715   5.104   4.758 -0.4728  0.5626  0.1199
  144OSM   C16F15811   1.530   5.005   4.786 -0.4036 -0.2428 -0.4314
  144OSM   H16F15812   1.564   5.009   4.891 -0.2506 -0.1613 -0.4823
  144OSM   H16G15813   1.553   4.904   4.746 -0.0579 -0.2367 -0.2487
  144OSM   C17F15814   1.377   5.025   4.777 -0.2541  0.0858 -0.0362
  144OSM   H17F15815   1.346   5.048   4.673 -3.5535  1.8112  1.1764
  144OSM   H17G15816   1.352   5.128   4.811  0.5097  0.6714 -1.1613
  144OSM   C18F15817   1.291   4.916   4.838 -0.1807  0.4705  0.1436
  144OSM   H18F15818   1.294   4.816   4.788  2.9695  0.5888 -0.0984
  144OSM   H18G15819   1.185   4.950   4.841 -0.2745  1.2589 -4.3041
  144OSM   H18H15820   1.319   4.896   4.943 -0.9476  1.3764  0.5308
  145SAPE     N15821   4.902   1.782   7.100 -0.0476 -0.3842  0.1764
  145SAPE   HN115822   4.992   1.829   7.081 -0.2881 -0.6233 -1.6903
  145SAPE   HN215823   4.843   1.818   7.022 -0.3566 -0.5612  0.3255
  145SAPE   HN315824   4.880   1.819   7.195  3.6320  1.2927  0.5284
  145SAPE   C1215825   4.902   1.634   7.098  0.5314  0.0833 -0.6472
  145SAPE  H12A15826   4.800   1.600   7.127  0.6995  0.7650  0.8501
  145SAPE  H12B15827   4.973   1.601   7.177 -0.1436  1.6021  0.6574
  145SAPE   C1115828   4.938   1.580   6.960 -0.9142  0.1324  0.1432
  145SAPE  H11A15829   4.940   1.469   6.962  0.0008  0.1056 -1.3620
  145SAPE  H11B15830   5.039   1.615   6.932 -1.1019  1.5182  1.1018
  145SAPE     P15831   4.741   1.531   6.801  0.3156  0.0731  0.0311
  145SAPE   O1315832   4.701   1.447   6.914 -0.1467 -0.3704  0.6737
  145SAPE   O1415833   4.638   1.614   6.740 -0.0945 -0.2879  0.2376
  145SAPE   O1215834   4.852   1.630   6.861 -0.4088  0.3360 -0.1221
  145SAPE   O1115835   4.811   1.443   6.691  0.2747 -0.1653 -0.0864
  145SAPE    C115836   4.929   1.497   6.623 -0.5700 -0.2162 -0.5886
  145SAPE    HA15837   4.935   1.608   6.619  0.1948 -0.3030 -3.2903
  145SAPE    HB15838   5.022   1.459   6.670  0.0893  2.4898  0.4467
  145SAPE    C215839   4.929   1.444   6.480  0.2847 -0.4903  0.3591
  145SAPE    HS15840   4.993   1.505   6.414 -2.8153  2.5363 -0.1740
  145SAPE   O2115841   4.798   1.448   6.421 -0.6841  0.4514  0.0983
  145SAPE   C2115842   4.740   1.569   6.422  0.4616 -0.4678  0.0688
  145SAPE   O2215843   4.791   1.681   6.430 -0.8745 -0.1803 -0.1946
  145SAPE   C2215844   4.589   1.550   6.407  0.3372  0.2714  0.0944
  145SAPE   H2R15845   4.547   1.509   6.501 -1.0043 -0.4277 -0.7764
  145SAPE   H2S15846   4.548   1.653   6.396  0.4799  0.2296 -0.9179
  145SAPE    C315847   4.985   1.303   6.466 -0.2740  0.9882  0.2123
  145SAPE    HX15848   4.927   1.242   6.539 -0.0566 -0.3702 -0.7046
  145SAPE    HY15849   5.093   1.314   6.490  0.5460 -1.1041 -2.0350
  145SAPE   O3115850   4.962   1.241   6.337 -0.2414 -0.2735 -0.1433
  145SAPE   C3115851   5.027   1.297   6.224  0.1080  0.0601 -0.4349
  145SAPE   O3215852   5.084   1.403   6.223  0.3489 -0.4163  0.2276
  145SAPE   C3215853   4.995   1.204   6.100 -0.4120 -0.4998  0.9184
  145SAPE   H2X15854   4.894   1.159   6.091 -0.8906  0.7565 -0.4667
  145SAPE   H2Y15855   5.069   1.123   6.115  2.8907  1.7580 -1.6806
  145SAPE   C2315856   4.537   1.462   6.291 -0.4813  0.6746  0.0745
  145SAPE   H3R15857   4.440   1.412   6.310 -0.1117 -0.7115 -1.4342
  145SAPE   H3S15858   4.618   1.389   6.270  1.0686  2.0378  1.0124
  145SAPE   C2415859   4.496   1.548   6.176  0.1613  0.2449  0.0642
  145SAPE   H4R15860   4.414   1.612   6.215  0.0266  0.5528 -0.7105
  145SAPE   H4S15861   4.452   1.471   6.109  0.7305 -0.1841  0.1808
  145SAPE   C2515862   4.603   1.629   6.110 -0.7625 -0.4153 -0.0308
  145SAPE   H5R15863   4.649   1.710   6.168 -1.3283  0.9771 -1.4754
  145SAPE   C2615864   4.663   1.594   5.995 -0.1919  0.5663 -0.3061
  145SAPE   H6R15865   4.744   1.660   5.959  1.2296 -1.2922 -0.6223
  145SAPE   C2715866   4.628   1.475   5.905 -0.6200 -0.6497  0.2521
  145SAPE   H7R15867   4.620   1.388   5.973 -0.2071 -1.6947 -1.0079
  145SAPE   H7S15868   4.721   1.457   5.846 -0.7302  0.7531 -0.3941
  145SAPE   C2815869   4.502   1.482   5.816  0.6131  0.0948 -1.0971
  145SAPE   H8R15870   4.418   1.440   5.873  0.8759 -0.7697 -1.3372
  145SAPE   C2915871   4.492   1.509   5.681  0.3777 -0.0686 -0.2199
  145SAPE   H9R15872   4.399   1.511   5.622 -0.1192 -0.5741  0.5277
  145SAPE  C21015873   4.603   1.561   5.590  0.3819 -0.1346 -0.2477
  145SAPE  H10R15874   4.624   1.486   5.511 -0.3179 -0.3787 -0.2068
  145SAPE  H10S15875   4.697   1.562   5.650  2.3540  0.2150 -3.1103
  145SAPE  C21115876   4.584   1.701   5.530 -0.0541  0.1286  0.4598
  145SAPE  H11R15877   4.524   1.770   5.592 -1.1557  0.2991 -0.7523
  145SAPE  C21215878   4.612   1.731   5.402  0.3316  0.5628 -0.3303
  145SAPE  H12R15879   4.591   1.832   5.364 -0.0592 -0.0403 -1.7848
  145SAPE  C21315880   4.661   1.646   5.292 -0.4157  0.7783 -0.3403
  145SAPE  H13R15881   4.576   1.612   5.230 -0.0430  0.6437 -0.7812
  145SAPE  H13S15882   4.709   1.549   5.319  0.0666  0.3580 -2.5316
  145SAPE  C21415883   4.754   1.716   5.194 -0.7847  0.5701 -0.0390
  145SAPE  H14R15884   4.860   1.686   5.194 -0.8767  0.2464  0.0211
  145SAPE  C21515885   4.725   1.811   5.096 -0.6902 -0.0101 -0.0362
  145SAPE  H15R15886   4.804   1.858   5.036  1.6461 -0.5104  2.4493
  145SAPE  C21615887   4.594   1.880   5.072  0.2678  0.0053  0.6789
  145SAPE  H16R15888   4.600   1.989   5.053 -0.5904 -0.1112 -0.3414
  145SAPE  H16S15889   4.531   1.874   5.164  0.3615 -0.9624  0.6907
  145SAPE  C21715890   4.508   1.809   4.971 -0.1404  0.2494 -0.2843
  145SAPE  H17R15891   4.421   1.872   4.944  1.7285  2.0454 -2.5599
  145SAPE  H17S15892   4.477   1.705   4.997 -2.1623  0.5052 -1.4629
  145SAPE  C21815893   4.578   1.810   4.832 -0.0950 -0.6463  0.8746
  145SAPE  H18R15894   4.674   1.753   4.839  1.8091  2.1450 -0.5401
  145SAPE  H18S15895   4.615   1.911   4.804  0.4558 -1.3760 -1.1871
  145SAPE  C21915896   4.495   1.769   4.709  0.1557  0.4136 -0.4027
  145SAPE  H19R15897   4.455   1.672   4.744  0.2917  0.3386 -0.4539
  145SAPE  H19S15898   4.558   1.739   4.622 -2.1113  0.2875 -2.0763
  145SAPE  C22015899   4.381   1.861   4.665  0.0495  0.4628 -0.3504
  145SAPE  H20R15900   4.318   1.814   4.587 -0.3451  0.6181 -0.1237
  145SAPE  H20S15901   4.419   1.958   4.626  0.7278  0.1978 -0.3756
  145SAPE  H20T15902   4.314   1.874   4.753  0.4139  0.1002 -0.0147
  145SAPE   C3315903   5.019   1.275   5.966  0.3084  0.0863 -0.1986
  145SAPE   H3X15904   5.129   1.290   5.964  0.2771  0.4686  0.6147
  145SAPE   H3Y15905   4.968   1.374   5.966  0.5673  0.2689  2.0023
  145SAPE   C3415906   4.985   1.195   5.843 -0.4483  0.9405  0.2374
  145SAPE   H4X15907   4.880   1.158   5.848  0.4128 -1.6265  0.6729
  145SAPE   H4Y15908   5.040   1.099   5.846 -1.1611  0.4788 -0.8651
  145SAPE   C3515909   5.028   1.263   5.713 -0.5603 -0.8069  0.7156
  145SAPE   H5X15910   5.127   1.313   5.720 -0.8894  0.4511 -2.4409
  145SAPE   H5Y15911   4.944   1.333   5.696 -0.1082 -0.2630  0.6994
  145SAPE   C3615912   5.034   1.152   5.607  0.8073  0.7896 -0.3650
  145SAPE   H6X15913   4.928   1.117   5.609  1.6134 -1.9017 -1.0206
  145SAPE   H6Y15914   5.101   1.065   5.621 -0.3773 -0.2806 -1.0579
  145SAPE   C3715915   5.063   1.200   5.464  0.5714  0.6433  0.3620
  145SAPE   H7X15916   5.171   1.223   5.452  0.1209  3.9676  1.4972
  145SAPE   H7Y15917   5.027   1.305   5.458  1.6107  1.0101  0.2538
  145SAPE   C3815918   5.003   1.138   5.339 -0.2567 -0.2820 -0.1752
  145SAPE   H8X15919   4.892   1.148   5.342 -0.1268  1.3868  0.2269
  145SAPE   H8Y15920   5.037   1.033   5.336  0.7811 -0.0292  1.4995
  145SAPE   C3915921   5.019   1.208   5.204 -0.0465  0.3370  0.1528
  145SAPE   H9X15922   4.981   1.148   5.118  1.9973 -0.8544  0.0140
  145SAPE   H9Y15923   5.127   1.211   5.178 -0.0578  2.1463  0.1939
  145SAPE  C31015924   4.961   1.346   5.191  0.9134 -0.2578  1.0449
  145SAPE  H10X15925   5.009   1.402   5.274 -0.6295  1.5701  0.7777
  145SAPE  H10Y15926   4.854   1.340   5.223  1.1245 -3.0081  1.4823
  145SAPE  C31115927   4.986   1.418   5.063 -0.3905  0.6493  0.0413
  145SAPE  H11X15928   5.093   1.420   5.034 -0.4568  0.6429 -0.2023
  145SAPE  H11Y15929   4.962   1.527   5.061  0.8870  0.9592 -2.8953
  145SAPE  C31215930   4.914   1.359   4.939 -0.4207  0.0901 -0.3025
  145SAPE  H12X15931   4.804   1.366   4.952 -0.7306 -2.3284 -1.1118
  145SAPE  H12Y15932   4.939   1.251   4.934 -0.7554 -0.0478  0.7816
  145SAPE  C31315933   4.962   1.419   4.811 -0.2238  0.2300  0.6110
  145SAPE  H13X15934   4.933   1.371   4.715  1.7456 -1.8600  0.9722
  145SAPE  H13Y15935   5.073   1.414   4.810 -0.1602  1.2693  0.9745
  145SAPE  C31415936   4.915   1.564   4.801  0.3607 -0.5050  0.3377
  145SAPE  H14X15937   4.935   1.629   4.889 -0.0845  1.4158 -0.9279
  145SAPE  H14Y15938   4.804   1.559   4.810  0.2371  0.1429 -0.7454
  145SAPE  C31515939   4.957   1.636   4.672 -0.2880  0.6344  0.5282
  145SAPE  H15X15940   4.929   1.744   4.669 -0.2779  0.6352  0.4635
  145SAPE  H15Y15941   4.912   1.585   4.584  0.0564  2.1655 -0.5866
  145SAPE  C31615942   5.109   1.643   4.653  0.4405 -0.0962 -0.8645
  145SAPE  H16X15943   5.136   1.537   4.631 -0.5133 -0.1990 -1.6456
  145SAPE  H16Y15944   5.155   1.650   4.754 -1.5493 -2.6742  0.3579
  145SAPE  C31715945   5.175   1.744   4.567  0.0780 -0.3142  0.3527
  145SAPE  H17X15946   5.281   1.709   4.570 -0.2374 -1.2148  1.8304
  145SAPE  H17Y15947   5.181   1.843   4.616  0.2555 -1.0624  1.9165
  145SAPE  C31815948   5.127   1.770   4.422 -0.4233  0.0168 -0.0261
  145SAPE  H18X15949   5.019   1.795   4.415  0.0029  1.7901 -0.7020
  145SAPE  H18Y15950   5.157   1.683   4.360  3.6154 -0.5228  2.2842
  145SAPE  H18Z15951   5.182   1.860   4.388  0.0033 -0.4859 -0.7002
  146SAPE     N15952   2.377   2.328   7.034 -0.2585 -0.4427  0.8179
  146SAPE   HN115953   2.426   2.419   7.024 -1.2133  0.0599  0.6454
  146SAPE   HN215954   2.318   2.332   7.119 -1.4698  0.3174 -0.0330
  146SAPE   HN315955   2.450   2.253   7.040  0.9071  0.4278 -1.3544
  146SAPE   C1215956   2.282   2.302   6.927  0.2059 -0.2122 -0.3667
  146SAPE  H12A15957   2.223   2.215   6.963  1.5898 -0.3394  1.7562
  146SAPE  H12B15958   2.342   2.299   6.834  0.5923  1.0906 -0.1799
  146SAPE   C1115959   2.182   2.426   6.932  0.2702 -0.5611 -0.1009
  146SAPE  H11A15960   2.140   2.420   7.035  0.5621 -2.9267 -0.0601
  146SAPE  H11B15961   2.100   2.416   6.858  1.0186 -1.0576 -0.8706
  146SAPE     P15962   2.289   2.592   6.769  0.1992  0.2819 -0.1741
  146SAPE   O1315963   2.303   2.738   6.755 -0.4968  0.0268 -0.2730
  146SAPE   O1415964   2.411   2.510   6.734  0.2329 -0.5416 -0.2378
  146SAPE   O1215965   2.250   2.552   6.917 -0.1919 -0.3322  0.2374
  146SAPE   O1115966   2.153   2.556   6.688  0.1632  0.0785 -0.0619
  146SAPE    C115967   2.159   2.434   6.609  0.2604  0.4668  0.8815
  146SAPE    HA15968   2.199   2.347   6.665 -0.8647  0.5295  1.8296
  146SAPE    HB15969   2.058   2.393   6.587  0.9423 -0.4251 -0.7776
  146SAPE    C215970   2.232   2.455   6.471  0.6242  0.1644 -0.3797
  146SAPE    HS15971   2.342   2.467   6.488  1.3394 -1.9462 -2.9261
  146SAPE   O2115972   2.167   2.576   6.420  0.2270 -0.6307 -0.2622
  146SAPE   C2115973   2.235   2.634   6.319  0.8279 -0.0257  0.6133
  146SAPE   O2215974   2.354   2.617   6.304 -0.0754 -0.0901 -0.2292
  146SAPE   C2215975   2.145   2.720   6.227 -0.2315 -0.3334 -0.3103
  146SAPE   H2R15976   2.166   2.829   6.238 -1.4017  0.0091 -1.2461
  146SAPE   H2S15977   2.174   2.688   6.124 -0.3991  0.5715 -0.6508
  146SAPE    C315978   2.220   2.328   6.381 -0.1741  0.2363 -0.0769
  146SAPE    HX15979   2.203   2.239   6.445 -0.4959 -1.1648 -2.0236
  146SAPE    HY15980   2.322   2.302   6.343 -1.7647 -1.7357 -3.4219
  146SAPE   O3115981   2.136   2.359   6.274 -0.1655  0.8425  0.3408
  146SAPE   C3115982   2.044   2.266   6.237  0.6222 -0.2807  0.9285
  146SAPE   O3215983   2.029   2.155   6.281 -0.3637  0.1630  0.6992
  146SAPE   C3215984   1.963   2.308   6.116 -0.2835  0.5625 -0.0762
  146SAPE   H2X15985   1.923   2.410   6.136  0.7060  0.7526  1.0767
  146SAPE   H2Y15986   1.888   2.232   6.087  0.9698  0.0855 -2.2710
  146SAPE   C2315987   1.993   2.710   6.256 -0.7861  0.1341 -0.1088
  146SAPE   H3R15988   1.974   2.715   6.365 -4.0479 -1.0861 -0.5066
  146SAPE   H3S15989   1.959   2.604   6.245  2.2491 -0.9327 -0.1686
  146SAPE   C2415990   1.918   2.804   6.168 -0.1586 -0.9061  0.5062
  146SAPE   H4R15991   1.969   2.902   6.153 -2.4220  0.2545 -0.1055
  146SAPE   H4S15992   1.831   2.841   6.225 -0.9206 -0.9932 -0.5744
  146SAPE   C2515993   1.874   2.735   6.041  0.7140  0.3486  0.0448
  146SAPE   H5R15994   1.837   2.633   6.053  2.1395 -0.2985 -0.7912
  146SAPE   C2615995   1.879   2.790   5.919  1.0210 -0.6109  0.3639
  146SAPE   H6R15996   1.855   2.719   5.838  1.3530  1.2084 -1.3924
  146SAPE   C2715997   1.924   2.927   5.873  0.1602  0.2751  0.2338
  146SAPE   H7R15998   1.894   2.999   5.953  0.7639  0.6473  0.1266
  146SAPE   H7S15999   1.862   2.948   5.784 -2.7036  0.4116  2.1274
  146SAPE   C2816000   2.071   2.925   5.845 -0.1303  0.1014 -0.6758
  146SAPE   H8R16001   2.140   2.966   5.920  1.1751 -4.1290  0.7354
  146SAPE   C2916002   2.127   2.882   5.729  0.6961 -0.4843  0.6388
  146SAPE   H9R16003   2.236   2.887   5.715  0.6012 -0.6792 -0.2015
  146SAPE  C21016004   2.050   2.834   5.611  0.4418 -0.0109 -0.2595
  146SAPE  H10R16005   1.962   2.776   5.644  1.4876 -1.3315  0.2996
  146SAPE  H10S16006   2.102   2.750   5.560  0.1883  0.7241 -1.7908
  146SAPE  C21116007   1.999   2.949   5.513 -0.3306  0.5769  0.1712
  146SAPE  H11R16008   1.916   3.010   5.552 -1.0266  0.7340 -1.4551
  146SAPE  C21216009   2.044   2.960   5.379  0.3564 -0.0803 -0.4628
  146SAPE  H12R16010   2.012   3.035   5.306  0.8380 -1.5260 -2.2469
  146SAPE  C21316011   2.164   2.884   5.318  0.0828 -0.1692 -0.0119
  146SAPE  H13R16012   2.148   2.779   5.350 -4.7561  0.8045  1.4873
  146SAPE  H13S16013   2.255   2.926   5.367  0.0690 -1.0612  0.8179
  146SAPE  C21416014   2.180   2.883   5.172 -0.8533  0.0814  0.4735
  146SAPE  H14R16015   2.163   2.785   5.125  1.0364  0.0134 -0.1462
  146SAPE  C21516016   2.242   2.982   5.097  1.2321 -0.4349  0.2132
  146SAPE  H15R16017   2.268   2.969   4.990 -0.8827  1.8902 -0.6798
  146SAPE  C21616018   2.272   3.118   5.152 -0.4203  0.5128  0.2343
  146SAPE  H16R16019   2.378   3.122   5.188 -0.3377 -1.3387  0.2731
  146SAPE  H16S16020   2.210   3.126   5.244  0.6933  4.7748  0.8356
  146SAPE  C21716021   2.231   3.240   5.056 -0.7678  0.0574  0.4562
  146SAPE  H17R16022   2.238   3.331   5.120  0.1713  0.0661  0.3583
  146SAPE  H17S16023   2.125   3.240   5.024 -0.6064  1.6960 -0.2048
  146SAPE  C21816024   2.338   3.256   4.949  0.7202  0.0014 -0.7089
  146SAPE  H18R16025   2.330   3.186   4.862  0.0402  1.0728 -1.5415
  146SAPE  H18S16026   2.433   3.229   5.000  1.0435 -1.9008 -2.1894
  146SAPE  C21916027   2.349   3.402   4.906 -0.0021 -0.5421 -0.7755
  146SAPE  H19R16028   2.426   3.405   4.826  0.0086 -0.7157 -0.7721
  146SAPE  H19S16029   2.390   3.461   4.990 -0.8271  2.0823 -2.1186
  146SAPE  C22016030   2.221   3.469   4.851 -0.1569  0.0837 -0.9023
  146SAPE  H20R16031   2.134   3.476   4.920 -0.4366  3.1404 -1.4192
  146SAPE  H20S16032   2.195   3.407   4.762  3.0361 -1.0266 -1.1716
  146SAPE  H20T16033   2.244   3.573   4.820 -2.0140  0.3505 -1.5508
  146SAPE   C3316034   2.047   2.328   5.990  0.1079 -0.2229 -0.4299
  146SAPE   H3X16035   2.126   2.250   5.980  0.1943 -0.1116 -0.6158
  146SAPE   H3Y16036   2.091   2.430   6.004 -2.5545  1.0941 -1.1040
  146SAPE   C3416037   1.974   2.345   5.856 -0.7292 -0.0273  0.2680
  146SAPE   H4X16038   1.906   2.432   5.864  0.2840  0.7196  0.8410
  146SAPE   H4Y16039   1.923   2.250   5.829 -2.0024  0.9037 -0.7576
  146SAPE   C3516040   2.066   2.370   5.735  0.7386 -0.3621 -0.4693
  146SAPE   H5X16041   2.136   2.284   5.730  0.5269 -0.4868 -1.3895
  146SAPE   H5Y16042   2.133   2.455   5.758 -0.8240  0.2708  2.2312
  146SAPE   C3616043   1.985   2.380   5.613 -0.8200  0.7689  0.5246
  146SAPE   H6X16044   1.907   2.458   5.618 -2.0995 -0.5166  1.3651
  146SAPE   H6Y16045   1.935   2.283   5.594 -0.6742  0.3092  2.2601
  146SAPE   C3716046   2.071   2.416   5.487 -0.0535  0.1607  0.4821
  146SAPE   H7X16047   2.163   2.355   5.477  0.2257  0.4334  1.2411
  146SAPE   H7Y16048   2.088   2.525   5.501 -4.4848  1.4005 -1.8077
  146SAPE   C3816049   1.986   2.404   5.359 -0.8393  0.0578 -0.0895
  146SAPE   H8X16050   1.899   2.472   5.372 -1.7336 -1.3916  2.2121
  146SAPE   H8Y16051   1.966   2.298   5.334  1.0751 -0.9918  2.3529
  146SAPE   C3916052   2.064   2.464   5.240 -0.1533  0.0790 -0.3813
  146SAPE   H9X16053   2.161   2.411   5.242  0.1027  0.4241  3.2608
  146SAPE   H9Y16054   2.089   2.572   5.249  0.7884 -0.1504 -0.1993
  146SAPE  C31016055   2.000   2.429   5.108 -0.2346 -0.2523 -0.2730
  146SAPE  H10X16056   1.894   2.461   5.115  1.0600  5.0933 -0.4760
  146SAPE  H10Y16057   2.016   2.321   5.087 -0.4666 -0.4105  0.3514
  146SAPE  C31116058   2.063   2.516   4.997  0.6607  0.2057  0.5041
  146SAPE  H11X16059   2.172   2.494   4.992  0.6306 -0.5929  2.4219
  146SAPE  H11Y16060   2.046   2.624   5.020 -1.7672 -0.1846  0.8137
  146SAPE  C31216061   2.010   2.479   4.857 -0.9618 -0.2928 -1.0941
  146SAPE  H12X16062   1.901   2.502   4.860 -1.0226 -0.6450  0.0020
  146SAPE  H12Y16063   2.007   2.370   4.837  1.5302 -0.5189 -0.5084
  146SAPE  C31316064   2.072   2.575   4.757 -1.1691 -0.4735 -0.3395
  146SAPE  H13X16065   2.179   2.550   4.742 -1.6364 -3.3300  0.5656
  146SAPE  H13Y16066   2.074   2.680   4.794 -0.3537 -0.7000  0.2824
  146SAPE  C31416067   2.004   2.571   4.622 -0.0837  0.9671 -0.5377
  146SAPE  H14X16068   1.897   2.601   4.616 -0.1020  0.8503 -0.8140
  146SAPE  H14Y16069   2.010   2.462   4.602 -0.1958  0.1679  3.0828
  146SAPE  C31516070   2.081   2.664   4.522  0.4130 -0.6444  0.2605
  146SAPE  H15X16071   2.058   2.634   4.418 -0.0739  0.6136 -0.0073
  146SAPE  H15Y16072   2.189   2.644   4.540  0.7117  0.3952 -0.3540
  146SAPE  C31616073   2.049   2.818   4.526  0.1030 -0.2820 -0.0352
  146SAPE  H16X16074   2.086   2.877   4.613  0.6947  1.1020 -1.1685
  146SAPE  H16Y16075   1.941   2.840   4.537  0.3081  0.2307  1.0435
  146SAPE  C31716076   2.087   2.892   4.396  0.3953 -0.7694  0.0833
  146SAPE  H17X16077   2.032   2.856   4.307  1.7771 -0.3720 -0.9779
  146SAPE  H17Y16078   2.188   2.852   4.373 -0.1536 -1.8906 -0.4451
  146SAPE  C31816079   2.096   3.046   4.403  0.4535  0.4003 -0.1154
  146SAPE  H18X16080   1.994   3.086   4.423 -0.8967 -2.5541 -0.5653
  146SAPE  H18Y16081   2.132   3.080   4.304  0.4262  0.0340 -0.2517
  146SAPE  H18Z16082   2.174   3.063   4.481  0.6395 -1.7328  0.2472
  147SAPE     N16083   1.543   3.060   6.866  0.6294  0.3160  0.6326
  147SAPE   HN116084   1.456   3.097   6.823  0.1194  0.1566  1.4987
  147SAPE   HN216085   1.516   2.969   6.909 -0.0569  0.8930  1.4796
  147SAPE   HN316086   1.577   3.130   6.935 -1.4989 -0.0863  2.2080
  147SAPE   C1216087   1.644   3.035   6.748 -0.1059  0.1388 -0.1402
  147SAPE  H12A16088   1.634   3.123   6.681  1.7319  1.8835  1.7171
  147SAPE  H12B16089   1.618   2.944   6.690  0.8713 -0.1508 -0.1530
  147SAPE   C1116090   1.787   3.032   6.793 -0.9009  0.5843 -0.1810
  147SAPE  H11A16091   1.810   3.136   6.825  1.6079  0.1969 -0.4647
  147SAPE  H11B16092   1.863   3.018   6.713  0.5316 -0.8688  1.3406
  147SAPE     P16093   1.880   2.797   6.874 -0.1768  0.1974  0.1275
  147SAPE   O1316094   2.025   2.809   6.850 -0.2777  0.7281  0.6489
  147SAPE   O1416095   1.827   2.709   6.981  0.0613 -0.0204 -0.3762
  147SAPE   O1216096   1.818   2.939   6.897  0.1363 -0.2823 -0.0279
  147SAPE   O1116097   1.806   2.746   6.741 -0.5262  0.3400  0.4532
  147SAPE    C116098   1.829   2.607   6.710  0.3388  0.5546 -0.3404
  147SAPE    HA16099   1.901   2.595   6.626  0.2574 -0.2998 -0.2900
  147SAPE    HB16100   1.855   2.538   6.793  1.4501 -0.5301 -1.5403
  147SAPE    C216101   1.697   2.528   6.665 -0.2816  0.0188 -0.1063
  147SAPE    HS16102   1.729   2.422   6.657  1.9404  0.6991 -0.8512
  147SAPE   O2116103   1.640   2.575   6.541 -0.7517 -0.9440 -0.6373
  147SAPE   C2116104   1.684   2.519   6.430 -0.6501 -0.4653  0.0490
  147SAPE   O2216105   1.765   2.426   6.421 -0.3662  0.0736 -0.1780
  147SAPE   C2216106   1.625   2.584   6.308 -0.1529 -0.3902 -0.1049
  147SAPE   H2R16107   1.675   2.681   6.293  2.3309 -1.3453  1.2869
  147SAPE   H2S16108   1.648   2.524   6.218 -0.0823 -0.1207 -0.2644
  147SAPE    C316109   1.590   2.532   6.771  0.2424 -0.0859 -0.4785
  147SAPE    HX16110   1.567   2.640   6.783  0.1813  0.1933 -2.7115
  147SAPE    HY16111   1.636   2.501   6.868  2.1223 -1.4283 -1.7377
  147SAPE   O3116112   1.473   2.448   6.749  0.3105  0.2378 -0.2605
  147SAPE   C3116113   1.351   2.491   6.792 -0.4443 -0.5862  0.3109
  147SAPE   O3216114   1.340   2.591   6.861  0.3492 -0.1673 -0.0562
  147SAPE   C3216115   1.241   2.386   6.778 -0.2142 -0.2025 -0.3320
  147SAPE   H2X16116   1.221   2.349   6.881  1.6589 -0.9859 -0.2069
  147SAPE   H2Y16117   1.291   2.308   6.717 -0.3113  0.1011 -0.8066
  147SAPE   C2316118   1.470   2.585   6.311  0.0036  0.7055  0.6971
  147SAPE   H3R16119   1.429   2.648   6.392 -0.6509 -0.7370  1.5261
  147SAPE   H3S16120   1.426   2.490   6.348  0.5542 -0.5851 -1.7234
  147SAPE   C2416121   1.411   2.617   6.176 -0.1926  0.0720 -0.0106
  147SAPE   H4R16122   1.302   2.616   6.194 -0.0187 -0.5222  1.1120
  147SAPE   H4S16123   1.430   2.524   6.117 -0.3638  0.2041 -0.2746
  147SAPE   C2516124   1.469   2.738   6.105  0.2045 -0.4573 -0.0604
  147SAPE   H5R16125   1.512   2.811   6.175 -0.0533  1.6681 -1.9748
  147SAPE   C2616126   1.487   2.745   5.972  0.1571 -0.6852 -0.2729
  147SAPE   H6R16127   1.543   2.833   5.936  1.2001 -0.9902  0.5335
  147SAPE   C2716128   1.429   2.657   5.865 -0.1259  0.5355  0.1596
  147SAPE   H7R16129   1.398   2.709   5.772 -3.4644 -3.0152 -0.9461
  147SAPE   H7S16130   1.331   2.617   5.899 -0.2093 -0.2083 -0.9122
  147SAPE   C2816131   1.509   2.540   5.827 -0.2330 -0.3358 -0.6886
  147SAPE   H8R16132   1.494   2.453   5.893  0.3231  1.5069  2.0177
  147SAPE   C2916133   1.585   2.523   5.718 -0.2714 -0.8076  0.2874
  147SAPE   H9R16134   1.630   2.423   5.710  0.3182 -0.6308  1.3038
  147SAPE  C21016135   1.612   2.619   5.603  0.0779  1.0258 -0.0689
  147SAPE  H10R16136   1.722   2.618   5.586  0.4424 -2.5799  1.6685
  147SAPE  H10S16137   1.595   2.722   5.643  0.3802  0.1883  2.4194
  147SAPE  C21116138   1.540   2.586   5.475 -0.5017 -0.1112  0.3431
  147SAPE  H11R16139   1.449   2.524   5.482  0.4438 -2.0043 -2.0705
  147SAPE  C21216140   1.583   2.629   5.353  0.0482  0.1145 -0.0150
  147SAPE  H12R16141   1.518   2.606   5.267  1.0931  2.1412 -1.4050
  147SAPE  C21316142   1.694   2.716   5.304  0.1481  0.3871  0.3111
  147SAPE  H13R16143   1.741   2.657   5.223  0.1753  1.2660 -0.3333
  147SAPE  H13S16144   1.775   2.735   5.378  2.1664  1.0638 -1.9557
  147SAPE  C21416145   1.638   2.848   5.253 -0.1683  0.2187 -0.3496
  147SAPE  H14R16146   1.616   2.912   5.340 -0.4479  0.4179 -0.5666
  147SAPE  C21516147   1.599   2.889   5.132 -0.2123 -0.7509 -0.5859
  147SAPE  H15R16148   1.565   2.993   5.125  0.9015 -0.4277 -1.6419
  147SAPE  C21616149   1.610   2.809   5.008 -0.6572 -1.2854  0.0918
  147SAPE  H16R16150   1.527   2.843   4.942 -3.0743  0.5873  3.7705
  147SAPE  H16S16151   1.588   2.701   5.022  0.4339 -1.5619 -0.2044
  147SAPE  C21716152   1.744   2.827   4.939  0.6399  0.0143 -0.7814
  147SAPE  H17R16153   1.747   2.764   4.847 -1.6068  1.6564 -2.0701
  147SAPE  H17S16154   1.821   2.791   5.011  0.4190  0.1254 -0.4854
  147SAPE  C21816155   1.782   2.970   4.904  0.3898  0.2846  0.3554
  147SAPE  H18R16156   1.765   3.050   4.978 -1.1931  2.8052 -2.5198
  147SAPE  H18S16157   1.728   2.995   4.810  0.9333  2.1268  0.4964
  147SAPE  C21916158   1.925   2.987   4.857 -0.0457  0.6647 -0.5530
  147SAPE  H19R16159   1.945   2.917   4.773  0.7478 -0.0548  0.2053
  147SAPE  H19S16160   1.989   2.971   4.946 -0.6682  1.7979  0.1117
  147SAPE  C22016161   1.949   3.125   4.794  0.1591  0.2085 -0.6134
  147SAPE  H20R16162   1.913   3.131   4.689  0.9487 -1.3787 -1.0148
  147SAPE  H20S16163   2.058   3.146   4.796  0.6880 -2.0732 -1.9630
  147SAPE  H20T16164   1.887   3.193   4.856 -2.3326 -2.4322  0.0024
  147SAPE   C3316165   1.112   2.416   6.705 -0.3949 -0.1858  0.0196
  147SAPE   H3X16166   1.056   2.498   6.756  0.9467  0.8799 -0.1537
  147SAPE   H3Y16167   1.045   2.328   6.695 -2.2383  1.0815  0.7351
  147SAPE   C3416168   1.134   2.466   6.563  0.1241  0.1008  0.3973
  147SAPE   H4X16169   1.195   2.558   6.554 -1.9060  1.2696 -3.5936
  147SAPE   H4Y16170   1.039   2.515   6.534  1.6489  2.6779 -0.5602
  147SAPE   C3516171   1.153   2.355   6.455  0.3091  0.0212 -0.1040
  147SAPE   H5X16172   1.122   2.252   6.482 -1.0051 -0.0762 -1.8470
  147SAPE   H5Y16173   1.264   2.354   6.450  0.3412  2.0863 -0.5025
  147SAPE   C3616174   1.104   2.398   6.310 -0.4957  0.1402 -0.3873
  147SAPE   H6X16175   1.112   2.508   6.295  0.3286 -0.2111 -2.7778
  147SAPE   H6Y16176   0.994   2.380   6.307 -0.6736  0.7649  1.2210
  147SAPE   C3716177   1.173   2.333   6.196  0.9945  0.1066 -0.1100
  147SAPE   H7X16178   1.151   2.225   6.205 -1.7428  0.5616 -0.3227
  147SAPE   H7Y16179   1.282   2.346   6.211  0.6958  0.3065  2.4115
  147SAPE   C3816180   1.133   2.385   6.060  0.5700 -0.3548  0.7429
  147SAPE   H8X16181   1.169   2.489   6.049  2.5909 -1.1384 -0.7188
  147SAPE   H8Y16182   1.023   2.378   6.050  0.5480 -2.3123  1.8618
  147SAPE   C3916183   1.201   2.300   5.945  0.5705 -0.0682  0.5041
  147SAPE   H9X16184   1.186   2.191   5.961  2.5392 -0.4187  0.2614
  147SAPE   H9Y16185   1.311   2.315   5.950  0.4292  0.8343  1.3713
  147SAPE  C31016186   1.143   2.333   5.806 -0.5615 -0.1125 -0.0499
  147SAPE  H10X16187   1.153   2.444   5.805 -0.7341 -0.0824  1.0289
  147SAPE  H10Y16188   1.033   2.315   5.808 -1.2879  3.4927 -0.5941
  147SAPE  C31116189   1.216   2.270   5.684 -0.8587 -0.0075  0.1840
  147SAPE  H11X16190   1.221   2.159   5.695 -1.7589  0.0657  1.5582
  147SAPE  H11Y16191   1.323   2.301   5.689 -0.3005 -1.4296 -1.6356
  147SAPE  C31216192   1.158   2.305   5.550  0.0240  0.2063 -0.2324
  147SAPE  H12X16193   1.163   2.415   5.539  0.3584  0.2196  0.0493
  147SAPE  H12Y16194   1.051   2.273   5.550 -0.2750  1.0974  1.0371
  147SAPE  C31316195   1.235   2.237   5.438  0.5419 -0.7965 -0.7833
  147SAPE  H13X16196   1.264   2.137   5.475  1.3105 -0.3839 -0.2376
  147SAPE  H13Y16197   1.323   2.297   5.405 -1.0258  0.9845 -1.9291
  147SAPE  C31416198   1.147   2.219   5.314 -0.6008  0.4909  0.1135
  147SAPE  H14X16199   1.058   2.159   5.343  0.1896 -0.4379  0.6722
  147SAPE  H14Y16200   1.203   2.149   5.248 -1.7427 -1.4068  1.0707
  147SAPE  C31516201   1.106   2.350   5.241 -0.5186  0.0907  0.0314
  147SAPE  H15X16202   1.091   2.432   5.315  2.2956  0.8640 -0.1777
  147SAPE  H15Y16203   1.009   2.329   5.191 -1.1519  0.2620  1.1435
  147SAPE  C31616204   1.214   2.384   5.146  0.0562  0.1357 -0.3973
  147SAPE  H16X16205   1.225   2.296   5.079  0.2803  0.0427 -0.2422
  147SAPE  H16Y16206   1.307   2.409   5.202 -0.4713 -0.2050  0.6601
  147SAPE  C31716207   1.173   2.516   5.075 -0.0085  0.0919 -0.4304
  147SAPE  H17X16208   1.178   2.588   5.160 -2.2784  0.5408 -0.6126
  147SAPE  H17Y16209   1.064   2.522   5.055 -0.2511  0.1253  0.7951
  147SAPE  C31816210   1.269   2.553   4.967 -0.0544 -0.4361 -0.6069
  147SAPE  H18X16211   1.254   2.498   4.872 -0.2431 -0.5937 -0.4861
  147SAPE  H18Y16212   1.373   2.525   4.995 -0.1093  1.7959  2.4643
  147SAPE  H18Z16213   1.270   2.662   4.942 -0.1710 -0.3324 -0.1694
  148SAPE     N16214   6.171   4.614   7.220  0.2120  0.3603  0.3923
  148SAPE   HN116215   6.195   4.665   7.133 -0.5460 -3.7001 -2.5314
  148SAPE   HN216216   6.235   4.658   7.289 -0.4979 -0.7846  1.8477
  148SAPE   HN316217   6.186   4.511   7.215 -1.5989  0.1079 -1.0690
  148SAPE   C1216218   6.028   4.636   7.266  0.1897 -0.0909 -0.0755
  148SAPE  H12A16219   5.993   4.740   7.249  0.6732  0.6945  3.1144
  148SAPE  H12B16220   6.020   4.621   7.376  1.9396  0.9969  0.2450
  148SAPE   C1116221   5.933   4.544   7.188  0.1233 -0.4313  0.6443
  148SAPE  H11A16222   5.946   4.568   7.080  2.3804  1.5923  1.2827
  148SAPE  H11B16223   5.834   4.573   7.228  0.5147 -0.4819  1.6953
  148SAPE     P16224   5.895   4.291   7.155  0.1682  0.5446  0.2591
  148SAPE   O1316225   5.911   4.168   7.231 -0.2988 -0.1596  0.4100
  148SAPE   O1416226   5.754   4.327   7.130 -0.1440 -0.1621 -0.1916
  148SAPE   O1216227   5.968   4.409   7.219 -0.5239  0.2609  0.4561
  148SAPE   O1116228   5.966   4.269   7.015  0.3470  0.5388 -0.4310
  148SAPE    C116229   5.919   4.354   6.914 -0.4939 -0.1824  0.2648
  148SAPE    HA16230   5.865   4.448   6.939 -0.6566  0.4198 -2.1031
  148SAPE    HB16231   6.005   4.403   6.863 -0.2806  0.3424  1.1099
  148SAPE    C216232   5.838   4.280   6.804 -0.0744 -0.0484 -0.0178
  148SAPE    HS16233   5.748   4.241   6.856  0.1963  0.7966  1.1327
  148SAPE   O2116234   5.914   4.164   6.768 -0.1635  0.2676 -0.2418
  148SAPE   C2116235   5.856   4.052   6.726 -0.3792 -0.1913  0.3312
  148SAPE   O2216236   5.736   4.046   6.699 -0.2271 -0.0273 -0.8423
  148SAPE   C2216237   5.954   3.940   6.711  0.3336  0.2391 -0.6593
  148SAPE   H2R16238   6.013   3.932   6.805  0.7742 -1.1092 -1.0230
  148SAPE   H2S16239   5.898   3.845   6.698  0.4777 -0.3169  2.0706
  148SAPE    C316240   5.809   4.367   6.676 -0.6643 -0.4341 -0.8720
  148SAPE    HX16241   5.760   4.460   6.710 -0.9052  0.0174 -2.3514
  148SAPE    HY16242   5.749   4.325   6.592 -1.8789 -1.4497  0.4559
  148SAPE   O3116243   5.937   4.416   6.624  0.6910  0.1743  0.5133
  148SAPE   C3116244   5.931   4.535   6.568 -0.2269 -1.2371 -0.4418
  148SAPE   O3216245   5.826   4.595   6.544  0.4627 -0.7561  0.0217
  148SAPE   C3216246   6.068   4.572   6.529 -0.0318  0.3873 -0.0060
  148SAPE   H2X16247   6.144   4.571   6.610 -1.3064 -2.2399  1.3060
  148SAPE   H2Y16248   6.062   4.672   6.483 -0.9288  0.9955  1.3627
  148SAPE   C2316249   6.054   3.960   6.601  0.4129 -0.0048 -0.2807
  148SAPE   H3R16250   6.148   3.910   6.631  0.1217 -1.2427 -1.3569
  148SAPE   H3S16251   6.081   4.067   6.588  2.1100 -0.4581 -0.7192
  148SAPE   C2416252   6.000   3.890   6.471 -0.5861 -0.3943 -0.2408
  148SAPE   H4R16253   6.000   3.782   6.495 -1.3382 -0.6874 -1.4721
  148SAPE   H4S16254   6.087   3.898   6.402 -1.4231  0.2361 -1.2473
  148SAPE   C2516255   5.870   3.944   6.413 -0.2510 -0.0401 -0.0454
  148SAPE   H5R16256   5.787   3.880   6.445 -0.3457 -1.5957 -3.0509
  148SAPE   C2616257   5.851   4.033   6.319  0.1576  0.2283 -1.0832
  148SAPE   H6R16258   5.753   4.062   6.280 -0.9211  2.0385  2.5999
  148SAPE   C2716259   5.962   4.113   6.243 -0.0880  0.0697  0.3514
  148SAPE   H7R16260   6.044   4.137   6.315 -0.5719 -1.1082  1.3382
  148SAPE   H7S16261   5.909   4.205   6.214 -1.9563 -0.9802  0.3161
  148SAPE   C2816262   6.003   4.032   6.122 -0.0539 -1.1297 -0.3394
  148SAPE   H8R16263   6.032   3.928   6.144  1.4856 -0.7788 -0.5905
  148SAPE   C2916264   6.018   4.067   5.995  0.1458  0.1125  0.1184
  148SAPE   H9R16265   6.054   4.000   5.916 -1.0879  0.1486 -0.5090
  148SAPE  C21016266   6.008   4.204   5.933  0.0779 -0.0640  0.5424
  148SAPE  H10R16267   6.096   4.225   5.870 -0.0321 -1.5746 -0.1310
  148SAPE  H10S16268   6.025   4.277   6.016  1.8062 -0.9632  1.0163
  148SAPE  C21116269   5.886   4.241   5.855  0.3771  0.1656 -0.3945
  148SAPE  H11R16270   5.797   4.272   5.911 -0.5387 -3.4531  0.3855
  148SAPE  C21216271   5.870   4.229   5.723  0.1853  0.5344  0.0689
  148SAPE  H12R16272   5.773   4.259   5.681  1.0368  2.6062 -0.5232
  148SAPE  C21316273   5.970   4.183   5.615  0.1950 -0.4642  0.0854
  148SAPE  H13R16274   5.951   4.083   5.572  1.8501 -0.2381 -1.2511
  148SAPE  H13S16275   6.070   4.172   5.663  0.0420  1.3118  0.9133
  148SAPE  C21416276   5.980   4.292   5.505  0.5898  0.1033 -0.3171
  148SAPE  H14R16277   5.973   4.398   5.533  0.3070  0.0957 -0.3561
  148SAPE  C21516278   6.003   4.279   5.372  0.5381 -0.1869  0.2959
  148SAPE  H15R16279   6.003   4.367   5.306 -0.1193 -0.6966 -0.3983
  148SAPE  C21616280   6.044   4.159   5.290 -0.0252  1.0695 -1.3394
  148SAPE  H16R16281   6.001   4.068   5.338  1.3982  1.1864  0.2815
  148SAPE  H16S16282   6.154   4.146   5.301  0.1112  2.8528 -0.0492
  148SAPE  C21716283   5.995   4.169   5.145 -0.3656 -0.2252 -0.3716
  148SAPE  H17R16284   5.885   4.170   5.158 -0.5899 -3.0327 -1.3108
  148SAPE  H17S16285   6.014   4.072   5.094  1.8331  0.5719 -1.2038
  148SAPE  C21816286   6.059   4.285   5.060 -0.2557 -0.3100  0.5108
  148SAPE  H18R16287   6.165   4.262   5.038 -0.7630 -0.8659 -1.6495
  148SAPE  H18S16288   6.044   4.378   5.118 -1.0596 -0.0642 -0.0720
  148SAPE  C21916289   5.988   4.314   4.920  0.3814  0.6180 -0.5414
  148SAPE  H19R16290   6.041   4.405   4.883  0.3628  0.8617  0.0244
  148SAPE  H19S16291   5.883   4.347   4.931  0.3668 -0.2179  2.5577
  148SAPE  C22016292   5.996   4.188   4.830  0.1469 -0.0100 -0.3639
  148SAPE  H20R16293   6.100   4.148   4.829 -0.7848 -2.7097  0.4848
  148SAPE  H20S16294   5.950   4.190   4.729 -0.7968 -1.2412  0.0104
  148SAPE  H20T16295   5.940   4.100   4.869 -1.2201 -0.5711 -3.3075
  148SAPE   C3316296   6.113   4.481   6.412 -0.2053 -0.0089 -0.6839
  148SAPE   H3X16297   6.096   4.372   6.431  0.7218 -0.1843 -0.7758
  148SAPE   H3Y16298   6.223   4.494   6.400  0.0248  0.1788  1.2907
  148SAPE   C3416299   6.055   4.524   6.274 -0.2737  0.0832  0.5768
  148SAPE   H4X16300   5.959   4.576   6.296  0.2328  1.0326  0.6165
  148SAPE   H4Y16301   6.027   4.428   6.226  1.8268 -1.5880  2.4366
  148SAPE   C3516302   6.142   4.622   6.199  0.3970 -0.2196  0.7192
  148SAPE   H5X16303   6.235   4.570   6.168 -1.1049 -2.3479 -0.5262
  148SAPE   H5Y16304   6.165   4.695   6.279  1.3386  1.6059 -1.1203
  148SAPE   C3616305   6.058   4.693   6.087 -0.2166  0.0530 -0.0373
  148SAPE   H6X16306   6.107   4.791   6.068 -0.9611  1.1033  2.9805
  148SAPE   H6Y16307   5.958   4.732   6.116  0.5236  0.8653  1.5092
  148SAPE   C3716308   6.062   4.615   5.957 -0.0675  0.5108 -0.0338
  148SAPE   H7X16309   5.978   4.543   5.947  0.5194 -0.0720 -0.9274
  148SAPE   H7Y16310   6.144   4.540   5.966  0.1705  0.6309 -1.0542
  148SAPE   C3816311   6.090   4.698   5.829  0.2615  0.0994  0.6607
  148SAPE   H8X16312   6.169   4.773   5.852 -0.1018  0.9654 -0.7590
  148SAPE   H8Y16313   5.987   4.733   5.806  0.4289 -0.1461 -0.5069
  148SAPE   C3916314   6.140   4.607   5.713  0.4267  0.1181 -0.2315
  148SAPE   H9X16315   6.059   4.536   5.684 -0.1638  0.1405  1.2668
  148SAPE   H9Y16316   6.232   4.557   5.748  0.6221 -0.6077 -1.7383
  148SAPE  C31016317   6.181   4.682   5.589  0.3679 -0.3189  0.9825
  148SAPE  H10X16318   6.243   4.604   5.539  0.6872 -0.4882  1.6318
  148SAPE  H10Y16319   6.243   4.768   5.620 -0.3217  1.0327 -1.1316
  148SAPE  C31116320   6.067   4.741   5.512 -0.0574  0.1731  0.3455
  148SAPE  H11X16321   6.002   4.793   5.585 -0.0184 -1.6734  1.7670
  148SAPE  H11Y16322   6.012   4.658   5.462 -2.2003  1.4848  0.4185
  148SAPE  C31216323   6.098   4.833   5.392 -0.7104 -0.4776 -0.8814
  148SAPE  H12X16324   6.151   4.923   5.432 -1.0584 -1.2169  1.3877
  148SAPE  H12Y16325   6.002   4.875   5.357 -1.2800 -0.9996  0.0173
  148SAPE  C31316326   6.182   4.776   5.282  0.1413  0.6307  0.9535
  148SAPE  H13X16327   6.193   4.672   5.318 -1.6357  0.1143  0.1537
  148SAPE  H13Y16328   6.285   4.817   5.270  1.4989 -1.0993  4.9755
  148SAPE  C31416329   6.111   4.788   5.140 -0.3977  0.5981  0.4842
  148SAPE  H14X16330   6.007   4.755   5.157  0.0365 -0.1481  1.8697
  148SAPE  H14Y16331   6.164   4.726   5.064 -1.4466 -1.2937  1.2404
  148SAPE  C31516332   6.115   4.935   5.100 -0.0326 -0.0547  0.2336
  148SAPE  H15X16333   6.222   4.949   5.073 -0.2918  1.0063 -0.3028
  148SAPE  H15Y16334   6.067   4.994   5.181 -3.1052 -2.6792  0.5059
  148SAPE  C31616335   6.045   4.983   4.967 -0.6772 -0.4091 -0.8340
  148SAPE  H16X16336   6.096   4.965   4.870  0.4832  3.7169 -1.1879
  148SAPE  H16Y16337   6.027   5.093   4.970  1.3023 -0.0729  0.1677
  148SAPE  C31716338   5.895   4.925   4.954 -0.6555 -0.3787 -0.3304
  148SAPE  H17X16339   5.909   4.815   4.958  0.8236 -0.2222 -0.5604
  148SAPE  H17Y16340   5.846   4.949   4.858 -1.6428 -1.6570 -0.1771
  148SAPE  C31816341   5.794   4.959   5.067  0.5146 -0.5812 -0.0489
  148SAPE  H18X16342   5.793   5.070   5.073 -1.0448 -0.3938 -2.4503
  148SAPE  H18Y16343   5.826   4.922   5.167 -2.2597  2.9970  2.3935
  148SAPE  H18Z16344   5.695   4.913   5.047  0.3696 -0.0019 -0.7065
  149SAPE     N16345   4.259   1.780   7.018  0.2253  0.1382  0.3105
  149SAPE   HN116346   4.217   1.716   7.089 -1.2389  1.0659  0.3337
  149SAPE   HN216347   4.192   1.847   6.975  0.0087 -1.4393 -2.0219
  149SAPE   HN316348   4.275   1.713   6.940  1.6386 -0.9371  1.4648
  149SAPE   C1216349   4.390   1.837   7.053 -0.8253  0.1665 -0.7387
  149SAPE  H12A16350   4.466   1.759   7.075  0.4589  1.9641  1.7903
  149SAPE  H12B16351   4.372   1.902   7.141 -0.1856 -2.6905  1.6831
  149SAPE   C1116352   4.447   1.913   6.934 -0.3115  0.5239  0.5881
  149SAPE  H11A16353   4.494   1.831   6.875 -1.4470  0.0962  0.2357
  149SAPE  H11B16354   4.532   1.970   6.976 -0.4039 -0.5222  2.2983
  149SAPE     P16355   4.360   2.140   6.860 -0.1518  0.2051 -0.0080
  149SAPE   O1316356   4.241   2.194   6.788  0.2859 -0.1871  0.2627
  149SAPE   O1416357   4.383   2.192   7.000  0.5604  0.6644 -0.1988
  149SAPE   O1216358   4.345   1.979   6.862 -0.0172  0.8183  0.0627
  149SAPE   O1116359   4.491   2.159   6.778  0.1105 -0.2421  0.2872
  149SAPE    C116360   4.567   2.278   6.772 -0.2127  0.5097 -0.3155
  149SAPE    HA16361   4.560   2.341   6.864 -3.2352 -1.6653  1.1451
  149SAPE    HB16362   4.672   2.246   6.758 -0.0521  0.6695  0.4942
  149SAPE    C216363   4.530   2.367   6.648  0.8904  0.2408  0.0416
  149SAPE    HS16364   4.422   2.390   6.656  1.0880  1.8010 -1.3179
  149SAPE   O2116365   4.576   2.311   6.522  0.6619 -0.6235  0.0740
  149SAPE   C2116366   4.509   2.336   6.416  0.0806 -0.7296 -0.6902
  149SAPE   O2216367   4.397   2.384   6.406  0.1855 -0.2841 -0.2329
  149SAPE   C2216368   4.599   2.303   6.301  0.4768  0.2095 -0.0982
  149SAPE   H2R16369   4.630   2.394   6.246 -1.0628 -0.8717 -2.9560
  149SAPE   H2S16370   4.685   2.243   6.338  2.2364  1.6951 -1.5400
  149SAPE    C316371   4.609   2.502   6.667 -0.6880 -0.8305 -0.0508
  149SAPE    HX16372   4.713   2.475   6.636  0.5750  0.3109  2.8091
  149SAPE    HY16373   4.606   2.527   6.776 -0.7836  0.5970 -0.3621
  149SAPE   O3116374   4.548   2.611   6.599  0.2273  0.2639 -0.2369
  149SAPE   C3116375   4.610   2.658   6.496  0.4874 -0.5399 -0.2066
  149SAPE   O3216376   4.719   2.621   6.453  0.4674 -0.4917 -0.0813
  149SAPE   C3216377   4.516   2.770   6.435  0.3745  0.0095 -0.1590
  149SAPE   H2X16378   4.515   2.860   6.500 -1.2463  0.6986 -1.0844
  149SAPE   H2Y16379   4.417   2.720   6.432  1.3070 -2.3273  2.5797
  149SAPE   C2316380   4.527   2.211   6.195  0.0965  0.6304 -0.0836
  149SAPE   H3R16381   4.470   2.280   6.129  0.5093  1.7514  0.7045
  149SAPE   H3S16382   4.451   2.145   6.243  0.6263  0.2935  0.2984
  149SAPE   C2416383   4.628   2.147   6.099  0.6275 -0.3966  0.6626
  149SAPE   H4R16384   4.719   2.108   6.150 -0.3297 -2.4358  0.9330
  149SAPE   H4S16385   4.659   2.222   6.024 -1.3980  0.8083  0.9724
  149SAPE   C2516386   4.572   2.029   6.029 -0.0519  0.0819 -0.6920
  149SAPE   H5R16387   4.506   1.962   6.085  1.1966 -1.1949 -0.6721
  149SAPE   C2616388   4.583   2.004   5.896 -0.0527 -0.1713  0.2640
  149SAPE   H6R16389   4.536   1.917   5.848 -0.8318  0.0422  0.6204
  149SAPE   C2716390   4.652   2.090   5.793 -0.3120 -0.0632  0.1116
  149SAPE   H7R16391   4.699   2.018   5.723  1.1453 -0.3522  1.3088
  149SAPE   H7S16392   4.740   2.138   5.843 -0.1628  0.3329 -0.5306
  149SAPE   C2816393   4.566   2.198   5.738 -0.1190 -0.4454 -0.0535
  149SAPE   H8R16394   4.541   2.277   5.811 -1.7144 -1.3359  0.3966
  149SAPE   C2916395   4.525   2.195   5.609  0.0147  0.3786 -0.1491
  149SAPE   H9R16396   4.468   2.284   5.577 -0.0042 -0.5169 -2.8060
  149SAPE  C21016397   4.553   2.089   5.501 -0.5504 -1.0708 -0.6881
  149SAPE  H10R16398   4.488   2.002   5.523  1.1248 -2.3846 -0.7848
  149SAPE  H10S16399   4.658   2.058   5.515  0.3448  1.9856  0.1067
  149SAPE  C21116400   4.532   2.133   5.356 -0.0817 -0.1941 -0.3644
  149SAPE  H11R16401   4.432   2.097   5.330 -0.9729 -1.3180  3.8568
  149SAPE  C21216402   4.623   2.174   5.269 -0.3079  0.1073 -0.5231
  149SAPE  H12R16403   4.608   2.164   5.160  1.6164  2.2560 -1.0717
  149SAPE  C21316404   4.766   2.220   5.307 -0.2899 -0.3638  0.7076
  149SAPE  H13R16405   4.818   2.126   5.335  0.5366  0.3025  1.4719
  149SAPE  H13S16406   4.767   2.273   5.405  0.9490 -1.4942  1.3304
  149SAPE  C21416407   4.840   2.301   5.196  0.2164  0.3956  0.4393
  149SAPE  H14R16408   4.842   2.409   5.217 -1.0005  0.7466 -1.0373
  149SAPE  C21516409   4.905   2.252   5.089 -0.5298 -0.1668 -0.0523
  149SAPE  H15R16410   4.954   2.325   5.023  0.5916 -3.1607 -2.8034
  149SAPE  C21616411   4.929   2.112   5.036  0.4060  0.3520  0.2175
  149SAPE  H16R16412   4.859   2.084   4.954  1.2222 -1.9123  0.2270
  149SAPE  H16S16413   4.899   2.045   5.119 -0.6050 -1.8003 -1.7554
  149SAPE  C21716414   5.072   2.078   4.993 -0.0398  0.3765 -0.9371
  149SAPE  H17R16415   5.071   1.969   4.970 -1.1411  0.1543  0.0431
  149SAPE  H17S16416   5.134   2.087   5.084  0.0939 -1.8403 -0.7552
  149SAPE  C21816417   5.130   2.149   4.876  0.3482  0.4481 -0.4976
  149SAPE  H18R16418   5.236   2.120   4.859  0.7421  0.6860  1.3183
  149SAPE  H18S16419   5.137   2.257   4.899 -0.9999  0.6594 -1.0451
  149SAPE  C21916420   5.068   2.145   4.738  1.1965 -0.3500  0.1788
  149SAPE  H19R16421   5.033   2.040   4.724 -1.6560  0.4886  0.3350
  149SAPE  H19S16422   5.140   2.185   4.664 -0.0812  2.5243  0.3475
  149SAPE  C22016423   4.939   2.233   4.711 -0.7142  0.5659 -0.3378
  149SAPE  H20R16424   4.958   2.342   4.726 -2.3170  0.6139  1.8097
  149SAPE  H20S16425   4.860   2.212   4.786  0.7133  0.7903  1.2886
  149SAPE  H20T16426   4.892   2.205   4.615  0.1219  0.9774 -0.8769
  149SAPE   C3316427   4.549   2.835   6.300  0.1317 -0.1514 -0.7231
  149SAPE   H3X16428   4.654   2.870   6.294  0.1373  0.5620  2.1854
  149SAPE   H3Y16429   4.483   2.924   6.289  0.3817  0.7020  3.2203
  149SAPE   C3416430   4.538   2.742   6.185 -0.7878  0.7652 -0.4492
  149SAPE   H4X16431   4.444   2.683   6.192 -0.4307  0.1324 -0.9230
  149SAPE   H4Y16432   4.611   2.661   6.202  0.6237  2.4159  1.9563
  149SAPE   C3516433   4.540   2.805   6.045  0.2715 -0.3500  0.3613
  149SAPE   H5X16434   4.633   2.864   6.032  1.8177 -2.8155 -0.7226
  149SAPE   H5Y16435   4.446   2.864   6.041  0.2438 -0.2650  1.7257
  149SAPE   C3616436   4.543   2.717   5.915  0.6224 -0.1920 -0.6665
  149SAPE   H6X16437   4.521   2.774   5.822  2.2502 -2.2410 -2.4115
  149SAPE   H6Y16438   4.453   2.653   5.927 -0.0921  0.8375 -0.4281
  149SAPE   C3716439   4.675   2.649   5.885  0.4437  0.0813 -0.5994
  149SAPE   H7X16440   4.699   2.575   5.964 -2.2325  0.5674  0.7810
  149SAPE   H7Y16441   4.758   2.724   5.884  0.1770  0.3958  0.1233
  149SAPE   C3816442   4.690   2.585   5.748 -0.4526  0.6823  0.7316
  149SAPE   H8X16443   4.624   2.496   5.745  1.5982 -0.9522  1.1925
  149SAPE   H8Y16444   4.793   2.544   5.738 -1.8740 -2.6848 -2.5710
  149SAPE   C3916445   4.657   2.679   5.628 -0.3949 -0.0986 -0.1673
  149SAPE   H9X16446   4.721   2.769   5.646  2.0496 -1.0043 -3.3254
  149SAPE   H9Y16447   4.552   2.714   5.639 -0.7356 -0.4200 -2.0795
  149SAPE  C31016448   4.679   2.623   5.487 -0.2963 -0.9274  0.6461
  149SAPE  H10X16449   4.602   2.546   5.467  2.1128 -3.1824 -0.5133
  149SAPE  H10Y16450   4.778   2.573   5.500  1.3538  1.9723  0.1939
  149SAPE  C31116451   4.662   2.728   5.373  0.0600  0.5001 -0.8242
  149SAPE  H11X16452   4.724   2.818   5.393 -1.4611  1.4115  0.0676
  149SAPE  H11Y16453   4.559   2.767   5.356  0.5699  1.2019 -2.5392
  149SAPE  C31216454   4.696   2.673   5.233  0.1030 -0.1837 -0.3604
  149SAPE  H12X16455   4.623   2.591   5.222 -0.3348 -0.0726  1.4099
  149SAPE  H12Y16456   4.798   2.628   5.232  0.8675  1.4660 -0.2165
  149SAPE  C31316457   4.674   2.766   5.114 -0.2675  0.0984 -0.4382
  149SAPE  H13X16458   4.743   2.853   5.103 -0.2767  0.1765  0.0763
  149SAPE  H13Y16459   4.573   2.808   5.134 -0.8145 -2.3627  2.9149
  149SAPE  C31416460   4.672   2.701   4.983 -0.5701 -0.5578  0.0499
  149SAPE  H14X16461   4.570   2.657   4.975 -0.5922 -0.9517  1.9601
  149SAPE  H14Y16462   4.744   2.616   4.975 -1.6014 -1.6400  1.6772
  149SAPE  C31516463   4.686   2.791   4.858  0.0992  0.2613 -0.1675
  149SAPE  H15X16464   4.651   2.896   4.858 -0.5364  0.1363 -3.0617
  149SAPE  H15Y16465   4.629   2.750   4.772  0.3619  1.4600 -0.9271
  149SAPE  C31616466   4.832   2.807   4.816 -0.5920 -0.5005 -0.0584
  149SAPE  H16X16467   4.887   2.712   4.830 -2.0551 -1.1051  2.2598
  149SAPE  H16Y16468   4.885   2.883   4.876 -2.7654  1.9442 -1.0451
  149SAPE  C31716469   4.850   2.846   4.663  0.4403  0.4307  0.1732
  149SAPE  H17X16470   4.801   2.763   4.607  0.8742  0.4155 -0.1911
  149SAPE  H17Y16471   4.956   2.854   4.631  0.1695 -3.2319 -2.3036
  149SAPE  C31816472   4.792   2.982   4.621  0.4715  0.1846  0.5584
  149SAPE  H18X16473   4.797   2.987   4.510 -0.4361 -1.9664  0.3626
  149SAPE  H18Y16474   4.844   3.066   4.671 -1.7895  0.7063  2.1267
  149SAPE  H18Z16475   4.686   2.998   4.649 -0.7615 -0.4257 -3.1623
  150SAPE     N16476   0.219   0.768   7.528 -0.2692  0.0710  0.0814
  150SAPE   HN116477   0.248   0.675   7.564  0.2257  0.2671  0.1925
  150SAPE   HN216478   0.292   0.816   7.473  1.3402 -1.4849  0.7627
  150SAPE   HN316479   0.192   0.831   7.606  0.0354  1.2640 -0.7517
  150SAPE   C1216480   0.087   0.764   7.442 -0.7373 -0.0663  0.5651
  150SAPE  H12A16481   0.008   0.746   7.518 -2.1319  3.5472  0.1712
  150SAPE  H12B16482   0.089   0.671   7.381  0.5248 -0.8902  1.7958
  150SAPE   C1116483   0.061   0.900   7.364  0.0229  0.7524  1.0873
  150SAPE  H11A16484  -0.025   0.882   7.296 -0.3353  1.2941  1.3829
  150SAPE  H11B16485   0.150   0.910   7.299 -1.9566  0.8285 -1.7771
  150SAPE     P16486   0.120   1.137   7.466 -0.3077  0.1324 -0.0805
  150SAPE   O1316487   0.078   1.222   7.583 -0.1528  0.0862 -0.0707
  150SAPE   O1416488   0.261   1.104   7.461 -0.1591  0.1737  0.6082
  150SAPE   O1216489   0.038   1.001   7.460 -0.2162  0.5184 -0.5267
  150SAPE   O1116490   0.077   1.222   7.341 -0.2006 -1.0055 -0.8436
  150SAPE    C116491   0.090   1.172   7.211 -0.2524 -0.3978  0.2093
  150SAPE    HA16492   0.188   1.122   7.192 -0.3926 -0.0713 -1.5832
  150SAPE    HB16493   0.007   1.100   7.197  0.5480 -1.2731 -0.1337
  150SAPE    C216494   0.083   1.289   7.105  0.2023 -0.2428 -0.4404
  150SAPE    HS16495  -0.017   1.336   7.109 -0.9679 -2.6385 -0.1408
  150SAPE   O2116496   0.119   1.248   6.972 -0.5690 -0.1291 -0.2535
  150SAPE   C2116497   0.022   1.176   6.914  0.4001 -0.0999 -0.0044
  150SAPE   O2216498  -0.090   1.157   6.953  0.4231 -0.3733  0.4236
  150SAPE   C2216499   0.079   1.101   6.790  0.1211 -0.1297  0.0893
  150SAPE   H2R16500   0.177   1.149   6.769  0.3784 -0.3622  0.7447
  150SAPE   H2S16501   0.088   0.993   6.817 -0.9370  0.1299  1.5833
  150SAPE    C316502   0.178   1.409   7.143  0.5794 -0.0883 -0.3698
  150SAPE    HX16503   0.279   1.373   7.171  0.9479  1.1394 -0.0809
  150SAPE    HY16504   0.135   1.454   7.235  0.1670 -1.1944 -0.0081
  150SAPE   O3116505   0.211   1.496   7.036 -0.3022 -0.2197 -0.0771
  150SAPE   C3116506   0.129   1.602   7.026 -0.1178  0.2219 -0.0347
  150SAPE   O3216507   0.031   1.623   7.096 -0.2259  0.1665  0.3442
  150SAPE   C3216508   0.159   1.687   6.904 -0.5163  0.1888  0.0591
  150SAPE   H2X16509   0.270   1.691   6.898 -0.1608 -4.4678 -0.0793
  150SAPE   H2Y16510   0.118   1.786   6.933  0.3133  0.5702 -0.0250
  150SAPE   C2316511  -0.017   1.112   6.669  0.1801 -0.6306 -0.2157
  150SAPE   H3R16512  -0.031   1.219   6.644  1.7809  0.1794  1.9445
  150SAPE   H3S16513  -0.117   1.078   6.702 -0.6745  0.6920 -1.3193
  150SAPE   C2416514   0.010   1.027   6.537  0.8005  0.0161  0.3455
  150SAPE   H4R16515   0.106   1.063   6.494 -0.8656  2.4851 -1.5646
  150SAPE   H4S16516  -0.065   1.052   6.459 -0.2890 -0.9218  1.0587
  150SAPE   C2516517   0.010   0.879   6.555 -0.1881  1.0744  0.1863
  150SAPE   H5R16518   0.104   0.845   6.602  0.2221  1.0091 -0.6600
  150SAPE   C2616519  -0.089   0.784   6.537  0.1667 -0.2262  0.0546
  150SAPE   H6R16520  -0.070   0.677   6.554 -0.6406 -0.3383  0.2841
  150SAPE   C2716521  -0.219   0.815   6.479  0.3445 -0.4217  0.1431
  150SAPE   H7R16522  -0.206   0.846   6.373  1.7361  2.1444  0.9713
  150SAPE   H7S16523  -0.258   0.903   6.535 -2.4720 -0.8765 -0.9714
  150SAPE   C2816524  -0.324   0.710   6.503  0.6734  0.9544  0.0104
  150SAPE   H8R16525  -0.317   0.659   6.599  3.3327 -0.0502 -0.6400
  150SAPE   C2916526  -0.440   0.707   6.435 -0.0739  1.3121  0.6587
  150SAPE   H9R16527  -0.504   0.624   6.467  0.9812  0.5110  0.7486
  150SAPE  C21016528  -0.496   0.782   6.318 -0.7743  0.2392  0.0918
  150SAPE  H10R16529  -0.444   0.877   6.294 -2.4048  1.1733  0.1165
  150SAPE  H10S16530  -0.589   0.818   6.366 -1.2393 -0.2054 -0.4577
  150SAPE  C21116531  -0.535   0.700   6.199 -0.0447 -0.0129  1.2580
  150SAPE  H11R16532  -0.630   0.648   6.217  0.5411 -0.9515  1.7130
  150SAPE  C21216533  -0.471   0.683   6.078 -0.8953 -0.1124  0.8506
  150SAPE  H12R16534  -0.516   0.634   5.991  2.1014 -0.4095 -0.6776
  150SAPE  C21316535  -0.338   0.746   6.046  0.7312 -0.5730  0.8897
  150SAPE  H13R16536  -0.274   0.661   6.014  0.1961 -0.0489 -1.7874
  150SAPE  H13S16537  -0.277   0.776   6.134  3.0532  2.8894 -1.5974
  150SAPE  C21416538  -0.346   0.863   5.947  0.1545 -0.0921 -0.2281
  150SAPE  H14R16539  -0.426   0.934   5.970 -1.1223 -2.3506  3.2363
  150SAPE  C21516540  -0.267   0.865   5.836 -0.5744 -0.2852 -0.3265
  150SAPE  H15R16541  -0.286   0.938   5.757  1.4548 -0.7243 -1.2801
  150SAPE  C21616542  -0.152   0.772   5.809 -0.5738  0.1592  0.1403
  150SAPE  H16R16543  -0.136   0.771   5.699 -0.8728 -1.0006  0.1010
  150SAPE  H16S16544  -0.181   0.670   5.840 -0.6493  0.8987  2.6987
  150SAPE  C21716545  -0.017   0.814   5.885  0.6361  0.0244 -0.0380
  150SAPE  H17R16546   0.062   0.739   5.863  1.3919  0.6065  0.6402
  150SAPE  H17S16547  -0.037   0.798   5.993 -0.3764 -0.1180 -0.2293
  150SAPE  C21816548   0.021   0.955   5.859  0.1608 -0.1078 -0.2987
  150SAPE  H18R16549  -0.066   1.021   5.880  0.6006  0.4430 -0.1828
  150SAPE  H18S16550   0.056   0.962   5.754  0.7714 -1.1745 -0.1865
  150SAPE  C21916551   0.143   0.998   5.948  0.5971  0.3186  0.0071
  150SAPE  H19R16552   0.185   1.096   5.916 -0.2219  0.0938 -1.8807
  150SAPE  H19S16553   0.217   0.923   5.913 -1.0371 -0.2980 -2.3440
  150SAPE  C22016554   0.106   0.991   6.101  0.3616  0.1083 -1.3160
  150SAPE  H20R16555   0.165   1.065   6.160 -0.3672 -0.5480  0.2822
  150SAPE  H20S16556   0.125   0.891   6.143 -1.5120  0.2697  0.0492
  150SAPE  H20T16557  -0.001   1.019   6.115  0.0537 -2.1084  1.7273
  150SAPE   C3316558   0.090   1.650   6.775  0.2605  0.4861 -0.1374
  150SAPE   H3X16559   0.094   1.727   6.695 -2.7024 -1.1840 -2.0548
  150SAPE   H3Y16560  -0.019   1.636   6.792 -0.2366  0.5211 -2.8880
  150SAPE   C3416561   0.143   1.523   6.705 -0.3830 -0.1444 -0.2968
  150SAPE   H4X16562   0.126   1.429   6.762  1.7958 -0.9325 -0.8457
  150SAPE   H4Y16563   0.252   1.542   6.701 -0.4228  0.4452  0.9963
  150SAPE   C3516564   0.091   1.507   6.563 -0.0145  0.3234  1.1353
  150SAPE   H5X16565   0.074   1.604   6.512 -3.3621 -1.2456 -1.0952
  150SAPE   H5Y16566  -0.012   1.466   6.567  0.7224 -1.5892  1.2655
  150SAPE   C3616567   0.174   1.409   6.481 -0.5071 -0.7255  0.0969
  150SAPE   H6X16568   0.171   1.313   6.537 -0.2113 -1.8057 -1.6858
  150SAPE   H6Y16569   0.281   1.436   6.489  0.1579 -2.1349 -2.8248
  150SAPE   C3716570   0.123   1.405   6.339  0.3103  0.1026  0.7367
  150SAPE   H7X16571   0.020   1.364   6.329  1.1650 -2.2031  0.7396
  150SAPE   H7Y16572   0.199   1.333   6.301 -0.2377 -0.3864  0.5429
  150SAPE   C3816573   0.132   1.531   6.255 -0.8818  0.3941  0.5092
  150SAPE   H8X16574   0.230   1.584   6.258 -0.7817  0.3480 -0.9944
  150SAPE   H8Y16575   0.059   1.602   6.299 -0.8230 -0.0069  1.2568
  150SAPE   C3916576   0.096   1.514   6.108  0.5316 -0.5143 -0.0565
  150SAPE   H9X16577   0.097   1.618   6.067  4.2110 -0.3497  0.1078
  150SAPE   H9Y16578  -0.011   1.483   6.097 -0.2199  2.0557 -0.7732
  150SAPE  C31016579   0.178   1.416   6.025  0.7026  0.0968 -0.1880
  150SAPE  H10X16580   0.135   1.314   6.022 -1.6821  1.0514 -2.3717
  150SAPE  H10Y16581   0.277   1.391   6.067  0.6325 -0.3595 -0.2911
  150SAPE  C31116582   0.189   1.473   5.881 -0.3538 -0.1895 -0.7779
  150SAPE  H11X16583   0.221   1.578   5.895 -1.3838  0.0060  0.3407
  150SAPE  H11Y16584   0.091   1.479   5.829 -0.4427 -2.5014 -0.9641
  150SAPE  C31216585   0.261   1.380   5.787 -0.2174 -1.3886  0.6347
  150SAPE  H12X16586   0.206   1.284   5.778 -0.0173 -1.3681 -0.9555
  150SAPE  H12Y16587   0.367   1.370   5.820  0.7644  1.5165 -1.2921
  150SAPE  C31316588   0.252   1.431   5.642  0.3628  0.0529  0.0757
  150SAPE  H13X16589   0.310   1.525   5.637 -1.2274  1.2095  1.9644
  150SAPE  H13Y16590   0.149   1.451   5.607  1.3029  2.2937 -1.6231
  150SAPE  C31416591   0.308   1.329   5.537  0.3412  0.7839  0.6626
  150SAPE  H14X16592   0.230   1.250   5.533  0.4253  0.6233  1.8399
  150SAPE  H14Y16593   0.408   1.285   5.560 -0.6220  0.0962  3.9404
  150SAPE  C31516594   0.306   1.389   5.393 -0.1301  0.3869  0.0276
  150SAPE  H15X16595   0.373   1.477   5.389  0.2994  0.0669  0.0584
  150SAPE  H15Y16596   0.206   1.421   5.357 -0.6260 -0.9859  0.1209
  150SAPE  C31616597   0.364   1.292   5.287  0.2361  0.3706  0.3729
  150SAPE  H16X16598   0.297   1.205   5.275  0.0058  0.5623  0.2681
  150SAPE  H16Y16599   0.463   1.249   5.314 -0.7520 -1.6881  0.9053
  150SAPE  C31716600   0.380   1.349   5.148  0.6777 -0.3070  0.6397
  150SAPE  H17X16601   0.476   1.405   5.146  0.5752 -0.1339 -0.3440
  150SAPE  H17Y16602   0.296   1.419   5.127  0.1165 -1.3399 -0.7481
  150SAPE  C31816603   0.390   1.255   5.034  0.1745  0.5452  0.1195
  150SAPE  H18X16604   0.474   1.184   5.046  0.3125 -0.1588 -3.6346
  150SAPE  H18Y16605   0.411   1.314   4.942 -0.9311  0.0915 -0.4396
  150SAPE  H18Z16606   0.301   1.190   5.019  0.1857  0.7562 -0.9586
  151SAPE     N16607   5.769   1.279   7.497 -0.0339  0.2194  0.4218
  151SAPE   HN116608   5.706   1.205   7.535 -3.5926  3.5846  1.7521
  151SAPE   HN216609   5.859   1.237   7.468 -0.8993 -0.7077 -1.0635
  151SAPE   HN316610   5.806   1.337   7.575 -0.8356  2.6911 -0.9418
  151SAPE   C1216611   5.701   1.354   7.384  0.0136 -0.5122 -0.3086
  151SAPE  H12A16612   5.626   1.426   7.424  1.5977  1.5301 -0.8334
  151SAPE  H12B16613   5.646   1.277   7.326  0.8055 -0.2566 -1.4139
  151SAPE   C1116614   5.808   1.416   7.294  0.0554  0.5335  0.1038
  151SAPE  H11A16615   5.846   1.494   7.364  1.2056  2.4753 -2.5273
  151SAPE  H11B16616   5.752   1.471   7.216 -1.1108  1.7797  1.7540
  151SAPE     P16617   5.888   1.238   7.111  0.2359  0.2332  0.3693
  151SAPE   O1316618   6.012   1.161   7.082  0.1176  0.3313  0.2189
  151SAPE   O1416619   5.767   1.154   7.120 -0.0424 -0.3590 -0.5007
  151SAPE   O1216620   5.903   1.330   7.245  0.5322  0.3294 -0.8083
  151SAPE   O1116621   5.865   1.343   7.001  0.3677 -0.3275 -0.1456
  151SAPE    C116622   5.966   1.429   6.945  0.3054 -0.0715 -0.1812
  151SAPE    HA16623   5.922   1.530   6.927  0.1285 -0.2215 -0.6032
  151SAPE    HB16624   6.042   1.454   7.022  1.0767  1.6521 -1.4516
  151SAPE    C216625   6.021   1.378   6.812 -0.2812 -0.0090  0.5860
  151SAPE    HS16626   6.102   1.303   6.824  0.1651  0.1905 -0.8891
  151SAPE   O2116627   6.059   1.489   6.729  0.6941  0.4432 -0.4973
  151SAPE   C2116628   6.177   1.545   6.759  0.2163 -0.3142 -0.4116
  151SAPE   O2216629   6.246   1.518   6.856  0.3527 -0.3247  0.0631
  151SAPE   C2216630   6.229   1.641   6.645  0.1185 -0.3507 -0.7173
  151SAPE   H2R16631   6.155   1.724   6.645  0.1423 -0.3302 -0.5127
  151SAPE   H2S16632   6.328   1.675   6.681  0.3475  0.4469 -2.0391
  151SAPE    C316633   5.912   1.295   6.736 -0.1618  0.1268 -0.2797
  151SAPE    HX16634   5.819   1.356   6.732 -0.8759 -0.9651 -1.4547
  151SAPE    HY16635   5.885   1.202   6.790 -1.3442  0.8781  0.4876
  151SAPE   O3116636   5.950   1.267   6.600 -0.4630 -0.0722 -0.3935
  151SAPE   C3116637   6.011   1.154   6.577 -0.2593  0.4915 -0.4517
  151SAPE   O3216638   6.036   1.067   6.660 -0.2185 -0.1761  0.9255
  151SAPE   C3216639   6.039   1.149   6.421  0.1627 -0.7061 -0.0039
  151SAPE   H2X16640   5.977   1.225   6.369 -0.9644 -1.7292 -0.2115
  151SAPE   H2Y16641   6.022   1.043   6.393 -0.3898 -0.0441 -2.3687
  151SAPE   C2316642   6.233   1.586   6.504 -0.0652  0.1149 -0.6256
  151SAPE   H3R16643   6.132   1.555   6.469 -0.3543  1.0435 -0.6622
  151SAPE   H3S16644   6.297   1.496   6.511 -2.0336 -1.2090  2.7285
  151SAPE   C2416645   6.302   1.680   6.405  0.1597  0.0753 -0.0505
  151SAPE   H4R16646   6.310   1.639   6.302 -3.4304  1.6777 -1.1425
  151SAPE   H4S16647   6.405   1.707   6.435 -0.0122 -0.3371  0.9557
  151SAPE   C2516648   6.217   1.802   6.387 -0.5987 -0.8031  0.1090
  151SAPE   H5R16649   6.179   1.855   6.476 -1.2832 -0.7611 -0.1970
  151SAPE   C2616650   6.171   1.853   6.270 -0.3722 -0.4525  0.0958
  151SAPE   H6R16651   6.122   1.951   6.263  0.0947 -0.3350 -2.2117
  151SAPE   C2716652   6.219   1.811   6.133  0.6226  0.4075  0.2731
  151SAPE   H7R16653   6.172   1.887   6.066  0.8776 -0.1389 -0.5325
  151SAPE   H7S16654   6.180   1.712   6.102  0.2335  0.7573 -0.3629
  151SAPE   C2816655   6.368   1.810   6.102 -0.3341 -0.7744 -0.9107
  151SAPE   H8R16656   6.430   1.819   6.193 -0.6076 -0.0301 -0.7986
  151SAPE   C2916657   6.426   1.799   5.980  0.3247  0.0371 -0.3586
  151SAPE   H9R16658   6.535   1.814   5.981  0.1818  1.0573  0.3318
  151SAPE  C21016659   6.359   1.792   5.846  0.0750  0.4804  0.4458
  151SAPE  H10R16660   6.321   1.894   5.822 -0.6405  0.0899 -0.1256
  151SAPE  H10S16661   6.268   1.731   5.862  1.3738 -1.3976  1.0240
  151SAPE  C21116662   6.441   1.742   5.727  0.1525  0.5692 -0.0653
  151SAPE  H11R16663   6.544   1.714   5.752  0.4287  1.3766 -0.2684
  151SAPE  C21216664   6.398   1.747   5.599  0.4838  0.1181  0.0017
  151SAPE  H12R16665   6.460   1.713   5.514 -0.2485 -1.2960  0.0082
  151SAPE  C21316666   6.262   1.782   5.547  0.3459 -0.3636 -0.0393
  151SAPE  H13R16667   6.195   1.807   5.632  1.8738  1.4703  0.6921
  151SAPE  H13S16668   6.218   1.693   5.497  0.4291 -0.0591 -0.6518
  151SAPE  C21416669   6.272   1.902   5.451 -0.0007  0.5650 -0.6277
  151SAPE  H14R16670   6.273   2.000   5.501  0.2079 -0.3006  1.1344
  151SAPE  C21516671   6.275   1.891   5.312 -0.6912 -0.0674 -0.0533
  151SAPE  H15R16672   6.279   1.986   5.257 -0.7604  1.3416  2.2463
  151SAPE  C21616673   6.277   1.769   5.222  0.2878 -0.2202 -0.2505
  151SAPE  H16R16674   6.186   1.762   5.159 -0.3162  0.3053  0.5450
  151SAPE  H16S16675   6.282   1.668   5.270 -0.1229 -0.7080 -1.2150
  151SAPE  C21716676   6.395   1.779   5.123  0.5434  0.0916  0.1006
  151SAPE  H17R16677   6.491   1.787   5.179  1.5108  1.7361 -1.6593
  151SAPE  H17S16678   6.375   1.872   5.067  0.8897 -1.0076 -1.9392
  151SAPE  C21816679   6.410   1.678   5.015  1.3326  0.3687 -0.4904
  151SAPE  H18R16680   6.318   1.662   4.955  0.5555 -2.0697  1.1578
  151SAPE  H18S16681   6.424   1.582   5.069 -2.5669  0.2182  0.5611
  151SAPE  C21916682   6.527   1.684   4.912  0.0746 -0.9422 -0.1862
  151SAPE  H19R16683   6.546   1.783   4.865  1.3571 -1.0377  0.0874
  151SAPE  H19S16684   6.503   1.611   4.832  0.9623 -0.8319 -0.5694
  151SAPE  C22016685   6.662   1.638   4.963  0.7048  0.3875  0.3922
  151SAPE  H20R16686   6.699   1.723   5.025 -0.4476  0.0396  1.6010
  151SAPE  H20S16687   6.737   1.628   4.882  1.5101 -0.2461  1.2024
  151SAPE  H20T16688   6.659   1.545   5.023 -3.7378  0.7653  1.1257
  151SAPE   C3316689   6.184   1.195   6.408 -0.2060  0.5427  0.6345
  151SAPE   H3X16690   6.239   1.134   6.483 -2.4645 -1.7846  0.5567
  151SAPE   H3Y16691   6.196   1.303   6.429 -2.1185  1.0819 -0.7096
  151SAPE   C3416692   6.238   1.159   6.264  0.2384 -0.4766  0.0641
  151SAPE   H4X16693   6.230   1.051   6.238 -1.2530 -0.8796  1.9148
  151SAPE   H4Y16694   6.347   1.179   6.260  0.7736 -3.0564 -0.0520
  151SAPE   C3516695   6.165   1.232   6.152 -0.9533 -0.4916  0.0788
  151SAPE   H5X16696   6.142   1.336   6.181  1.5592  0.3528 -0.6271
  151SAPE   H5Y16697   6.067   1.184   6.130 -0.8584  0.4165 -2.7898
  151SAPE   C3616698   6.253   1.240   6.031  0.0066 -0.3923 -0.2745
  151SAPE   H6X16699   6.224   1.160   5.960  2.6916 -2.2132  0.5012
  151SAPE   H6Y16700   6.357   1.212   6.060 -0.1912 -0.9698 -0.1058
  151SAPE   C3716701   6.243   1.374   5.960 -0.0506  0.4592 -0.0724
  151SAPE   H7X16702   6.244   1.458   6.032  0.7782  1.0758 -0.7940
  151SAPE   H7Y16703   6.137   1.378   5.927 -0.4255  2.0305  1.2120
  151SAPE   C3816704   6.337   1.386   5.844 -0.6395 -0.8143 -0.8140
  151SAPE   H8X16705   6.441   1.370   5.878 -1.1032  0.0242  1.1855
  151SAPE   H8Y16706   6.340   1.490   5.806 -1.3782 -1.0039 -1.4089
  151SAPE   C3916707   6.311   1.299   5.720  0.8402 -0.2124 -0.1003
  151SAPE   H9X16708   6.203   1.310   5.698  0.7020 -0.6060  0.3540
  151SAPE   H9Y16709   6.340   1.197   5.752  1.0228 -0.0210  0.3450
  151SAPE  C31016710   6.399   1.336   5.602  0.7411  0.0360  0.0560
  151SAPE  H10X16711   6.502   1.344   5.644  1.0726 -0.8819 -0.5337
  151SAPE  H10Y16712   6.374   1.435   5.559  0.1334  0.8905  2.2097
  151SAPE  C31116713   6.397   1.220   5.502  0.1604  0.6811  0.3851
  151SAPE  H11X16714   6.291   1.205   5.470  0.2720 -0.5005  0.5513
  151SAPE  H11Y16715   6.438   1.124   5.538 -0.9196  0.5523  1.3236
  151SAPE  C31216716   6.454   1.260   5.368 -0.4043 -0.2666  0.0955
  151SAPE  H12X16717   6.555   1.304   5.377 -0.5178 -0.1480  0.8131
  151SAPE  H12Y16718   6.392   1.342   5.325  1.0381 -0.0575 -1.6847
  151SAPE  C31316719   6.453   1.142   5.269  0.5145  0.5799 -0.0926
  151SAPE  H13X16720   6.350   1.103   5.252  0.7372 -0.2744  0.4663
  151SAPE  H13Y16721   6.506   1.057   5.317 -1.8328 -0.9849 -0.1097
  151SAPE  C31416722   6.518   1.179   5.139  0.6505 -0.2016  0.2543
  151SAPE  H14X16723   6.572   1.092   5.097  1.1989  0.2523 -0.0095
  151SAPE  H14Y16724   6.596   1.258   5.148  0.3498 -0.0367  1.4756
  151SAPE  C31516725   6.428   1.236   5.028  0.3279  0.5691 -0.0352
  151SAPE  H15X16726   6.478   1.268   4.934  3.3981 -2.1961  0.4908
  151SAPE  H15Y16727   6.386   1.328   5.074 -1.8263 -0.7782  0.9159
  151SAPE  C31616728   6.308   1.145   4.999 -0.3365 -0.0470  0.5430
  151SAPE  H16X16729   6.224   1.168   5.067  0.0416 -1.3546  1.4847
  151SAPE  H16Y16730   6.329   1.036   4.998 -0.5613 -0.0909 -0.4818
  151SAPE  C31716731   6.262   1.190   4.861  0.0977  0.4938 -0.6210
  151SAPE  H17X16732   6.276   1.298   4.840  2.9588  0.9668  2.8235
  151SAPE  H17Y16733   6.153   1.171   4.846 -0.4483  1.7979  1.4166
  151SAPE  C31816734   6.333   1.110   4.749 -0.5324  0.1938 -0.1746
  151SAPE  H18X16735   6.323   1.000   4.764 -0.9335  0.2923  0.2871
  151SAPE  H18Y16736   6.441   1.135   4.761 -0.1180 -0.1591 -2.5766
  151SAPE  H18Z16737   6.306   1.145   4.647  0.6563 -0.0476 -0.5951
  152SAPE     N16738   2.777   0.974   7.350  0.6633 -0.0785  0.2650
  152SAPE   HN116739   2.836   0.999   7.432  0.1803  2.3132 -0.0506
  152SAPE   HN216740   2.795   1.039   7.271 -0.1283  0.3255  0.3985
  152SAPE   HN316741   2.680   0.997   7.382 -0.6772  0.3440 -3.5569
  152SAPE   C1216742   2.795   0.828   7.310  0.0601  0.4774  0.5885
  152SAPE  H12A16743   2.695   0.797   7.274  0.1147  0.6865  0.2491
  152SAPE  H12B16744   2.809   0.771   7.404 -1.6709  0.4701  0.8773
  152SAPE   C1116745   2.910   0.806   7.214  0.5769  0.4291  0.7568
  152SAPE  H11A16746   2.915   0.696   7.196 -3.2283  0.2926 -0.3340
  152SAPE  H11B16747   3.006   0.833   7.263  0.9262  0.6208 -0.0363
  152SAPE     P16748   2.775   0.824   6.989 -0.1425  0.7402 -0.1473
  152SAPE   O1316749   2.726   0.699   7.044  0.1602 -0.5506 -0.1405
  152SAPE   O1416750   2.670   0.925   6.983  0.1874  0.1056 -0.1957
  152SAPE   O1216751   2.889   0.871   7.095 -0.3510  0.4188 -1.0565
  152SAPE   O1116752   2.855   0.803   6.858  0.2415  0.0321  0.0733
  152SAPE    C116753   2.988   0.749   6.847  0.5855  0.7089 -0.0915
  152SAPE    HA16754   3.058   0.834   6.834  1.2760  0.3486  1.1360
  152SAPE    HB16755   3.015   0.697   6.942 -0.6153  0.3991  0.0997
  152SAPE    C216756   2.992   0.660   6.715 -0.5445  0.0176  0.2352
  152SAPE    HS16757   3.095   0.634   6.683 -0.9251  0.3257 -1.3045
  152SAPE   O2116758   2.937   0.729   6.605  0.1484 -0.4331  0.1384
  152SAPE   C2116759   3.013   0.828   6.557  0.4754  0.5425  0.2705
  152SAPE   O2216760   3.127   0.853   6.584  0.7048 -0.1862 -0.6364
  152SAPE   C2216761   2.938   0.903   6.452  0.2151 -0.0756  0.0288
  152SAPE   H2R16762   2.834   0.902   6.490  0.4324  2.4582  0.8756
  152SAPE   H2S16763   2.972   1.009   6.456 -2.0024  0.7094 -0.6081
  152SAPE    C316764   2.923   0.528   6.748 -0.0504 -0.1052  0.6868
  152SAPE    HX16765   2.816   0.543   6.774  0.3112 -1.3323  3.1389
  152SAPE    HY16766   2.966   0.478   6.837 -0.6777 -1.7533  0.1153
  152SAPE   O3116767   2.919   0.441   6.628  0.1075  0.2457  0.0557
  152SAPE   C3116768   3.014   0.362   6.602 -0.9082  0.0970  0.0012
  152SAPE   O3216769   3.125   0.369   6.656 -0.0950  0.0685  0.6045
  152SAPE   C3216770   2.978   0.258   6.491 -0.8344 -0.3131  0.1355
  152SAPE   H2X16771   2.936   0.325   6.413  0.2866 -1.1432 -1.2190
  152SAPE   H2Y16772   2.896   0.189   6.522  0.2298 -1.8549 -0.4116
  152SAPE   C2316773   2.950   0.836   6.311  0.4301 -0.0023  0.3216
  152SAPE   H3R16774   2.920   0.730   6.319 -0.2883  0.1631 -0.1106
  152SAPE   H3S16775   3.058   0.831   6.286  0.1370  2.1305 -1.8163
  152SAPE   C2416776   2.859   0.895   6.203  0.6891 -0.4103  0.5825
  152SAPE   H4R16777   2.872   1.006   6.197 -0.6124 -0.3344 -1.3502
  152SAPE   H4S16778   2.754   0.879   6.233  0.2063  0.7837 -0.3677
  152SAPE   C2516779   2.897   0.841   6.068  0.2702 -0.4607  1.0078
  152SAPE   H5R16780   2.961   0.752   6.073 -2.4766 -2.7380 -1.0125
  152SAPE   C2616781   2.884   0.907   5.952  0.4531 -0.2338  0.0919
  152SAPE   H6R16782   2.913   0.844   5.866  1.0700 -1.7927  1.3788
  152SAPE   C2716783   2.819   1.040   5.914 -0.0650 -0.3806 -0.3011
  152SAPE   H7R16784   2.844   1.107   5.998  0.4380 -0.9759  0.0288
  152SAPE   H7S16785   2.709   1.029   5.902 -0.2476 -1.6278  1.9685
  152SAPE   C2816786   2.867   1.098   5.786  0.3620 -0.4886  0.0961
  152SAPE   H8R16787   2.972   1.070   5.765  0.4761 -1.5622  1.8966
  152SAPE   C2916788   2.799   1.187   5.705  0.5931 -0.5949 -1.0420
  152SAPE   H9R16789   2.842   1.213   5.607 -1.3031 -0.6526 -1.9322
  152SAPE  C21016790   2.658   1.238   5.727  0.3730  0.1691  0.5379
  152SAPE  H10R16791   2.613   1.182   5.813 -0.6820 -0.7489 -0.5724
  152SAPE  H10S16792   2.602   1.198   5.640  1.3984 -3.0513  1.2130
  152SAPE  C21116793   2.654   1.382   5.752  0.3867  0.8022  0.8295
  152SAPE  H11R16794   2.646   1.407   5.858 -0.2784 -0.1344  1.0051
  152SAPE  C21216795   2.640   1.483   5.659  0.4717 -0.1677  0.1271
  152SAPE  H12R16796   2.646   1.586   5.695 -0.7218  0.4357 -1.2877
  152SAPE  C21316797   2.638   1.469   5.505  0.1518  0.4285  0.0445
  152SAPE  H13R16798   2.584   1.378   5.472 -1.0796  0.8537  0.8186
  152SAPE  H13S16799   2.738   1.478   5.457  0.5914  0.4457  0.9372
  152SAPE  C21416800   2.565   1.584   5.449 -0.1573  0.5864 -0.7053
  152SAPE  H14R16801   2.498   1.634   5.521 -0.4128  1.7730 -1.7092
  152SAPE  C21516802   2.577   1.641   5.327 -0.0692 -0.1703  0.2450
  152SAPE  H15R16803   2.515   1.730   5.305  0.4826  0.4305  1.1087
  152SAPE  C21616804   2.656   1.595   5.207 -1.3685  0.3265 -0.5967
  152SAPE  H16R16805   2.666   1.485   5.214 -0.0375  0.5195  1.0312
  152SAPE  H16S16806   2.752   1.650   5.213  0.0141 -1.4724 -3.6216
  152SAPE  C21716807   2.580   1.634   5.076 -0.6299 -0.3168  0.2379
  152SAPE  H17R16808   2.571   1.744   5.067  0.3554 -0.3122 -1.0132
  152SAPE  H17S16809   2.479   1.588   5.072 -1.7524  2.0655 -2.0533
  152SAPE  C21816810   2.652   1.599   4.943  0.2398 -0.0187  0.1054
  152SAPE  H18R16811   2.754   1.643   4.943 -0.2880  1.3319 -1.5956
  152SAPE  H18S16812   2.603   1.650   4.857  0.8978 -0.3547 -0.4780
  152SAPE  C21916813   2.661   1.446   4.915 -0.1633  0.3633 -0.4430
  152SAPE  H19R16814   2.690   1.394   5.009 -1.8436 -0.3503 -0.2649
  152SAPE  H19S16815   2.743   1.425   4.843 -0.3357 -1.3271 -0.1952
  152SAPE  C22016816   2.533   1.382   4.873  0.2353 -0.3786 -0.2139
  152SAPE  H20R16817   2.537   1.280   4.828  0.9591 -0.0163 -1.0130
  152SAPE  H20S16818   2.483   1.437   4.790  0.7270 -1.8665 -1.5526
  152SAPE  H20T16819   2.465   1.384   4.960  0.5953  2.4511  0.0967
  152SAPE   C3316820   3.103   0.178   6.441 -0.6402 -0.2589  0.0804
  152SAPE   H3X16821   3.140   0.112   6.522 -0.8880 -1.5130 -0.7923
  152SAPE   H3Y16822   3.190   0.236   6.404  0.1702 -1.0356  0.7454
  152SAPE   C3416823   3.078   0.086   6.328  0.2168  0.2301 -0.0459
  152SAPE   H4X16824   3.001   0.009   6.351  1.2952 -0.9604 -0.3148
  152SAPE   H4Y16825   3.171   0.028   6.312  0.8383  0.0633  3.3665
  152SAPE   C3516826   3.062   0.150   6.190 -0.2239  0.0698  0.7070
  152SAPE   H5X16827   3.157   0.203   6.164 -0.6608 -0.5572 -2.6475
  152SAPE   H5Y16828   2.984   0.229   6.192  2.5231  3.1038 -1.0385
  152SAPE   C3616829   3.038   0.054   6.068 -0.1993 -0.0618 -0.2230
  152SAPE   H6X16830   2.947   0.001   6.103  1.5118 -1.7001  2.0416
  152SAPE   H6Y16831   3.120  -0.019   6.082 -0.5097 -0.3790 -0.0319
  152SAPE   C3716832   3.041   0.121   5.934  0.4342  0.3339  0.0389
  152SAPE   H7X16833   3.140   0.172   5.928  1.2346 -1.0477  0.8643
  152SAPE   H7Y16834   2.960   0.197   5.934  0.4960  0.4060 -0.5789
  152SAPE   C3816835   3.026   0.031   5.816  0.0513  0.2902  0.3949
  152SAPE   H8X16836   2.927  -0.017   5.828 -0.2962  1.3228  1.9621
  152SAPE   H8Y16837   3.095  -0.056   5.821 -2.3335 -1.7648 -0.1282
  152SAPE   C3916838   3.029   0.107   5.681 -0.3336  0.6118  0.2225
  152SAPE   H9X16839   3.123   0.164   5.668 -0.8315  1.6985  1.2013
  152SAPE   H9Y16840   2.961   0.194   5.675 -0.5731  0.6594  2.6676
  152SAPE  C31016841   2.984   0.011   5.566  0.7559  0.0633 -0.4940
  152SAPE  H10X16842   2.877  -0.008   5.587  1.1162  0.5550  2.1866
  152SAPE  H10Y16843   3.037  -0.087   5.569  2.0413  0.6728 -1.7985
  152SAPE  C31116844   2.986   0.062   5.430 -0.2388 -0.0400  0.7028
  152SAPE  H11X16845   3.089   0.093   5.402  0.0574 -1.1343  0.5195
  152SAPE  H11Y16846   2.923   0.153   5.429 -0.0112  0.1286 -0.8360
  152SAPE  C31216847   2.935  -0.045   5.323 -0.8300  0.3137 -0.0516
  152SAPE  H12X16848   2.898   0.029   5.249 -0.8735 -1.8734 -2.3314
  152SAPE  H12Y16849   2.846  -0.097   5.364 -0.1788  1.0318  2.4948
  152SAPE  C31316850   3.044  -0.144   5.261  0.3435 -0.1948 -0.8238
  152SAPE  H13X16851   3.092  -0.188   5.350 -0.4555 -0.1802 -0.3756
  152SAPE  H13Y16852   3.127  -0.085   5.217 -0.9996  1.9722 -0.6329
  152SAPE  C31416853   2.992  -0.248   5.164  0.2379  0.0760 -0.0201
  152SAPE  H14X16854   2.918  -0.205   5.093 -2.4406 -0.0919  2.5154
  152SAPE  H14Y16855   2.931  -0.325   5.215  1.6650  0.3702  2.2637
  152SAPE  C31516856   3.108  -0.305   5.077  0.3411 -0.1076  0.4188
  152SAPE  H15X16857   3.147  -0.399   5.122  1.4363  0.4514  0.6791
  152SAPE  H15Y16858   3.195  -0.239   5.101  1.3047 -2.2500  3.6409
  152SAPE  C31616859   3.094  -0.308   4.922 -0.4950  0.3465  0.2683
  152SAPE  H16X16860   3.192  -0.316   4.871 -0.1845 -0.7015  1.0113
  152SAPE  H16Y16861   3.041  -0.215   4.893 -1.1419 -0.6056 -1.7599
  152SAPE  C31716862   2.994  -0.422   4.884 -0.0299 -0.4428 -0.3909
  152SAPE  H17X16863   2.896  -0.408   4.935  1.4981  1.2841  2.2723
  152SAPE  H17Y16864   3.036  -0.514   4.931  0.8871  0.0743 -0.1700
  152SAPE  C31816865   2.962  -0.426   4.732 -0.2873  0.4025 -0.2019
  152SAPE  H18X16866   2.943  -0.323   4.696  0.0818  0.7389  0.5310
  152SAPE  H18Y16867   2.864  -0.478   4.723  0.7796 -1.4761 -1.4180
  152SAPE  H18Z16868   3.048  -0.471   4.679  0.9827  1.6322  0.7451
  153SAPE     N16869   2.670   6.180   7.514 -0.4259 -0.1452  0.2546
  153SAPE   HN116870   2.731   6.122   7.452  1.2735  2.4640 -0.7095
  153SAPE   HN216871   2.706   6.277   7.528  2.0180 -0.6385 -1.7939
  153SAPE   HN316872   2.657   6.133   7.605 -0.1411 -1.3965 -0.3295
  153SAPE   C1216873   2.549   6.193   7.429  0.3259 -0.0195  0.3873
  153SAPE  H12A16874   2.474   6.256   7.482 -1.2371 -0.2205 -1.4544
  153SAPE  H12B16875   2.514   6.090   7.404  1.1491 -0.1835 -0.1260
  153SAPE   C1116876   2.581   6.266   7.295  0.0159  0.1789 -0.7432
  153SAPE  H11A16877   2.498   6.283   7.224  2.1675  1.3908 -3.1168
  153SAPE  H11B16878   2.661   6.212   7.240  0.9979 -0.3037  1.0797
  153SAPE     P16879   2.748   6.478   7.257 -0.0007 -0.5608  0.2119
  153SAPE   O1316880   2.814   6.563   7.359 -0.6045  0.5500 -0.1330
  153SAPE   O1416881   2.824   6.387   7.172 -0.7727 -0.3503 -0.0096
  153SAPE   O1216882   2.634   6.395   7.328 -0.3363  0.0850  0.1313
  153SAPE   O1116883   2.665   6.575   7.164 -0.2963 -0.0812 -0.0541
  153SAPE    C116884   2.526   6.586   7.160  0.7669 -0.0783 -0.4524
  153SAPE    HA16885   2.470   6.541   7.244 -0.8993  1.1572 -0.8658
  153SAPE    HB16886   2.496   6.692   7.162  0.6137 -0.1304  0.7699
  153SAPE    C216887   2.460   6.516   7.040 -0.6218 -0.1822  0.3910
  153SAPE    HS16888   2.496   6.411   7.037  1.9627  0.5746 -3.4360
  153SAPE   O2116889   2.511   6.575   6.915  0.5434 -0.2875 -0.2416
  153SAPE   C2116890   2.524   6.491   6.815  0.0665 -0.2874 -0.5470
  153SAPE   O2216891   2.501   6.374   6.820  0.6645 -0.0761  0.6018
  153SAPE   C2216892   2.577   6.569   6.696 -0.3267 -0.3730 -0.8176
  153SAPE   H2R16893   2.503   6.652   6.689 -2.7106 -1.9120  2.8675
  153SAPE   H2S16894   2.663   6.618   6.746  0.8097 -0.9726 -2.1247
  153SAPE    C316895   2.305   6.525   7.054 -0.2913  0.3624 -0.6389
  153SAPE    HX16896   2.294   6.635   7.069 -1.0330  0.4561 -1.6953
  153SAPE    HY16897   2.276   6.495   7.156  2.2682  1.0852  0.3944
  153SAPE   O3116898   2.225   6.479   6.936 -0.4380  0.6122  0.0018
  153SAPE   C3116899   2.164   6.356   6.956  0.1702  0.1898 -0.2942
  153SAPE   O3216900   2.160   6.295   7.063 -0.4569  0.1742  1.0596
  153SAPE   C3216901   2.092   6.311   6.825  0.1745 -0.9253  0.7941
  153SAPE   H2X16902   2.143   6.225   6.777 -2.8645 -3.3344  1.5929
  153SAPE   H2Y16903   2.106   6.392   6.751  0.7588 -0.2856  1.5817
  153SAPE   C2316904   2.613   6.486   6.569  0.4464 -0.4587  1.0681
  153SAPE   H3R16905   2.537   6.409   6.541 -1.3927  1.1700  1.3576
  153SAPE   H3S16906   2.700   6.420   6.591  1.5658  0.2988 -0.8668
  153SAPE   C2416907   2.658   6.556   6.434 -0.1897  0.3757  0.0791
  153SAPE   H4R16908   2.710   6.487   6.365  0.1915  1.7012 -1.0072
  153SAPE   H4S16909   2.724   6.641   6.465 -0.2315  0.4701 -0.0938
  153SAPE   C2516910   2.536   6.619   6.371  0.4903  0.0803 -0.0258
  153SAPE   H5R16911   2.460   6.644   6.447 -0.6320  1.0705 -1.4173
  153SAPE   C2616912   2.522   6.648   6.242  0.1015  0.1687  0.1996
  153SAPE   H6R16913   2.425   6.685   6.206  1.1357  1.1437 -1.6717
  153SAPE   C2716914   2.626   6.628   6.128  0.5777  0.0190  0.1308
  153SAPE   H7R16915   2.728   6.616   6.171  0.4253  0.6936  0.6953
  153SAPE   H7S16916   2.637   6.723   6.073 -3.9834  0.5379 -0.2499
  153SAPE   C2816917   2.594   6.505   6.046  0.0049  0.3287  0.1008
  153SAPE   H8R16918   2.631   6.411   6.090  0.9264  0.6178 -0.0404
  153SAPE   C2916919   2.536   6.494   5.923  0.2667  0.3389 -0.8675
  153SAPE   H9R16920   2.520   6.389   5.894 -0.7011 -1.0077  3.7270
  153SAPE  C21016921   2.474   6.611   5.846  0.0825  0.6562  0.8478
  153SAPE  H10R16922   2.422   6.681   5.915 -1.0140  1.7034 -0.9627
  153SAPE  H10S16923   2.388   6.566   5.790  1.8299 -2.5473  0.4925
  153SAPE  C21116924   2.571   6.688   5.764  0.1043 -0.4681  0.0280
  153SAPE  H11R16925   2.626   6.760   5.825 -0.6502 -1.1399  1.5516
  153SAPE  C21216926   2.599   6.673   5.636 -0.0386  0.3697  0.7461
  153SAPE  H12R16927   2.688   6.727   5.601  0.0239 -2.4341 -4.3213
  153SAPE  C21316928   2.539   6.573   5.539  0.4900  0.1301 -0.7576
  153SAPE  H13R16929   2.538   6.474   5.590 -1.3553  0.8873  0.8092
  153SAPE  H13S16930   2.604   6.576   5.449  0.3426  3.0783 -0.8830
  153SAPE  C21416931   2.393   6.603   5.503  0.0776  0.4518 -0.4475
  153SAPE  H14R16932   2.323   6.603   5.588 -0.5100  1.3882 -0.9065
  153SAPE  C21516933   2.322   6.605   5.386  0.3643  0.2510 -0.3424
  153SAPE  H15R16934   2.214   6.623   5.395  0.1251 -1.5582  1.0328
  153SAPE  C21616935   2.371   6.592   5.245  0.3652  0.7043  0.1171
  153SAPE  H16R16936   2.304   6.514   5.203  1.4254 -0.4616  0.5294
  153SAPE  H16S16937   2.475   6.560   5.221 -0.5860 -0.6834 -2.5685
  153SAPE  C21716938   2.347   6.721   5.168 -0.1975  0.0244 -0.1379
  153SAPE  H17R16939   2.241   6.753   5.175  0.2158  1.3945  0.2394
  153SAPE  H17S16940   2.375   6.702   5.062 -1.2228 -1.2304 -0.2113
  153SAPE  C21816941   2.408   6.853   5.215  0.5850  0.0438 -0.6409
  153SAPE  H18R16942   2.518   6.838   5.211  0.3590 -1.9127 -0.5739
  153SAPE  H18S16943   2.380   6.879   5.319  0.6524  1.7962 -1.0225
  153SAPE  C21916944   2.382   6.967   5.117  0.5120 -0.7126 -0.4474
  153SAPE  H19R16945   2.271   6.975   5.124  0.6173  1.6781 -0.9312
  153SAPE  H19S16946   2.408   6.948   5.011 -0.0203 -2.3580 -0.3152
  153SAPE  C22016947   2.434   7.105   5.158  0.5978 -0.0047 -0.1968
  153SAPE  H20R16948   2.453   7.169   5.069  0.2859 -0.3416 -0.5113
  153SAPE  H20S16949   2.531   7.102   5.212 -0.6398  1.2479  2.2347
  153SAPE  H20T16950   2.359   7.153   5.223  1.1101  1.6482 -0.7917
  153SAPE   C3316951   1.938   6.275   6.828  0.5299  0.0572  0.3251
  153SAPE   H3X16952   1.878   6.368   6.828 -2.5467 -1.6858 -2.8546
  153SAPE   H3Y16953   1.920   6.225   6.925  0.4598  1.5397  1.1002
  153SAPE   C3416954   1.893   6.184   6.711 -0.1000 -0.0716 -0.4941
  153SAPE   H4X16955   1.786   6.157   6.728  0.6178 -2.2333  0.9592
  153SAPE   H4Y16956   1.960   6.096   6.700 -0.0902 -0.4007  1.7860
  153SAPE   C3516957   1.912   6.252   6.578  0.6523  0.1769 -0.0652
  153SAPE   H5X16958   2.020   6.267   6.558  0.5763 -0.2039 -0.8007
  153SAPE   H5Y16959   1.877   6.358   6.572  1.5214  0.5597  1.2124
  153SAPE   C3616960   1.850   6.164   6.465 -0.2664 -0.1829 -0.4677
  153SAPE   H6X16961   1.741   6.170   6.487  0.1464 -2.1238  2.7377
  153SAPE   H6Y16962   1.886   6.060   6.480 -0.7201 -0.2344  0.3132
  153SAPE   C3716963   1.877   6.217   6.326 -0.2699 -0.6406 -0.2404
  153SAPE   H7X16964   1.982   6.246   6.305 -0.7202  0.6087 -0.9079
  153SAPE   H7Y16965   1.827   6.316   6.316  0.9871  0.1648  1.0734
  153SAPE   C3816966   1.819   6.119   6.229 -0.5260  0.3690  0.9555
  153SAPE   H8X16967   1.714   6.093   6.254 -1.7686  1.3280 -2.5945
  153SAPE   H8Y16968   1.875   6.023   6.227 -0.6193  0.2739 -2.0485
  153SAPE   C3916969   1.827   6.178   6.089  0.2693 -0.2341  0.3000
  153SAPE   H9X16970   1.934   6.206   6.072  0.6515  0.4182  3.2688
  153SAPE   H9Y16971   1.756   6.259   6.062  2.6138  1.6889 -0.4735
  153SAPE  C31016972   1.792   6.068   5.994 -0.3126 -0.6078 -0.2894
  153SAPE  H10X16973   1.699   6.011   6.014  0.3004 -2.0548 -1.3747
  153SAPE  H10Y16974   1.875   5.994   6.000 -1.3036 -1.6585  1.8219
  153SAPE  C31116975   1.792   6.113   5.854  0.3237 -1.4277 -0.4052
  153SAPE  H11X16976   1.892   6.158   5.839  0.0931 -0.2309  1.3258
  153SAPE  H11Y16977   1.721   6.197   5.844  0.9051 -0.9733 -0.7475
  153SAPE  C31216978   1.765   5.989   5.772  0.5365 -0.1629  0.3710
  153SAPE  H12X16979   1.667   5.953   5.810 -1.5935  2.1672 -2.4196
  153SAPE  H12Y16980   1.846   5.913   5.773  0.0058 -0.8475 -1.7994
  153SAPE  C31316981   1.737   6.031   5.621 -0.0155 -0.1515 -1.1009
  153SAPE  H13X16982   1.831   6.079   5.585  0.3998 -0.5230 -0.5341
  153SAPE  H13Y16983   1.653   6.103   5.619 -0.4486 -0.6136 -0.1511
  153SAPE  C31416984   1.714   5.906   5.534 -0.0964  0.1971 -0.2065
  153SAPE  H14X16985   1.630   5.843   5.573  0.5150 -0.7024 -0.3163
  153SAPE  H14Y16986   1.798   5.833   5.539 -0.4913 -0.3023 -0.6974
  153SAPE  C31516987   1.693   5.936   5.389 -0.7611  0.4253 -0.1740
  153SAPE  H15X16988   1.628   6.021   5.361  0.5410  1.1540 -1.0921
  153SAPE  H15Y16989   1.646   5.840   5.358 -0.7519 -0.3873  2.1211
  153SAPE  C31616990   1.822   5.960   5.320 -0.6037 -0.6528  0.0686
  153SAPE  H16X16991   1.882   5.870   5.344 -0.0178 -0.4269 -0.5253
  153SAPE  H16Y16992   1.884   6.042   5.360  0.6195 -2.3098  1.7125
  153SAPE  C31716993   1.828   5.963   5.160  0.7304  0.2762 -0.1357
  153SAPE  H17X16994   1.741   6.027   5.134 -0.5420 -1.3717 -0.0777
  153SAPE  H17Y16995   1.793   5.862   5.128  0.4562 -0.2762  1.7402
  153SAPE  C31816996   1.962   6.002   5.090  0.7967 -0.1222 -0.5627
  153SAPE  H18X16997   1.942   6.021   4.982 -0.2705  0.6154 -0.2556
  153SAPE  H18Y16998   2.048   5.939   5.119 -0.2703 -0.6831  1.6176
  153SAPE  H18Z16999   1.990   6.102   5.129  0.9979 -0.7862  1.0396
  154SAPE     N17000   5.994   5.327   7.510  0.1571  0.0106 -0.4641
  154SAPE   HN117001   5.899   5.329   7.554  1.0800  0.8710  1.6550
  154SAPE   HN217002   6.019   5.229   7.488 -0.2653 -0.1528 -0.2207
  154SAPE   HN317003   6.054   5.357   7.590  0.8172 -1.4983 -0.3621
  154SAPE   C1217004   6.002   5.424   7.399  0.8633 -0.1880  0.2575
  154SAPE  H12A17005   6.007   5.527   7.440 -1.2792 -0.2324  0.7629
  154SAPE  H12B17006   5.914   5.415   7.332  1.7941 -0.5223 -0.9564
  154SAPE   C1117007   6.133   5.409   7.317  0.0182  0.1483 -0.1195
  154SAPE  H11A17008   6.129   5.480   7.232 -1.3013 -0.3477 -0.4994
  154SAPE  H11B17009   6.122   5.307   7.273  0.2569 -0.1276  0.4427
  154SAPE     P17010   6.397   5.419   7.348 -0.1288 -0.3646  0.0832
  154SAPE   O1317011   6.483   5.513   7.424 -0.3798  0.6746 -0.5272
  154SAPE   O1417012   6.424   5.278   7.363 -0.3731  0.0895 -0.3937
  154SAPE   O1217013   6.250   5.433   7.398 -0.3052  0.0260  0.8155
  154SAPE   O1117014   6.389   5.443   7.191  0.2920  0.1993  0.3635
  154SAPE    C117015   6.386   5.575   7.137 -0.7201  0.4100 -0.3788
  154SAPE    HA17016   6.281   5.610   7.132 -0.8474 -0.1487 -1.9163
  154SAPE    HB17017   6.443   5.647   7.200 -1.1585  0.2052  0.2682
  154SAPE    C217018   6.463   5.594   7.009  0.4290  0.3782 -0.4364
  154SAPE    HS17019   6.477   5.700   6.981  0.1015  1.0323  1.7386
  154SAPE   O2117020   6.401   5.518   6.914 -0.2733  0.1269 -0.8920
  154SAPE   C2117021   6.305   5.580   6.847  0.1355  0.0314 -1.0192
  154SAPE   O2217022   6.268   5.694   6.874  0.3851 -0.1333 -0.4829
  154SAPE   C2217023   6.243   5.491   6.748  0.3787 -0.6872 -0.0926
  154SAPE   H2R17024   6.307   5.401   6.735  0.1581 -0.8966  0.2349
  154SAPE   H2S17025   6.150   5.454   6.797  0.9221 -0.2451  1.3531
  154SAPE    C317026   6.608   5.539   7.019  0.4666  0.0063  0.1759
  154SAPE    HX17027   6.615   5.435   7.058 -0.0095 -0.0419  0.1457
  154SAPE    HY17028   6.666   5.605   7.087 -0.9438  1.5011 -0.0064
  154SAPE   O3117029   6.666   5.538   6.887  0.4374  0.0649  0.4175
  154SAPE   C3117030   6.795   5.495   6.873 -0.2291  0.0496  0.4725
  154SAPE   O3217031   6.863   5.439   6.951  0.4099 -0.3339  0.0957
  154SAPE   C3217032   6.847   5.528   6.731 -0.2550  0.1035 -0.0754
  154SAPE   H2X17033   6.952   5.494   6.716  0.5843  2.8405 -0.8652
  154SAPE   H2Y17034   6.855   5.638   6.731 -0.0474  0.0949 -0.8208
  154SAPE   C2317035   6.197   5.559   6.616  0.3381 -0.6540  0.2755
  154SAPE   H3R17036   6.150   5.655   6.644  1.5105  0.5790 -1.7645
  154SAPE   H3S17037   6.125   5.487   6.572  1.7074 -0.5934 -2.2390
  154SAPE   C2417038   6.312   5.580   6.515  0.0087 -0.8113  0.1730
  154SAPE   H4R17039   6.387   5.641   6.569  1.0509 -2.5391  0.7545
  154SAPE   H4S17040   6.274   5.647   6.435 -1.4164 -0.6642  0.9379
  154SAPE   C2517041   6.368   5.458   6.451  0.1332 -0.1211 -0.4997
  154SAPE   H5R17042   6.459   5.406   6.485 -0.2717 -2.1105 -2.2095
  154SAPE   C2617043   6.312   5.398   6.346  0.5136 -0.3359  0.2431
  154SAPE   H6R17044   6.365   5.309   6.307  3.5350  1.1200  0.7514
  154SAPE   C2717045   6.180   5.420   6.277 -0.6106  0.0241  0.2437
  154SAPE   H7R17046   6.111   5.469   6.349  2.0584 -0.1816  3.1951
  154SAPE   H7S17047   6.143   5.323   6.240 -2.2626  0.7342 -0.0374
  154SAPE   C2817048   6.201   5.506   6.156 -0.1215 -0.0364 -0.0882
  154SAPE   H8R17049   6.209   5.614   6.179  5.2159 -0.2475  0.3127
  154SAPE   C2917050   6.205   5.465   6.032 -0.5347  0.3602  0.0193
  154SAPE   H9R17051   6.219   5.544   5.957 -0.6046  1.6522  1.3363
  154SAPE  C21017052   6.212   5.321   5.977 -0.4605 -0.1041 -0.0085
  154SAPE  H10R17053   6.130   5.315   5.902  2.2079 -1.0721 -3.1105
  154SAPE  H10S17054   6.195   5.242   6.053  1.1281 -0.4482  0.0223
  154SAPE  C21117055   6.345   5.293   5.906  0.3999  0.1262 -0.1034
  154SAPE  H11R17056   6.397   5.215   5.964 -1.6415 -1.5819 -0.4486
  154SAPE  C21217057   6.388   5.344   5.788 -0.0673 -0.9355  0.3455
  154SAPE  H12R17058   6.490   5.334   5.749 -0.2780  2.0832 -1.2870
  154SAPE  C21317059   6.304   5.436   5.701 -0.2517 -0.0355 -0.3224
  154SAPE  H13R17060   6.316   5.540   5.738  1.7421 -0.8456  1.5512
  154SAPE  H13S17061   6.196   5.416   5.717 -0.1318  1.1066  2.3901
  154SAPE  C21417062   6.338   5.424   5.554 -0.2945 -0.6343 -0.0279
  154SAPE  H14R17063   6.352   5.321   5.517 -1.4990 -0.5952 -0.6559
  154SAPE  C21517064   6.354   5.526   5.464 -0.0506 -0.6125 -0.8839
  154SAPE  H15R17065   6.382   5.503   5.360  3.1626  0.3880 -0.3349
  154SAPE  C21617066   6.343   5.676   5.483  0.2301 -0.0041  0.4037
  154SAPE  H16R17067   6.449   5.707   5.475  0.1187  0.6587  1.3910
  154SAPE  H16S17068   6.292   5.701   5.578 -1.6791 -0.7733 -0.3622
  154SAPE  C21717069   6.254   5.763   5.385 -0.3440  0.0768 -0.3280
  154SAPE  H17R17070   6.260   5.867   5.424 -1.8064  0.5769 -1.3488
  154SAPE  H17S17071   6.154   5.719   5.402  0.3992 -0.4824  3.5872
  154SAPE  C21817072   6.307   5.753   5.241  0.1204  0.3287  0.7568
  154SAPE  H18R17073   6.306   5.645   5.215  0.3028  0.6627 -0.7432
  154SAPE  H18S17074   6.416   5.774   5.253 -0.3152  2.2018  1.9378
  154SAPE  C21917075   6.247   5.845   5.143  0.2452  0.0529  0.3832
  154SAPE  H19R17076   6.303   5.825   5.049  0.9684 -0.7624  0.9678
  154SAPE  H19S17077   6.263   5.947   5.181 -0.6402  0.7379 -0.9820
  154SAPE  C22017078   6.100   5.818   5.121 -0.1268  0.2996  0.1953
  154SAPE  H20R17079   6.039   5.774   5.202 -2.0784  0.0310 -1.3420
  154SAPE  H20S17080   6.102   5.745   5.037 -0.7600 -0.0468  0.4727
  154SAPE  H20T17081   6.046   5.907   5.082  1.4359  1.2571  0.1226
  154SAPE   C3317082   6.752   5.472   6.623  0.2801 -0.1721  0.4176
  154SAPE   H3X17083   6.655   5.526   6.629 -0.0788 -0.6574 -0.7310
  154SAPE   H3Y17084   6.723   5.366   6.638  1.3018 -0.4663  0.3605
  154SAPE   C3417085   6.805   5.489   6.484  0.3838 -0.6564 -0.7975
  154SAPE   H4X17086   6.909   5.451   6.486  1.2335  1.5622  0.3451
  154SAPE   H4Y17087   6.800   5.597   6.458  0.3840 -0.8599 -1.6979
  154SAPE   C3517088   6.725   5.412   6.372 -0.7444 -0.0392 -0.4914
  154SAPE   H5X17089   6.624   5.460   6.373  0.1055  1.9163  2.0239
  154SAPE   H5Y17090   6.712   5.307   6.407 -0.6896  0.4091  0.9146
  154SAPE   C3617091   6.792   5.422   6.230  0.0168  0.4744  0.0584
  154SAPE   H6X17092   6.901   5.406   6.243 -0.1076  0.3040  0.9548
  154SAPE   H6Y17093   6.776   5.522   6.185 -1.2296 -0.7779 -2.4506
  154SAPE   C3717094   6.735   5.321   6.131 -0.2902  0.1897 -0.5452
  154SAPE   H7X17095   6.626   5.344   6.137  0.0912  1.8724  0.5884
  154SAPE   H7Y17096   6.752   5.216   6.162  2.8892  0.2205 -1.7589
  154SAPE   C3817097   6.782   5.345   5.987  0.5549  0.0406  0.1955
  154SAPE   H8X17098   6.892   5.348   5.975  0.4242  0.9884 -1.0984
  154SAPE   H8Y17099   6.746   5.444   5.953  2.9100  0.2460 -1.9984
  154SAPE   C3917100   6.740   5.250   5.872 -0.7471  0.6025  0.0726
  154SAPE   H9X17101   6.632   5.226   5.863 -0.3642 -0.7792 -1.3081
  154SAPE   H9Y17102   6.779   5.152   5.907 -0.8160  1.6552  3.4049
  154SAPE  C31017103   6.792   5.287   5.732 -0.7220 -0.0362 -0.7003
  154SAPE  H10X17104   6.903   5.279   5.730 -0.7290 -0.0805 -0.9181
  154SAPE  H10Y17105   6.769   5.393   5.711  0.9337  0.7691  1.1365
  154SAPE  C31117106   6.741   5.216   5.603 -0.2288 -0.3931  0.8486
  154SAPE  H11X17107   6.808   5.254   5.523  1.8499 -1.5172  1.9655
  154SAPE  H11Y17108   6.633   5.237   5.588 -0.0047  0.8793  0.9079
  154SAPE  C31217109   6.760   5.061   5.606 -0.1524 -0.3488  0.4924
  154SAPE  H12X17110   6.713   5.025   5.700 -1.4719 -0.7375 -0.2911
  154SAPE  H12Y17111   6.869   5.043   5.610 -0.4338 -2.0007  1.2686
  154SAPE  C31317112   6.695   4.995   5.486  0.4085  0.6621 -0.2876
  154SAPE  H13X17113   6.586   5.009   5.496 -0.0502 -2.7740  0.9884
  154SAPE  H13Y17114   6.710   4.886   5.502  1.9333  1.0280  1.0210
  154SAPE  C31417115   6.751   5.026   5.348  0.1869  0.4534  0.5115
  154SAPE  H14X17116   6.857   4.993   5.349  0.3034  0.7819 -0.3605
  154SAPE  H14Y17117   6.761   5.135   5.331 -1.5145  0.8934  1.9961
  154SAPE  C31517118   6.666   4.963   5.241  0.0322 -0.0331  0.5203
  154SAPE  H15X17119   6.660   4.853   5.241 -1.0228  0.0147  0.2648
  154SAPE  H15Y17120   6.707   4.986   5.140 -0.3067 -2.4838 -0.2348
  154SAPE  C31617121   6.524   5.004   5.240  0.5609 -0.4462  0.7234
  154SAPE  H16X17122   6.476   4.952   5.326  2.4153  0.2039  2.2043
  154SAPE  H16Y17123   6.462   4.965   5.156 -1.0169 -1.3055  2.2119
  154SAPE  C31717124   6.503   5.155   5.242  0.5888  0.8568  0.1647
  154SAPE  H17X17125   6.562   5.203   5.161 -1.2691  0.9675 -1.1850
  154SAPE  H17Y17126   6.544   5.196   5.337  1.8732  1.3405 -0.5743
  154SAPE  C31817127   6.355   5.189   5.241  0.4554  0.3411 -0.2411
  154SAPE  H18X17128   6.301   5.134   5.322  2.0536 -1.0426 -0.0531
  154SAPE  H18Y17129   6.309   5.158   5.145  0.2898  1.6110 -0.5882
  154SAPE  H18Z17130   6.333   5.297   5.253 -0.4408 -0.0300  2.1552
  155SAPE     N17131   1.264   4.930   7.402 -0.0304  0.0860 -0.1392
  155SAPE   HN117132   1.248   5.015   7.343  0.6854  0.7264  0.5579
  155SAPE   HN217133   1.196   4.856   7.376 -1.5360  1.5869 -0.6346
  155SAPE   HN317134   1.250   4.960   7.501 -0.1164 -1.1925  0.2437
  155SAPE   C1217135   1.405   4.885   7.386  0.2143  0.5994  0.9006
  155SAPE  H12A17136   1.414   4.812   7.303  2.0623  0.0889  1.5110
  155SAPE  H12B17137   1.433   4.840   7.483  1.7966  2.1021  1.1895
  155SAPE   C1117138   1.487   5.006   7.344  0.0125  0.7021  0.4353
  155SAPE  H11A17139   1.437   5.053   7.257 -0.8596 -0.7093  0.1368
  155SAPE  H11B17140   1.586   4.962   7.318 -0.4829 -0.4023  0.3646
  155SAPE     P17141   1.456   5.237   7.455 -0.1946  0.2472  0.1273
  155SAPE   O1317142   1.308   5.229   7.442 -0.0878  0.2897  0.4460
  155SAPE   O1417143   1.505   5.311   7.574  0.1436  0.2864 -0.4415
  155SAPE   O1217144   1.516   5.097   7.451  0.5577 -0.1927  0.1655
  155SAPE   O1117145   1.520   5.295   7.329  0.3882 -0.1644  0.1613
  155SAPE    C117146   1.578   5.425   7.314  0.0943  0.1279 -0.3363
  155SAPE    HA17147   1.625   5.453   7.411 -2.8731  0.2408  1.1691
  155SAPE    HB17148   1.657   5.427   7.235 -0.1048  1.5751 -0.5399
  155SAPE    C217149   1.473   5.531   7.258  0.8042  0.7765 -0.0684
  155SAPE    HS17150   1.386   5.525   7.326  0.0018 -0.4819 -1.1564
  155SAPE   O2117151   1.423   5.500   7.128 -0.1234  0.3428 -0.5716
  155SAPE   C2117152   1.321   5.590   7.093 -0.0556  0.7665 -0.3132
  155SAPE   O2217153   1.285   5.686   7.163 -0.1680 -0.2188  0.0149
  155SAPE   C2217154   1.264   5.550   6.954  0.0934  0.8141 -0.0239
  155SAPE   H2R17155   1.352   5.529   6.890  0.6030  1.8315  0.3270
  155SAPE   H2S17156   1.209   5.455   6.969  1.2635  0.3795  1.8211
  155SAPE    C317157   1.549   5.669   7.261 -0.2175  0.4166  0.8264
  155SAPE    HX17158   1.598   5.683   7.360  2.3583  0.5225 -0.3874
  155SAPE    HY17159   1.483   5.758   7.255  0.0069  0.6990  2.1832
  155SAPE   O3117160   1.653   5.685   7.155  0.1601 -0.1048  0.2867
  155SAPE   C3117161   1.774   5.704   7.199 -0.0921  0.1613  0.5952
  155SAPE   O3217162   1.802   5.731   7.315 -0.0853 -0.1540 -0.6997
  155SAPE   C3217163   1.873   5.702   7.082  0.4915 -0.9451  0.3466
  155SAPE   H2X17164   1.849   5.603   7.039 -1.4219 -0.9488  1.2630
  155SAPE   H2Y17165   1.977   5.709   7.120  0.2680 -1.0734  1.0036
  155SAPE   C2317166   1.184   5.654   6.878  0.2154  0.1342 -0.1638
  155SAPE   H3R17167   1.242   5.747   6.855 -0.2171 -0.1814 -2.8485
  155SAPE   H3S17168   1.106   5.695   6.946 -0.4512 -2.0668  0.4832
  155SAPE   C2417169   1.152   5.601   6.739  0.3240 -0.3469 -0.2528
  155SAPE   H4R17170   1.118   5.497   6.755  0.5622 -0.0702  2.4372
  155SAPE   H4S17171   1.236   5.607   6.666 -2.6133 -0.6184 -3.9572
  155SAPE   C2517172   1.043   5.685   6.681  0.5871 -0.2771 -1.2155
  155SAPE   H5R17173   1.032   5.793   6.694 -3.2318 -0.7391  0.7337
  155SAPE   C2617174   0.941   5.641   6.621 -0.5825 -0.1848 -0.1345
  155SAPE   H6R17175   0.866   5.713   6.588 -1.7990 -1.6082 -0.5986
  155SAPE   C2717176   0.920   5.496   6.585  0.7579  0.2011  0.4856
  155SAPE   H7R17177   0.879   5.437   6.670  1.5526 -1.3604 -0.1866
  155SAPE   H7S17178   1.020   5.451   6.568  0.1212 -0.9130 -0.4471
  155SAPE   C2817179   0.829   5.494   6.460 -0.3366 -0.4907 -0.5500
  155SAPE   H8R17180   0.721   5.508   6.470 -0.4311  1.7830 -3.3515
  155SAPE   C2917181   0.880   5.482   6.335 -0.2822 -0.8354  0.1988
  155SAPE   H9R17182   0.810   5.466   6.252  1.1718 -2.7071 -0.7536
  155SAPE  C21017183   1.028   5.483   6.295 -0.2405  0.4381  0.6760
  155SAPE  H10R17184   1.044   5.373   6.300 -2.0165  0.1727  1.7570
  155SAPE  H10S17185   1.078   5.531   6.382  0.2281  1.4629 -0.1500
  155SAPE  C21117186   1.064   5.563   6.172  0.2119  0.6102  0.3751
  155SAPE  H11R17187   1.065   5.671   6.194  0.2730  0.4821  1.0224
  155SAPE  C21217188   1.079   5.521   6.042  0.1583  0.3567  0.2179
  155SAPE  H12R17189   1.097   5.597   5.965 -0.0990 -0.6047 -0.8089
  155SAPE  C21317190   1.089   5.384   5.980 -0.8689  0.3320  0.0194
  155SAPE  H13R17191   1.003   5.355   5.916  0.2633 -0.2607 -1.2773
  155SAPE  H13S17192   1.081   5.319   6.069 -2.1843  1.0564  0.4543
  155SAPE  C21417193   1.211   5.363   5.892 -0.3291 -0.5837 -0.3171
  155SAPE  H14R17194   1.299   5.346   5.956  0.4831 -0.6243 -1.4234
  155SAPE  C21517195   1.229   5.367   5.756  0.3340 -0.2730 -0.8095
  155SAPE  H15R17196   1.327   5.335   5.718  0.3474 -0.5395 -0.5567
  155SAPE  C21617197   1.124   5.377   5.649 -0.6289 -0.0221 -0.2474
  155SAPE  H16R17198   1.027   5.330   5.674 -0.2321 -1.7077 -1.6997
  155SAPE  H16S17199   1.157   5.341   5.550 -0.2408  0.0690 -0.1531
  155SAPE  C21717200   1.096   5.530   5.644 -0.2361 -0.7270 -0.0498
  155SAPE  H17R17201   1.188   5.580   5.607 -0.1045 -2.7974 -2.8973
  155SAPE  H17S17202   1.057   5.573   5.738  1.8781  2.0571 -0.3338
  155SAPE  C21817203   0.995   5.564   5.536 -0.1012  0.0528 -0.2462
  155SAPE  H18R17204   0.896   5.564   5.588 -0.7680  1.2341 -1.4340
  155SAPE  H18S17205   0.997   5.481   5.462  0.5257 -1.4895  1.4329
  155SAPE  C21917206   1.019   5.688   5.458  0.6614 -0.3112 -0.0907
  155SAPE  H19R17207   1.129   5.699   5.452  0.5877  0.8214  0.4087
  155SAPE  H19S17208   0.973   5.774   5.513 -1.8028 -0.8625 -1.1493
  155SAPE  C22017209   0.951   5.688   5.320 -0.2288  0.0957  0.2354
  155SAPE  H20R17210   0.846   5.654   5.328  0.3075 -1.1531  3.8098
  155SAPE  H20S17211   1.007   5.612   5.262  0.2950 -0.2337  1.1617
  155SAPE  H20T17212   0.961   5.783   5.263  0.0143 -0.8270 -1.3191
  155SAPE   C3317213   1.850   5.799   6.968 -0.2056  0.0333 -0.0947
  155SAPE   H3X17214   1.867   5.903   7.005  2.0543  0.0680 -1.0826
  155SAPE   H3Y17215   1.741   5.802   6.948 -0.8356 -1.4684  2.6198
  155SAPE   C3417216   1.934   5.791   6.843 -0.2690  0.2116  0.1403
  155SAPE   H4X17217   2.043   5.774   6.858 -0.6626 -2.2243  0.6724
  155SAPE   H4Y17218   1.932   5.890   6.794 -0.4207  0.9559  1.5863
  155SAPE   C3517219   1.872   5.688   6.742 -0.3330 -0.5201 -0.3489
  155SAPE   H5X17220   1.762   5.676   6.757  0.1211 -1.2819  2.9251
  155SAPE   H5Y17221   1.915   5.591   6.773  1.0044  1.0592  3.2820
  155SAPE   C3617222   1.899   5.711   6.593 -0.8537 -0.6424  0.0690
  155SAPE   H6X17223   2.009   5.701   6.579 -0.7640 -1.7079  1.3174
  155SAPE   H6Y17224   1.870   5.816   6.570  0.6558 -0.5500 -1.5704
  155SAPE   C3717225   1.817   5.616   6.508 -0.2434  0.5550 -0.0123
  155SAPE   H7X17226   1.714   5.590   6.543 -0.7487  0.1495 -1.7285
  155SAPE   H7Y17227   1.872   5.520   6.516  4.1175  2.7907 -0.4421
  155SAPE   C3817228   1.815   5.658   6.357 -0.0641  0.2710  0.8308
  155SAPE   H8X17229   1.923   5.670   6.332 -0.2580 -1.0516 -0.8518
  155SAPE   H8Y17230   1.763   5.756   6.358 -2.6748 -0.9635 -1.2667
  155SAPE   C3917231   1.741   5.576   6.250 -0.2795  0.2315  0.5313
  155SAPE   H9X17232   1.642   5.554   6.295 -0.4257 -1.3071 -0.4626
  155SAPE   H9Y17233   1.798   5.481   6.253  0.1104  0.3662 -1.4846
  155SAPE  C31017234   1.741   5.639   6.111  1.2030 -0.3639 -0.3970
  155SAPE  H10X17235   1.849   5.637   6.085  0.7754 -0.2729 -2.3423
  155SAPE  H10Y17236   1.708   5.745   6.103 -1.3907 -1.0184  0.6389
  155SAPE  C31117237   1.667   5.542   6.015  0.3463  0.7862  0.0106
  155SAPE  H11X17238   1.558   5.549   6.036  0.1150  0.4610 -0.9910
  155SAPE  H11Y17239   1.697   5.437   6.038 -0.1172  0.9816  1.6142
  155SAPE  C31217240   1.690   5.570   5.866 -0.5323 -0.5718  0.2960
  155SAPE  H12X17241   1.795   5.606   5.855 -1.2642  0.9631 -2.4885
  155SAPE  H12Y17242   1.620   5.648   5.831 -3.1822 -3.3042 -0.9261
  155SAPE  C31317243   1.660   5.447   5.778  0.2459 -0.4133 -0.7767
  155SAPE  H13X17244   1.567   5.396   5.810 -0.0562 -0.4228 -1.6615
  155SAPE  H13Y17245   1.745   5.380   5.804 -0.1855 -0.2868  1.1342
  155SAPE  C31417246   1.663   5.468   5.623 -0.3681  0.5927 -0.4791
  155SAPE  H14X17247   1.689   5.372   5.574 -1.0910  0.0501  0.1858
  155SAPE  H14Y17248   1.730   5.552   5.594 -1.7559  1.8360 -0.1891
  155SAPE  C31517249   1.528   5.509   5.570  0.1847  0.3675 -0.2382
  155SAPE  H15X17250   1.502   5.601   5.628 -0.5283 -1.3506  2.3702
  155SAPE  H15Y17251   1.445   5.439   5.596 -0.4808  1.2394  0.0479
  155SAPE  C31617252   1.524   5.532   5.419 -0.5349  0.0902  0.0575
  155SAPE  H16X17253   1.552   5.438   5.366 -0.6381 -0.8322  1.5728
  155SAPE  H16Y17254   1.599   5.604   5.378  0.5227 -1.2466 -0.4286
  155SAPE  C31717255   1.389   5.573   5.367  0.3061  1.0177  0.4418
  155SAPE  H17X17256   1.354   5.660   5.427 -1.1652  1.6476 -1.2476
  155SAPE  H17Y17257   1.319   5.488   5.384  0.1674  0.6003 -1.8945
  155SAPE  C31817258   1.387   5.624   5.223  0.3325  0.7751  0.1810
  155SAPE  H18X17259   1.393   5.535   5.156  1.6224 -0.4205  1.7990
  155SAPE  H18Y17260   1.467   5.699   5.209  0.5659  0.7432  1.2883
  155SAPE  H18Z17261   1.283   5.655   5.200  0.4000  0.3006 -0.8281
  156SAPE     N17262   3.576   1.848   6.916 -0.2038 -0.2378 -0.0343
  156SAPE   HN117263   3.655   1.813   6.974 -2.8366 -1.5150  3.0342
  156SAPE   HN217264   3.488   1.835   6.969  0.3999 -0.3590  0.9728
  156SAPE   HN317265   3.572   1.784   6.833 -1.7720 -1.9730  1.3043
  156SAPE   C1217266   3.582   2.000   6.878 -0.0295  0.5451  0.3160
  156SAPE  H12A17267   3.690   2.024   6.883  0.4180 -1.1819 -0.2559
  156SAPE  H12B17268   3.520   2.057   6.951 -0.4092  0.3075  0.1832
  156SAPE   C1117269   3.530   2.035   6.735 -0.6167 -0.4637  0.3258
  156SAPE  H11A17270   3.424   2.068   6.746  0.4606  3.7018  0.0666
  156SAPE  H11B17271   3.532   1.947   6.667  0.4859 -0.2015  0.0045
  156SAPE     P17272   3.690   2.146   6.570 -0.5018  0.1354  0.0982
  156SAPE   O1317273   3.825   2.106   6.615  0.4492  0.7205 -0.0286
  156SAPE   O1417274   3.619   2.058   6.474  0.3723 -0.1666  0.2431
  156SAPE   O1217275   3.591   2.157   6.692 -0.0818  0.3071  0.4942
  156SAPE   O1117276   3.709   2.289   6.504 -0.0956 -0.1510 -0.2419
  156SAPE    C117277   3.648   2.333   6.382  0.1562  0.0289 -0.5907
  156SAPE    HA17278   3.538   2.313   6.378  0.0004  1.0100 -1.6692
  156SAPE    HB17279   3.645   2.444   6.383 -1.3908  0.0377  1.2745
  156SAPE    C217280   3.725   2.290   6.265  0.6640  0.3244 -0.0923
  156SAPE    HS17281   3.709   2.180   6.254  0.1624  0.3533  0.3111
  156SAPE   O2117282   3.858   2.330   6.292 -0.6571 -0.0541  0.4348
  156SAPE   C2117283   3.947   2.246   6.239 -0.6847 -0.3720  0.6042
  156SAPE   O2217284   3.920   2.147   6.179  0.2077  0.2785  0.0913
  156SAPE   C2217285   4.087   2.296   6.272 -0.6971 -0.0567  0.0200
  156SAPE   H2R17286   4.089   2.313   6.382  0.1781 -0.9409  0.1542
  156SAPE   H2S17287   4.146   2.204   6.251 -1.1631 -0.3117 -0.1884
  156SAPE    C317288   3.673   2.357   6.132  0.5727  0.0992  0.3642
  156SAPE    HX17289   3.674   2.464   6.163  1.7022  0.1121  0.3301
  156SAPE    HY17290   3.566   2.330   6.122  0.9220 -1.3953  0.5145
  156SAPE   O3117291   3.753   2.330   6.013  0.2336  0.1990  0.0984
  156SAPE   C3117292   3.713   2.236   5.930  0.5589 -0.3677  0.0575
  156SAPE   O3217293   3.615   2.166   5.949  0.5499  0.0705 -0.0066
  156SAPE   C3217294   3.800   2.231   5.801  0.0409  0.0729 -0.2591
  156SAPE   H2X17295   3.901   2.194   5.827  0.1501 -0.3099 -1.2017
  156SAPE   H2Y17296   3.817   2.335   5.764  0.4905  0.3821  0.7657
  156SAPE   C2317297   4.133   2.424   6.196 -0.0984  1.0356 -0.0105
  156SAPE   H3R17298   4.235   2.453   6.229  0.4873 -2.0058  1.1831
  156SAPE   H3S17299   4.065   2.506   6.229 -0.3680 -0.0610  2.4513
  156SAPE   C2417300   4.122   2.415   6.042  0.2486 -0.1846  0.0081
  156SAPE   H4R17301   4.179   2.504   6.008  1.2135 -1.3878 -1.6695
  156SAPE   H4S17302   4.021   2.443   6.006  1.1563  0.7035 -1.9889
  156SAPE   C2517303   4.164   2.284   5.980 -0.5592 -0.2310  0.3845
  156SAPE   H5R17304   4.150   2.192   6.038 -1.4066  0.0527  0.6456
  156SAPE   C2617305   4.192   2.277   5.851  0.4202  0.4271  0.3485
  156SAPE   H6R17306   4.207   2.184   5.795 -0.1911  2.3714 -3.3854
  156SAPE   C2717307   4.203   2.396   5.756  0.8866  0.0601  0.3816
  156SAPE   H7R17308   4.301   2.396   5.705  0.4182 -0.7733 -0.5575
  156SAPE   H7S17309   4.208   2.488   5.818  0.6258 -0.1716  0.7482
  156SAPE   C2817310   4.090   2.417   5.652  0.3952  0.5964 -0.3097
  156SAPE   H8R17311   4.002   2.479   5.678 -2.2709 -2.9339 -0.2550
  156SAPE   C2917312   4.090   2.357   5.534  0.4927 -0.1153 -0.5495
  156SAPE   H9R17313   4.016   2.388   5.459  1.0763 -2.1500 -2.0645
  156SAPE  C21017314   4.198   2.269   5.471  0.2524  0.4284 -0.0512
  156SAPE  H10R17315   4.151   2.184   5.416  2.1021  0.2190 -1.4035
  156SAPE  H10S17316   4.250   2.220   5.557 -1.8495 -0.2791  0.9014
  156SAPE  C21117317   4.292   2.354   5.393 -0.5648  0.7482  0.2035
  156SAPE  H11R17318   4.339   2.435   5.451  1.4794 -0.0944 -0.2036
  156SAPE  C21217319   4.302   2.357   5.259  0.2913 -0.2840  0.0033
  156SAPE  H12R17320   4.374   2.428   5.216  0.5822 -1.3581 -1.3288
  156SAPE  C21317321   4.236   2.250   5.167  0.4561  0.0645 -0.5395
  156SAPE  H13R17322   4.135   2.228   5.207 -0.1340  2.4880 -0.5372
  156SAPE  H13S17323   4.304   2.161   5.167  2.1142  1.2766 -1.0006
  156SAPE  C21417324   4.216   2.305   5.023  0.2410 -0.2751  0.2239
  156SAPE  H14R17325   4.123   2.362   5.016  0.0495 -0.6451 -0.3023
  156SAPE  C21517326   4.289   2.279   4.916  0.0283  0.5382 -0.3789
  156SAPE  H15R17327   4.247   2.315   4.821 -0.6000 -0.7845 -0.6178
  156SAPE  C21617328   4.421   2.214   4.907  0.0577  0.8406 -0.1006
  156SAPE  H16R17329   4.405   2.137   4.829  0.1049  0.9062 -0.1754
  156SAPE  H16S17330   4.449   2.165   5.003  1.2560  2.0807  0.2195
  156SAPE  C21717331   4.545   2.295   4.863 -0.6019  0.4553 -0.1355
  156SAPE  H17R17332   4.632   2.236   4.897  1.1948  2.2750 -1.3532
  156SAPE  H17S17333   4.551   2.389   4.923 -1.1074  0.5206 -0.1799
  156SAPE  C21817334   4.562   2.325   4.718 -0.8331 -0.0442 -0.1561
  156SAPE  H18R17335   4.651   2.392   4.714 -1.6484  1.0785  0.0893
  156SAPE  H18S17336   4.478   2.391   4.689  0.7169  2.1827  0.1742
  156SAPE  C21917337   4.581   2.212   4.606  0.3427 -0.0725 -0.4595
  156SAPE  H19R17338   4.486   2.161   4.581  0.0811  0.6345 -0.9523
  156SAPE  H19S17339   4.649   2.134   4.646 -0.2142 -0.0161  0.6412
  156SAPE  C22017340   4.619   2.276   4.473  0.0499 -0.0459 -0.7500
  156SAPE  H20R17341   4.700   2.221   4.420 -0.0206  0.9224 -1.8898
  156SAPE  H20S17342   4.660   2.377   4.490 -0.7063 -0.2833  3.9718
  156SAPE  H20T17343   4.540   2.281   4.395  0.3380  1.5849 -0.9584
  156SAPE   C3317344   3.742   2.139   5.693 -0.3286  0.0233  0.2307
  156SAPE   H3X17345   3.631   2.152   5.688 -0.5885  0.2641  4.0392
  156SAPE   H3Y17346   3.759   2.031   5.714  1.3722 -0.0913 -1.5075
  156SAPE   C3417347   3.790   2.181   5.556  0.0521 -0.1131  0.4485
  156SAPE   H4X17348   3.901   2.174   5.549  0.0912  0.0773  0.8768
  156SAPE   H4Y17349   3.767   2.286   5.528  3.1620  0.1809 -1.5761
  156SAPE   C3517350   3.739   2.087   5.446  0.4228  0.3568  0.5133
  156SAPE   H5X17351   3.628   2.094   5.437  0.3016  2.4759  2.8120
  156SAPE   H5Y17352   3.762   1.981   5.474  0.3691 -0.2327 -1.5150
  156SAPE   C3617353   3.794   2.118   5.308  0.0218 -0.3879 -0.3811
  156SAPE   H6X17354   3.751   2.046   5.235 -1.2826 -1.3542  1.2500
  156SAPE   H6Y17355   3.905   2.112   5.300  0.2224  0.3430  1.3564
  156SAPE   C3717356   3.773   2.262   5.259  0.3680  0.3572 -0.3275
  156SAPE   H7X17357   3.820   2.334   5.329 -0.5488 -0.0254  0.7148
  156SAPE   H7Y17358   3.663   2.260   5.247  0.0636 -0.3398  2.0363
  156SAPE   C3817359   3.836   2.273   5.113 -0.4829  0.2892 -0.2473
  156SAPE   H8X17360   3.946   2.258   5.121 -0.6969 -1.1128  0.2641
  156SAPE   H8Y17361   3.836   2.382   5.088  1.1849  0.7663  1.5408
  156SAPE   C3917362   3.761   2.193   5.012  0.2154 -0.5475  0.6950
  156SAPE   H9X17363   3.657   2.229   5.021  0.6146  0.0176  4.9937
  156SAPE   H9Y17364   3.761   2.084   5.034  1.7594 -0.5432  0.8566
  156SAPE  C31017365   3.804   2.214   4.868 -0.3803  0.4873  0.0124
  156SAPE  H10X17366   3.907   2.175   4.876 -1.3561 -2.4814 -0.6219
  156SAPE  H10Y17367   3.823   2.321   4.846  1.1329 -0.0446 -1.4413
  156SAPE  C31117368   3.730   2.149   4.750 -0.8299  0.2404  0.6929
  156SAPE  H11X17369   3.623   2.171   4.770 -0.4484  1.0148  1.9761
  156SAPE  H11Y17370   3.748   2.039   4.746  0.8524  0.4730  0.8891
  156SAPE  C31217371   3.755   2.222   4.613  0.9269  0.1007  0.5919
  156SAPE  H12X17372   3.866   2.223   4.605  0.9215  2.4525  0.2369
  156SAPE  H12Y17373   3.726   2.328   4.624 -2.0148 -0.6069  0.3474
  156SAPE  C31317374   3.693   2.144   4.491  0.1804 -0.1140 -0.1150
  156SAPE  H13X17375   3.585   2.153   4.517  0.3028 -0.0909  0.4100
  156SAPE  H13Y17376   3.730   2.041   4.509 -0.0309 -0.3139 -0.8277
  156SAPE  C31417377   3.725   2.212   4.359  0.0670 -0.4038  0.0541
  156SAPE  H14X17378   3.819   2.171   4.318  0.6850  1.2470 -0.2520
  156SAPE  H14Y17379   3.735   2.320   4.382 -2.7371  0.1042 -0.7597
  156SAPE  C31517380   3.612   2.193   4.260 -0.6036  0.5419  0.2258
  156SAPE  H15X17381   3.521   2.239   4.305 -2.1234 -0.3476 -1.8324
  156SAPE  H15Y17382   3.579   2.088   4.245 -1.7385  0.9142  0.0064
  156SAPE  C31617383   3.639   2.257   4.122 -0.6654 -0.3355 -0.1035
  156SAPE  H16X17384   3.541   2.253   4.071 -0.7611  0.7944 -0.0289
  156SAPE  H16Y17385   3.712   2.207   4.054  2.0957  1.5206  1.3033
  156SAPE  C31717386   3.673   2.406   4.139 -0.5512  0.2936  0.6812
  156SAPE  H17X17387   3.768   2.409   4.197  0.8187 -1.2889 -1.3550
  156SAPE  H17Y17388   3.588   2.447   4.199 -0.6103 -0.7712  1.3491
  156SAPE  C31817389   3.695   2.486   4.011  0.5711 -1.1415 -0.5791
  156SAPE  H18X17390   3.781   2.431   3.967  1.0077 -0.1692 -0.9768
  156SAPE  H18Y17391   3.720   2.591   4.040  0.5654 -0.9192 -1.3651
  156SAPE  H18Z17392   3.603   2.486   3.949  0.0062 -3.0496  0.1814
  157SAPE     N17393   3.391   5.178   7.129 -0.0610  0.2775  0.0457
  157SAPE   HN117394   3.482   5.163   7.083  0.6718 -0.1084  1.5572
  157SAPE   HN217395   3.415   5.233   7.214 -0.3743  0.4436  0.0299
  157SAPE   HN317396   3.346   5.087   7.154 -2.9140  1.3173 -0.8418
  157SAPE   C1217397   3.296   5.270   7.045  0.6535 -0.6034 -0.6472
  157SAPE  H12A17398   3.206   5.285   7.108  0.4083 -0.2102 -1.0857
  157SAPE  H12B17399   3.260   5.223   6.951 -1.2390 -3.0414  1.1328
  157SAPE   C1117400   3.358   5.412   7.016 -0.3360  0.0134  0.2750
  157SAPE  H11A17401   3.281   5.484   6.980  0.5259  0.5664 -0.5262
  157SAPE  H11B17402   3.433   5.392   6.936 -0.0397  0.7813  0.3467
  157SAPE     P17403   3.425   5.583   7.207  0.2183 -0.0443 -0.2946
  157SAPE   O1317404   3.293   5.658   7.206 -0.4742 -0.1015 -0.0633
  157SAPE   O1417405   3.492   5.565   7.338 -0.0983 -0.5962  0.2829
  157SAPE   O1217406   3.418   5.443   7.136 -0.6453 -0.1222 -0.2666
  157SAPE   O1117407   3.525   5.652   7.109  0.3212 -0.1629  0.1507
  157SAPE    C117408   3.646   5.585   7.081 -0.2761 -1.2764 -0.3828
  157SAPE    HA17409   3.722   5.610   7.158 -2.5916 -0.2176  1.7006
  157SAPE    HB17410   3.646   5.474   7.076  0.2953 -1.2793 -0.4658
  157SAPE    C217411   3.705   5.645   6.949 -0.2641 -0.3350  0.0732
  157SAPE    HS17412   3.687   5.754   6.941  1.9457 -0.0079 -1.3327
  157SAPE   O2117413   3.646   5.585   6.827 -0.0834 -0.7388  0.3841
  157SAPE   C2117414   3.596   5.670   6.734  0.1338  0.3253 -0.1870
  157SAPE   O2217415   3.588   5.790   6.740  0.5511 -0.2659  0.4739
  157SAPE   C2217416   3.558   5.589   6.613 -0.5239  0.3290 -0.1794
  157SAPE   H2R17417   3.646   5.527   6.585  0.3101  1.5258 -0.2536
  157SAPE   H2S17418   3.458   5.547   6.640 -0.5780  0.9990  0.7076
  157SAPE    C317419   3.856   5.626   6.938  0.1790 -0.7461 -0.3812
  157SAPE    HX17420   3.884   5.520   6.956 -2.0775 -1.5368 -1.1367
  157SAPE    HY17421   3.899   5.671   7.029  0.1328  0.5611 -0.9859
  157SAPE   O3117422   3.909   5.680   6.812  0.1063 -0.0224  0.5430
  157SAPE   C3117423   3.979   5.788   6.820 -0.7400  0.2453 -0.2040
  157SAPE   O3217424   3.987   5.860   6.921  0.8584 -0.0572 -0.0656
  157SAPE   C3217425   4.046   5.816   6.681  0.0219 -0.1349  0.1335
  157SAPE   H2X17426   4.056   5.722   6.624 -3.6743 -1.2480  1.0436
  157SAPE   H2Y17427   4.141   5.863   6.714  0.2637 -1.0086  0.7252
  157SAPE   C2317428   3.539   5.687   6.495  0.0571  0.2408  0.2667
  157SAPE   H3R17429   3.625   5.756   6.481  1.4791 -1.1447  1.7540
  157SAPE   H3S17430   3.450   5.746   6.526 -0.1398  0.2062 -0.2292
  157SAPE   C2417431   3.505   5.607   6.365  0.0029  0.3544 -0.5451
  157SAPE   H4R17432   3.417   5.540   6.378  0.2035  0.2048  0.0631
  157SAPE   H4S17433   3.587   5.537   6.339  0.1010 -0.4532  1.7182
  157SAPE   C2517434   3.484   5.718   6.263 -0.6306  0.2801  0.1561
  157SAPE   H5R17435   3.483   5.820   6.306 -0.8209 -0.5740  2.3098
  157SAPE   C2617436   3.455   5.703   6.133 -0.3186 -0.2178  0.5835
  157SAPE   H6R17437   3.420   5.789   6.074  2.9687  0.5257 -0.4684
  157SAPE   C2717438   3.450   5.580   6.052 -0.3963  0.7034 -0.2271
  157SAPE   H7R17439   3.342   5.560   6.030  0.1489 -2.1412 -0.7735
  157SAPE   H7S17440   3.488   5.494   6.111  0.3182  0.1316 -1.4663
  157SAPE   C2817441   3.522   5.588   5.920 -0.2766 -0.5571 -0.7875
  157SAPE   H8R17442   3.630   5.608   5.929 -0.4548 -0.0285  0.3928
  157SAPE   C2917443   3.477   5.567   5.794  0.5543  0.0984  0.0885
  157SAPE   H9R17444   3.552   5.580   5.715  0.1417  2.0385 -0.0246
  157SAPE  C21017445   3.342   5.531   5.746 -0.0783 -0.2553  0.2528
  157SAPE  H10R17446   3.288   5.475   5.825 -0.6675  1.3948  1.0556
  157SAPE  H10S17447   3.352   5.460   5.661  0.2352  0.3098 -0.1964
  157SAPE  C21117448   3.260   5.643   5.692  0.3451  0.5461 -0.2310
  157SAPE  H11R17449   3.276   5.738   5.746  2.2606  0.0483  0.1649
  157SAPE  C21217450   3.184   5.636   5.584  0.9713 -0.0458 -0.2368
  157SAPE  H12R17451   3.129   5.724   5.547  1.3139  0.6057  0.7504
  157SAPE  C21317452   3.170   5.510   5.498 -0.1717 -1.3421  0.5414
  157SAPE  H13R17453   3.067   5.487   5.465 -0.6620 -1.8352  2.3146
  157SAPE  H13S17454   3.192   5.412   5.546  1.4471 -1.8972 -1.2131
  157SAPE  C21417455   3.244   5.529   5.360  0.5555 -0.1669 -0.1160
  157SAPE  H14R17456   3.303   5.622   5.355 -0.8839  0.7942 -0.0683
  157SAPE  C21517457   3.227   5.455   5.249  0.0913 -0.5789  0.3552
  157SAPE  H15R17458   3.294   5.486   5.168 -0.5410  0.9486  0.3665
  157SAPE  C21617459   3.152   5.332   5.227  0.2956 -0.2992 -0.1065
  157SAPE  H16R17460   3.087   5.312   5.315 -0.1271  0.0241 -0.3425
  157SAPE  H16S17461   3.219   5.244   5.217  0.6770  0.0471 -0.6385
  157SAPE  C21717462   3.043   5.326   5.112  0.1080  0.5153 -0.6210
  157SAPE  H17R17463   2.964   5.395   5.147  0.8400  0.7268  0.6652
  157SAPE  H17S17464   3.011   5.219   5.110  1.6939 -0.0653  1.1716
  157SAPE  C21817465   3.095   5.368   4.973  0.1594 -0.1257 -0.1376
  157SAPE  H18R17466   3.175   5.293   4.953  0.0585 -0.7486  1.6252
  157SAPE  H18S17467   3.152   5.462   4.976  0.8126 -0.5333  1.3949
  157SAPE  C21917468   2.995   5.366   4.858  0.3756 -0.4098  0.8287
  157SAPE  H19R17469   2.952   5.264   4.841  1.3376 -0.4588 -1.8404
  157SAPE  H19S17470   3.049   5.392   4.765  0.0848  2.0363  1.2950
  157SAPE  C22017471   2.880   5.469   4.863 -0.0704 -0.7521 -0.1853
  157SAPE  H20R17472   2.845   5.479   4.758  0.1138  0.6124 -0.1300
  157SAPE  H20S17473   2.923   5.565   4.898 -3.9265  0.2899  2.3942
  157SAPE  H20T17474   2.800   5.449   4.937  0.9029 -2.2226  0.5307
  157SAPE   C3317475   3.957   5.916   6.604 -0.0033  0.3942  0.1965
  157SAPE   H3X17476   3.955   6.005   6.671 -0.4729  1.2999 -0.9860
  157SAPE   H3Y17477   3.852   5.885   6.588  0.3340 -0.8016  0.1611
  157SAPE   C3417478   4.013   5.965   6.469  0.2179  0.0293  0.7827
  157SAPE   H4X17479   4.115   6.008   6.470  0.7254 -0.7303 -2.8767
  157SAPE   H4Y17480   3.952   6.054   6.443 -0.8452 -0.4316  1.6535
  157SAPE   C3517481   4.012   5.877   6.350  0.1327  0.3051 -0.0432
  157SAPE   H5X17482   3.913   5.829   6.329  0.0705  0.3258  0.2018
  157SAPE   H5Y17483   4.087   5.795   6.356 -0.3947 -0.3775 -1.9418
  157SAPE   C3617484   4.051   5.950   6.219 -0.2126 -0.2493 -0.4160
  157SAPE   H6X17485   4.154   5.991   6.229  0.5222 -1.6656 -1.5819
  157SAPE   H6Y17486   3.976   6.029   6.200 -2.3744 -2.4540 -1.5978
  157SAPE   C3717487   4.047   5.863   6.096  0.2464  0.3962 -0.2846
  157SAPE   H7X17488   3.947   5.815   6.088  0.1196  0.5268  0.4250
  157SAPE   H7Y17489   4.124   5.783   6.104 -0.9838 -0.6998  1.0399
  157SAPE   C3817490   4.079   5.934   5.963  0.3309  0.5325 -0.4039
  157SAPE   H8X17491   4.185   5.961   5.982  1.7563 -3.9440 -0.7465
  157SAPE   H8Y17492   4.021   6.028   5.954  1.2234  1.2269  0.7742
  157SAPE   C3917493   4.058   5.833   5.851  0.2790  0.5963  0.7197
  157SAPE   H9X17494   3.950   5.813   5.866  0.4444  0.6207  2.0219
  157SAPE   H9Y17495   4.116   5.742   5.879 -0.1930  0.4753  1.3225
  157SAPE  C31017496   4.080   5.870   5.710 -0.3520 -0.3453  0.6919
  157SAPE  H10X17497   4.185   5.901   5.692  0.3790 -1.5107  2.5726
  157SAPE  H10Y17498   4.019   5.959   5.684  1.6147  0.4968 -1.4017
  157SAPE  C31117499   4.038   5.766   5.604 -0.6393  0.0621 -0.0492
  157SAPE  H11X17500   3.928   5.751   5.611 -0.7649  0.5448 -0.8108
  157SAPE  H11Y17501   4.091   5.670   5.621 -0.1013 -0.5838 -4.2502
  157SAPE  C31217502   4.076   5.816   5.471 -0.1162 -0.1311  0.2544
  157SAPE  H12X17503   4.186   5.828   5.463 -0.2476  0.1233 -1.8399
  157SAPE  H12Y17504   4.022   5.912   5.459  0.1582 -0.0974 -0.7368
  157SAPE  C31317505   4.031   5.731   5.347 -0.1545  0.1646  0.2199
  157SAPE  H13X17506   3.927   5.699   5.368  0.7210 -1.9691  1.5691
  157SAPE  H13Y17507   4.081   5.632   5.350 -1.2457 -0.3675  1.3867
  157SAPE  C31417508   4.049   5.793   5.204 -0.4037  0.2064 -0.3336
  157SAPE  H14X17509   4.151   5.764   5.170 -0.5690 -1.5078  0.5363
  157SAPE  H14Y17510   4.038   5.903   5.214 -0.2796  0.0359  2.9543
  157SAPE  C31517511   3.963   5.740   5.097 -0.0040  0.4363 -0.0907
  157SAPE  H15X17512   3.991   5.793   5.003 -0.1162 -0.1999 -0.4956
  157SAPE  H15Y17513   3.857   5.766   5.117 -0.7108 -1.0667 -1.6087
  157SAPE  C31617514   3.985   5.594   5.086 -1.0077  0.4237 -0.2632
  157SAPE  H16X17515   3.982   5.541   5.183 -1.3426 -1.7468 -1.4062
  157SAPE  H16Y17516   4.091   5.581   5.058 -0.3049  1.6432  1.6292
  157SAPE  C31717517   3.891   5.520   4.987 -0.1598 -0.3865 -0.1167
  157SAPE  H17X17518   3.893   5.575   4.891  0.8005  2.3923  1.3956
  157SAPE  H17Y17519   3.789   5.531   5.030 -1.0515 -1.9369 -1.7321
  157SAPE  C31817520   3.923   5.378   4.959 -0.9358 -0.5524 -0.0974
  157SAPE  H18X17521   4.020   5.368   4.905  0.6958  0.4380  2.4450
  157SAPE  H18Y17522   3.837   5.328   4.909 -0.7594 -2.1110  1.0448
  157SAPE  H18Z17523   3.927   5.324   5.057 -0.4186 -3.0278 -1.4040
  158SAPE     N17524   0.432   5.289   7.165  0.1500  0.7321 -0.0273
  158SAPE   HN117525   0.519   5.304   7.220  0.2479 -0.1102  0.0615
  158SAPE   HN217526   0.445   5.198   7.115 -1.4918  1.4231 -1.8042
  158SAPE   HN317527   0.426   5.367   7.097  1.5788 -0.5611 -1.7257
  158SAPE   C1217528   0.323   5.283   7.269  0.5792  1.0536 -0.5968
  158SAPE  H12A17529   0.255   5.204   7.230  1.7110  0.0794 -0.6421
  158SAPE  H12B17530   0.273   5.382   7.273 -1.1496  0.1958  0.8392
  158SAPE   C1117531   0.382   5.258   7.408  0.5509  0.0589 -0.3971
  158SAPE  H11A17532   0.442   5.165   7.404  2.4522  0.9349  3.3520
  158SAPE  H11B17533   0.297   5.233   7.475 -0.8591  2.6789 -1.0607
  158SAPE     P17534   0.625   5.379   7.458 -0.0180  0.5832 -0.0483
  158SAPE   O1317535   0.667   5.517   7.482 -0.3880 -0.3893 -0.2677
  158SAPE   O1417536   0.681   5.265   7.546  0.4092 -0.4940 -0.0814
  158SAPE   O1217537   0.462   5.359   7.463  0.0521  0.4534 -0.0264
  158SAPE   O1117538   0.657   5.335   7.304 -0.0227  0.0842  0.2065
  158SAPE    C117539   0.782   5.379   7.255  0.2710  0.4714 -0.4954
  158SAPE    HA17540   0.793   5.489   7.263  1.3797  0.3642 -0.2412
  158SAPE    HB17541   0.867   5.349   7.321 -2.2390 -1.6667  2.0159
  158SAPE    C217542   0.813   5.320   7.119  0.1741  1.2614 -0.8967
  158SAPE    HS17543   0.921   5.343   7.109  0.1401  1.9716  0.1958
  158SAPE   O2117544   0.726   5.380   7.019 -0.0536 -0.6168 -0.0733
  158SAPE   C2117545   0.772   5.498   6.977  0.3972  0.3128 -0.1800
  158SAPE   O2217546   0.865   5.561   7.016 -0.1201  0.3514 -0.0905
  158SAPE   C2217547   0.674   5.558   6.880 -0.3633 -0.1218  0.5535
  158SAPE   H2R17548   0.707   5.519   6.782  0.2970 -0.8360  1.0486
  158SAPE   H2S17549   0.569   5.527   6.901 -0.1030 -1.5601 -0.1500
  158SAPE    C317550   0.816   5.166   7.112 -0.3287  0.9757 -0.0519
  158SAPE    HX17551   0.726   5.128   7.164 -0.4399 -1.3990 -1.7672
  158SAPE    HY17552   0.907   5.122   7.160 -0.9658 -0.8116 -0.3759
  158SAPE   O3117553   0.794   5.116   6.976 -0.0229  0.5211  0.2269
  158SAPE   C3117554   0.902   5.104   6.908 -0.6663 -0.5935  0.6226
  158SAPE   O3217555   1.015   5.120   6.953 -0.3504  0.7300  0.7138
  158SAPE   C3217556   0.862   5.069   6.762 -1.0214 -0.6616  0.1463
  158SAPE   H2X17557   0.795   5.150   6.725  2.3067  0.7589 -3.5748
  158SAPE   H2Y17558   0.812   4.970   6.758 -0.9181 -0.7299 -3.7418
  158SAPE   C2317559   0.677   5.715   6.873 -0.5957  0.3724 -0.0917
  158SAPE   H3R17560   0.774   5.750   6.833  0.5138 -0.7242  1.5443
  158SAPE   H3S17561   0.649   5.760   6.971  1.8393  1.0387  0.3439
  158SAPE   C2417562   0.574   5.761   6.763 -0.1934  0.9327  0.2797
  158SAPE   H4R17563   0.470   5.735   6.794 -0.8611  1.0450 -1.7396
  158SAPE   H4S17564   0.582   5.698   6.672  0.8091  0.0082  0.9739
  158SAPE   C2517565   0.594   5.901   6.717  0.3718  0.6867 -0.1967
  158SAPE   H5R17566   0.612   5.973   6.798 -0.4287 -0.6090  1.1907
  158SAPE   C2617567   0.597   5.933   6.585 -0.1737 -0.2405 -0.3392
  158SAPE   H6R17568   0.627   6.036   6.561  0.6037 -0.2908  0.3494
  158SAPE   C2717569   0.575   5.851   6.468  0.0350 -0.4207  0.1088
  158SAPE   H7R17570   0.480   5.794   6.481 -2.1196  3.0986  1.3674
  158SAPE   H7S17571   0.663   5.784   6.474  0.5736  0.3009  0.3891
  158SAPE   C2817572   0.568   5.916   6.331  0.7070 -0.1130  0.0234
  158SAPE   H8R17573   0.542   6.023   6.330  1.0404 -0.0179  0.7808
  158SAPE   C2917574   0.588   5.849   6.218 -0.6606  0.1215  0.7548
  158SAPE   H9R17575   0.578   5.900   6.122 -1.4388 -1.5306 -0.0943
  158SAPE  C21017576   0.617   5.701   6.195 -0.2027  0.6407 -0.0533
  158SAPE  H10R17577   0.618   5.648   6.292 -0.6943 -0.2704 -0.5273
  158SAPE  H10S17578   0.719   5.699   6.151  0.3917  1.5616  1.2078
  158SAPE  C21117579   0.510   5.644   6.104  0.0496  0.3813  0.9244
  158SAPE  H11R17580   0.408   5.629   6.143 -0.6767 -0.9886 -1.3608
  158SAPE  C21217581   0.527   5.634   5.969 -0.5172  0.4336  0.4385
  158SAPE  H12R17582   0.459   5.580   5.902  0.6058  0.1308 -0.4878
  158SAPE  C21317583   0.656   5.657   5.900 -0.4755 -0.5133  0.4617
  158SAPE  H13R17584   0.713   5.734   5.956 -1.7446  1.0595 -0.3216
  158SAPE  H13S17585   0.637   5.704   5.801  0.3264 -0.9199  0.1092
  158SAPE  C21417586   0.752   5.542   5.889 -0.3426  0.6875 -0.2146
  158SAPE  H14R17587   0.824   5.531   5.972 -0.2914 -2.1203 -0.5391
  158SAPE  C21517588   0.734   5.444   5.805 -0.0890 -0.8489 -0.8657
  158SAPE  H15R17589   0.811   5.366   5.809 -1.0057 -1.7748  3.4828
  158SAPE  C21617590   0.642   5.450   5.682  0.4006  0.3273 -0.5717
  158SAPE  H16R17591   0.685   5.509   5.599 -0.0316 -1.2832 -1.9934
  158SAPE  H16S17592   0.537   5.482   5.700 -0.4211 -0.7078 -3.0936
  158SAPE  C21717593   0.646   5.312   5.608 -0.5514  0.2108 -0.5013
  158SAPE  H17R17594   0.591   5.237   5.669 -3.3324  1.7761 -0.8920
  158SAPE  H17S17595   0.748   5.273   5.588 -1.7751 -1.7764 -3.4518
  158SAPE  C21817596   0.584   5.326   5.474 -0.0729  0.6241 -0.4997
  158SAPE  H18R17597   0.652   5.397   5.422  0.2067  0.8830  0.2088
  158SAPE  H18S17598   0.484   5.374   5.474 -1.6138 -2.3441  0.0940
  158SAPE  C21917599   0.587   5.187   5.404 -0.0108  0.3671  0.5239
  158SAPE  H19R17600   0.522   5.123   5.467  0.4553  1.0138  1.7087
  158SAPE  H19S17601   0.688   5.143   5.395  0.1545  1.0621 -1.4094
  158SAPE  C22017602   0.527   5.199   5.257 -0.4314  0.1403 -0.4297
  158SAPE  H20R17603   0.607   5.229   5.186  1.7603 -2.3745  0.7750
  158SAPE  H20S17604   0.436   5.262   5.250 -1.0262 -0.8521 -2.4024
  158SAPE  H20T17605   0.494   5.095   5.234  1.1368 -0.5301  0.2051
  158SAPE   C3317606   0.984   5.065   6.665 -0.1431 -0.5361 -0.1779
  158SAPE   H3X17607   1.055   4.988   6.703 -1.0220 -1.0526  0.4543
  158SAPE   H3Y17608   1.036   5.163   6.662 -1.9787  0.4954 -3.8199
  158SAPE   C3417609   0.954   5.018   6.525  0.5951  0.6369  0.0310
  158SAPE   H4X17610   0.895   5.095   6.471 -0.5106 -2.0252 -2.8203
  158SAPE   H4Y17611   0.898   4.922   6.517 -0.3797  1.2217 -0.3708
  158SAPE   C3517612   1.080   5.002   6.438 -0.1360  0.6754  0.7883
  158SAPE   H5X17613   1.154   4.928   6.475 -0.0768  1.3310  2.0462
  158SAPE   H5Y17614   1.121   5.106   6.446 -2.6279  2.2288 -3.3877
  158SAPE   C3617615   1.054   4.989   6.287  0.8504 -0.3383  0.5706
  158SAPE   H6X17616   0.979   5.069   6.267 -0.0165 -1.3764 -0.4293
  158SAPE   H6Y17617   0.993   4.900   6.262 -1.2377  1.2893 -0.5348
  158SAPE   C3717618   1.175   4.993   6.198 -0.7223 -0.3144  0.5135
  158SAPE   H7X17619   1.244   4.909   6.223  0.0430 -0.4111 -1.6695
  158SAPE   H7Y17620   1.218   5.095   6.206 -2.3272  0.2914  1.9666
  158SAPE   C3817621   1.143   4.966   6.050  1.5304 -0.0161  0.4431
  158SAPE   H8X17622   1.078   5.050   6.017 -0.1394 -0.4485  2.4357
  158SAPE   H8Y17623   1.087   4.871   6.042  0.2910  0.8273 -1.9532
  158SAPE   C3917624   1.261   4.967   5.954  0.3079  0.4416 -0.8562
  158SAPE   H9X17625   1.339   4.894   5.982  1.4043  2.0099  0.3273
  158SAPE   H9Y17626   1.306   5.068   5.959 -2.1448  1.5550  2.9365
  158SAPE  C31017627   1.211   4.966   5.803 -0.0770  0.8593  0.2073
  158SAPE  H10X17628   1.135   5.043   5.780 -2.1855 -1.2515 -0.2932
  158SAPE  H10Y17629   1.158   4.870   5.790  1.8603 -0.3096  0.5197
  158SAPE  C31117630   1.324   4.967   5.705  0.1781 -0.6673  0.3974
  158SAPE  H11X17631   1.377   4.870   5.710  0.6608 -0.5481 -1.6841
  158SAPE  H11Y17632   1.401   5.042   5.732  0.5380 -0.5760 -0.8155
  158SAPE  C31217633   1.274   4.989   5.565  0.1430  0.3330  0.0906
  158SAPE  H12X17634   1.193   5.065   5.574  0.7176  1.0630 -0.6461
  158SAPE  H12Y17635   1.235   4.899   5.513 -0.4528  0.9177 -0.4933
  158SAPE  C31317636   1.375   5.048   5.470  0.2114 -0.0840 -0.8372
  158SAPE  H13X17637   1.431   5.134   5.514 -1.7290  0.1842  1.2576
  158SAPE  H13Y17638   1.329   5.076   5.373  1.5659  0.5498 -1.3336
  158SAPE  C31417639   1.486   4.945   5.436  0.4490  0.3371 -0.4560
  158SAPE  H14X17640   1.454   4.840   5.456 -0.4437  0.9230  1.4631
  158SAPE  H14Y17641   1.574   4.956   5.504  0.1070 -0.2256  0.0894
  158SAPE  C31517642   1.536   4.947   5.289  0.4600 -0.5560 -0.8452
  158SAPE  H15X17643   1.556   5.055   5.273 -3.1258  0.2596 -0.6426
  158SAPE  H15Y17644   1.457   4.920   5.216 -0.6083 -2.9761  1.0816
  158SAPE  C31617645   1.666   4.874   5.262  0.4210  0.0087  0.5094
  158SAPE  H16X17646   1.655   4.765   5.281 -0.4214 -0.0140 -0.0888
  158SAPE  H16Y17647   1.740   4.910   5.337 -0.2335 -2.3310  2.4126
  158SAPE  C31717648   1.716   4.876   5.121 -0.4416 -0.2023  0.2968
  158SAPE  H17X17649   1.772   4.968   5.093 -3.1580  0.6978 -2.9213
  158SAPE  H17Y17650   1.634   4.869   5.046  1.1965 -2.1543 -1.4190
  158SAPE  C31817651   1.804   4.752   5.102 -0.2845 -1.1805 -0.2592
  158SAPE  H18X17652   1.757   4.660   5.143 -0.6951 -0.9665 -0.2490
  158SAPE  H18Y17653   1.901   4.775   5.151  0.4166 -0.9394 -1.6925
  158SAPE  H18Z17654   1.834   4.745   4.995  0.8233  2.3905 -0.3155
  159SAPE     N17655   1.399   4.085   2.405 -0.3266  0.6808 -0.2551
  159SAPE   HN117656   1.325   4.158   2.403  0.1395  1.2341  1.2467
  159SAPE   HN217657   1.493   4.128   2.414 -0.7414  1.2929  1.7542
  159SAPE   HN317658   1.405   4.044   2.310  0.5465  1.0954 -0.3914
  159SAPE   C1217659   1.358   3.983   2.512  0.2212 -0.1211  0.7125
  159SAPE  H12A17660   1.339   4.038   2.607  0.6644 -2.2388  2.0998
  159SAPE  H12B17661   1.438   3.907   2.526  0.4309 -0.0072  0.1385
  159SAPE   C1117662   1.226   3.906   2.491 -0.1411 -0.2232  0.5144
  159SAPE  H11A17663   1.183   3.888   2.592  2.0258 -1.0670  1.3476
  159SAPE  H11B17664   1.258   3.811   2.442 -3.1659 -0.1757 -1.7957
  159SAPE     P17665   1.002   3.928   2.359 -0.2573 -0.6511 -0.0712
  159SAPE   O1317666   0.952   4.012   2.245 -0.1830 -0.2502 -0.3721
  159SAPE   O1417667   1.003   3.782   2.340  0.1926  0.4351  0.2794
  159SAPE   O1217668   1.141   3.986   2.408  0.3631 -0.1996  0.1839
  159SAPE   O1117669   0.906   3.969   2.478  0.0795  0.6764  0.0752
  159SAPE    C117670   0.810   3.869   2.528  0.1046  0.5310 -0.1899
  159SAPE    HA17671   0.717   3.871   2.466  0.9171  1.0621 -1.4350
  159SAPE    HB17672   0.855   3.768   2.532  1.4392  1.0958 -0.3427
  159SAPE    C217673   0.756   3.906   2.669 -0.1290 -0.3365 -0.5878
  159SAPE    HS17674   0.842   3.930   2.735 -0.8840  1.6999 -0.2848
  159SAPE   O2117675   0.687   3.780   2.718 -0.0365 -0.3523 -0.0766
  159SAPE   C2117676   0.690   3.768   2.851 -0.2860 -0.1892 -0.1841
  159SAPE   O2217677   0.754   3.828   2.928  0.0036 -0.6905 -0.6631
  159SAPE   C2217678   0.606   3.641   2.889 -0.3558 -0.1313 -0.2892
  159SAPE   H2R17679   0.536   3.658   2.973 -0.6451 -1.4132 -0.2388
  159SAPE   H2S17680   0.543   3.609   2.803 -0.9790 -2.0499  0.8053
  159SAPE    C317681   0.667   4.035   2.670  0.6632  0.6693  0.6458
  159SAPE    HX17682   0.585   4.034   2.595 -0.1418 -0.0628  1.5150
  159SAPE    HY17683   0.731   4.116   2.628  1.2784 -0.0573  0.1549
  159SAPE   O3117684   0.608   4.071   2.797  0.7433  0.2695  0.3906
  159SAPE   C3117685   0.697   4.144   2.870 -0.5309  0.3685  0.4270
  159SAPE   O3217686   0.809   4.172   2.831  0.0675  0.4117  0.2228
  159SAPE   C3217687   0.631   4.177   3.002 -0.1080  0.6152  0.0213
  159SAPE   H2X17688   0.548   4.106   3.021  0.6341 -0.0890  0.7172
  159SAPE   H2Y17689   0.583   4.277   2.997 -2.0131 -0.2296  0.3610
  159SAPE   C2317690   0.701   3.519   2.916 -0.1781  0.5971 -0.3702
  159SAPE   H3R17691   0.780   3.540   2.990  2.3164 -2.9646 -1.7087
  159SAPE   H3S17692   0.757   3.495   2.822  0.9940 -0.9780  0.6818
  159SAPE   C2417693   0.628   3.390   2.961 -0.3405  0.2523  0.7598
  159SAPE   H4R17694   0.705   3.310   2.963 -1.9048 -1.3314  3.1384
  159SAPE   H4S17695   0.561   3.370   2.875 -1.2418  0.2006  1.4542
  159SAPE   C2517696   0.539   3.396   3.084  0.1940  0.1923 -0.0074
  159SAPE   H5R17697   0.439   3.442   3.075  0.7861  1.9652  1.8812
  159SAPE   C2617698   0.567   3.337   3.206  0.4908  0.1470  1.1504
  159SAPE   H6R17699   0.491   3.352   3.285 -0.2398 -2.6610  1.0937
  159SAPE   C2717700   0.700   3.272   3.238 -1.0973 -0.4272  0.2301
  159SAPE   H7R17701   0.755   3.268   3.142 -0.6837 -1.6540  0.4939
  159SAPE   H7S17702   0.684   3.166   3.268  0.7339 -0.4841  1.1277
  159SAPE   C2817703   0.772   3.358   3.344 -0.1881  0.6493 -0.9066
  159SAPE   H8R17704   0.819   3.451   3.309  2.1697  0.2132  0.8672
  159SAPE   C2917705   0.786   3.326   3.477 -0.3217 -0.1587  0.1820
  159SAPE   H9R17706   0.847   3.379   3.552  1.3315 -0.5968 -0.7967
  159SAPE  C21017707   0.735   3.195   3.536 -0.7130 -0.1561 -0.2120
  159SAPE  H10R17708   0.672   3.129   3.473 -2.0845 -1.4305  2.3129
  159SAPE  H10S17709   0.669   3.203   3.625 -1.2756  1.4205 -0.7370
  159SAPE  C21117710   0.848   3.104   3.562 -0.3365  0.6428 -0.1133
  159SAPE  H11R17711   0.911   3.078   3.476 -1.9966  0.4824 -1.3154
  159SAPE  C21217712   0.874   3.041   3.684  0.0192  0.0162 -0.1741
  159SAPE  H12R17713   0.955   2.968   3.698 -1.4643 -1.8431 -0.7924
  159SAPE  C21317714   0.787   3.069   3.805 -0.5722  0.4399 -0.2063
  159SAPE  H13R17715   0.775   3.178   3.823 -0.5352  0.2485  1.0387
  159SAPE  H13S17716   0.842   3.043   3.898 -0.1544 -1.3993 -0.9185
  159SAPE  C21417717   0.651   3.005   3.805 -0.3664 -0.2480  0.4083
  159SAPE  H14R17718   0.571   3.070   3.768 -1.1381 -2.4126 -2.0942
  159SAPE  C21517719   0.612   2.890   3.855  0.6143 -0.3270  0.5354
  159SAPE  H15R17720   0.504   2.870   3.848  0.2647  1.2054  1.1764
  159SAPE  C21617721   0.703   2.789   3.917  0.0423  1.3046 -0.6458
  159SAPE  H16R17722   0.810   2.797   3.889  0.1081  1.0793 -0.4597
  159SAPE  H16S17723   0.674   2.690   3.876  2.2362 -0.8453  2.4957
  159SAPE  C21717724   0.687   2.791   4.076 -0.3677 -0.4645 -0.1150
  159SAPE  H17R17725   0.578   2.772   4.090 -0.3253 -1.0055 -0.5135
  159SAPE  H17S17726   0.709   2.890   4.121 -1.6916  0.7225 -1.9437
  159SAPE  C21817727   0.768   2.686   4.145 -0.1102  0.4657  0.3368
  159SAPE  H18R17728   0.868   2.674   4.099 -0.8909 -3.2613 -0.7469
  159SAPE  H18S17729   0.717   2.587   4.136 -0.2250  0.6027 -0.5993
  159SAPE  C21917730   0.780   2.718   4.301 -0.0257  0.3135  0.4760
  159SAPE  H19R17731   0.846   2.807   4.304  0.7802 -0.2803  0.4740
  159SAPE  H19S17732   0.835   2.630   4.341  2.3588  0.2178 -2.6510
  159SAPE  C22017733   0.647   2.733   4.372 -0.0936 -0.2748  0.0756
  159SAPE  H20R17734   0.663   2.744   4.481  1.2896 -2.3364  0.1507
  159SAPE  H20S17735   0.574   2.652   4.350 -0.9324  0.4137  0.2762
  159SAPE  H20T17736   0.593   2.821   4.331 -0.4571  0.0182  1.1713
  159SAPE   C3317737   0.728   4.157   3.125 -0.3611 -0.4108  0.6502
  159SAPE   H3X17738   0.821   4.216   3.110 -0.9388  0.4432  0.3385
  159SAPE   H3Y17739   0.751   4.049   3.140 -0.2309 -0.7906 -1.8549
  159SAPE   C3417740   0.643   4.196   3.247  0.9964 -1.0560 -0.3575
  159SAPE   H4X17741   0.538   4.164   3.231  0.5062 -0.2316  1.0120
  159SAPE   H4Y17742   0.631   4.303   3.275 -1.1198 -1.7458  1.7116
  159SAPE   C3517743   0.677   4.118   3.377 -0.2605  0.0023  0.4872
  159SAPE   H5X17744   0.781   4.121   3.417  0.0696 -0.8722 -0.2880
  159SAPE   H5Y17745   0.665   4.010   3.356 -0.0662  0.1020 -0.1482
  159SAPE   C3617746   0.585   4.162   3.497  0.0774 -0.5950 -0.0790
  159SAPE   H6X17747   0.483   4.124   3.479 -0.5686  0.9110  0.2708
  159SAPE   H6Y17748   0.588   4.272   3.516  0.0569 -0.6879  0.4843
  159SAPE   C3717749   0.634   4.095   3.634  0.2390 -0.0349  0.3010
  159SAPE   H7X17750   0.721   4.158   3.663  0.8062  0.1520 -1.6785
  159SAPE   H7Y17751   0.673   3.994   3.610 -0.8436 -0.5610  0.6563
  159SAPE   C3817752   0.524   4.093   3.734  0.3884 -0.0826 -0.5895
  159SAPE   H8X17753   0.441   4.041   3.682 -1.0445 -0.1589  1.6013
  159SAPE   H8Y17754   0.497   4.196   3.768 -1.3405 -0.6370 -0.1586
  159SAPE   C3917755   0.538   4.004   3.864 -0.2160  0.7271  0.5738
  159SAPE   H9X17756   0.646   3.991   3.885  0.0663 -3.3875 -2.2560
  159SAPE   H9Y17757   0.484   3.911   3.835  0.9196  0.5361 -1.0606
  159SAPE  C31017758   0.459   4.051   3.990 -0.9477  0.0673  0.1797
  159SAPE  H10X17759   0.357   4.087   3.964 -1.5308 -0.6454  1.3951
  159SAPE  H10Y17760   0.524   4.130   4.034  0.2371 -0.9275  0.2727
  159SAPE  C31117761   0.454   3.958   4.104  0.4425  0.4693 -0.2398
  159SAPE  H11X17762   0.544   3.894   4.115 -0.0215 -0.0007  1.0136
  159SAPE  H11Y17763   0.359   3.902   4.090  1.0811 -0.2541 -2.0347
  159SAPE  C31217764   0.454   4.033   4.236  0.2799 -0.4274  0.5725
  159SAPE  H12X17765   0.382   4.117   4.228  1.5744  0.8238  1.5485
  159SAPE  H12Y17766   0.553   4.077   4.261  0.3695 -0.1982 -0.1548
  159SAPE  C31317767   0.423   3.930   4.348  0.4750 -0.3362 -0.4777
  159SAPE  H13X17768   0.508   3.860   4.335 -0.4141 -1.4605 -0.4068
  159SAPE  H13Y17769   0.320   3.889   4.338 -0.4422  1.6932 -0.0130
  159SAPE  C31417770   0.440   3.999   4.486 -0.4156 -0.2815 -0.3929
  159SAPE  H14X17771   0.545   4.035   4.488 -0.7082  0.6621 -0.9903
  159SAPE  H14Y17772   0.426   3.933   4.573 -1.4454 -0.0267 -0.3455
  159SAPE  C31517773   0.344   4.124   4.501 -0.3402  0.8144  0.4671
  159SAPE  H15X17774   0.242   4.079   4.501  0.0307 -0.0458  1.1532
  159SAPE  H15Y17775   0.349   4.201   4.421 -1.8499 -1.4908 -2.0357
  159SAPE  C31617776   0.353   4.203   4.637 -0.0566 -0.1212 -0.1712
  159SAPE  H16X17777   0.459   4.228   4.660 -0.2000  0.3242  0.0171
  159SAPE  H16Y17778   0.322   4.133   4.717 -1.4609  0.5411 -0.1199
  159SAPE  C31717779   0.278   4.332   4.635 -0.1949  0.4179 -0.8723
  159SAPE  H17X17780   0.171   4.310   4.616  0.2939  0.2901 -4.0630
  159SAPE  H17Y17781   0.318   4.395   4.553 -1.6011 -1.5281 -3.1924
  159SAPE  C31817782   0.296   4.403   4.775  0.0917  0.5007 -0.0148
  159SAPE  H18X17783   0.266   4.342   4.863  0.2168  0.5307  0.0475
  159SAPE  H18Y17784   0.237   4.497   4.781  0.7837  0.8469  2.5058
  159SAPE  H18Z17785   0.404   4.425   4.782  0.5190 -1.1601 -0.9461
  160SAPE     N17786   6.218   5.040   2.225 -0.0167 -0.7322  0.0179
  160SAPE   HN117787   6.312   5.013   2.258 -0.0343 -0.5847  0.1903
  160SAPE   HN217788   6.155   4.959   2.209 -0.4500 -0.1620 -1.3407
  160SAPE   HN317789   6.220   5.089   2.133  0.8411  0.4064  0.6220
  160SAPE   C1217790   6.183   5.146   2.327 -0.4254 -0.0460  0.6194
  160SAPE  H12A17791   6.105   5.111   2.397 -1.3807  0.8946  0.0572
  160SAPE  H12B17792   6.148   5.234   2.268  0.6063  0.2365  0.4137
  160SAPE   C1117793   6.313   5.185   2.399 -0.6705 -0.0181  0.2394
  160SAPE  H11A17794   6.345   5.103   2.467  0.2305  0.9539  1.0154
  160SAPE  H11B17795   6.288   5.270   2.466 -1.4467  0.1572 -0.2598
  160SAPE     P17796   6.503   5.355   2.324 -0.1200 -0.3527 -0.1182
  160SAPE   O1317797   6.643   5.310   2.314  0.0658 -0.2451 -0.1315
  160SAPE   O1417798   6.458   5.458   2.227  0.6393 -0.0007 -0.2642
  160SAPE   O1217799   6.406   5.223   2.306 -0.6380  0.1488 -0.3288
  160SAPE   O1117800   6.471   5.409   2.469  0.1442  0.4886  0.6238
  160SAPE    C117801   6.569   5.465   2.556  0.2398  0.9470  0.0719
  160SAPE    HA17802   6.672   5.469   2.517  0.5537 -2.0923  0.2847
  160SAPE    HB17803   6.552   5.574   2.560  3.0587  1.6476 -3.0711
  160SAPE    C217804   6.561   5.393   2.696  0.5731 -0.3930 -0.1653
  160SAPE    HS17805   6.589   5.286   2.686  1.1004 -0.1705 -1.1077
  160SAPE   O2117806   6.426   5.407   2.727  0.0864  0.0536  0.2765
  160SAPE   C2117807   6.367   5.312   2.799  0.2085 -0.6487 -0.3862
  160SAPE   O2217808   6.419   5.207   2.831 -0.3093 -0.2233 -0.6698
  160SAPE   C2217809   6.224   5.353   2.840  0.1641  0.1655  1.2204
  160SAPE   H2R17810   6.202   5.313   2.941  0.8411 -0.8704  0.9762
  160SAPE   H2S17811   6.230   5.464   2.833 -0.7148  0.1367 -2.8738
  160SAPE    C317812   6.635   5.460   2.816  0.0515  0.1682 -0.2772
  160SAPE    HX17813   6.627   5.569   2.835 -0.3423 -0.3990  3.8051
  160SAPE    HY17814   6.740   5.440   2.785  0.0759 -0.8342  0.3911
  160SAPE   O3117815   6.599   5.389   2.939  0.2542  0.2027  0.6826
  160SAPE   C3117816   6.659   5.443   3.049  0.5251 -0.2840  0.1785
  160SAPE   O3217817   6.727   5.544   3.048 -0.1324  1.0411 -1.0729
  160SAPE   C3217818   6.655   5.338   3.157 -0.3825  0.1546 -0.0103
  160SAPE   H2X17819   6.744   5.272   3.147 -1.2959 -1.1191  0.0821
  160SAPE   H2Y17820   6.566   5.272   3.162 -0.7504  0.7285  2.5099
  160SAPE   C2317821   6.110   5.299   2.751  0.9227 -0.4336  0.0061
  160SAPE   H3R17822   6.135   5.296   2.643 -2.2389  3.1121 -1.0384
  160SAPE   H3S17823   6.024   5.369   2.760 -0.1337 -1.2003 -2.9517
  160SAPE   C2417824   6.061   5.160   2.799 -0.0560 -0.6159 -0.5852
  160SAPE   H4R17825   5.978   5.128   2.732  1.0180 -2.6865 -1.0073
  160SAPE   H4S17826   6.029   5.172   2.905  1.4140 -0.7720 -0.1040
  160SAPE   C2517827   6.166   5.056   2.787 -0.5652  0.5682 -0.6080
  160SAPE   H5R17828   6.200   5.020   2.689 -1.2901 -3.9974  0.5932
  160SAPE   C2617829   6.213   4.972   2.886 -0.4636 -0.1798  0.7122
  160SAPE   H6R17830   6.295   4.903   2.862 -0.1969 -0.4809  2.4013
  160SAPE   C2717831   6.173   4.976   3.028 -0.3405  0.1196  0.4590
  160SAPE   H7R17832   6.206   4.881   3.076  0.5451 -0.7322 -1.7035
  160SAPE   H7S17833   6.066   4.999   3.044 -0.6171 -1.9245  1.9153
  160SAPE   C2817834   6.266   5.072   3.098  0.1233  0.1238  1.5399
  160SAPE   H8R17835   6.348   5.113   3.037  0.9380 -2.0847  1.0590
  160SAPE   C2917836   6.259   5.099   3.226 -0.2515  0.0204 -0.2125
  160SAPE   H9R17837   6.328   5.174   3.266  0.5511 -0.9650  0.2810
  160SAPE  C21017838   6.158   5.043   3.325 -0.1324  0.2910  0.1073
  160SAPE  H10R17839   6.085   4.984   3.266  0.0166  1.7018 -1.5756
  160SAPE  H10S17840   6.108   5.135   3.364 -0.9399  0.2046 -0.7016
  160SAPE  C21117841   6.210   4.954   3.431  0.2858 -0.7236  0.3366
  160SAPE  H11R17842   6.230   4.851   3.396  1.1840 -0.0815 -1.1247
  160SAPE  C21217843   6.235   4.993   3.550  0.2314 -0.4866 -0.1333
  160SAPE  H12R17844   6.282   4.919   3.617  2.1121  0.6635 -0.0871
  160SAPE  C21317845   6.215   5.124   3.617 -0.9413  0.4229 -0.2121
  160SAPE  H13R17846   6.129   5.104   3.686 -1.0609  0.4817 -0.3447
  160SAPE  H13S17847   6.175   5.206   3.554 -2.8929  0.2395  0.7023
  160SAPE  C21417848   6.328   5.176   3.703 -0.5465  0.6023  0.1560
  160SAPE  H14R17849   6.424   5.198   3.653  1.2645 -1.8490  2.2306
  160SAPE  C21517850   6.329   5.186   3.837  0.1777  0.0354  0.4371
  160SAPE  H15R17851   6.421   5.204   3.895  0.0208  0.4386  0.5639
  160SAPE  C21617852   6.216   5.162   3.931  0.4963  0.1475 -0.0364
  160SAPE  H16R17853   6.209   5.056   3.963 -0.1153 -0.7170 -2.7727
  160SAPE  H16S17854   6.119   5.184   3.881  1.1762  0.0067 -1.4688
  160SAPE  C21717855   6.230   5.252   4.055  0.2634 -0.0405 -0.8180
  160SAPE  H17R17856   6.197   5.357   4.043  1.2994  0.4563  0.4425
  160SAPE  H17S17857   6.339   5.264   4.077  0.4741  0.7939 -2.1876
  160SAPE  C21817858   6.177   5.178   4.184 -0.1677 -0.1036  0.6093
  160SAPE  H18R17859   6.214   5.073   4.180  2.2499  0.6980  0.3444
  160SAPE  H18S17860   6.068   5.173   4.202 -0.4916  1.7080 -0.5522
  160SAPE  C21917861   6.228   5.249   4.308  0.7108  0.0043  0.0007
  160SAPE  H19R17862   6.191   5.354   4.304  0.5964 -0.0573 -0.7932
  160SAPE  H19S17863   6.339   5.252   4.301  0.7410 -1.5492 -0.7096
  160SAPE  C22017864   6.185   5.174   4.438 -0.1176  0.3004 -0.1656
  160SAPE  H20R17865   6.075   5.166   4.433 -0.0867 -1.1453  1.0423
  160SAPE  H20S17866   6.207   5.230   4.531 -3.9558  0.7071  0.6292
  160SAPE  H20T17867   6.227   5.072   4.448 -2.2131 -0.7736 -1.6465
  160SAPE   C3317868   6.670   5.408   3.298 -0.6450  0.1887  0.5589
  160SAPE   H3X17869   6.586   5.479   3.315  0.5091  2.5053 -2.4462
  160SAPE   H3Y17870   6.760   5.474   3.298  0.8945 -1.8158 -0.0609
  160SAPE   C3417871   6.691   5.326   3.424  0.2079  0.9107 -0.1731
  160SAPE   H4X17872   6.757   5.237   3.408 -1.5946 -0.4317 -0.4091
  160SAPE   H4Y17873   6.595   5.277   3.450  0.7638  0.1016  0.4487
  160SAPE   C3517874   6.742   5.399   3.549  0.2493 -1.3581 -0.3565
  160SAPE   H5X17875   6.706   5.503   3.540  1.6044 -0.4907  2.9195
  160SAPE   H5Y17876   6.853   5.407   3.552  0.1097  0.6821  2.1919
  160SAPE   C3617877   6.674   5.339   3.678 -0.4292  0.3916 -0.0932
  160SAPE   H6X17878   6.705   5.232   3.679  0.8427  0.5571 -4.0045
  160SAPE   H6Y17879   6.567   5.344   3.649  0.1590  1.9571 -2.3030
  160SAPE   C3717880   6.713   5.421   3.803 -0.3691  0.1904 -0.5380
  160SAPE   H7X17881   6.662   5.518   3.818 -2.2373 -0.9028  0.5224
  160SAPE   H7Y17882   6.823   5.435   3.802 -0.3078 -0.3002 -0.8663
  160SAPE   C3817883   6.686   5.352   3.941 -0.4727  0.0026  0.7887
  160SAPE   H8X17884   6.746   5.259   3.942 -1.1113 -0.6449 -3.0759
  160SAPE   H8Y17885   6.577   5.336   3.957 -1.8333  5.2050 -1.2631
  160SAPE   C3917886   6.740   5.438   4.062  0.8442 -0.1292  0.2708
  160SAPE   H9X17887   6.686   5.535   4.074 -0.3138 -0.8431  1.0052
  160SAPE   H9Y17888   6.845   5.464   4.039  1.0124 -0.3447  0.7876
  160SAPE  C31017889   6.725   5.353   4.186 -0.0929 -0.0098  0.2101
  160SAPE  H10X17890   6.768   5.253   4.166  4.1465  1.9227 -1.7311
  160SAPE  H10Y17891   6.614   5.349   4.194 -0.0818  0.5617  0.7985
  160SAPE  C31117892   6.778   5.417   4.316  0.2476  0.3401  0.0673
  160SAPE  H11X17893   6.707   5.503   4.321  0.2922  0.4496 -0.9650
  160SAPE  H11Y17894   6.882   5.444   4.289  0.7862 -2.1571 -0.5684
  160SAPE  C31217895   6.792   5.331   4.443 -0.0719  0.0319  0.6867
  160SAPE  H12X17896   6.835   5.402   4.517 -1.0412  0.5292  0.7944
  160SAPE  H12Y17897   6.869   5.254   4.423 -0.2359  0.2830 -1.0295
  160SAPE  C31317898   6.672   5.254   4.492 -0.6509 -0.1337 -0.0427
  160SAPE  H13X17899   6.661   5.168   4.422  0.2916 -0.0429 -0.3157
  160SAPE  H13Y17900   6.578   5.314   4.495 -1.1519 -0.8631  3.1948
  160SAPE  C31417901   6.691   5.191   4.634 -0.1015  0.3151  0.7476
  160SAPE  H14X17902   6.777   5.121   4.626  1.0206  1.8359 -1.5497
  160SAPE  H14Y17903   6.608   5.119   4.653 -0.4085  0.9434  1.9002
  160SAPE  C31517904   6.721   5.291   4.743  0.6961 -0.0501  0.3076
  160SAPE  H15X17905   6.639   5.365   4.743  1.2651  0.5894 -0.2672
  160SAPE  H15Y17906   6.815   5.346   4.721  1.2848 -0.5460  1.5129
  160SAPE  C31617907   6.734   5.209   4.870  0.3399  0.5042  0.2265
  160SAPE  H16X17908   6.803   5.123   4.857 -2.3573 -1.5629 -1.3293
  160SAPE  H16Y17909   6.639   5.158   4.896  0.4143  0.3920  0.2803
  160SAPE  C31717910   6.777   5.281   5.004  0.4927  0.2666  0.0506
  160SAPE  H17X17911   6.792   5.203   5.082  1.4313  0.9081  0.5399
  160SAPE  H17Y17912   6.689   5.332   5.047  1.3847  2.0372 -0.1157
  160SAPE  C31817913   6.899   5.375   4.996 -0.9629 -0.5548 -0.6257
  160SAPE  H18X17914   6.907   5.446   5.081 -1.0865  2.1516 -2.7409
  160SAPE  H18Y17915   6.889   5.443   4.910  0.3258  0.9051  0.3303
  160SAPE  H18Z17916   6.986   5.305   4.993 -0.6455 -0.2058  0.1197
  161SAPE     N17917   4.531   4.654   2.296  0.1429 -0.5023  0.2485
  161SAPE   HN117918   4.621   4.602   2.284  1.0748  0.9976  0.4854
  161SAPE   HN217919   4.530   4.680   2.397  1.8526 -0.7221  0.3575
  161SAPE   HN317920   4.455   4.584   2.281 -0.0061 -0.0413 -1.2967
  161SAPE   C1217921   4.514   4.770   2.202 -0.5716 -0.7877  0.1250
  161SAPE  H12A17922   4.405   4.786   2.190 -0.7949 -2.9062 -1.2030
  161SAPE  H12B17923   4.559   4.743   2.104  1.2052 -0.8415  0.8963
  161SAPE   C1117924   4.598   4.878   2.276  0.0176  0.1421  0.1879
  161SAPE  H11A17925   4.570   4.905   2.380  0.1217 -0.3846  0.3549
  161SAPE  H11B17926   4.572   4.973   2.224 -0.5290 -1.0626 -1.8943
  161SAPE     P17927   4.846   4.950   2.302 -0.0928 -0.2366 -0.0402
  161SAPE   O1317928   4.924   4.995   2.177 -0.3833  0.6823  0.0914
  161SAPE   O1417929   4.797   5.057   2.390 -0.0989  0.0523  0.2823
  161SAPE   O1217930   4.736   4.844   2.269  0.5058  0.2261  0.0855
  161SAPE   O1117931   4.944   4.857   2.387  0.1530 -0.7751  0.4974
  161SAPE    C117932   4.889   4.773   2.484 -0.2740 -0.4495 -0.0216
  161SAPE    HA17933   4.797   4.728   2.443 -0.9337 -0.0074  0.9302
  161SAPE    HB17934   4.963   4.690   2.488  0.9781  0.5041 -1.8778
  161SAPE    C217935   4.880   4.835   2.624  0.0328 -0.1142 -0.8065
  161SAPE    HS17936   4.880   4.945   2.608 -0.5205 -0.1029 -0.7420
  161SAPE   O2117937   4.994   4.794   2.699 -0.6913 -0.1622 -0.4755
  161SAPE   C2117938   5.095   4.875   2.691 -0.2283  0.7128  0.3203
  161SAPE   O2217939   5.110   4.967   2.614  0.4926  0.0969 -0.1397
  161SAPE   C2217940   5.203   4.846   2.796 -0.5333  0.4308 -0.0614
  161SAPE   H2R17941   5.268   4.771   2.745  0.0248  0.3677  0.7329
  161SAPE   H2S17942   5.256   4.943   2.809  0.6771 -0.1847 -0.2591
  161SAPE    C317943   4.739   4.814   2.696 -0.6148 -0.1877  0.3554
  161SAPE    HX17944   4.715   4.706   2.693  0.7663 -0.4953 -1.6719
  161SAPE    HY17945   4.668   4.873   2.635 -1.0874 -0.2669  0.8199
  161SAPE   O3117946   4.749   4.860   2.834 -0.4005 -0.0007 -0.4031
  161SAPE   C3117947   4.725   4.987   2.852 -0.0239 -0.0448  0.1082
  161SAPE   O3217948   4.715   5.075   2.766 -0.2185 -0.0351  0.0605
  161SAPE   C3217949   4.706   5.007   3.000  0.0412  0.0403 -0.6568
  161SAPE   H2X17950   4.623   4.945   3.040 -0.2764 -0.2194 -1.6892
  161SAPE   H2Y17951   4.677   5.113   3.011 -0.2455 -0.0173 -0.8494
  161SAPE   C2317952   5.136   4.798   2.926  0.1209 -0.2387  0.0174
  161SAPE   H3R17953   5.067   4.712   2.914 -1.3677  0.2116  3.8753
  161SAPE   H3S17954   5.074   4.885   2.958  1.1762  0.7000 -0.4024
  161SAPE   C2417955   5.238   4.744   3.033  0.2746 -0.5318  0.6260
  161SAPE   H4R17956   5.306   4.823   3.072  0.1157 -0.5132  0.8662
  161SAPE   H4S17957   5.288   4.658   2.983 -1.3325 -1.2763  0.2393
  161SAPE   C2517958   5.166   4.678   3.146 -0.6196 -0.3748 -0.3339
  161SAPE   H5R17959   5.068   4.640   3.112 -0.9350  0.8989 -0.9158
  161SAPE   C2617960   5.205   4.671   3.272 -0.4774  0.1692  0.3956
  161SAPE   H6R17961   5.139   4.624   3.346 -1.0907  1.6079  0.7825
  161SAPE   C2717962   5.335   4.716   3.331  0.0775 -0.4996  0.4614
  161SAPE   H7R17963   5.406   4.741   3.250  0.4566 -1.9352  0.3210
  161SAPE   H7S17964   5.402   4.634   3.366  0.7707 -1.1452 -2.1586
  161SAPE   C2817965   5.320   4.826   3.431 -0.6265 -0.1411  0.3326
  161SAPE   H8R17966   5.295   4.925   3.390 -1.5586  0.6199  2.5711
  161SAPE   C2917967   5.328   4.821   3.566 -0.3282 -0.1379  0.1120
  161SAPE   H9R17968   5.326   4.910   3.631  0.3131 -2.1043  3.0055
  161SAPE  C21017969   5.351   4.701   3.654 -0.6498 -0.0891  0.3840
  161SAPE  H10R17970   5.444   4.728   3.710 -1.1170  1.1628  0.6051
  161SAPE  H10S17971   5.396   4.619   3.595  3.0744  2.7175 -1.0740
  161SAPE  C21117972   5.229   4.666   3.739 -0.3037  0.0290 -0.6989
  161SAPE  H11R17973   5.128   4.677   3.696 -1.1267 -1.8647  0.5967
  161SAPE  C21217974   5.239   4.635   3.865  0.4080  0.8040  0.2339
  161SAPE  H12R17975   5.149   4.623   3.926  0.1297 -3.4089 -0.7123
  161SAPE  C21317976   5.368   4.606   3.941  0.1081 -0.0969  0.3475
  161SAPE  H13R17977   5.361   4.649   4.043  0.0918 -0.5914  0.5576
  161SAPE  H13S17978   5.452   4.655   3.889  0.4322 -2.4941 -1.5546
  161SAPE  C21417979   5.399   4.458   3.937  0.3254  0.0583 -0.6491
  161SAPE  H14R17980   5.388   4.393   3.849  0.0060 -1.0307  0.1641
  161SAPE  C21517981   5.406   4.387   4.053 -0.0397  0.5403 -0.4548
  161SAPE  H15R17982   5.417   4.278   4.055 -2.1753  0.2857  0.5523
  161SAPE  C21617983   5.401   4.434   4.199  0.0029 -0.1374  0.2355
  161SAPE  H16R17984   5.296   4.432   4.236 -0.3618 -1.2820 -0.8153
  161SAPE  H16S17985   5.440   4.538   4.203 -1.5080  0.5532 -1.4957
  161SAPE  C21717986   5.477   4.344   4.285 -0.3827  0.2655 -0.0446
  161SAPE  H17R17987   5.580   4.330   4.245 -0.0990  1.5830  0.2055
  161SAPE  H17S17988   5.426   4.246   4.298  0.0786  0.0338  0.0427
  161SAPE  C21817989   5.496   4.395   4.428 -0.6736 -0.1494  0.1979
  161SAPE  H18R17990   5.401   4.421   4.479  0.5657 -0.7506  3.0071
  161SAPE  H18S17991   5.564   4.483   4.421  0.1261 -0.5471  2.1754
  161SAPE  C21917992   5.577   4.282   4.497  0.3011  0.1309  0.3963
  161SAPE  H19R17993   5.667   4.273   4.433  0.8230  4.2135  0.3251
  161SAPE  H19S17994   5.520   4.187   4.495  0.5608 -0.0452 -1.9797
  161SAPE  C22017995   5.625   4.313   4.645  0.1661  0.7415  0.1375
  161SAPE  H20R17996   5.697   4.397   4.640  0.1757  0.6790 -1.7851
  161SAPE  H20S17997   5.676   4.227   4.694 -0.7945  0.5857  0.8879
  161SAPE  H20T17998   5.541   4.347   4.709 -0.3182  0.0640 -0.1268
  161SAPE   C3317999   4.841   4.988   3.079  0.2962 -0.0440  0.3981
  161SAPE   H3X18000   4.908   5.070   3.044  1.0460 -0.3598  1.0799
  161SAPE   H3Y18001   4.886   4.890   3.052 -0.1342 -0.2467  0.4075
  161SAPE   C3418002   4.833   5.012   3.225  0.2553  1.2922  0.1060
  161SAPE   H4X18003   4.788   4.923   3.274 -0.7289  0.4780 -2.1378
  161SAPE   H4Y18004   4.773   5.102   3.248 -0.3762  0.7924  0.4353
  161SAPE   C3518005   4.967   5.010   3.280 -0.6576  0.2024  0.5594
  161SAPE   H5X18006   5.028   5.102   3.265  2.0849 -1.3965  1.2078
  161SAPE   H5Y18007   5.013   4.924   3.226 -3.1460  1.4373 -4.0567
  161SAPE   C3618008   4.983   4.968   3.426  0.5218  0.1316  0.0050
  161SAPE   H6X18009   5.086   4.933   3.450  0.3128 -0.3253  0.2499
  161SAPE   H6Y18010   4.911   4.891   3.460  0.4903  0.4361  0.6426
  161SAPE   C3718011   4.965   5.076   3.528 -0.7026 -0.0019  0.0610
  161SAPE   H7X18012   4.858   5.104   3.528 -0.2957  1.8379 -1.8773
  161SAPE   H7Y18013   5.021   5.167   3.498 -0.3323 -0.2381  0.0307
  161SAPE   C3818014   4.996   5.027   3.666 -0.0159  0.1962  0.6744
  161SAPE   H8X18015   5.098   4.986   3.679 -0.4578 -0.6417  1.7429
  161SAPE   H8Y18016   4.926   4.944   3.692  1.7113 -0.5955  3.2682
  161SAPE   C3918017   4.973   5.129   3.774 -0.5876 -0.3892 -0.6197
  161SAPE   H9X18018   4.872   5.173   3.754 -0.6608  0.4975  1.5088
  161SAPE   H9Y18019   5.053   5.206   3.770  0.2847 -1.2521  0.0123
  161SAPE  C31018020   5.012   5.085   3.914  0.1956  0.5293  0.0467
  161SAPE  H10X18021   5.005   5.177   3.977 -2.6538  0.8854 -0.6624
  161SAPE  H10Y18022   5.118   5.053   3.929 -0.7209 -3.0688 -0.2296
  161SAPE  C31118023   4.925   4.970   3.950 -0.1475 -0.5781  0.0955
  161SAPE  H11X18024   4.956   4.877   3.897 -2.4173  0.4105 -3.2248
  161SAPE  H11Y18025   4.826   4.973   3.900  0.0111  0.6999 -0.1601
  161SAPE  C31218026   4.915   4.943   4.102  0.3239  0.0498 -0.3898
  161SAPE  H12X18027   4.864   4.846   4.121 -0.7904  0.5732 -0.6532
  161SAPE  H12Y18028   4.860   5.026   4.152  0.6730  0.7335 -1.1139
  161SAPE  C31318029   5.063   4.923   4.155  0.6531  0.0731 -0.1451
  161SAPE  H13X18030   5.107   5.025   4.164 -0.2244  0.6393 -1.8605
  161SAPE  H13Y18031   5.121   4.872   4.076  1.9484  0.2871  0.6302
  161SAPE  C31418032   5.087   4.842   4.284 -0.0339 -0.4554  0.5493
  161SAPE  H14X18033   5.040   4.746   4.253  1.7531 -0.5044 -2.3862
  161SAPE  H14Y18034   5.039   4.883   4.376 -0.4860 -0.0739  0.1483
  161SAPE  C31518035   5.236   4.806   4.308  0.2352 -0.3308  0.0896
  161SAPE  H15X18036   5.290   4.902   4.325 -3.2896  1.7613  0.5206
  161SAPE  H15Y18037   5.272   4.764   4.212  1.6226  0.2171  0.3547
  161SAPE  C31618038   5.270   4.705   4.414 -0.4057 -0.3202 -0.0747
  161SAPE  H16X18039   5.373   4.665   4.399  0.3378  1.3621  0.2073
  161SAPE  H16Y18040   5.205   4.615   4.409 -1.2741  0.2633  0.4278
  161SAPE  C31718041   5.261   4.766   4.559  0.3522 -0.0341 -1.0579
  161SAPE  H17X18042   5.156   4.785   4.587  0.8387  0.3035  0.6617
  161SAPE  H17Y18043   5.308   4.867   4.563  0.2892  0.0923 -2.7630
  161SAPE  C31818044   5.326   4.674   4.663 -0.6808  0.0053 -0.9155
  161SAPE  H18X18045   5.436   4.680   4.653 -0.7423 -0.8449 -2.2520
  161SAPE  H18Y18046   5.285   4.571   4.655 -1.8433  0.4890 -1.5670
  161SAPE  H18Z18047   5.305   4.719   4.763  1.0443  0.4817 -0.7441
  162SAPE     N18048   3.103   1.348   2.377  0.4856  0.1215 -0.4466
  162SAPE   HN118049   3.112   1.253   2.416 -3.2668  0.0958  0.7583
  162SAPE   HN218050   3.008   1.385   2.400 -0.0115 -0.7527 -1.0366
  162SAPE   HN318051   3.097   1.348   2.273 -0.0810 -2.7480 -0.4786
  162SAPE   C1218052   3.217   1.438   2.426 -0.2441 -0.0598  0.9075
  162SAPE  H12A18053   3.309   1.381   2.401 -0.1919  0.8127 -1.0511
  162SAPE  H12B18054   3.209   1.452   2.536 -1.3337  2.2850  0.5770
  162SAPE   C1118055   3.219   1.578   2.353  0.0027  0.5361 -0.4454
  162SAPE  H11A18056   3.308   1.631   2.393  1.1484  1.7217 -4.1198
  162SAPE  H11B18057   3.135   1.629   2.404 -1.4114 -1.2078 -0.9239
  162SAPE     P18058   3.324   1.520   2.123 -0.3528 -0.2136 -0.0587
  162SAPE   O1318059   3.357   1.380   2.163  0.1954 -0.0073 -0.4815
  162SAPE   O1418060   3.293   1.536   1.976  0.0672  0.1424 -0.1056
  162SAPE   O1218061   3.203   1.571   2.214  0.5709 -0.1086  0.3101
  162SAPE   O1118062   3.449   1.609   2.156  0.0695  0.1667  0.1532
  162SAPE    C118063   3.434   1.755   2.154 -0.5668 -0.0545 -0.0266
  162SAPE    HA18064   3.421   1.785   2.048 -2.3220  2.9234  0.9123
  162SAPE    HB18065   3.342   1.785   2.209 -0.7402  0.5350 -0.6165
  162SAPE    C218066   3.549   1.836   2.207 -0.0344 -0.1448 -0.2886
  162SAPE    HS18067   3.639   1.822   2.144 -0.5078  0.4650 -1.1183
  162SAPE   O2118068   3.562   1.787   2.347 -0.4293  0.0621  0.0553
  162SAPE   C2118069   3.664   1.829   2.418 -0.2049 -0.5459  0.7202
  162SAPE   O2218070   3.763   1.881   2.371 -0.2362 -0.0369  0.2435
  162SAPE   C2218071   3.647   1.786   2.564  0.2794 -0.3929  0.2594
  162SAPE   H2R18072   3.565   1.849   2.604  1.6112  1.4161  0.2738
  162SAPE   H2S18073   3.629   1.676   2.570  1.2265 -0.4899  2.1210
  162SAPE    C318074   3.521   1.994   2.218 -0.2702  0.2162  0.4787
  162SAPE    HX18075   3.497   2.017   2.112  1.3530 -0.0873  0.0268
  162SAPE    HY18076   3.620   2.038   2.242 -1.0762  0.8736  2.8892
  162SAPE   O3118077   3.411   2.037   2.296 -0.0013  0.0308 -0.6251
  162SAPE   C3118078   3.435   2.094   2.412 -0.0591 -0.2865 -0.0834
  162SAPE   O3218079   3.547   2.097   2.457  0.2460 -0.5587 -0.2258
  162SAPE   C3218080   3.304   2.135   2.476 -0.9896 -1.1986 -0.2881
  162SAPE   H2X18081   3.215   2.130   2.409 -0.5305 -0.2102 -1.0018
  162SAPE   H2Y18082   3.318   2.243   2.497  0.2586 -1.1022 -1.5047
  162SAPE   C2318083   3.779   1.805   2.648  0.4042 -0.2690  0.1162
  162SAPE   H3R18084   3.838   1.891   2.609  0.1547 -0.3804 -0.5198
  162SAPE   H3S18085   3.850   1.721   2.635 -0.4583 -1.1550  0.9498
  162SAPE   C2418086   3.736   1.810   2.794  0.5993 -0.0493  0.6794
  162SAPE   H4R18087   3.678   1.720   2.823  0.6230 -0.9890 -1.9579
  162SAPE   H4S18088   3.665   1.895   2.807  1.9697  1.5255 -1.4908
  162SAPE   C2518089   3.861   1.825   2.872  0.1729  0.3546  0.2192
  162SAPE   H5R18090   3.924   1.735   2.874 -0.8764 -0.3807  1.3388
  162SAPE   C2618091   3.900   1.937   2.937  0.4115  0.0272 -0.3122
  162SAPE   H6R18092   3.987   1.933   3.004 -0.4627  0.6156  0.8923
  162SAPE   C2718093   3.823   2.075   2.938  0.3203  0.2469 -0.1763
  162SAPE   H7R18094   3.755   2.090   2.851  1.4675  1.8502 -0.8413
  162SAPE   H7S18095   3.898   2.157   2.941 -0.2160  0.7430 -0.2549
  162SAPE   C2818096   3.733   2.096   3.059 -0.1486  0.0609  0.3664
  162SAPE   H8R18097   3.652   2.022   3.059 -0.6019  0.5497  1.2671
  162SAPE   C2918098   3.760   2.170   3.167  0.5140  0.0397 -0.4983
  162SAPE   H9R18099   3.688   2.174   3.250  0.3076  0.6832 -0.7004
  162SAPE  C21018100   3.877   2.260   3.195 -0.7032 -0.6565  0.0820
  162SAPE  H10R18101   3.960   2.235   3.126 -0.2654  0.6527  0.1046
  162SAPE  H10S18102   3.908   2.246   3.301 -1.5543 -2.6550  0.1002
  162SAPE  C21118103   3.869   2.409   3.185 -0.0999  0.6024 -0.2854
  162SAPE  H11R18104   3.935   2.458   3.113 -0.2662  1.0686 -0.1267
  162SAPE  C21218105   3.772   2.495   3.226 -0.7417  0.1621  0.2024
  162SAPE  H12R18106   3.782   2.604   3.214 -2.2242  0.5059  1.6452
  162SAPE  C21318107   3.688   2.455   3.341 -0.8160 -0.4989 -0.5284
  162SAPE  H13R18108   3.731   2.515   3.424 -0.0834  0.2260 -1.4100
  162SAPE  H13S18109   3.700   2.349   3.371  1.3662 -0.5619 -1.4368
  162SAPE  C21418110   3.543   2.477   3.326 -0.0879 -0.7376  0.5235
  162SAPE  H14R18111   3.502   2.535   3.242 -0.0240  3.8616  3.3166
  162SAPE  C21518112   3.456   2.460   3.430 -0.0006  0.1147 -0.1731
  162SAPE  H15R18113   3.349   2.474   3.412 -0.5902  1.3985  3.4586
  162SAPE  C21618114   3.485   2.397   3.569 -0.5415 -0.6415 -0.4096
  162SAPE  H16R18115   3.513   2.477   3.641  1.8606 -1.5180 -0.2667
  162SAPE  H16S18116   3.575   2.332   3.566  0.9791  1.3371 -0.2392
  162SAPE  C21718117   3.374   2.300   3.634  0.2978 -0.0436 -0.5594
  162SAPE  H17R18118   3.374   2.215   3.562 -1.4276  1.1337 -2.0351
  162SAPE  H17S18119   3.277   2.354   3.629  1.1848  1.7474  0.5413
  162SAPE  C21818120   3.407   2.260   3.781 -0.3518 -0.9378  0.1651
  162SAPE  H18R18121   3.421   2.350   3.845 -0.1121 -1.6463  1.1401
  162SAPE  H18S18122   3.507   2.213   3.787 -0.0921 -0.3703  0.4432
  162SAPE  C21918123   3.299   2.160   3.844 -0.1781 -0.2842  0.8262
  162SAPE  H19R18124   3.204   2.217   3.831  0.2915  0.2522 -0.3455
  162SAPE  H19S18125   3.312   2.160   3.954  0.8944 -0.7007  0.7055
  162SAPE  C22018126   3.292   2.022   3.786 -0.1498  0.4079  0.4491
  162SAPE  H20R18127   3.215   1.965   3.842  0.0582 -1.5997 -1.2089
  162SAPE  H20S18128   3.391   1.973   3.784  0.3110  1.2807  1.0086
  162SAPE  H20T18129   3.256   2.028   3.681  0.5496  1.3116  0.2489
  162SAPE   C3318130   3.281   2.058   2.615 -0.1868 -0.2545  0.8185
  162SAPE   H3X18131   3.185   2.100   2.650 -0.3402  0.0616  0.0497
  162SAPE   H3Y18132   3.364   2.069   2.688  2.0429  1.7374 -1.7567
  162SAPE   C3418133   3.253   1.913   2.580  0.6454 -0.1694 -0.1666
  162SAPE   H4X18134   3.327   1.857   2.518 -1.0417 -1.2258 -1.3055
  162SAPE   H4Y18135   3.167   1.911   2.510  1.4546  0.2783 -1.2199
  162SAPE   C3518136   3.221   1.819   2.696  0.1811  0.3593  0.0493
  162SAPE   H5X18137   3.139   1.748   2.670 -0.5198  0.2627  2.3384
  162SAPE   H5Y18138   3.165   1.883   2.767 -0.2017 -1.0816  1.0873
  162SAPE   C3618139   3.333   1.735   2.759 -0.5976 -0.0854  0.2703
  162SAPE   H6X18140   3.407   1.707   2.681 -1.3223  0.2064 -0.5361
  162SAPE   H6Y18141   3.294   1.643   2.806  0.4520 -1.0054 -0.6066
  162SAPE   C3718142   3.410   1.815   2.872 -0.1119 -0.5648 -0.4454
  162SAPE   H7X18143   3.435   1.915   2.832  2.0623 -0.9935 -0.2943
  162SAPE   H7Y18144   3.507   1.767   2.898 -0.1240  0.4768  1.7869
  162SAPE   C3818145   3.317   1.838   2.988 -0.1189 -0.3822 -0.6884
  162SAPE   H8X18146   3.274   1.739   3.017  0.7575 -0.5861 -0.0222
  162SAPE   H8Y18147   3.236   1.909   2.963  0.8083  0.4954 -1.2455
  162SAPE   C3918148   3.392   1.888   3.113  0.0806 -0.1410 -0.1167
  162SAPE   H9X18149   3.464   1.970   3.091  2.5165 -2.3149 -0.6736
  162SAPE   H9Y18150   3.467   1.812   3.144  0.8846  0.0695 -1.4901
  162SAPE  C31018151   3.305   1.941   3.227 -0.0093  0.3109 -0.3305
  162SAPE  H10X18152   3.254   2.035   3.199 -0.1777  0.2213 -0.3289
  162SAPE  H10Y18153   3.375   1.981   3.303 -0.6683  0.0325  0.4435
  162SAPE  C31118154   3.203   1.843   3.295  0.1912 -0.5031  0.0190
  162SAPE  H11X18155   3.120   1.817   3.226 -0.2953  1.4565 -0.1873
  162SAPE  H11Y18156   3.148   1.893   3.377  1.6929  2.0029 -0.4326
  162SAPE  C31218157   3.261   1.718   3.354  0.5272 -0.4560 -0.7814
  162SAPE  H12X18158   3.282   1.644   3.274 -3.0768 -0.4260 -1.9008
  162SAPE  H12Y18159   3.170   1.682   3.407 -0.4578  1.7001 -0.9108
  162SAPE  C31318160   3.361   1.738   3.459  0.0985 -0.1725 -0.0124
  162SAPE  H13X18161   3.318   1.819   3.521 -0.1609  0.2954 -0.7820
  162SAPE  H13Y18162   3.462   1.776   3.433 -0.9167  2.2961 -0.6128
  162SAPE  C31418163   3.377   1.611   3.552  0.0587 -0.7312 -0.5804
  162SAPE  H14X18164   3.461   1.546   3.518  1.3741  0.7780 -0.3357
  162SAPE  H14Y18165   3.279   1.559   3.542 -1.7196  1.9123  1.6579
  162SAPE  C31518166   3.416   1.645   3.703 -0.5396 -0.1179 -0.2245
  162SAPE  H15X18167   3.422   1.548   3.757  2.8290  0.9259  1.5635
  162SAPE  H15Y18168   3.335   1.699   3.756 -0.7199 -0.9490  0.3741
  162SAPE  C31618169   3.555   1.704   3.713 -0.6456  0.0391 -0.0186
  162SAPE  H16X18170   3.548   1.793   3.646  2.1161 -1.1744 -2.1096
  162SAPE  H16Y18171   3.635   1.642   3.668  0.3808  0.0319  1.7635
  162SAPE  C31718172   3.590   1.733   3.863 -0.3397 -0.3602  0.4097
  162SAPE  H17X18173   3.627   1.635   3.902  1.6151  1.0589  2.3848
  162SAPE  H17Y18174   3.504   1.771   3.922 -0.0495  0.5219  0.2697
  162SAPE  C31818175   3.703   1.843   3.884  0.1756 -0.4891  0.3378
  162SAPE  H18X18176   3.705   1.868   3.992 -2.4443 -0.3776  0.4370
  162SAPE  H18Y18177   3.692   1.936   3.823  1.8406 -1.7674 -2.0707
  162SAPE  H18Z18178   3.799   1.798   3.851 -0.5025 -0.9774 -1.0591
  163SAPE     N18179   3.773   3.701   2.289 -0.2365 -0.2295 -0.3222
  163SAPE   HN118180   3.826   3.619   2.252 -2.1637 -0.5263 -2.6791
  163SAPE   HN218181   3.711   3.660   2.362 -0.3125 -0.5980 -0.5901
  163SAPE   HN318182   3.712   3.737   2.213  0.1725  2.0152  0.3611
  163SAPE   C1218183   3.861   3.802   2.347 -0.2969  0.2563 -0.3012
  163SAPE  H12A18184   3.801   3.871   2.410  1.8718  0.6165  1.4927
  163SAPE  H12B18185   3.926   3.845   2.267  0.3457  1.9804  1.0557
  163SAPE   C1118186   3.959   3.745   2.455 -0.0710  0.7173  0.1056
  163SAPE  H11A18187   3.898   3.700   2.537  0.5168 -1.5517 -0.6216
  163SAPE  H11B18188   4.026   3.826   2.490 -0.0990  0.8795 -0.2115
  163SAPE     P18189   4.161   3.593   2.358 -0.4726 -0.3093 -0.4018
  163SAPE   O1318190   4.170   3.449   2.336  0.5242  0.1814 -0.2892
  163SAPE   O1418191   4.201   3.682   2.242 -0.1308  0.2743  0.1282
  163SAPE   O1218192   4.012   3.625   2.406 -0.5062  0.2004  0.3972
  163SAPE   O1118193   4.250   3.645   2.477  0.2056  0.7033  0.9337
  163SAPE    C118194   4.282   3.545   2.568  0.3506 -0.5299 -0.0481
  163SAPE    HA18195   4.274   3.441   2.529  0.9560 -0.9309  0.8672
  163SAPE    HB18196   4.384   3.566   2.605  0.7693 -1.1285 -0.8561
  163SAPE    C218197   4.195   3.545   2.688  0.7017  0.5260 -0.0352
  163SAPE    HS18198   4.088   3.535   2.659  0.9174  0.1629 -0.7430
  163SAPE   O2118199   4.225   3.665   2.760  0.1061  0.3883 -0.1541
  163SAPE   C2118200   4.116   3.726   2.808 -0.5308  0.1688  0.0896
  163SAPE   O2218201   3.996   3.691   2.795 -0.4371 -0.0418  0.0859
  163SAPE   C2218202   4.156   3.842   2.898 -0.0071 -0.8344 -0.1037
  163SAPE   H2R18203   4.247   3.809   2.952  1.1374 -1.1782 -2.1198
  163SAPE   H2S18204   4.182   3.927   2.831 -1.0313 -0.1144  0.3919
  163SAPE    C318205   4.228   3.426   2.789  0.1216 -0.0770 -0.1202
  163SAPE    HX18206   4.338   3.433   2.800  0.2040 -0.3711 -0.7151
  163SAPE    HY18207   4.199   3.334   2.733  1.4122 -1.0162  0.7101
  163SAPE   O3118208   4.168   3.440   2.920 -0.3766 -0.1827 -0.7714
  163SAPE   C3118209   4.046   3.391   2.925 -0.5854  0.0445  0.1096
  163SAPE   O3218210   3.999   3.317   2.837 -0.4455  0.3312 -0.3488
  163SAPE   C3218211   3.976   3.435   3.052 -0.2566  0.5685  0.3118
  163SAPE   H2X18212   3.885   3.476   3.004 -1.0426 -0.0022  1.2632
  163SAPE   H2Y18213   4.029   3.526   3.086  0.2015  0.9604 -1.3619
  163SAPE   C2318214   4.048   3.871   3.008 -0.3310  0.4794 -0.1620
  163SAPE   H3R18215   4.026   3.780   3.067  0.5525  1.5595  1.9452
  163SAPE   H3S18216   3.951   3.894   2.957 -0.3939  2.3223  0.7225
  163SAPE   C2418217   4.104   3.978   3.113 -0.4493 -1.3146  0.1346
  163SAPE   H4R18218   4.141   4.067   3.057 -0.0933 -0.9790  0.8909
  163SAPE   H4S18219   4.187   3.927   3.167 -0.8850 -3.3601 -1.0242
  163SAPE   C2518220   3.982   4.029   3.196 -0.4640 -0.2789 -0.1354
  163SAPE   H5R18221   3.887   4.049   3.145 -0.6871  0.3202  0.4936
  163SAPE   C2618222   3.978   4.034   3.334  0.2942  0.2277  0.2740
  163SAPE   H6R18223   3.889   4.074   3.385  0.4816  0.4004  0.4652
  163SAPE   C2718224   4.095   4.004   3.420  0.3311 -0.3703  0.3950
  163SAPE   H7R18225   4.081   4.058   3.516 -3.7228 -0.9149  0.3065
  163SAPE   H7S18226   4.185   4.041   3.368 -1.0398  1.4649 -0.7893
  163SAPE   C2818227   4.113   3.858   3.443 -0.0146  0.6780 -0.0244
  163SAPE   H8R18228   4.151   3.803   3.355 -0.2524 -0.3723  0.5189
  163SAPE   C2918229   4.093   3.800   3.556  0.4332  0.7794  0.1773
  163SAPE   H9R18230   4.109   3.691   3.563 -0.0963  0.5745 -1.4441
  163SAPE  C21018231   4.049   3.856   3.688  0.1068 -0.2706  0.3497
  163SAPE  H10R18232   4.002   3.784   3.759  1.0916 -1.3758 -0.0692
  163SAPE  H10S18233   3.969   3.929   3.667  1.1278  0.6209 -0.5517
  163SAPE  C21118234   4.159   3.927   3.756 -0.2094  0.3292  0.2603
  163SAPE  H11R18235   4.220   3.982   3.683 -1.6920 -0.4051 -1.6320
  163SAPE  C21218236   4.192   3.929   3.888 -0.0773 -0.2003  0.2180
  163SAPE  H12R18237   4.284   3.984   3.913 -0.0902  0.6828 -1.5311
  163SAPE  C21318238   4.129   3.852   3.999 -0.9476  1.2299  0.6889
  163SAPE  H13R18239   4.019   3.868   3.999 -1.2517 -0.6072 -0.3157
  163SAPE  H13S18240   4.164   3.902   4.092  2.3233 -0.7734  0.6982
  163SAPE  C21418241   4.152   3.701   3.999  0.3308 -0.2373  0.0671
  163SAPE  H14R18242   4.157   3.659   3.897 -1.8691  0.9334 -0.5863
  163SAPE  C21518243   4.181   3.631   4.110  0.0060  0.3139 -0.3520
  163SAPE  H15R18244   4.204   3.524   4.103 -0.7759  0.0193  1.0914
  163SAPE  C21618245   4.182   3.681   4.250 -0.9636 -0.1577 -0.0135
  163SAPE  H16R18246   4.152   3.788   4.260  4.0795  1.7744 -2.3705
  163SAPE  H16S18247   4.285   3.681   4.292 -0.8982  0.4828 -0.1648
  163SAPE  C21718248   4.103   3.599   4.348 -0.2107 -0.2500 -0.0011
  163SAPE  H17R18249   4.145   3.497   4.338  0.4336  0.1725 -2.1170
  163SAPE  H17S18250   3.993   3.594   4.334 -0.3667 -0.8213  1.3056
  163SAPE  C21818251   4.125   3.643   4.494 -0.3048  0.2171 -1.1353
  163SAPE  H18R18252   4.066   3.736   4.505  1.1804  1.3664 -2.3493
  163SAPE  H18S18253   4.230   3.663   4.522 -1.4979  2.8229  2.0837
  163SAPE  C21918254   4.082   3.538   4.595 -0.3845  0.2423  0.1239
  163SAPE  H19R18255   3.982   3.504   4.561  0.4156 -0.5103 -1.6383
  163SAPE  H19S18256   4.066   3.584   4.695 -1.1294 -0.5263  0.3694
  163SAPE  C22018257   4.183   3.425   4.612 -0.0559  0.4200 -0.6530
  163SAPE  H20R18258   4.182   3.365   4.519  1.1152 -0.3496 -0.1892
  163SAPE  H20S18259   4.168   3.361   4.701 -3.1826  2.9164  0.8343
  163SAPE  H20T18260   4.286   3.466   4.617 -0.1653  0.6015  0.2849
  163SAPE   C3318261   3.956   3.325   3.163  0.4011 -0.4302 -0.2588
  163SAPE   H3X18262   4.050   3.268   3.182  0.5710 -0.6891 -1.7384
  163SAPE   H3Y18263   3.884   3.248   3.129  0.0259 -0.4788  0.6392
  163SAPE   C3418264   3.912   3.392   3.298 -0.3929 -0.5513  0.2031
  163SAPE   H4X18265   3.802   3.407   3.292 -0.3260  0.1157  0.5238
  163SAPE   H4Y18266   3.954   3.495   3.301  0.1635 -0.6080 -2.5633
  163SAPE   C3518267   3.950   3.310   3.414  0.5229  0.4688 -0.4189
  163SAPE   H5X18268   4.041   3.251   3.390  0.1481 -1.6619  2.6745
  163SAPE   H5Y18269   3.867   3.237   3.424  0.5399  0.4265 -0.5971
  163SAPE   C3618270   3.966   3.376   3.553 -0.2066 -0.4645 -0.3723
  163SAPE   H6X18271   3.880   3.446   3.563 -0.2114 -0.5235 -0.0082
  163SAPE   H6Y18272   4.057   3.440   3.551 -0.2588 -0.3793 -0.0406
  163SAPE   C3718273   3.967   3.283   3.674 -0.1272  0.2546  0.3376
  163SAPE   H7X18274   4.043   3.202   3.670 -1.9891 -1.5066 -1.5310
  163SAPE   H7Y18275   3.871   3.227   3.677 -0.6099  1.0981  1.7846
  163SAPE   C3818276   3.981   3.346   3.810  0.4701  0.0779 -0.3010
  163SAPE   H8X18277   3.907   3.429   3.818  0.1498 -0.3932  3.4306
  163SAPE   H8Y18278   4.082   3.392   3.821  0.8309 -0.9161  0.7104
  163SAPE   C3918279   3.965   3.254   3.932  0.9888 -0.6177 -0.6222
  163SAPE   H9X18280   4.002   3.158   3.892  0.5054 -1.1314  0.1318
  163SAPE   H9Y18281   3.857   3.242   3.957  0.1192  0.4410 -3.5029
  163SAPE  C31018282   4.044   3.300   4.047  0.1338 -0.6499 -0.7203
  163SAPE  H10X18283   4.006   3.405   4.055 -0.9596 -1.0339 -0.6520
  163SAPE  H10Y18284   4.151   3.300   4.020  0.7532 -2.8483  1.3420
  163SAPE  C31118285   4.014   3.241   4.179 -0.5525 -0.5173 -0.0610
  163SAPE  H11X18286   3.904   3.231   4.185 -0.6396  0.7230  1.1424
  163SAPE  H11Y18287   4.056   3.302   4.263  2.6035 -0.3159 -1.6459
  163SAPE  C31218288   4.062   3.098   4.195  0.4433  0.1523 -0.0324
  163SAPE  H12X18289   4.022   3.044   4.106  0.1508  0.6314 -0.1919
  163SAPE  H12Y18290   4.018   3.050   4.285  3.6467 -0.2650  1.4369
  163SAPE  C31318291   4.211   3.076   4.208  0.2334 -0.8101 -0.1815
  163SAPE  H13X18292   4.256   3.148   4.280  1.9265 -0.0003 -1.9647
  163SAPE  H13Y18293   4.258   3.115   4.116 -1.1540  1.9635  0.1883
  163SAPE  C31418294   4.251   2.931   4.230  0.0422 -0.1947 -0.1346
  163SAPE  H14X18295   4.352   2.909   4.188 -0.4042 -0.5780 -1.0089
  163SAPE  H14Y18296   4.182   2.864   4.174 -0.2272 -2.2144  2.4120
  163SAPE  C31518297   4.266   2.890   4.380  0.2248 -0.3915 -0.2072
  163SAPE  H15X18298   4.175   2.835   4.412  1.7950 -1.8176  2.1654
  163SAPE  H15Y18299   4.273   2.980   4.445  1.5026  0.6088 -1.6574
  163SAPE  C31618300   4.399   2.805   4.413 -0.0980  0.5277  0.5367
  163SAPE  H16X18301   4.403   2.802   4.524  0.5372  0.2686  0.5115
  163SAPE  H16Y18302   4.496   2.852   4.387  1.2390 -1.0809  2.3370
  163SAPE  C31718303   4.383   2.662   4.360  0.6014  0.1744 -0.1365
  163SAPE  H17X18304   4.387   2.671   4.249  1.3682 -0.3495 -0.1627
  163SAPE  H17Y18305   4.288   2.627   4.404 -0.1494  3.0271  0.7249
  163SAPE  C31818306   4.502   2.568   4.405 -0.9172  0.4580  0.5971
  163SAPE  H18X18307   4.488   2.477   4.343 -0.5029  0.2944  0.7351
  163SAPE  H18Y18308   4.494   2.541   4.513  0.5024 -1.5934  0.2618
  163SAPE  H18Z18309   4.602   2.614   4.389 -0.4553 -0.5942  0.3513
  164SAPE     N18310   6.345   3.971   1.946  0.1926 -0.3417 -0.0698
  164SAPE   HN118311   6.371   3.927   2.037  2.2457  0.4127 -0.2441
  164SAPE   HN218312   6.313   4.068   1.966  0.8707 -0.3268  1.0179
  164SAPE   HN318313   6.266   3.910   1.918  0.3401 -0.9668  0.8351
  164SAPE   C1218314   6.464   3.961   1.859 -0.2480  0.1945  0.4820
  164SAPE  H12A18315   6.448   4.002   1.757 -1.5242 -1.8327 -0.1720
  164SAPE  H12B18316   6.486   3.852   1.856 -1.5972 -0.0809 -1.5684
  164SAPE   C1118317   6.586   4.040   1.919 -0.1727 -0.1331 -0.2084
  164SAPE  H11A18318   6.659   4.037   1.836 -0.7709 -1.2865 -0.7065
  164SAPE  H11B18319   6.617   3.980   2.007  1.6399  1.1393  0.0874
  164SAPE     P18320   6.663   4.291   1.931 -0.4176 -0.1313  0.0849
  164SAPE   O1318321   6.790   4.218   1.923  0.4403  0.1553  0.3853
  164SAPE   O1418322   6.626   4.381   1.815  0.2763  0.1248  0.0997
  164SAPE   O1218323   6.550   4.176   1.961  0.0679 -0.1756 -0.1703
  164SAPE   O1118324   6.648   4.385   2.064 -0.4892  0.3226 -0.5797
  164SAPE    C118325   6.521   4.428   2.121 -0.2935 -0.0047  0.8357
  164SAPE    HA18326   6.522   4.539   2.118  1.2377 -0.0076 -0.5038
  164SAPE    HB18327   6.440   4.385   2.058 -1.2879  1.3617  1.1344
  164SAPE    C218328   6.511   4.372   2.267 -0.3727 -0.1708 -0.2855
  164SAPE    HS18329   6.424   4.421   2.316 -0.2923  0.8151 -1.1179
  164SAPE   O2118330   6.623   4.416   2.337 -0.3945 -0.2182 -0.2828
  164SAPE   C2118331   6.635   4.543   2.371  0.8914  0.2752  0.0572
  164SAPE   O2218332   6.549   4.626   2.352 -0.2795  0.4366 -0.2799
  164SAPE   C2218333   6.761   4.573   2.445 -0.6395 -0.0818 -0.3496
  164SAPE   H2R18334   6.844   4.585   2.372  0.6088 -1.1982  0.8348
  164SAPE   H2S18335   6.753   4.671   2.497  2.4103 -0.6350  1.4197
  164SAPE    C318336   6.491   4.222   2.277 -0.1559  0.2566 -0.4642
  164SAPE    HX18337   6.581   4.174   2.231 -0.1236 -2.2188  1.9744
  164SAPE    HY18338   6.410   4.192   2.208  0.3112 -0.4932 -0.7015
  164SAPE   O3118339   6.466   4.172   2.405  0.5444  0.1115  0.3230
  164SAPE   C3118340   6.558   4.127   2.484  0.5120 -0.2427  0.1393
  164SAPE   O3218341   6.675   4.122   2.455 -0.3594 -0.0598  0.0603
  164SAPE   C3218342   6.503   4.091   2.620 -0.4221  0.1808  0.0633
  164SAPE   H2X18343   6.590   4.082   2.688 -0.7142 -1.5847  0.2399
  164SAPE   H2Y18344   6.457   3.990   2.620  1.0400 -0.5316  1.7939
  164SAPE   C2318345   6.808   4.454   2.543 -0.1492 -0.1032  0.0625
  164SAPE   H3R18346   6.911   4.472   2.580 -0.9714  0.4783  2.2069
  164SAPE   H3S18347   6.808   4.360   2.484 -2.3477 -1.5309  2.1594
  164SAPE   C2418348   6.718   4.442   2.668 -0.0375 -0.5018  0.0073
  164SAPE   H4R18349   6.616   4.415   2.635  0.1150  0.1105 -1.0316
  164SAPE   H4S18350   6.712   4.540   2.721  0.8996 -0.0418 -0.6968
  164SAPE   C2518351   6.765   4.325   2.757 -0.7700  0.2056 -0.2211
  164SAPE   H5R18352   6.789   4.231   2.705 -1.3276 -1.4502  2.3518
  164SAPE   C2618353   6.778   4.334   2.893  0.3720  0.1619  0.2602
  164SAPE   H6R18354   6.793   4.239   2.947 -1.3312  0.1010  0.6887
  164SAPE   C2718355   6.763   4.456   2.990 -0.6682  0.0772  0.7072
  164SAPE   H7R18356   6.763   4.550   2.931  2.7044 -0.8240 -0.9915
  164SAPE   H7S18357   6.864   4.463   3.037  0.8683 -0.2626 -2.3201
  164SAPE   C2818358   6.654   4.454   3.090  0.4457 -0.2074  0.3452
  164SAPE   H8R18359   6.552   4.462   3.050  0.0751  0.3337  1.3441
  164SAPE   C2918360   6.654   4.426   3.221  0.5603  0.6253 -1.1049
  164SAPE   H9R18361   6.564   4.419   3.283  1.3059  1.3276  0.0988
  164SAPE  C21018362   6.775   4.399   3.307 -0.2075 -0.2971  0.1712
  164SAPE  H10R18363   6.788   4.486   3.376  0.6306 -0.7226  0.5623
  164SAPE  H10S18364   6.869   4.405   3.248 -0.6826 -0.0401 -0.5704
  164SAPE  C21118365   6.758   4.259   3.375  0.1472 -0.5730  0.1088
  164SAPE  H11R18366   6.763   4.183   3.296  1.1562  1.0872 -1.5115
  164SAPE  C21218367   6.736   4.218   3.502 -0.1538 -0.1987  0.3892
  164SAPE  H12R18368   6.719   4.109   3.510 -1.3498 -0.2271 -1.7832
  164SAPE  C21318369   6.730   4.305   3.623  0.2668 -0.7349 -0.6404
  164SAPE  H13R18370   6.763   4.409   3.600  0.9279 -0.6900  0.4473
  164SAPE  H13S18371   6.787   4.272   3.712 -1.3897 -1.1906  0.2921
  164SAPE  C21418372   6.586   4.318   3.668 -0.2127  0.1888 -0.0251
  164SAPE  H14R18373   6.517   4.377   3.605 -0.6915  0.2220  0.5247
  164SAPE  C21518374   6.533   4.263   3.780 -0.0311 -0.6341 -0.0839
  164SAPE  H15R18375   6.426   4.269   3.806  0.1360  0.2408  0.4517
  164SAPE  C21618376   6.592   4.173   3.880  0.0311 -0.2671  0.8074
  164SAPE  H16R18377   6.699   4.165   3.854 -0.3871 -1.4376 -0.6437
  164SAPE  H16S18378   6.551   4.070   3.876  1.9425 -1.0462  0.4791
  164SAPE  C21718379   6.578   4.220   4.023  0.0961  0.0911 -0.0015
  164SAPE  H17R18380   6.646   4.158   4.084  1.6747  1.0958 -0.6801
  164SAPE  H17S18381   6.472   4.214   4.054 -0.5263  3.4434 -1.0869
  164SAPE  C21818382   6.608   4.374   4.041 -0.4571  0.2650  0.6047
  164SAPE  H18R18383   6.556   4.430   3.960  0.5897 -1.0447 -1.0301
  164SAPE  H18S18384   6.717   4.394   4.040 -0.4974  0.4895 -0.7680
  164SAPE  C21918385   6.562   4.421   4.181  0.6929 -0.7743  0.5467
  164SAPE  H19R18386   6.452   4.434   4.187  0.4391 -3.0876  2.0024
  164SAPE  H19S18387   6.620   4.516   4.191  2.0554 -1.2083 -2.3115
  164SAPE  C22018388   6.596   4.320   4.294  0.2858 -0.2700  0.0219
  164SAPE  H20R18389   6.554   4.342   4.394 -1.9921  0.6729 -1.0596
  164SAPE  H20S18390   6.706   4.318   4.311  0.3259 -0.6933 -0.2947
  164SAPE  H20T18391   6.534   4.232   4.268 -0.1807  0.4773 -1.5393
  164SAPE   C3318392   6.394   4.183   2.680  0.2942 -0.2351 -0.2674
  164SAPE   H3X18393   6.300   4.168   2.622 -0.8550 -0.5279  1.5718
  164SAPE   H3Y18394   6.432   4.287   2.687  0.3488 -0.3677  2.2110
  164SAPE   C3418395   6.348   4.146   2.827 -0.1534  0.3641 -0.9244
  164SAPE   H4X18396   6.270   4.067   2.823 -1.3755  1.4697  0.3209
  164SAPE   H4Y18397   6.304   4.238   2.870  1.4125  0.4930  0.5123
  164SAPE   C3518398   6.459   4.098   2.925  0.6564  0.0176 -0.0008
  164SAPE   H5X18399   6.551   4.160   2.936  1.2435 -1.0138  1.0976
  164SAPE   H5Y18400   6.490   3.997   2.892  0.1535 -0.8273  1.9826
  164SAPE   C3618401   6.392   4.079   3.069  0.4485  0.2408  0.0092
  164SAPE   H6X18402   6.304   4.011   3.068 -0.4610  1.3554  1.0238
  164SAPE   H6Y18403   6.354   4.172   3.118  2.5882  0.7078  0.8938
  164SAPE   C3718404   6.496   4.017   3.169  0.3846  0.1826  0.1806
  164SAPE   H7X18405   6.587   4.081   3.165  0.6333  0.3246  3.9586
  164SAPE   H7Y18406   6.502   3.915   3.126  0.7257  0.1636  0.2692
  164SAPE   C3818407   6.455   4.009   3.308 -0.3918 -0.1741  0.0135
  164SAPE   H8X18408   6.345   3.997   3.306 -0.2004 -2.0576 -1.1108
  164SAPE   H8Y18409   6.470   4.098   3.374 -4.5476  0.5805  0.2033
  164SAPE   C3918410   6.519   3.891   3.392 -0.4408 -0.2718  0.7883
  164SAPE   H9X18411   6.626   3.906   3.367 -0.5890 -1.4856 -0.6872
  164SAPE   H9Y18412   6.516   3.791   3.345  0.0469 -1.0523  2.3464
  164SAPE  C31018413   6.502   3.891   3.548 -0.5506 -1.0431 -0.0174
  164SAPE  H10X18414   6.393   3.911   3.563 -0.4642 -2.0498  2.3307
  164SAPE  H10Y18415   6.560   3.975   3.591 -0.7251 -0.0745 -1.5712
  164SAPE  C31118416   6.538   3.758   3.614  0.3085  0.3734 -0.6350
  164SAPE  H11X18417   6.640   3.730   3.578  0.5913  0.2141  0.2599
  164SAPE  H11Y18418   6.464   3.681   3.583  1.5207 -1.0264 -0.1651
  164SAPE  C31218419   6.525   3.776   3.767 -0.1283 -0.2924  0.1635
  164SAPE  H12X18420   6.426   3.822   3.789 -1.2036 -3.3676  2.3650
  164SAPE  H12Y18421   6.608   3.848   3.782 -0.6374  0.0476  1.4614
  164SAPE  C31318422   6.562   3.652   3.845 -0.0188  0.3435 -0.0141
  164SAPE  H13X18423   6.668   3.632   3.818  0.3428  1.1738  0.7361
  164SAPE  H13Y18424   6.500   3.562   3.823 -0.4173  0.6681 -0.2170
  164SAPE  C31418425   6.564   3.672   4.005 -0.0863 -0.3373  0.3439
  164SAPE  H14X18426   6.460   3.651   4.036 -0.4020 -2.1402 -1.6483
  164SAPE  H14Y18427   6.582   3.779   4.028  1.0599 -0.4041 -0.1548
  164SAPE  C31518428   6.662   3.578   4.063  0.2593  1.3786 -0.6397
  164SAPE  H15X18429   6.764   3.599   4.025  1.0820 -0.9371  0.1645
  164SAPE  H15Y18430   6.624   3.475   4.051  0.3159  1.0746  1.4132
  164SAPE  C31618431   6.663   3.609   4.214 -0.6889  0.3492 -0.6673
  164SAPE  H16X18432   6.564   3.583   4.258 -0.1268  0.2197  0.5771
  164SAPE  H16Y18433   6.679   3.716   4.241  1.3314 -0.0317 -0.1568
  164SAPE  C31718434   6.773   3.532   4.287 -0.3143  0.0987 -0.6391
  164SAPE  H17X18435   6.864   3.537   4.223  0.2987  1.1021  0.2897
  164SAPE  H17Y18436   6.736   3.427   4.292  0.9709 -0.3269  0.6529
  164SAPE  C31818437   6.813   3.583   4.424 -0.0650 -0.1348 -0.1324
  164SAPE  H18X18438   6.870   3.497   4.464  0.8657 -0.1488 -1.4276
  164SAPE  H18Y18439   6.725   3.593   4.491 -0.0652 -2.2389  0.2507
  164SAPE  H18Z18440   6.874   3.676   4.424 -1.2519  0.6704  0.8592
  165SAPE     N18441   5.351   0.009   2.530 -0.2493 -0.3250  0.2996
  165SAPE   HN118442   5.292   0.089   2.502 -3.2010 -2.5789 -0.4140
  165SAPE   HN218443   5.409  -0.019   2.448  1.6673  0.1863  1.4075
  165SAPE   HN318444   5.295  -0.077   2.549  1.3648 -1.1238  1.9227
  165SAPE   C1218445   5.434   0.034   2.652  0.0422  0.1056  0.1536
  165SAPE  H12A18446   5.504   0.114   2.617 -2.1547  2.0765 -0.0033
  165SAPE  H12B18447   5.487  -0.062   2.667 -0.9425 -0.2321  1.7028
  165SAPE   C1118448   5.345   0.089   2.763 -0.1863  0.4475  0.3057
  165SAPE  H11A18449   5.409   0.116   2.849 -0.6929 -1.7888  1.4526
  165SAPE  H11B18450   5.290  -0.003   2.793  1.3154 -0.0920  1.5269
  165SAPE     P18451   5.317   0.340   2.711  0.3638  0.3910  0.2298
  165SAPE   O1318452   5.413   0.344   2.600 -0.4248 -0.3445 -0.4951
  165SAPE   O1418453   5.210   0.438   2.700  1.0956 -0.9441 -0.1675
  165SAPE   O1218454   5.264   0.196   2.709  0.0744 -0.3755 -0.3543
  165SAPE   O1118455   5.395   0.356   2.842  0.4054  0.1209 -0.3658
  165SAPE    C118456   5.457   0.479   2.880  0.2035 -0.5114 -0.1104
  165SAPE    HA18457   5.508   0.522   2.792  3.5665 -0.6927  1.6137
  165SAPE    HB18458   5.385   0.554   2.921  0.0875 -0.6587 -0.0420
  165SAPE    C218459   5.566   0.439   2.981  0.8938 -0.2189 -0.4708
  165SAPE    HS18460   5.625   0.361   2.928  1.0751 -1.0496  0.8814
  165SAPE   O2118461   5.508   0.384   3.101  1.4631 -0.2655 -0.0239
  165SAPE   C2118462   5.573   0.286   3.159  0.2302 -0.7104  0.0897
  165SAPE   O2218463   5.680   0.242   3.124 -0.4782  0.1485 -0.2304
  165SAPE   C2218464   5.493   0.236   3.283 -0.2947 -0.4460  0.3172
  165SAPE   H2R18465   5.383   0.255   3.278 -0.2327  0.3670  1.5544
  165SAPE   H2S18466   5.521   0.130   3.298  0.3823 -0.0406  2.2022
  165SAPE    C318467   5.671   0.548   3.021 -0.0867 -0.1451 -0.2213
  165SAPE    HX18468   5.738   0.581   2.938 -0.8768 -0.3086 -0.9286
  165SAPE    HY18469   5.740   0.493   3.090  0.9505 -0.5278 -1.5215
  165SAPE   O3118470   5.603   0.659   3.086 -0.2450 -0.0117  0.0902
  165SAPE   C3118471   5.687   0.740   3.136  0.5602  0.3755 -0.4329
  165SAPE   O3218472   5.812   0.727   3.144  0.9913  0.4453 -0.0259
  165SAPE   C3218473   5.602   0.851   3.217  0.4824 -0.2116  0.1224
  165SAPE   H2X18474   5.500   0.807   3.225  1.1305 -1.6243  1.0742
  165SAPE   H2Y18475   5.606   0.940   3.151 -0.9625 -0.5812 -0.5048
  165SAPE   C2318476   5.538   0.322   3.406  0.5321  0.0646  0.4491
  165SAPE   H3R18477   5.495   0.424   3.390  0.1699 -0.3984 -1.8627
  165SAPE   H3S18478   5.648   0.335   3.409  0.4148  0.9568  1.8387
  165SAPE   C2418479   5.487   0.272   3.549  0.3734  0.3065 -0.1493
  165SAPE   H4R18480   5.389   0.221   3.540  0.2285  0.9074 -2.9648
  165SAPE   H4S18481   5.474   0.351   3.625 -0.4998 -0.5739  0.6477
  165SAPE   C2518482   5.585   0.167   3.591  0.9563 -0.2428  0.3769
  165SAPE   H5R18483   5.594   0.084   3.520  0.3052 -0.6433  0.7591
  165SAPE   C2618484   5.636   0.146   3.714 -0.5754  0.3805  0.1712
  165SAPE   H6R18485   5.682   0.049   3.736 -2.3131 -0.2547  1.2216
  165SAPE   C2718486   5.619   0.230   3.839  0.1163  0.1015  0.0535
  165SAPE   H7R18487   5.561   0.322   3.819  1.3484  0.5811 -1.5590
  165SAPE   H7S18488   5.720   0.274   3.854  0.3776  0.4673 -2.3269
  165SAPE   C2818489   5.557   0.158   3.956  0.3715  0.3934 -0.5854
  165SAPE   H8R18490   5.525   0.054   3.944 -1.3366  0.5968  1.7210
  165SAPE   C2918491   5.556   0.204   4.085  1.0543  0.4102 -0.3787
  165SAPE   H9R18492   5.516   0.140   4.165  1.0239  0.2904 -0.4903
  165SAPE  C21018493   5.601   0.340   4.133 -0.3517  0.2171  0.4514
  165SAPE  H10R18494   5.596   0.411   4.049 -0.3629 -0.7932 -0.4251
  165SAPE  H10S18495   5.711   0.331   4.153 -0.1756 -1.3500 -0.9749
  165SAPE  C21118496   5.532   0.403   4.254 -0.4182 -0.4936  0.0453
  165SAPE  H11R18497   5.479   0.498   4.238 -1.1294 -0.7093  0.9829
  165SAPE  C21218498   5.544   0.367   4.385  0.2762 -0.0554  0.1058
  165SAPE  H12R18499   5.494   0.422   4.466 -1.2295 -1.2718  0.0585
  165SAPE  C21318500   5.612   0.247   4.442  0.1443  0.0497 -0.1813
  165SAPE  H13R18501   5.688   0.287   4.512 -0.2266 -0.8181  0.7464
  165SAPE  H13S18502   5.660   0.194   4.357 -1.2445 -1.8847  0.1539
  165SAPE  C21418503   5.533   0.151   4.526 -1.0554  0.6384 -0.2495
  165SAPE  H14R18504   5.500   0.055   4.483 -0.0359 -0.7980  1.9658
  165SAPE  C21518505   5.497   0.160   4.661  0.0001  0.0421  0.2676
  165SAPE  H15R18506   5.432   0.078   4.696  1.1792 -0.5732  1.0897
  165SAPE  C21618507   5.506   0.270   4.761 -0.4919  1.0190 -0.3800
  165SAPE  H16R18508   5.544   0.358   4.705  0.4455  1.2903  0.6765
  165SAPE  H16S18509   5.581   0.250   4.839  0.5089  2.4150 -0.9373
  165SAPE  C21718510   5.373   0.299   4.818  0.7764 -0.4148  0.1711
  165SAPE  H17R18511   5.348   0.231   4.903 -3.5124 -2.3680 -2.3285
  165SAPE  H17S18512   5.293   0.299   4.741 -0.0095 -0.0189  0.9567
  165SAPE  C21818513   5.369   0.449   4.862  0.5361  0.0200 -0.8387
  165SAPE  H18R18514   5.379   0.509   4.769 -1.6466  1.0928 -0.4373
  165SAPE  H18S18515   5.465   0.457   4.916  0.3113  0.3015 -0.4820
  165SAPE  C21918516   5.255   0.487   4.955 -0.0976 -0.5505  0.0559
  165SAPE  H19R18517   5.253   0.419   5.043 -2.1525  1.5841  1.8099
  165SAPE  H19S18518   5.156   0.477   4.904 -0.4603 -2.9121  1.1003
  165SAPE  C22018519   5.262   0.631   5.007 -0.1249  0.5003  0.7377
  165SAPE  H20R18520   5.188   0.648   5.089 -1.4407 -0.9140 -0.0966
  165SAPE  H20S18521   5.244   0.713   4.934  2.3107  0.0147 -0.5088
  165SAPE  H20T18522   5.365   0.652   5.044  0.0806  1.6002 -0.4201
  165SAPE   C3318523   5.663   0.895   3.349 -0.1478  0.3425  0.1912
  165SAPE   H3X18524   5.603   0.976   3.397 -0.0504 -0.6113  2.0096
  165SAPE   H3Y18525   5.759   0.948   3.331  0.0273 -0.1895 -0.4779
  165SAPE   C3418526   5.697   0.783   3.454  0.5217 -0.5762 -0.2926
  165SAPE   H4X18527   5.732   0.833   3.546 -0.1167  0.8354 -0.8012
  165SAPE   H4Y18528   5.786   0.729   3.413 -0.5718 -2.5936 -0.1567
  165SAPE   C3518529   5.589   0.675   3.470  0.6495 -0.0687 -0.1508
  165SAPE   H5X18530   5.633   0.590   3.527  0.7489 -1.1332 -1.7392
  165SAPE   H5Y18531   5.567   0.634   3.368 -0.6230 -1.8614  0.7811
  165SAPE   C3618532   5.462   0.726   3.536  0.4536  0.2277  0.0784
  165SAPE   H6X18533   5.378   0.654   3.532 -0.6343  1.4854 -0.5934
  165SAPE   H6Y18534   5.425   0.814   3.480 -3.7013 -1.1380  0.2955
  165SAPE   C3718535   5.470   0.778   3.680  0.2145  0.2158  0.2675
  165SAPE   H7X18536   5.402   0.864   3.697  0.1249  0.2991 -0.4698
  165SAPE   H7Y18537   5.570   0.824   3.690 -0.1426  1.7958 -2.3690
  165SAPE   C3818538   5.438   0.676   3.795 -0.1446 -0.3109  0.9110
  165SAPE   H8X18539   5.511   0.594   3.776  1.3059  1.2733 -0.8905
  165SAPE   H8Y18540   5.348   0.614   3.778 -0.0930  0.1337 -1.2729
  165SAPE   C3918541   5.452   0.741   3.926 -0.1944 -0.3939 -0.1396
  165SAPE   H9X18542   5.429   0.674   4.011 -1.5952  1.2014  0.8055
  165SAPE   H9Y18543   5.369   0.815   3.926  1.0556  1.0762 -1.0680
  165SAPE  C31018544   5.590   0.802   3.951 -0.2591  0.4490 -0.1220
  165SAPE  H10X18545   5.614   0.884   3.880 -0.7098 -0.2910 -1.1581
  165SAPE  H10Y18546   5.668   0.724   3.938  0.1205  0.1949  2.9864
  165SAPE  C31118547   5.594   0.856   4.094 -0.0248  0.1639  0.4099
  165SAPE  H11X18548   5.494   0.892   4.127 -0.1820  1.6517 -1.5484
  165SAPE  H11Y18549   5.673   0.933   4.108  0.3579 -0.2385  0.5063
  165SAPE  C31218550   5.621   0.735   4.189 -0.0113  0.1287  0.2655
  165SAPE  H12X18551   5.710   0.678   4.155  1.9908  3.2825 -0.2911
  165SAPE  H12Y18552   5.531   0.671   4.186  0.8303 -1.2765  2.8347
  165SAPE  C31318553   5.663   0.776   4.331  0.0303 -0.6522 -0.4861
  165SAPE  H13X18554   5.761   0.826   4.342 -0.1432 -0.6328  1.2827
  165SAPE  H13Y18555   5.664   0.685   4.394  1.4820  0.7043  1.5933
  165SAPE  C31418556   5.553   0.876   4.392  0.5968 -0.2004 -1.1657
  165SAPE  H14X18557   5.455   0.826   4.385 -0.0719  1.1294 -1.6861
  165SAPE  H14Y18558   5.543   0.971   4.335  0.4739  1.3931  1.3393
  165SAPE  C31518559   5.575   0.911   4.538  0.6121  0.1432 -0.0151
  165SAPE  H15X18560   5.593   0.817   4.594 -0.9500 -0.8004 -0.9975
  165SAPE  H15Y18561   5.480   0.960   4.569  0.7607 -0.2530  1.0948
  165SAPE  C31618562   5.694   1.003   4.555  0.3308 -0.4381 -0.6147
  165SAPE  H16X18563   5.689   1.071   4.468  0.2262 -2.3971 -2.2232
  165SAPE  H16Y18564   5.782   0.936   4.542 -0.3105 -1.6804  1.0308
  165SAPE  C31718565   5.697   1.057   4.698  0.9759  0.5471 -0.3563
  165SAPE  H17X18566   5.650   0.983   4.766 -1.6057  1.1503 -1.3919
  165SAPE  H17Y18567   5.636   1.149   4.704  1.9120  1.1055  3.4992
  165SAPE  C31818568   5.845   1.078   4.743 -0.2328  0.9148 -0.1721
  165SAPE  H18X18569   5.900   0.982   4.732 -2.4190 -0.2472 -1.7361
  165SAPE  H18Y18570   5.853   1.124   4.843 -2.2271 -2.5388  1.7542
  165SAPE  H18Z18571   5.888   1.156   4.676  0.3258 -0.0270 -0.9574
  166SAPE     N18572   1.160   0.791   3.023  0.2464  0.1278  0.5953
  166SAPE   HN118573   1.234   0.796   3.096  2.3832 -4.0499 -0.9351
  166SAPE   HN218574   1.206   0.788   2.930  1.8132  1.9378  1.2461
  166SAPE   HN318575   1.105   0.879   3.019  1.0472  0.6051 -0.1551
  166SAPE   C1218576   1.073   0.675   3.059 -0.2833 -0.3799 -0.1206
  166SAPE  H12A18577   1.066   0.673   3.170  0.7778  1.0076  0.0023
  166SAPE  H12B18578   1.135   0.594   3.015  0.9044  0.5522 -0.1950
  166SAPE   C1118579   0.943   0.676   2.980  0.4132 -0.2192 -0.0660
  166SAPE  H11A18580   0.903   0.778   2.994  1.1960 -0.1760  2.2302
  166SAPE  H11B18581   0.872   0.605   3.029  0.0804  0.1685  0.0208
  166SAPE     P18582   0.852   0.673   2.745  0.3151 -0.3446  0.5114
  166SAPE   O1318583   0.876   0.818   2.718  0.5279  0.5535  0.2438
  166SAPE   O1418584   0.870   0.588   2.625  0.2808 -0.2170  0.3126
  166SAPE   O1218585   0.960   0.632   2.848 -0.3228 -0.3142 -0.7186
  166SAPE   O1118586   0.714   0.653   2.812  0.4028  0.3271  0.7483
  166SAPE    C118587   0.678   0.526   2.867 -0.1794 -0.3655  0.0202
  166SAPE    HA18588   0.742   0.445   2.825  2.1451  1.5217 -0.2441
  166SAPE    HB18589   0.699   0.523   2.976  1.4010  1.8200 -0.1643
  166SAPE    C218590   0.531   0.492   2.832 -0.0208 -0.3973  0.4390
  166SAPE    HS18591   0.515   0.506   2.723 -2.3764  2.6656  1.0170
  166SAPE   O2118592   0.449   0.596   2.897 -0.2030  0.3783  0.2434
  166SAPE   C2118593   0.322   0.587   2.864 -0.5249 -0.2169  0.5889
  166SAPE   O2218594   0.284   0.515   2.776  0.4118  0.0698  0.3937
  166SAPE   C2218595   0.243   0.687   2.936 -0.5132  0.6032 -0.3823
  166SAPE   H2R18596   0.272   0.682   3.043  0.1312 -0.3790 -0.5915
  166SAPE   H2S18597   0.278   0.781   2.887 -0.8663  1.2617  0.6100
  166SAPE    C318598   0.492   0.348   2.871  0.1967  0.0401 -0.7590
  166SAPE    HX18599   0.579   0.292   2.830  0.6452 -0.5916  0.9760
  166SAPE    HY18600   0.395   0.315   2.826 -1.9559  1.5656  2.4384
  166SAPE   O3118601   0.488   0.329   3.011  0.2853  0.5626 -0.3034
  166SAPE   C3118602   0.481   0.204   3.042  0.1736  0.5356 -1.1081
  166SAPE   O3218603   0.477   0.110   2.962 -0.4365 -0.0021  0.4365
  166SAPE   C3218604   0.476   0.179   3.194  0.2581  0.1586  0.1887
  166SAPE   H2X18605   0.488   0.279   3.242  2.9163  0.0890 -0.1721
  166SAPE   H2Y18606   0.573   0.128   3.212 -0.4904 -1.8193 -1.0887
  166SAPE   C2318607   0.095   0.690   2.914  0.6732  0.1593 -0.8485
  166SAPE   H3R18608   0.060   0.601   2.972  0.9207 -1.2027 -2.7062
  166SAPE   H3S18609   0.062   0.679   2.809  3.0625  0.8629 -1.7287
  166SAPE   C2418610   0.033   0.832   2.944  0.7534 -0.3204 -0.3040
  166SAPE   H4R18611   0.070   0.913   2.877 -3.7213  1.0305 -1.5382
  166SAPE   H4S18612   0.055   0.857   3.050 -3.8587  0.3296  0.7045
  166SAPE   C2518613  -0.119   0.824   2.931 -0.3620 -0.6880  0.7702
  166SAPE   H5R18614  -0.150   0.780   2.835  0.2639  0.8071 -0.1423
  166SAPE   C2618615  -0.206   0.869   3.022  0.3925  0.4708 -0.1414
  166SAPE   H6R18616  -0.312   0.844   3.011 -0.0647  2.1146  0.2914
  166SAPE   C2718617  -0.168   0.930   3.158 -1.2892  0.2639  0.7526
  166SAPE   H7R18618  -0.256   0.991   3.185  0.0251  1.0101  3.6714
  166SAPE   H7S18619  -0.087   1.005   3.148  3.0786 -3.9547  1.1420
  166SAPE   C2818620  -0.145   0.831   3.267 -0.0986  1.0288  0.5065
  166SAPE   H8R18621  -0.108   0.736   3.226  0.5166  2.3669 -2.2009
  166SAPE   C2918622  -0.163   0.834   3.403  0.1909  0.1216  0.3158
  166SAPE   H9R18623  -0.150   0.742   3.462 -1.2289  0.1350  0.6719
  166SAPE  C21018624  -0.226   0.947   3.492 -0.2008  0.1854 -0.2919
  166SAPE  H10R18625  -0.292   0.906   3.571 -2.8774  0.4639 -2.2315
  166SAPE  H10S18626  -0.304   0.999   3.431  0.1249  3.8190  2.0659
  166SAPE  C21118627  -0.124   1.043   3.544 -0.3466 -0.3326  0.4682
  166SAPE  H11R18628  -0.066   1.089   3.462 -0.7282  2.0434  1.4336
  166SAPE  C21218629  -0.098   1.090   3.675  0.3304  0.7961  0.8246
  166SAPE  H12R18630  -0.014   1.156   3.698  2.9424 -1.5191 -1.3930
  166SAPE  C21318631  -0.168   1.042   3.803 -0.1230  0.1985 -0.4114
  166SAPE  H13R18632  -0.096   0.980   3.860  0.4646  0.4762 -0.8376
  166SAPE  H13S18633  -0.256   0.979   3.780  0.8258 -1.7970  1.1278
  166SAPE  C21418634  -0.213   1.167   3.878  0.8178  0.3455  0.2091
  166SAPE  H14R18635  -0.263   1.246   3.819 -0.1264 -1.2873 -1.2601
  166SAPE  C21518636  -0.222   1.193   4.010 -0.1750  0.1857 -0.1877
  166SAPE  H15R18637  -0.282   1.281   4.041 -1.2295 -0.3592 -0.6500
  166SAPE  C21618638  -0.184   1.097   4.118 -0.1997 -0.0794  0.0109
  166SAPE  H16R18639  -0.094   1.136   4.171  0.9907 -0.8789 -1.3299
  166SAPE  H16S18640  -0.153   0.995   4.084  1.5161  0.9419 -1.7122
  166SAPE  C21718641  -0.304   1.083   4.218 -0.6176 -0.6318 -0.2639
  166SAPE  H17R18642  -0.388   1.039   4.161  0.6315 -1.1277 -1.7911
  166SAPE  H17S18643  -0.327   1.188   4.245 -2.0719 -0.6542 -1.3116
  166SAPE  C21818644  -0.261   0.996   4.337 -0.3902 -0.3115  0.0065
  166SAPE  H18R18645  -0.204   1.053   4.414 -0.5507  0.2012 -0.2500
  166SAPE  H18S18646  -0.201   0.911   4.300 -1.5139 -1.6802  1.2199
  166SAPE  C21918647  -0.373   0.935   4.405 -0.0876  0.4482  0.5972
  166SAPE  H19R18648  -0.327   0.876   4.486 -1.2432 -1.6495 -0.1897
  166SAPE  H19S18649  -0.422   0.870   4.330  2.3672  2.8188 -3.4434
  166SAPE  C22018650  -0.476   1.030   4.456  0.1280  0.5869 -0.2657
  166SAPE  H20R18651  -0.434   1.109   4.522 -0.6234  1.2174 -0.5353
  166SAPE  H20S18652  -0.551   0.969   4.511  2.1598 -2.4203 -0.5904
  166SAPE  H20T18653  -0.537   1.080   4.378 -0.4438  1.0508  0.4643
  166SAPE   C3318654   0.351   0.097   3.234 -0.0159 -0.6771  0.3694
  166SAPE   H3X18655   0.350   0.004   3.174  1.9893  0.6164 -1.8559
  166SAPE   H3Y18656   0.258   0.150   3.206 -0.0912 -1.2650 -0.5380
  166SAPE   C3418657   0.353   0.062   3.384 -0.2279  0.1368 -0.0514
  166SAPE   H4X18658   0.437  -0.004   3.410  0.1451  0.9202  0.7785
  166SAPE   H4Y18659   0.262   0.005   3.414 -1.6846  1.7615 -1.1159
  166SAPE   C3518660   0.372   0.185   3.479  0.6693 -0.1069 -0.0474
  166SAPE   H5X18661   0.335   0.277   3.429  0.6262 -0.4367 -0.6294
  166SAPE   H5Y18662   0.481   0.200   3.495  0.9447 -2.5277  0.7216
  166SAPE   C3618663   0.316   0.175   3.624  0.0086  0.5602 -0.1714
  166SAPE   H6X18664   0.361   0.088   3.675  1.5039  0.5029 -1.4959
  166SAPE   H6Y18665   0.206   0.165   3.629  0.0779 -0.6736 -0.8038
  166SAPE   C3718666   0.364   0.294   3.701  0.2914 -0.6411  0.0315
  166SAPE   H7X18667   0.335   0.385   3.644  0.2960 -0.9838 -0.5302
  166SAPE   H7Y18668   0.475   0.295   3.703  0.3186  0.7433 -0.6687
  166SAPE   C3818669   0.305   0.310   3.839  0.1526  0.3372 -0.5843
  166SAPE   H8X18670   0.195   0.305   3.824 -0.4459  1.3349  2.6718
  166SAPE   H8Y18671   0.331   0.409   3.882 -1.0170  0.1852  0.5482
  166SAPE   C3918672   0.337   0.196   3.936  0.1643 -0.7279  0.1495
  166SAPE   H9X18673   0.443   0.206   3.967 -0.3248  1.9912  1.1825
  166SAPE   H9Y18674   0.311   0.100   3.886 -3.0865  0.5539 -0.8588
  166SAPE  C31018675   0.260   0.207   4.069 -0.3690  0.2460  0.0422
  166SAPE  H10X18676   0.252   0.110   4.122 -3.0018  0.6322  0.4802
  166SAPE  H10Y18677   0.157   0.248   4.071  0.5108  2.6116  0.1452
  166SAPE  C31118678   0.348   0.296   4.163  0.0276 -0.1536 -0.0431
  166SAPE  H11X18679   0.331   0.399   4.124  1.1934 -0.1469 -0.5663
  166SAPE  H11Y18680   0.455   0.279   4.141  0.3029 -1.0946  1.8782
  166SAPE  C31218681   0.306   0.288   4.307 -0.2376  0.5347 -0.4499
  166SAPE  H12X18682   0.320   0.184   4.342 -3.3596 -0.3025 -1.3302
  166SAPE  H12Y18683   0.197   0.305   4.323 -0.1224  0.5974  0.3375
  166SAPE  C31318684   0.377   0.392   4.390 -0.5095 -0.4143 -0.2561
  166SAPE  H13X18685   0.350   0.486   4.338 -0.9041  0.1218  0.8810
  166SAPE  H13Y18686   0.485   0.374   4.369 -1.1693 -3.1003 -1.8298
  166SAPE  C31418687   0.326   0.388   4.537 -0.3723 -0.3363  0.5796
  166SAPE  H14X18688   0.219   0.419   4.543 -0.1438  0.6444 -0.1071
  166SAPE  H14Y18689   0.393   0.463   4.585  0.1559  0.2902 -1.0607
  166SAPE  C31518690   0.339   0.255   4.614  0.6711 -0.0481 -0.0322
  166SAPE  H15X18691   0.446   0.228   4.619  1.0461  1.4704  0.4732
  166SAPE  H15Y18692   0.280   0.168   4.576  0.0174  0.8869 -1.2626
  166SAPE  C31618693   0.292   0.269   4.768 -0.2120  0.5574  0.0580
  166SAPE  H16X18694   0.300   0.169   4.816  1.3975 -1.3852 -3.7569
  166SAPE  H16Y18695   0.184   0.295   4.754  0.0426  0.8212 -1.6671
  166SAPE  C31718696   0.359   0.376   4.849  0.3409 -0.1062 -0.4482
  166SAPE  H17X18697   0.299   0.400   4.939  0.3190  0.9423 -0.7320
  166SAPE  H17Y18698   0.367   0.479   4.807  1.1255 -0.4995 -1.2859
  166SAPE  C31818699   0.497   0.328   4.894 -0.6506  0.2053  0.5075
  166SAPE  H18X18700   0.531   0.402   4.969  0.5231  2.0998 -1.7369
  166SAPE  H18Y18701   0.571   0.323   4.811 -2.8826 -0.8763 -1.5303
  166SAPE  H18Z18702   0.497   0.224   4.933 -0.8538  0.4237  1.1022
  167SAPE     N18703   1.455   1.041   2.469 -0.2822  0.0460  0.5097
  167SAPE   HN118704   1.480   1.080   2.376 -1.9665  1.5058  0.6149
  167SAPE   HN218705   1.520   1.065   2.546 -0.1447  3.4450 -0.5335
  167SAPE   HN318706   1.420   0.943   2.458 -2.3960  0.9136 -1.1899
  167SAPE   C1218707   1.321   1.117   2.480  0.1628  0.2077 -0.1499
  167SAPE  H12A18708   1.308   1.132   2.589 -1.9712  0.3466 -0.3769
  167SAPE  H12B18709   1.241   1.054   2.434 -2.1549  3.3917 -0.8967
  167SAPE   C1118710   1.338   1.262   2.422  0.0477  0.0451  0.2925
  167SAPE  H11A18711   1.236   1.302   2.402 -0.2298  0.0085  1.5660
  167SAPE  H11B18712   1.391   1.253   2.325  0.0367  0.8499  0.2100
  167SAPE     P18713   1.359   1.433   2.616  0.6025  0.1886 -0.0773
  167SAPE   O1318714   1.464   1.495   2.702 -0.0909 -0.1310  0.1164
  167SAPE   O1418715   1.270   1.526   2.546 -0.6234 -0.0847 -0.6261
  167SAPE   O1218716   1.427   1.344   2.505 -0.1701  0.2002  0.2518
  167SAPE   O1118717   1.269   1.338   2.709  0.2150 -0.6049  0.1700
  167SAPE    C118718   1.333   1.290   2.831  0.2164  0.9013 -0.3675
  167SAPE    HA18719   1.429   1.236   2.814 -0.0612 -1.0565  3.3017
  167SAPE    HB18720   1.347   1.371   2.906  0.2711 -0.7972  1.5501
  167SAPE    C218721   1.246   1.179   2.913  0.4083  0.3453  0.0684
  167SAPE    HS18722   1.245   1.089   2.847  1.3325  0.6130 -0.3344
  167SAPE   O2118723   1.109   1.232   2.940  0.1730 -0.1184 -0.1193
  167SAPE   C2118724   1.024   1.148   2.983  0.8537  0.3101  0.2675
  167SAPE   O2218725   1.039   1.027   2.990  0.3647  0.3421  0.3782
  167SAPE   C2218726   0.895   1.218   3.039  0.3161  0.6391  0.4896
  167SAPE   H2R18727   0.923   1.322   3.066 -1.3658  1.2483  0.0097
  167SAPE   H2S18728   0.823   1.233   2.956 -0.4874 -1.8945  0.6483
  167SAPE    C318729   1.322   1.143   3.049  0.5220 -0.3856 -0.2062
  167SAPE    HX18730   1.424   1.104   3.030 -0.3829 -2.4328 -1.1835
  167SAPE    HY18731   1.274   1.053   3.093 -0.7503 -0.5194 -1.7570
  167SAPE   O3118732   1.334   1.258   3.124  0.0339 -0.2066 -0.1578
  167SAPE   C3118733   1.256   1.266   3.231 -0.1407 -0.4397  0.6313
  167SAPE   O3218734   1.172   1.179   3.257  0.2699 -0.5924  0.2916
  167SAPE   C3218735   1.301   1.389   3.315  0.1971  0.0583  0.1270
  167SAPE   H2X18736   1.242   1.475   3.277 -3.2535 -1.6778  1.1419
  167SAPE   H2Y18737   1.408   1.412   3.297  1.3049 -2.9463  2.2252
  167SAPE   C2318738   0.829   1.141   3.161  0.0484  0.0916  0.0991
  167SAPE   H3R18739   0.911   1.096   3.221  0.7201  0.3055 -0.6558
  167SAPE   H3S18740   0.777   1.063   3.101  2.7271 -1.5974 -0.1885
  167SAPE   C2418741   0.725   1.216   3.246  0.4438 -0.1933 -0.0428
  167SAPE   H4R18742   0.681   1.137   3.310 -0.1949  0.2626  0.0852
  167SAPE   H4S18743   0.641   1.245   3.178 -0.1875 -1.5602  0.1386
  167SAPE   C2518744   0.781   1.336   3.323  0.8792  0.3193  0.4346
  167SAPE   H5R18745   0.831   1.415   3.264  0.3724  1.4145  1.4341
  167SAPE   C2618746   0.781   1.363   3.452  0.3672 -0.0363  0.1381
  167SAPE   H6R18747   0.836   1.455   3.480  0.9088  0.3483 -1.9586
  167SAPE   C2718748   0.732   1.272   3.566  0.8020  0.3400  0.1638
  167SAPE   H7R18749   0.792   1.287   3.659 -0.1741 -0.6561  0.9801
  167SAPE   H7S18750   0.752   1.168   3.534  0.1936  0.3059 -0.1163
  167SAPE   C2818751   0.583   1.301   3.573  0.4706 -0.1132 -0.5907
  167SAPE   H8R18752   0.532   1.307   3.476  0.2270 -1.8706 -0.5982
  167SAPE   C2918753   0.508   1.322   3.686 -0.8860  0.1262  0.4917
  167SAPE   H9R18754   0.400   1.340   3.676 -0.7496 -0.0877 -1.8265
  167SAPE  C21018755   0.555   1.316   3.833  0.0369 -0.2051  0.0963
  167SAPE  H10R18756   0.470   1.306   3.904 -1.2549 -0.7248 -1.4709
  167SAPE  H10S18757   0.599   1.416   3.853  2.1556 -0.8610 -1.0043
  167SAPE  C21118758   0.650   1.210   3.879 -1.1587 -0.2944  0.3270
  167SAPE  H11R18759   0.674   1.134   3.804  0.1219 -1.4521  1.8633
  167SAPE  C21218760   0.708   1.200   4.002 -0.1382  0.6155 -0.4484
  167SAPE  H12R18761   0.797   1.137   4.017 -1.0044 -0.3162  1.0261
  167SAPE  C21318762   0.663   1.281   4.120 -0.0111 -0.1641  0.5017
  167SAPE  H13R18763   0.578   1.232   4.171  0.2543  0.2040  1.3228
  167SAPE  H13S18764   0.619   1.376   4.083  1.9363  0.2614 -0.9093
  167SAPE  C21418765   0.778   1.325   4.210  0.2901 -0.3502 -0.0344
  167SAPE  H14R18766   0.854   1.386   4.159 -1.1735  0.9363 -0.7568
  167SAPE  C21518767   0.791   1.303   4.341 -0.4481  0.2015  1.0556
  167SAPE  H15R18768   0.878   1.340   4.398  0.0257  0.6866  0.0416
  167SAPE  C21618769   0.695   1.237   4.430  0.1306  0.0121  0.1413
  167SAPE  H16R18770   0.742   1.156   4.490 -0.4262 -0.1702  0.3340
  167SAPE  H16S18771   0.617   1.193   4.365  0.6482  0.5963 -0.8985
  167SAPE  C21718772   0.643   1.332   4.534 -0.4704 -0.2395 -0.0108
  167SAPE  H17R18773   0.545   1.287   4.558  0.3052 -1.2630  1.4462
  167SAPE  H17S18774   0.619   1.434   4.498 -4.0601 -1.4560 -1.4176
  167SAPE  C21818775   0.732   1.351   4.658 -0.1195 -0.4300  0.6475
  167SAPE  H18R18776   0.825   1.409   4.641 -1.5291  1.1899 -2.0616
  167SAPE  H18S18777   0.768   1.249   4.682 -1.8178 -2.8700 -5.4533
  167SAPE  C21918778   0.658   1.401   4.780  0.0912  0.2110 -0.8645
  167SAPE  H19R18779   0.572   1.333   4.799  0.2298  0.4169  0.6214
  167SAPE  H19S18780   0.617   1.503   4.763  1.9257  0.8806 -1.5109
  167SAPE  C22018781   0.743   1.383   4.915  0.2838 -0.1569 -0.0209
  167SAPE  H20R18782   0.818   1.464   4.922 -0.7982  0.8314  0.4460
  167SAPE  H20S18783   0.802   1.288   4.921 -1.1234 -0.9894  1.9686
  167SAPE  H20T18784   0.680   1.390   5.007  1.2931 -0.3339  0.7033
  167SAPE   C3318785   1.268   1.379   3.464 -0.9177 -0.1620 -0.3551
  167SAPE   H3X18786   1.328   1.300   3.515  0.1428  0.1907 -1.0138
  167SAPE   H3Y18787   1.161   1.358   3.486 -0.4738  0.6115  3.0428
  167SAPE   C3418788   1.284   1.518   3.532  0.0548  0.1971  0.0708
  167SAPE   H4X18789   1.226   1.595   3.477 -1.4113 -0.8434  0.1230
  167SAPE   H4Y18790   1.392   1.544   3.528  0.4099 -1.2603 -0.8438
  167SAPE   C3518791   1.247   1.520   3.681 -0.9809 -0.2739 -0.0101
  167SAPE   H5X18792   1.296   1.605   3.733 -2.6273 -0.6570  2.3128
  167SAPE   H5Y18793   1.304   1.432   3.719  1.2599  1.7565  1.6057
  167SAPE   C3618794   1.104   1.503   3.700  1.0423 -0.5975 -0.3387
  167SAPE   H6X18795   1.061   1.418   3.642 -1.2902 -1.5987  2.5600
  167SAPE   H6Y18796   1.061   1.604   3.682  1.7535 -0.3613 -0.7025
  167SAPE   C3718797   1.068   1.471   3.846 -0.5622 -0.0566  0.0794
  167SAPE   H7X18798   1.104   1.368   3.861  0.5219  0.2712 -0.1941
  167SAPE   H7Y18799   0.957   1.475   3.851 -0.7148  2.5730 -2.3536
  167SAPE   C3818800   1.136   1.560   3.955  0.8537  0.5663  0.0357
  167SAPE   H8X18801   1.108   1.664   3.926  3.0822  0.8672 -1.2721
  167SAPE   H8Y18802   1.247   1.558   3.949  0.9165  2.3248 -0.0628
  167SAPE   C3918803   1.113   1.522   4.102  0.0959 -0.3538 -0.5596
  167SAPE   H9X18804   1.140   1.414   4.096 -1.6853 -0.7797 -5.3344
  167SAPE   H9Y18805   1.009   1.535   4.138  0.3509 -2.8128  1.4098
  167SAPE  C31018806   1.188   1.619   4.199 -0.3923  1.0927 -0.6489
  167SAPE  H10X18807   1.118   1.701   4.225 -1.8917 -0.2644 -0.1715
  167SAPE  H10Y18808   1.279   1.663   4.154 -0.0671  2.2551  1.0454
  167SAPE  C31118809   1.212   1.548   4.337  0.0706 -0.6726  0.3062
  167SAPE  H11X18810   1.285   1.467   4.316  0.4977 -0.4916  1.0312
  167SAPE  H11Y18811   1.117   1.498   4.365 -0.3272 -0.2553 -0.2727
  167SAPE  C31218812   1.276   1.623   4.447 -0.3603  0.2438  0.1682
  167SAPE  H12X18813   1.204   1.700   4.482 -1.1445  0.1423 -1.1752
  167SAPE  H12Y18814   1.359   1.682   4.402 -1.1412  1.6357  0.4770
  167SAPE  C31318815   1.316   1.540   4.574  0.2876 -0.1621 -0.5976
  167SAPE  H13X18816   1.360   1.624   4.633 -0.9491  0.4961 -0.5808
  167SAPE  H13Y18817   1.395   1.462   4.567 -0.3831 -1.0402  0.9783
  167SAPE  C31418818   1.200   1.470   4.646  1.0350 -0.1961 -0.2648
  167SAPE  H14X18819   1.141   1.413   4.571 -1.3209  0.0605  1.2685
  167SAPE  H14Y18820   1.136   1.552   4.685  1.4348  0.4580 -0.9738
  167SAPE  C31518821   1.243   1.387   4.773  0.5126 -0.2692  0.3460
  167SAPE  H15X18822   1.327   1.442   4.820  1.0218 -1.6302  1.0946
  167SAPE  H15Y18823   1.289   1.291   4.741  2.6289  1.2624 -1.4751
  167SAPE  C31618824   1.126   1.365   4.862 -0.7142  0.5587  0.0018
  167SAPE  H16X18825   1.060   1.285   4.823  0.1020 -1.8046  3.0876
  167SAPE  H16Y18826   1.056   1.451   4.861  0.4400  1.5287 -2.0232
  167SAPE  C31718827   1.162   1.312   5.001  0.0980  0.1745  0.4918
  167SAPE  H17X18828   1.253   1.359   5.043 -0.7407  1.7895  0.5714
  167SAPE  H17Y18829   1.177   1.202   4.987  0.5593  0.1530  1.1347
  167SAPE  C31818830   1.047   1.330   5.101 -0.0894  0.1806 -0.0804
  167SAPE  H18X18831   0.960   1.266   5.075  1.7648 -3.0808  1.1762
  167SAPE  H18Y18832   1.021   1.438   5.104 -0.6316  0.0907 -1.1697
  167SAPE  H18Z18833   1.081   1.301   5.203  1.7925 -0.6193 -0.9020
  168SAPE     N18834   3.971   0.216   2.341  1.3375  0.0015 -0.0441
  168SAPE   HN118835   4.031   0.153   2.284  1.1280 -1.1266  0.9490
  168SAPE   HN218836   3.883   0.163   2.356  2.0742 -1.7537 -1.5381
  168SAPE   HN318837   3.944   0.310   2.306  0.9463 -0.3068 -0.5957
  168SAPE   C1218838   4.045   0.222   2.475 -0.2614  0.6926  0.0996
  168SAPE  H12A18839   3.975   0.269   2.549  1.5404  2.9467  0.4795
  168SAPE  H12B18840   4.132   0.291   2.476  0.8448 -0.6802  0.5328
  168SAPE   C1118841   4.082   0.086   2.533 -0.1511 -0.1176 -0.0121
  168SAPE  H11A18842   3.993   0.021   2.542 -0.7779  0.7863  0.4680
  168SAPE  H11B18843   4.113   0.100   2.639 -2.3771  0.5337  0.6151
  168SAPE     P18844   4.317   0.025   2.475  0.2556  0.0282  0.0802
  168SAPE   O1318845   4.372  -0.043   2.359 -0.4433  0.3398  0.3846
  168SAPE   O1418846   4.356   0.166   2.506 -0.0131  0.1316  0.5190
  168SAPE   O1218847   4.169   0.023   2.446 -0.5144  0.1739  0.1920
  168SAPE   O1118848   4.342  -0.061   2.605 -0.0244 -0.4393 -0.0183
  168SAPE    C118849   4.310  -0.197   2.623  0.5239  0.4006  0.2470
  168SAPE    HA18850   4.209  -0.221   2.583 -0.9211  1.4754  2.9626
  168SAPE    HB18851   4.378  -0.266   2.570 -1.4442 -1.4876  0.0577
  168SAPE    C218852   4.301  -0.228   2.770  0.2559  0.1853 -0.2193
  168SAPE    HS18853   4.219  -0.169   2.815  0.2489 -1.3418  1.9593
  168SAPE   O2118854   4.431  -0.210   2.837 -0.3494 -0.4015  0.1130
  168SAPE   C2118855   4.416  -0.194   2.972 -0.5145  0.1434 -0.3022
  168SAPE   O2218856   4.310  -0.213   3.030 -0.0410 -0.7852 -0.0897
  168SAPE   C2218857   4.558  -0.151   3.026 -0.6709  0.1837 -0.2131
  168SAPE   H2R18858   4.614  -0.244   3.051 -1.2666  0.4325  2.3313
  168SAPE   H2S18859   4.604  -0.093   2.944 -1.8824  0.2355 -0.8790
  168SAPE    C318860   4.271  -0.378   2.768  0.5407  0.0888  0.1715
  168SAPE    HX18861   4.345  -0.424   2.700  0.6770  0.5192  0.0224
  168SAPE    HY18862   4.176  -0.404   2.716  1.2072 -0.9958 -0.5295
  168SAPE   O3118863   4.280  -0.448   2.891  0.1127  0.4083 -0.2105
  168SAPE   C3118864   4.164  -0.469   2.945  0.1532  0.5563 -0.0846
  168SAPE   O3218865   4.052  -0.422   2.919  0.2299  0.3836  0.4858
  168SAPE   C3218866   4.189  -0.571   3.057  0.0027  0.2630 -0.0769
  168SAPE   H2X18867   4.242  -0.652   3.001  0.3519  1.5355 -1.6626
  168SAPE   H2Y18868   4.095  -0.626   3.077 -0.2396 -0.7096 -3.3202
  168SAPE   C2318869   4.540  -0.048   3.146  0.0565  0.3123 -0.6164
  168SAPE   H3R18870   4.503  -0.104   3.235  0.7198  1.0642  0.1470
  168SAPE   H3S18871   4.469   0.034   3.124  1.1530  1.7726  1.0575
  168SAPE   C2418872   4.676   0.016   3.183  0.6705 -0.7051 -0.2542
  168SAPE   H4R18873   4.738   0.054   3.099  2.9641  0.8333  1.9942
  168SAPE   H4S18874   4.735  -0.069   3.223  0.1536 -0.3076  1.4314
  168SAPE   C2518875   4.670   0.133   3.283  0.2815 -0.6105  0.2084
  168SAPE   H5R18876   4.640   0.231   3.243 -1.0993 -1.5328 -1.1412
  168SAPE   C2618877   4.718   0.133   3.406 -0.3564 -0.0172 -0.4483
  168SAPE   H6R18878   4.720   0.228   3.460  0.6275 -0.5989  0.5689
  168SAPE   C2718879   4.773   0.023   3.492  0.3922  0.7843  0.3058
  168SAPE   H7R18880   4.852   0.056   3.562  0.1059  3.9237 -0.7012
  168SAPE   H7S18881   4.803  -0.068   3.436 -0.5429 -0.9270  2.4322
  168SAPE   C2818882   4.660  -0.039   3.580 -0.6120 -1.4867 -0.0403
  168SAPE   H8R18883   4.582  -0.102   3.536 -0.3840 -2.0575  0.3560
  168SAPE   C2918884   4.650  -0.021   3.717  0.2232 -0.3652 -0.3356
  168SAPE   H9R18885   4.573  -0.078   3.771 -1.1191 -0.1579 -1.9777
  168SAPE  C21018886   4.731   0.079   3.797 -0.4002 -0.3959 -0.5202
  168SAPE  H10R18887   4.669   0.153   3.852  1.1713 -0.0238  0.8358
  168SAPE  H10S18888   4.798   0.139   3.732 -1.5289  0.2921 -1.0908
  168SAPE  C21118889   4.811   0.002   3.897 -0.4658 -0.0808 -0.0725
  168SAPE  H11R18890   4.889  -0.064   3.857 -1.6386 -1.8246  0.4150
  168SAPE  C21218891   4.812   0.010   4.031  0.2393 -0.2087 -0.5408
  168SAPE  H12R18892   4.865  -0.066   4.089 -1.0915 -0.6310  0.1406
  168SAPE  C21318893   4.718   0.104   4.116  0.5908 -0.2974 -0.3476
  168SAPE  H13R18894   4.696   0.049   4.210 -1.1129  1.0443  0.0919
  168SAPE  H13S18895   4.623   0.132   4.064  0.2865 -2.1887 -0.8890
  168SAPE  C21418896   4.792   0.229   4.155 -0.3795 -0.8028  0.1145
  168SAPE  H14R18897   4.888   0.251   4.106  1.4917 -1.5400  3.1630
  168SAPE  C21518898   4.747   0.328   4.242  0.1063 -0.0033  0.0184
  168SAPE  H15R18899   4.807   0.420   4.244  0.8885 -0.4735 -0.9507
  168SAPE  C21618900   4.627   0.313   4.333  0.0813  0.0039 -0.3233
  168SAPE  H16R18901   4.580   0.212   4.332 -1.3669  0.6485  0.7459
  168SAPE  H16S18902   4.548   0.377   4.289  1.7414  1.8371 -0.7861
  168SAPE  C21718903   4.647   0.322   4.487  0.3209 -0.9996  0.6903
  168SAPE  H17R18904   4.690   0.423   4.507  1.4577 -0.9107 -1.7280
  168SAPE  H17S18905   4.718   0.243   4.521  0.5387 -0.0963  2.4146
  168SAPE  C21818906   4.516   0.303   4.565 -0.1750 -0.1125 -0.3299
  168SAPE  H18R18907   4.493   0.194   4.565 -2.0857  0.2418 -1.4324
  168SAPE  H18S18908   4.436   0.356   4.510  1.2813  0.6353 -1.8353
  168SAPE  C21918909   4.525   0.354   4.711 -0.1895  0.2243  0.4770
  168SAPE  H19R18910   4.542   0.464   4.713  1.4804  0.0397 -1.0155
  168SAPE  H19S18911   4.611   0.304   4.761 -1.5642 -2.1508  0.6250
  168SAPE  C22018912   4.406   0.311   4.786  0.5816 -0.1438 -0.0874
  168SAPE  H20R18913   4.386   0.205   4.757  3.5304 -0.9653  0.5685
  168SAPE  H20S18914   4.327   0.385   4.759  1.0665 -0.6061 -3.0507
  168SAPE  H20T18915   4.424   0.307   4.896  2.7544 -0.3387 -0.4209
  168SAPE   C3318916   4.256  -0.523   3.184  0.4742 -0.0037 -0.8151
  168SAPE   H3X18917   4.203  -0.432   3.219  0.3403  0.0490 -1.1479
  168SAPE   H3Y18918   4.361  -0.492   3.164  0.9913 -1.1851 -0.0607
  168SAPE   C3418919   4.253  -0.626   3.301 -0.6817 -0.0048 -0.1363
  168SAPE   H4X18920   4.321  -0.584   3.379  0.5695  1.2609 -1.8021
  168SAPE   H4Y18921   4.285  -0.722   3.257 -2.6969  0.3106 -2.4875
  168SAPE   C3518922   4.112  -0.634   3.355  0.2275  0.3165 -0.3135
  168SAPE   H5X18923   4.047  -0.690   3.285 -0.4021 -2.5746  2.3892
  168SAPE   H5Y18924   4.084  -0.527   3.365  0.1143  0.2751 -0.1809
  168SAPE   C3618925   4.105  -0.696   3.499  0.6819 -0.5597  0.4678
  168SAPE   H6X18926   4.104  -0.806   3.481 -2.4942 -0.6165  0.4520
  168SAPE   H6Y18927   4.005  -0.676   3.544  1.3633  3.3291  0.5679
  168SAPE   C3718928   4.214  -0.649   3.604 -0.0525 -0.6470  0.0594
  168SAPE   H7X18929   4.202  -0.539   3.608 -0.7410 -0.7071 -0.2783
  168SAPE   H7Y18930   4.312  -0.663   3.555 -0.4784  1.2188 -1.4181
  168SAPE   C3818931   4.209  -0.706   3.745  0.6295  0.0521  0.4346
  168SAPE   H8X18932   4.232  -0.814   3.737 -0.0114 -0.0160 -0.7762
  168SAPE   H8Y18933   4.104  -0.689   3.777 -0.7931 -2.2859 -2.5090
  168SAPE   C3918934   4.282  -0.642   3.869 -0.9881  0.0649  0.2041
  168SAPE   H9X18935   4.291  -0.532   3.859  0.5972  0.0806  1.3897
  168SAPE   H9Y18936   4.386  -0.682   3.866 -0.2971  1.4875  2.4859
  168SAPE  C31018937   4.213  -0.692   3.998  0.2813 -0.2344  0.2836
  168SAPE  H10X18938   4.170  -0.791   3.975 -0.7210  0.2730 -0.0664
  168SAPE  H10Y18939   4.132  -0.621   4.022  0.2916  0.1269 -0.7188
  168SAPE  C31118940   4.294  -0.681   4.126 -0.2578 -0.1104  0.5483
  168SAPE  H11X18941   4.358  -0.591   4.127  1.2525 -1.1431  1.4127
  168SAPE  H11Y18942   4.373  -0.760   4.121 -0.7286 -0.7465  2.4134
  168SAPE  C31218943   4.211  -0.700   4.257 -0.0829 -0.2251 -0.8543
  168SAPE  H12X18944   4.123  -0.762   4.229  1.9068 -2.9459 -1.5407
  168SAPE  H12Y18945   4.172  -0.599   4.282  0.4334 -0.2002 -0.1405
  168SAPE  C31318946   4.303  -0.756   4.369  0.5019 -0.2783 -0.7419
  168SAPE  H13X18947   4.362  -0.843   4.333  0.2647 -0.4405 -0.7427
  168SAPE  H13Y18948   4.235  -0.804   4.442 -0.0902 -0.5985 -1.4892
  168SAPE  C31418949   4.404  -0.659   4.432  0.7175  0.1135  0.4761
  168SAPE  H14X18950   4.361  -0.561   4.462 -0.8776 -1.1245  2.5401
  168SAPE  H14Y18951   4.488  -0.636   4.364  1.3787  1.0700  1.5757
  168SAPE  C31518952   4.466  -0.714   4.560 -0.7907 -0.3666 -0.2856
  168SAPE  H15X18953   4.561  -0.764   4.530  0.8617  1.7678  1.0948
  168SAPE  H15Y18954   4.393  -0.786   4.603 -0.4199 -1.0425 -0.7593
  168SAPE  C31618955   4.507  -0.605   4.662  0.7119 -0.3840  0.1001
  168SAPE  H16X18956   4.519  -0.663   4.756 -2.0216 -1.5489 -0.1746
  168SAPE  H16Y18957   4.409  -0.553   4.666  1.2009  0.5270  0.7446
  168SAPE  C31718958   4.632  -0.509   4.645 -0.5672  0.2610  0.4394
  168SAPE  H17X18959   4.642  -0.501   4.534  0.7966 -1.3483  0.4079
  168SAPE  H17Y18960   4.724  -0.566   4.671 -1.8784 -2.1906  0.0260
  168SAPE  C31818961   4.610  -0.383   4.728 -0.0406 -0.5578  0.3605
  168SAPE  H18X18962   4.701  -0.320   4.721  0.1420 -0.7492  0.9798
  168SAPE  H18Y18963   4.597  -0.422   4.831 -1.4702  1.3064  0.9382
  168SAPE  H18Z18964   4.526  -0.321   4.690  1.5168  1.2920 -0.2107
  169SAPE     N18965   3.176   4.095   2.410  0.1176 -0.2725  0.1750
  169SAPE   HN118966   3.264   4.150   2.405 -0.0161  0.2022  2.2448
  169SAPE   HN218967   3.097   4.162   2.399  0.1514  0.1531  2.2384
  169SAPE   HN318968   3.173   4.054   2.505  3.2721  0.4137  0.6847
  169SAPE   C1218969   3.175   3.984   2.307 -0.0627 -0.1603 -0.2364
  169SAPE  H12A18970   3.282   3.961   2.285 -0.4864 -2.1890 -0.4452
  169SAPE  H12B18971   3.120   4.016   2.217  1.3588  1.9780 -0.4029
  169SAPE   C1118972   3.108   3.843   2.355  0.4906  0.7016  0.0533
  169SAPE  H11A18973   3.074   3.795   2.261  3.5101  0.8309 -1.2041
  169SAPE  H11B18974   3.014   3.857   2.414  0.9576 -1.6823  1.4747
  169SAPE     P18975   3.234   3.772   2.572 -0.0018  0.0725  0.0800
  169SAPE   O1318976   3.322   3.661   2.614 -0.9237 -0.0379  0.5186
  169SAPE   O1418977   3.268   3.912   2.609  0.0257  0.7426 -0.2412
  169SAPE   O1218978   3.204   3.758   2.417  0.1018 -0.0416  0.2411
  169SAPE   O1118979   3.092   3.739   2.630 -0.7083  0.0407 -0.9202
  169SAPE    C118980   3.010   3.632   2.580  0.2700 -0.0443 -0.6651
  169SAPE    HA18981   2.935   3.674   2.510 -0.9979 -2.3514 -0.8045
  169SAPE    HB18982   3.066   3.551   2.528  0.1995  0.4311 -1.4879
  169SAPE    C218983   2.937   3.560   2.702 -0.3093 -0.2254  0.1260
  169SAPE    HS18984   2.861   3.629   2.746  0.4439  0.4530  0.3954
  169SAPE   O2118985   3.035   3.522   2.803 -0.0513  0.1600 -0.5258
  169SAPE   C2118986   3.047   3.616   2.894  0.6068  0.5623  0.5937
  169SAPE   O2218987   2.973   3.714   2.916 -0.8048 -0.1298 -0.2175
  169SAPE   C2218988   3.165   3.563   2.982 -0.4084 -0.5309  0.2689
  169SAPE   H2R18989   3.130   3.467   3.027 -0.4692 -0.2347  0.8684
  169SAPE   H2S18990   3.248   3.532   2.916  0.7045  4.0695 -0.8445
  169SAPE    C318991   2.856   3.434   2.651 -0.2616 -0.0585  0.1029
  169SAPE    HX18992   2.924   3.377   2.584  0.2716  0.5011  0.1649
  169SAPE    HY18993   2.785   3.474   2.575 -2.1041 -2.5954  0.3803
  169SAPE   O3118994   2.794   3.354   2.753  0.5362 -0.0407 -0.1991
  169SAPE   C3118995   2.674   3.389   2.801  0.4223  0.5805 -0.1924
  169SAPE   O3218996   2.627   3.499   2.784  0.6527 -0.0810 -0.8872
  169SAPE   C3218997   2.610   3.260   2.854 -0.5255 -0.2556 -0.6961
  169SAPE   H2X18998   2.692   3.195   2.892  0.5997  0.8564 -1.1177
  169SAPE   H2Y18999   2.545   3.210   2.779  0.2485 -0.1922 -1.4282
  169SAPE   C2319000   3.210   3.678   3.074 -0.7476 -0.6139  1.2971
  169SAPE   H3R19001   3.210   3.770   3.012  2.0348 -1.1760  0.3257
  169SAPE   H3S19002   3.315   3.655   3.101 -0.4855  1.1490  1.9297
  169SAPE   C2419003   3.132   3.688   3.200  0.2919  0.1699  0.5920
  169SAPE   H4R19004   3.112   3.586   3.239  1.0753  0.2935  1.3381
  169SAPE   H4S19005   3.026   3.717   3.182 -0.8100 -2.7916  1.5644
  169SAPE   C2519006   3.208   3.772   3.309 -0.1256 -0.1866 -0.1099
  169SAPE   H5R19007   3.258   3.861   3.269  0.4581  0.0872  1.1675
  169SAPE   C2619008   3.213   3.746   3.440  0.0688  0.2314 -0.3209
  169SAPE   H6R19009   3.263   3.822   3.501 -0.5828  0.2679  0.1788
  169SAPE   C2719010   3.174   3.635   3.542 -0.0129 -0.0826  0.0454
  169SAPE   H7R19011   3.266   3.618   3.602  0.4688  1.4830 -0.2097
  169SAPE   H7S19012   3.154   3.540   3.488 -3.1500 -0.3602  1.4340
  169SAPE   C2819013   3.043   3.680   3.610 -0.6327 -0.2999 -0.0355
  169SAPE   H8R19014   2.957   3.672   3.543  0.6940  0.0071 -1.8628
  169SAPE   C2919015   3.029   3.735   3.737 -0.2996 -0.1267  0.3654
  169SAPE   H9R19016   2.934   3.755   3.788 -0.0640 -1.5156  1.4148
  169SAPE  C21019017   3.142   3.759   3.830  0.1400  0.2777 -0.3959
  169SAPE  H10R19018   3.095   3.828   3.903 -0.8626  0.0513 -0.8131
  169SAPE  H10S19019   3.224   3.813   3.778 -1.9687  2.6647 -1.4465
  169SAPE  C21119020   3.198   3.632   3.897  0.9350  0.3124  0.4225
  169SAPE  H11R19021   3.232   3.550   3.832 -2.8362 -0.5926 -0.6649
  169SAPE  C21219022   3.194   3.592   4.029 -0.4859 -0.3140 -0.1159
  169SAPE  H12R19023   3.252   3.503   4.058  0.1334 -0.1631 -0.8620
  169SAPE  C21319024   3.128   3.666   4.140  0.6087 -0.4720 -0.5716
  169SAPE  H13R19025   3.072   3.597   4.206 -0.1220  1.5050  0.9758
  169SAPE  H13S19026   3.058   3.742   4.099  0.2382 -0.7913 -0.5276
  169SAPE  C21419027   3.229   3.741   4.224  0.3169  0.1438  0.1429
  169SAPE  H14R19028   3.293   3.805   4.162 -0.2013  0.9742  0.4600
  169SAPE  C21519029   3.250   3.736   4.352  0.1725  0.0846 -0.2213
  169SAPE  H15R19030   3.328   3.804   4.390 -0.4414  0.3749  0.5529
  169SAPE  C21619031   3.168   3.655   4.443  0.2251  0.2066 -0.0370
  169SAPE  H16R19032   3.061   3.647   4.414 -0.3395  0.6507  1.7872
  169SAPE  H16S19033   3.178   3.698   4.545  0.5355  1.1313 -0.4466
  169SAPE  C21719034   3.233   3.516   4.450  0.2450  0.0121 -0.0693
  169SAPE  H17R19035   3.335   3.516   4.496  0.5485  2.5369 -0.5953
  169SAPE  H17S19036   3.236   3.478   4.346  0.0234  0.3040 -0.1840
  169SAPE  C21819037   3.142   3.409   4.526  0.0335  0.4709  0.0942
  169SAPE  H18R19038   3.107   3.459   4.619  0.1929  1.3203 -0.2876
  169SAPE  H18S19039   3.203   3.320   4.552 -1.4878 -0.9974 -1.1444
  169SAPE  C21919040   3.022   3.362   4.443 -0.1816 -0.1869 -0.8311
  169SAPE  H19R19041   3.060   3.311   4.352 -0.8769  0.0193 -1.2497
  169SAPE  H19S19042   2.951   3.448   4.438 -0.2798 -0.1319  0.9127
  169SAPE  C22019043   2.940   3.258   4.518  0.2353  0.0337  0.0565
  169SAPE  H20R19044   2.872   3.297   4.597  1.5682 -0.5980  1.5869
  169SAPE  H20S19045   3.007   3.187   4.572 -0.9908  0.1563  1.8083
  169SAPE  H20T19046   2.881   3.206   4.440 -0.1876  0.1221  0.3118
  169SAPE   C3319047   2.528   3.307   2.978 -0.4309  0.2534 -0.2936
  169SAPE   H3X19048   2.453   3.225   2.975  0.7791 -0.8787 -0.9526
  169SAPE   H3Y19049   2.476   3.404   2.963  3.2411  2.3387 -0.9753
  169SAPE   C3419050   2.609   3.319   3.106  0.1313  0.5370  0.4968
  169SAPE   H4X19051   2.681   3.402   3.088  0.1264  0.2785 -0.8614
  169SAPE   H4Y19052   2.669   3.228   3.127 -0.9984 -0.4629 -0.4483
  169SAPE   C3519053   2.522   3.359   3.219  0.1899 -0.3954 -0.2665
  169SAPE   H5X19054   2.459   3.278   3.261 -0.1948 -0.4928 -1.0159
  169SAPE   H5Y19055   2.453   3.441   3.188 -1.4291 -1.0349  1.4366
  169SAPE   C3619056   2.611   3.425   3.327  0.1092 -0.1201 -0.1400
  169SAPE   H6X19057   2.704   3.462   3.277  0.6844 -0.8047  0.3948
  169SAPE   H6Y19058   2.642   3.348   3.401  0.1712  0.5394  0.5260
  169SAPE   C3719059   2.552   3.550   3.391 -0.3441 -0.5972  0.1511
  169SAPE   H7X19060   2.447   3.540   3.426 -0.5104  0.8251  0.1321
  169SAPE   H7Y19061   2.545   3.630   3.314 -2.4111  0.6302  1.5154
  169SAPE   C3819062   2.632   3.611   3.505 -0.3089  0.7098 -1.0112
  169SAPE   H8X19063   2.607   3.718   3.518  3.1885  1.9678 -3.0023
  169SAPE   H8Y19064   2.742   3.601   3.490  0.3009 -1.6225  3.4594
  169SAPE   C3919065   2.619   3.539   3.645  0.4536  0.2268  0.0692
  169SAPE   H9X19066   2.646   3.432   3.627 -0.1446  0.3452 -1.7655
  169SAPE   H9Y19067   2.512   3.531   3.674  0.8704 -1.3408  1.2938
  169SAPE  C31019068   2.691   3.617   3.751  0.6603  0.4841 -0.2996
  169SAPE  H10X19069   2.684   3.726   3.733 -0.6613  0.1693 -2.0096
  169SAPE  H10Y19070   2.797   3.583   3.741  0.7137  1.0873 -2.1218
  169SAPE  C31119071   2.631   3.588   3.889  1.0346 -0.7267 -0.3617
  169SAPE  H11X19072   2.584   3.488   3.901  1.0621 -0.5139  2.0505
  169SAPE  H11Y19073   2.561   3.673   3.900  0.1440 -1.6604  1.7132
  169SAPE  C31219074   2.740   3.610   3.997  0.3443 -0.4140 -0.0426
  169SAPE  H12X19075   2.789   3.706   3.971 -0.4292  0.4148  1.3979
  169SAPE  H12Y19076   2.814   3.527   4.001  1.0890  0.2576  0.3070
  169SAPE  C31319077   2.663   3.630   4.136 -0.3280 -0.4199  0.4060
  169SAPE  H13X19078   2.590   3.553   4.168  2.0868 -2.8418  0.4004
  169SAPE  H13Y19079   2.616   3.730   4.124 -1.6963 -1.2375 -1.5594
  169SAPE  C31419080   2.776   3.638   4.242  0.5510  0.2999 -0.6764
  169SAPE  H14X19081   2.850   3.716   4.214  1.3797 -0.9339 -2.1052
  169SAPE  H14Y19082   2.825   3.539   4.249 -0.4185 -0.0596  2.0398
  169SAPE  C31519083   2.715   3.684   4.369 -0.4696  0.2835 -0.1612
  169SAPE  H15X19084   2.669   3.783   4.349  1.6258  1.4486  0.4874
  169SAPE  H15Y19085   2.801   3.707   4.435  1.6459 -1.1522 -2.2733
  169SAPE  C31619086   2.623   3.585   4.436 -0.5098  0.2841 -0.8263
  169SAPE  H16X19087   2.671   3.486   4.428  0.2385  0.6510 -0.9726
  169SAPE  H16Y19088   2.521   3.568   4.396 -0.5125 -0.7145 -0.4284
  169SAPE  C31719089   2.602   3.616   4.587  0.4559  0.9471 -0.1804
  169SAPE  H17X19090   2.694   3.633   4.645  0.8625 -0.0987 -0.5007
  169SAPE  H17Y19091   2.553   3.526   4.628  0.5887 -0.1503 -2.3092
  169SAPE  C31819092   2.508   3.731   4.617  0.6064  0.3481  0.5148
  169SAPE  H18X19093   2.529   3.823   4.558 -0.5140  0.0673 -0.3589
  169SAPE  H18Y19094   2.501   3.751   4.726  0.8354 -2.0935  1.0450
  169SAPE  H18Z19095   2.410   3.700   4.575  1.8017 -0.5751 -1.7589
  170SAPE     N19096   1.039   5.838   2.916 -0.5298 -0.4776  0.1607
  170SAPE   HN119097   1.115   5.822   2.985  0.6083  1.2816 -0.6139
  170SAPE   HN219098   1.015   5.939   2.905 -2.1716 -0.5985  2.1067
  170SAPE   HN319099   0.948   5.805   2.953 -1.7475  1.6186 -0.7333
  170SAPE   C1219100   1.071   5.788   2.777 -0.4623 -0.1467  0.4624
  170SAPE  H12A19101   1.176   5.814   2.753 -0.6230  0.0623 -0.0144
  170SAPE  H12B19102   1.002   5.842   2.709 -1.2099 -1.0017  0.5299
  170SAPE   C1119103   1.040   5.639   2.761  0.3371 -0.1307  0.2001
  170SAPE  H11A19104   1.077   5.577   2.845  2.0190  0.6913  0.0873
  170SAPE  H11B19105   1.108   5.606   2.680  3.2670 -0.4696  2.6531
  170SAPE     P19106   0.859   5.498   2.650 -0.3863  0.0065  0.2605
  170SAPE   O1319107   0.717   5.462   2.685  0.4677 -0.0209 -0.1478
  170SAPE   O1419108   0.892   5.524   2.507  0.8960 -0.4363  0.5606
  170SAPE   O1219109   0.896   5.624   2.734  0.6539  0.4101 -0.0559
  170SAPE   O1119110   0.963   5.396   2.712  0.3270  0.3394  0.1822
  170SAPE    C119111   0.907   5.285   2.792 -0.5228  0.0239 -0.2059
  170SAPE    HA19112   0.836   5.227   2.729  0.3666 -1.2662 -0.0576
  170SAPE    HB19113   0.995   5.218   2.800 -0.9245 -0.2846  2.3079
  170SAPE    C219114   0.857   5.326   2.929 -0.2023  0.4366 -0.2540
  170SAPE    HS19115   0.796   5.418   2.919  0.6623  0.9219 -1.2393
  170SAPE   O2119116   0.976   5.353   3.006  0.0988 -0.0363 -0.7786
  170SAPE   C2119117   0.963   5.426   3.113 -0.3943  0.1048  0.1241
  170SAPE   O2219118   0.860   5.486   3.145 -0.7908  0.0979 -0.2013
  170SAPE   C2219119   1.089   5.447   3.193 -0.5419  0.9386 -0.1484
  170SAPE   H2R19120   1.177   5.434   3.126  0.1097  1.1105  0.6517
  170SAPE   H2S19121   1.098   5.553   3.226 -1.0582  1.5390 -1.8289
  170SAPE    C319122   0.770   5.208   2.978  0.3846 -0.5719  0.2353
  170SAPE    HX19123   0.853   5.134   2.984  0.8361 -0.0705  0.2632
  170SAPE    HY19124   0.692   5.171   2.908  0.1060  0.3203  0.0669
  170SAPE   O3119125   0.713   5.233   3.115 -0.2285 -0.1685 -0.3544
  170SAPE   C3119126   0.606   5.314   3.108 -0.0609  0.4226 -0.0937
  170SAPE   O3219127   0.558   5.361   3.009 -0.4305 -0.3498  0.3830
  170SAPE   C3219128   0.559   5.369   3.248  0.2844 -0.6048  0.3128
  170SAPE   H2X19129   0.448   5.367   3.236  0.3965 -4.1620 -1.2298
  170SAPE   H2Y19130   0.595   5.474   3.258 -1.4798  0.0086  0.7566
  170SAPE   C2319131   1.098   5.349   3.311  0.5702  0.3026 -0.4243
  170SAPE   H3R19132   1.194   5.379   3.359 -0.5021  0.7319  1.5731
  170SAPE   H3S19133   1.112   5.246   3.273  0.1109 -0.5886  1.6699
  170SAPE   C2419134   0.986   5.355   3.417  0.3090 -1.1473  0.3424
  170SAPE   H4R19135   0.886   5.341   3.370  0.6358  0.5306 -0.9573
  170SAPE   H4S19136   0.994   5.461   3.449 -2.0848  0.0766 -2.5871
  170SAPE   C2519137   0.999   5.262   3.534  0.2959  0.1970  0.2717
  170SAPE   H5R19138   1.076   5.185   3.516 -1.3087 -0.8075 -3.2146
  170SAPE   C2619139   0.923   5.241   3.647  0.5537  0.4170  0.3619
  170SAPE   H6R19140   0.966   5.163   3.712 -0.7870 -2.1059 -1.5948
  170SAPE   C2719141   0.809   5.322   3.701 -0.2447 -0.3047  0.7469
  170SAPE   H7R19142   0.758   5.255   3.773  3.0264 -1.9503  1.7149
  170SAPE   H7S19143   0.745   5.360   3.618 -1.6766 -0.6297  1.6568
  170SAPE   C2819144   0.860   5.439   3.780 -0.0025 -0.6747 -0.5960
  170SAPE   H8R19145   0.911   5.514   3.717 -0.8427  1.1703  0.8068
  170SAPE   C2919146   0.834   5.464   3.909  0.0290  0.2618 -0.1485
  170SAPE   H9R19147   0.894   5.551   3.941  1.5430 -0.5621 -0.6096
  170SAPE  C21019148   0.747   5.388   4.009  0.4389 -0.3559  0.8706
  170SAPE  H10R19149   0.801   5.318   4.075 -2.6203 -3.5188  0.3196
  170SAPE  H10S19150   0.683   5.314   3.955  2.6727 -1.4890 -0.4006
  170SAPE  C21119151   0.657   5.492   4.078  0.2955 -0.0046 -0.5391
  170SAPE  H11R19152   0.608   5.555   4.002  0.5776  1.0659  0.1474
  170SAPE  C21219153   0.637   5.521   4.209 -0.6860 -0.2820  0.1227
  170SAPE  H12R19154   0.570   5.603   4.239  0.6591  1.5021 -1.4756
  170SAPE  C21319155   0.699   5.439   4.327 -0.3427 -0.0220 -0.4694
  170SAPE  H13R19156   0.755   5.348   4.297 -0.2601 -0.7566  1.7310
  170SAPE  H13S19157   0.614   5.404   4.389 -0.3918 -0.7069 -0.9159
  170SAPE  C21419158   0.781   5.538   4.406  0.2544 -0.4626  0.7421
  170SAPE  H14R19159   0.844   5.603   4.344 -0.1938  1.0439  1.8092
  170SAPE  C21519160   0.793   5.551   4.535  0.1590  0.0225  0.2112
  170SAPE  H15R19161   0.866   5.619   4.581  1.0786  0.7429 -2.1957
  170SAPE  C21619162   0.729   5.459   4.633 -0.4181  0.0199  0.1995
  170SAPE  H16R19163   0.812   5.426   4.698  0.7273  0.4331 -1.0222
  170SAPE  H16S19164   0.693   5.373   4.572  0.3762  0.4942 -0.9724
  170SAPE  C21719165   0.606   5.515   4.716 -0.1062 -0.4289  0.1505
  170SAPE  H17R19166   0.566   5.442   4.790  0.3284 -0.4569  0.3597
  170SAPE  H17S19167   0.524   5.550   4.650  0.9539  3.3722  0.6089
  170SAPE  C21819168   0.657   5.635   4.801 -0.0271  0.0487 -0.2805
  170SAPE  H18R19169   0.574   5.676   4.864  0.6152  1.2033 -0.1522
  170SAPE  H18S19170   0.700   5.706   4.728 -0.2872 -0.7759 -1.2614
  170SAPE  C21919171   0.763   5.610   4.905 -0.0506 -0.5146  0.2174
  170SAPE  H19R19172   0.785   5.711   4.947  0.1614 -0.6159  0.3558
  170SAPE  H19S19173   0.854   5.575   4.851 -0.2021 -0.3289 -0.1611
  170SAPE  C22019174   0.722   5.527   5.020  0.4748 -0.3218 -0.3854
  170SAPE  H20R19175   0.806   5.488   5.081  1.4533  1.8317 -0.2632
  170SAPE  H20S19176   0.658   5.439   4.997 -1.4333  0.5846  1.1545
  170SAPE  H20T19177   0.664   5.591   5.090 -1.9269  0.0905 -2.6040
  170SAPE   C3319178   0.594   5.285   3.374 -0.4259  0.3803 -0.5279
  170SAPE   H3X19179   0.576   5.342   3.468  2.6454  0.2866  0.1956
  170SAPE   H3Y19180   0.703   5.267   3.373 -0.2251  1.5396 -1.3089
  170SAPE   C3419181   0.519   5.150   3.380  0.3834  0.8960 -0.0153
  170SAPE   H4X19182   0.565   5.086   3.301  0.6782  1.1076 -0.0201
  170SAPE   H4Y19183   0.409   5.158   3.368  0.6940  3.5873 -2.0871
  170SAPE   C3519184   0.548   5.076   3.514  0.7344 -0.2165  0.2064
  170SAPE   H5X19185   0.657   5.063   3.531  0.7754  0.3560  0.3867
  170SAPE   H5Y19186   0.501   4.976   3.497 -0.2675  0.4121 -0.8695
  170SAPE   C3619187   0.479   5.138   3.641 -0.0678  0.2104  0.6711
  170SAPE   H6X19188   0.369   5.143   3.627 -0.0823 -0.3927  0.5465
  170SAPE   H6Y19189   0.519   5.239   3.663  2.5442 -0.7376  0.5432
  170SAPE   C3719190   0.514   5.052   3.760  0.1403  1.0507 -0.3687
  170SAPE   H7X19191   0.621   5.026   3.769 -0.2462 -0.0421  1.7524
  170SAPE   H7Y19192   0.461   4.954   3.762  3.0365 -0.6331 -1.1032
  170SAPE   C3819193   0.480   5.109   3.899  0.0393 -0.7107  0.1600
  170SAPE   H8X19194   0.371   5.114   3.918  0.1058  1.9136  0.2470
  170SAPE   H8Y19195   0.506   5.218   3.901 -0.5134 -0.5410 -0.8732
  170SAPE   C3919196   0.553   5.044   4.015  0.0509  0.1749  0.4130
  170SAPE   H9X19197   0.662   5.059   4.001  0.3677 -1.9610  0.2832
  170SAPE   H9Y19198   0.531   4.935   4.014  1.7530 -0.2780 -2.9808
  170SAPE  C31019199   0.509   5.103   4.153  0.4524 -0.4335 -0.3536
  170SAPE  H10X19200   0.399   5.087   4.159  0.3918 -0.0348 -0.3693
  170SAPE  H10Y19201   0.526   5.212   4.160 -1.0105 -0.2464  1.1745
  170SAPE  C31119202   0.591   5.035   4.258  0.3537 -0.0852  0.1073
  170SAPE  H11X19203   0.696   5.051   4.224  0.6952 -1.0315  0.6768
  170SAPE  H11Y19204   0.566   4.927   4.255 -0.7213  0.1641 -1.1331
  170SAPE  C31219205   0.557   5.088   4.402 -0.0808 -0.2027  0.0951
  170SAPE  H12X19206   0.447   5.083   4.413 -0.1546 -1.0404 -0.8625
  170SAPE  H12Y19207   0.599   5.190   4.384 -0.6774 -0.1242 -0.9335
  170SAPE  C31319208   0.644   5.011   4.508  0.2642  0.4464  0.5507
  170SAPE  H13X19209   0.729   4.966   4.453 -0.7272  0.9239 -1.4737
  170SAPE  H13Y19210   0.583   4.922   4.535  0.1533  0.5105  0.5163
  170SAPE  C31419211   0.694   5.093   4.616  0.2329 -1.1542  0.0862
  170SAPE  H14X19212   0.607   5.150   4.655 -0.0973 -0.8702 -1.0351
  170SAPE  H14Y19213   0.757   5.176   4.579 -0.6707 -0.5016 -0.0348
  170SAPE  C31519214   0.743   5.019   4.732  0.2343  0.6697 -0.9702
  170SAPE  H15X19215   0.823   4.947   4.704  1.4355  0.5396  2.3989
  170SAPE  H15Y19216   0.661   4.952   4.765  1.2681  0.5976  1.7443
  170SAPE  C31619217   0.809   5.105   4.838  0.1293  1.4602 -0.3450
  170SAPE  H16X19218   0.735   5.140   4.912 -0.4758 -0.5300  0.0431
  170SAPE  H16Y19219   0.850   5.199   4.796  1.2514  0.6347 -1.1884
  170SAPE  C31719220   0.915   5.026   4.921 -0.2446 -0.7845  0.4088
  170SAPE  H17X19221   0.994   5.001   4.847 -1.0891 -1.7900 -0.1783
  170SAPE  H17Y19222   0.870   4.934   4.965 -0.8560  0.4675  2.5714
  170SAPE  C31819223   0.968   5.121   5.028 -0.1455 -0.4907 -0.1898
  170SAPE  H18X19224   1.040   5.069   5.095  0.3796  0.4368 -0.0161
  170SAPE  H18Y19225   0.885   5.159   5.091  0.9219  0.5680  0.6385
  170SAPE  H18Z19226   1.029   5.204   4.985  2.7025 -1.8706  0.9163
  171SAPE     N19227   1.394   5.404   2.835 -1.4133 -0.5245  0.2223
  171SAPE   HN119228   1.382   5.495   2.885  1.4229 -0.3766  0.8050
  171SAPE   HN219229   1.396   5.326   2.904 -0.3656  0.8742  1.8533
  171SAPE   HN319230   1.486   5.419   2.791 -0.4724  1.7967  2.6726
  171SAPE   C1219231   1.294   5.391   2.725  0.0785 -0.2263  0.1352
  171SAPE  H12A19232   1.331   5.461   2.648  0.7662 -0.9130 -0.1720
  171SAPE  H12B19233   1.202   5.403   2.786 -0.1929 -0.5123 -0.2114
  171SAPE   C1119234   1.304   5.245   2.675 -0.4187 -0.3612  0.1473
  171SAPE  H11A19235   1.394   5.227   2.612  0.1205  1.4864  0.3181
  171SAPE  H11B19236   1.221   5.239   2.602  0.4921 -1.6877 -0.8284
  171SAPE     P19237   1.260   5.005   2.741 -0.3369  0.0491  0.5824
  171SAPE   O1319238   1.144   5.012   2.645  0.7823  0.3871  0.1200
  171SAPE   O1419239   1.380   4.945   2.681 -0.3605 -0.6185  0.0860
  171SAPE   O1219240   1.291   5.152   2.787  0.6024 -0.1748  0.3626
  171SAPE   O1119241   1.224   4.940   2.879  1.6305  0.2990  0.0166
  171SAPE    C119242   1.097   4.967   2.947  0.0426  0.4552  0.1950
  171SAPE    HA19243   1.084   5.076   2.956  0.5158  0.5726 -0.4321
  171SAPE    HB19244   1.010   4.936   2.885  0.3943  0.7717 -0.4641
  171SAPE    C219245   1.087   4.889   3.088  0.1076  0.3142  0.5220
  171SAPE    HS19246   1.184   4.904   3.140  0.9705 -1.2085 -0.5763
  171SAPE   O2119247   1.052   4.751   3.061 -0.0264 -0.2812  0.0815
  171SAPE   C2119248   1.153   4.667   3.045  0.5609  0.3129  0.5584
  171SAPE   O2219249   1.271   4.684   3.073 -0.1294  0.4745 -0.5028
  171SAPE   C2219250   1.113   4.537   2.967 -0.4032  0.6104 -0.0951
  171SAPE   H2R19251   1.024   4.570   2.908  0.6933 -0.2409 -2.3215
  171SAPE   H2S19252   1.204   4.517   2.908 -0.0659  0.2740  0.5288
  171SAPE    C319253   0.971   4.941   3.179 -0.4749 -0.5985 -0.3002
  171SAPE    HX19254   0.882   4.944   3.114  0.3135  1.5627 -1.3889
  171SAPE    HY19255   0.987   5.047   3.211  1.4049 -0.0677 -2.7241
  171SAPE   O3119256   0.938   4.867   3.291 -0.3119  0.0056 -0.7348
  171SAPE   C3119257   1.022   4.869   3.401 -0.5558 -0.4911  0.9014
  171SAPE   O3219258   1.118   4.946   3.406  0.2814 -0.2965  0.2311
  171SAPE   C3219259   0.994   4.760   3.500  0.0841  1.2496  1.4089
  171SAPE   H2X19260   1.035   4.662   3.466 -1.2123  1.4448 -0.8857
  171SAPE   H2Y19261   0.883   4.753   3.507  0.1283 -1.4638  0.5124
  171SAPE   C2319262   1.066   4.418   3.055 -0.3723 -0.5273 -0.1610
  171SAPE   H3R19263   1.038   4.339   2.983  0.6803 -0.0418 -1.1311
  171SAPE   H3S19264   0.973   4.450   3.107  0.0776 -1.6575  1.4030
  171SAPE   C2419265   1.170   4.366   3.145  0.8171  0.8723  0.0320
  171SAPE   H4R19266   1.202   4.444   3.218  1.0848 -0.0753  0.9461
  171SAPE   H4S19267   1.257   4.342   3.081 -0.0405  1.6051 -1.4804
  171SAPE   C2519268   1.108   4.242   3.213 -0.0868  0.0028  0.4253
  171SAPE   H5R19269   1.099   4.155   3.147 -0.2686  0.0667  0.3662
  171SAPE   C2619270   1.056   4.236   3.340 -0.4764  0.2148 -0.1792
  171SAPE   H6R19271   1.011   4.145   3.381 -1.8823  0.9550 -0.0220
  171SAPE   C2719272   1.041   4.353   3.432 -0.2125 -0.2232  0.2185
  171SAPE   H7R19273   0.946   4.338   3.488  0.4185  0.1474  1.4226
  171SAPE   H7S19274   1.034   4.442   3.366  1.1798  0.9207  1.5319
  171SAPE   C2819275   1.155   4.381   3.523 -0.1758  0.0465  0.9084
  171SAPE   H8R19276   1.235   4.439   3.475 -0.5838 -0.5420 -0.5328
  171SAPE   C2919277   1.157   4.361   3.652 -0.1408 -0.0721 -0.3671
  171SAPE   H9R19278   1.251   4.386   3.704 -0.7042  2.0536 -0.2908
  171SAPE  C21019279   1.052   4.285   3.731  0.5513  1.2311 -0.6694
  171SAPE  H10R19280   1.008   4.211   3.660  2.3625 -1.5367  0.8595
  171SAPE  H10S19281   0.970   4.355   3.756 -1.2784 -0.3071 -2.0581
  171SAPE  C21119282   1.108   4.216   3.854 -0.0015 -0.8881  0.3894
  171SAPE  H11R19283   1.182   4.136   3.838  1.3886  0.3035  0.6530
  171SAPE  C21219284   1.076   4.240   3.981  0.0675  0.0440 -0.3487
  171SAPE  H12R19285   1.132   4.179   4.053 -1.2838  0.8692  1.4862
  171SAPE  C21319286   0.989   4.351   4.036 -0.2479 -0.4057 -0.1998
  171SAPE  H13R19287   0.892   4.358   3.983 -0.5305  1.2589  0.4640
  171SAPE  H13S19288   1.051   4.438   4.007 -0.2950  1.0600  3.4831
  171SAPE  C21419289   0.968   4.362   4.189  0.1590 -0.1045  0.4216
  171SAPE  H14R19290   1.031   4.437   4.240  0.0502 -0.4649  1.1041
  171SAPE  C21519291   0.883   4.288   4.269 -0.0524  0.3176  0.1844
  171SAPE  H15R19292   0.886   4.309   4.377  1.4184  1.3091 -0.0231
  171SAPE  C21619293   0.798   4.177   4.230 -0.0524  0.1856 -0.0576
  171SAPE  H16R19294   0.788   4.186   4.120 -2.4803 -0.3475  0.0431
  171SAPE  H16S19295   0.694   4.191   4.267  0.5923  0.7025  1.6813
  171SAPE  C21719296   0.854   4.041   4.268  0.0772  0.8890 -0.1114
  171SAPE  H17R19297   0.961   4.034   4.239 -0.2605 -1.7612 -0.9748
  171SAPE  H17S19298   0.811   3.967   4.198  2.8023  0.6748 -1.7193
  171SAPE  C21819299   0.834   4.016   4.422  0.0001 -0.7090  0.0974
  171SAPE  H18R19300   0.726   3.991   4.436 -0.7219  1.0817 -1.7613
  171SAPE  H18S19301   0.848   4.099   4.495  2.7129 -0.0654 -1.0372
  171SAPE  C21919302   0.913   3.896   4.467 -0.4368 -0.3585 -0.4347
  171SAPE  H19R19303   1.024   3.907   4.464 -0.1666 -2.1376  1.4369
  171SAPE  H19S19304   0.892   3.813   4.397  1.5097 -0.6880 -0.6799
  171SAPE  C22019305   0.877   3.839   4.603 -0.0303  0.6402 -0.1268
  171SAPE  H20R19306   0.766   3.832   4.607 -0.0507  0.0423 -1.3625
  171SAPE  H20S19307   0.892   3.914   4.684 -0.4958 -1.9127  2.4961
  171SAPE  H20T19308   0.923   3.741   4.626  1.8340  0.8543 -2.5941
  171SAPE   C3319309   1.040   4.785   3.644 -0.0770  0.4351  0.2201
  171SAPE   H3X19310   1.113   4.870   3.644 -1.5105  1.7020  0.3245
  171SAPE   H3Y19311   1.088   4.694   3.685 -1.8894 -0.5596  0.1786
  171SAPE   C3419312   0.932   4.828   3.734  0.4243  0.7845  0.0907
  171SAPE   H4X19313   0.839   4.776   3.702  1.2216  0.6370 -2.1589
  171SAPE   H4Y19314   0.907   4.933   3.710 -2.3373 -0.2501 -2.2115
  171SAPE   C3519315   0.960   4.798   3.877 -0.4959 -0.1748  0.1181
  171SAPE   H5X19316   1.064   4.833   3.894 -0.2339 -2.1081  3.3805
  171SAPE   H5Y19317   0.959   4.688   3.891 -1.7413  0.0847  2.4527
  171SAPE   C3619318   0.860   4.860   3.973 -0.2836 -0.0611  0.8186
  171SAPE   H6X19319   0.754   4.845   3.945 -0.1223  0.5904 -0.2063
  171SAPE   H6Y19320   0.886   4.968   3.983  0.6148  0.0241 -1.6906
  171SAPE   C3719321   0.867   4.799   4.107 -0.1318  0.2314  0.0679
  171SAPE   H7X19322   0.844   4.691   4.114 -0.0363  0.3144  2.3616
  171SAPE   H7Y19323   0.787   4.844   4.169 -0.4620  0.8964 -0.8151
  171SAPE   C3819324   1.002   4.817   4.183 -0.5175 -0.1950 -0.3589
  171SAPE   H8X19325   1.055   4.911   4.153 -1.6134 -0.1478 -2.3186
  171SAPE   H8Y19326   1.081   4.741   4.167 -0.2577  0.5157 -2.9417
  171SAPE   C3919327   0.985   4.815   4.338 -0.4074  0.5851  0.2397
  171SAPE   H9X19328   0.899   4.882   4.361 -1.5062 -1.0535  1.1404
  171SAPE   H9Y19329   1.083   4.838   4.384 -0.7740  1.5348  0.5685
  171SAPE  C31019330   0.951   4.675   4.394 -0.2297 -0.1050 -0.3630
  171SAPE  H10X19331   1.029   4.598   4.410 -1.1773 -0.7579  1.4348
  171SAPE  H10Y19332   0.872   4.630   4.331 -0.7429 -0.1535  0.2952
  171SAPE  C31119333   0.882   4.695   4.536 -0.1569  0.1830  0.4193
  171SAPE  H11X19334   0.803   4.772   4.526  0.0297  0.1762 -1.5113
  171SAPE  H11Y19335   0.956   4.739   4.606 -0.4682  2.3913 -0.5645
  171SAPE  C31219336   0.819   4.567   4.589  0.6235 -0.4614  0.0259
  171SAPE  H12X19337   0.897   4.491   4.610  1.5383  0.4572  0.0547
  171SAPE  H12Y19338   0.748   4.520   4.518 -0.0175 -0.1860  0.4681
  171SAPE  C31319339   0.736   4.600   4.716 -0.7026  0.2105 -0.1897
  171SAPE  H13X19340   0.631   4.612   4.682 -0.5754 -0.7857 -1.0159
  171SAPE  H13Y19341   0.781   4.686   4.768  3.7327 -1.8322 -0.1812
  171SAPE  C31419342   0.742   4.490   4.820 -0.0003  0.4998  0.8949
  171SAPE  H14X19343   0.845   4.465   4.855 -1.0007 -0.5100  3.3521
  171SAPE  H14Y19344   0.704   4.397   4.773 -2.6003  1.9645 -0.0789
  171SAPE  C31519345   0.644   4.506   4.939  0.0958 -1.1243  0.2106
  171SAPE  H15X19346   0.659   4.425   5.014  0.8562 -1.3123 -0.1376
  171SAPE  H15Y19347   0.536   4.493   4.914  0.0560 -1.2144  0.4230
  171SAPE  C31619348   0.657   4.642   5.015  0.1173 -0.2022  0.0966
  171SAPE  H16X19349   0.763   4.673   5.003 -0.3441  1.2969 -0.3082
  171SAPE  H16Y19350   0.633   4.618   5.121  1.3706  1.3849  0.7769
  171SAPE  C31719351   0.555   4.750   4.965  0.0855  0.3055 -0.7188
  171SAPE  H17X19352   0.452   4.714   4.982  0.2313  0.7527  1.3868
  171SAPE  H17Y19353   0.575   4.772   4.858  2.8232  0.7161 -0.2090
  171SAPE  C31819354   0.567   4.882   5.042 -0.3812  0.2075  0.2864
  171SAPE  H18X19355   0.548   4.874   5.151  0.6278  3.1862  0.7848
  171SAPE  H18Y19356   0.492   4.953   5.002  1.2599  0.3880 -2.8305
  171SAPE  H18Z19357   0.672   4.917   5.028  0.3209 -1.4362  1.1088
  172SAPE     N19358   1.714   5.227   2.260 -0.2335 -0.5916  0.3085
  172SAPE   HN119359   1.778   5.227   2.342 -0.1259  0.5244  0.2497
  172SAPE   HN219360   1.718   5.126   2.238  0.4547 -0.5981  0.4280
  172SAPE   HN319361   1.756   5.281   2.182  0.5248 -2.0912 -0.3641
  172SAPE   C1219362   1.581   5.279   2.309 -0.1189  0.1129 -0.1908
  172SAPE  H12A19363   1.519   5.190   2.332  1.3985 -0.9534 -0.1343
  172SAPE  H12B19364   1.532   5.332   2.224  0.1810 -1.7542 -1.5759
  172SAPE   C1119365   1.590   5.374   2.430 -0.5665  0.4528 -0.2353
  172SAPE  H11A19366   1.491   5.415   2.458 -0.3622  0.0828  1.0908
  172SAPE  H11B19367   1.655   5.463   2.411 -0.3268  0.3746  0.1991
  172SAPE     P19368   1.718   5.358   2.653 -0.3498 -0.5183 -0.0292
  172SAPE   O1319369   1.844   5.398   2.586 -0.9354 -0.8864  0.2519
  172SAPE   O1419370   1.644   5.454   2.737  0.5810  0.7216  0.2320
  172SAPE   O1219371   1.625   5.295   2.544  0.7314  0.2524 -0.0957
  172SAPE   O1119372   1.734   5.232   2.745  0.2045 -0.4859  0.4284
  172SAPE    C119373   1.827   5.228   2.848 -0.2578  0.1397  0.2112
  172SAPE    HA19374   1.901   5.146   2.832  1.7146  1.0100  3.8118
  172SAPE    HB19375   1.873   5.326   2.872  1.1718 -0.0450 -1.5552
  172SAPE    C219376   1.755   5.177   2.975  0.3377  0.1557  0.7344
  172SAPE    HS19377   1.710   5.263   3.028  1.7046  1.6482 -0.4199
  172SAPE   O2119378   1.841   5.109   3.064  0.0630 -0.0453  1.0850
  172SAPE   C2119379   1.917   5.183   3.142  0.7106 -0.0070  0.1312
  172SAPE   O2219380   1.910   5.301   3.158  0.1974 -0.6840  0.0332
  172SAPE   C2219381   2.012   5.102   3.234 -0.1453  0.5423 -0.3056
  172SAPE   H2R19382   1.979   4.997   3.248  2.7862 -0.3064  1.1105
  172SAPE   H2S19383   2.114   5.105   3.190 -0.0272  0.7054 -0.0208
  172SAPE    C319384   1.643   5.071   2.947 -0.4622  0.4642  0.6512
  172SAPE    HX19385   1.695   4.980   2.909  0.5885  1.3755 -0.1827
  172SAPE    HY19386   1.581   5.112   2.863 -0.8434  1.8078  1.5599
  172SAPE   O3119387   1.567   5.039   3.066 -0.0764  0.2438 -0.0692
  172SAPE   C3119388   1.478   5.129   3.097  0.1717 -0.2243  0.4007
  172SAPE   O3219389   1.464   5.242   3.044 -0.1562  0.2465  0.2295
  172SAPE   C3219390   1.407   5.080   3.228 -0.1136 -0.1708  0.2073
  172SAPE   H2X19391   1.391   4.971   3.214  3.6972 -0.6767 -1.4607
  172SAPE   H2Y19392   1.310   5.134   3.236 -1.0945 -1.9133  0.8726
  172SAPE   C2319393   2.012   5.169   3.373 -0.0801 -0.2473 -0.8970
  172SAPE   H3R19394   1.914   5.206   3.410  0.0144  1.0752 -1.8732
  172SAPE   H3S19395   2.067   5.266   3.373 -0.6003  0.0541 -0.6162
  172SAPE   C2419396   2.072   5.072   3.480  0.7948 -0.5642  0.1065
  172SAPE   H4R19397   2.107   5.121   3.573 -0.8701 -1.9001  1.5206
  172SAPE   H4S19398   2.157   5.028   3.424 -0.1964 -1.6140 -0.6244
  172SAPE   C2519399   1.990   4.952   3.512  0.2507  0.6507  0.4692
  172SAPE   H5R19400   1.989   4.874   3.434  0.6653 -0.8354  1.8877
  172SAPE   C2619401   1.916   4.934   3.624 -0.1612 -0.4586  0.1448
  172SAPE   H6R19402   1.867   4.839   3.649 -1.2103 -0.0329 -0.2238
  172SAPE   C2719403   1.906   5.038   3.738  1.0040  1.1979 -0.0329
  172SAPE   H7R19404   1.813   5.031   3.798 -0.2540 -1.7913 -2.0906
  172SAPE   H7S19405   1.886   5.140   3.700  1.1462  1.3365  0.2622
  172SAPE   C2819406   2.032   5.025   3.827  0.3036 -0.2192 -0.8049
  172SAPE   H8R19407   2.127   5.034   3.772  0.3623  2.7259 -0.3928
  172SAPE   C2919408   2.050   4.997   3.960  0.6103 -0.1486  0.0332
  172SAPE   H9R19409   2.150   4.990   4.006  0.0493 -1.5098  1.0932
  172SAPE  C21019410   1.936   4.976   4.058  0.1650 -0.3712 -0.9100
  172SAPE  H10R19411   1.937   4.869   4.088  1.6361 -0.6696 -1.9294
  172SAPE  H10S19412   1.834   4.992   4.017  0.8543  0.9367 -2.2151
  172SAPE  C21119413   1.955   5.063   4.185 -0.4956  0.3647 -0.2368
  172SAPE  H11R19414   1.945   5.170   4.160  0.8740  0.2570 -1.3878
  172SAPE  C21219415   1.994   5.025   4.316  0.3340  0.7533 -0.2285
  172SAPE  H12R19416   2.005   5.096   4.400  3.3838 -1.2179  1.2429
  172SAPE  C21319417   2.009   4.880   4.361 -0.1089  0.2614 -0.6168
  172SAPE  H13R19418   2.055   4.819   4.281 -2.4505 -0.0074 -1.8535
  172SAPE  H13S19419   1.907   4.840   4.378  0.1463 -0.2701 -0.3154
  172SAPE  C21419420   2.096   4.862   4.483 -0.2703  0.0986 -0.2069
  172SAPE  H14R19421   2.183   4.797   4.464  0.0990  0.4589  0.2226
  172SAPE  C21519422   2.076   4.915   4.609  0.3857  0.3821 -0.0652
  172SAPE  H15R19423   2.154   4.872   4.673  1.1512 -2.9338 -2.8690
  172SAPE  C21619424   1.973   5.010   4.660  0.0699 -0.8198 -0.5661
  172SAPE  H16R19425   1.903   4.939   4.709  0.6602 -0.0903  1.4083
  172SAPE  H16S19426   1.919   5.061   4.577  0.4058 -0.7234 -0.7275
  172SAPE  C21719427   2.010   5.117   4.768  0.3595  0.5186 -0.2997
  172SAPE  H17R19428   1.932   5.196   4.763  1.5819  1.7296 -2.7303
  172SAPE  H17S19429   2.102   5.171   4.734  0.7036  0.7618  0.9629
  172SAPE  C21819430   2.022   5.056   4.906  0.2779  0.6742  0.5276
  172SAPE  H18R19431   2.106   4.984   4.921  1.0579  1.7484  1.4373
  172SAPE  H18S19432   1.935   4.990   4.927 -0.2902  1.0306 -0.6164
  172SAPE  C21919433   2.021   5.171   5.001 -0.5216 -0.3463  0.5106
  172SAPE  H19R19434   1.920   5.212   5.024 -0.0613  0.2010  1.6295
  172SAPE  H19S19435   2.087   5.250   4.960  0.7388 -2.9448 -2.9912
  172SAPE  C22019436   2.084   5.133   5.134 -0.5864  0.5207  0.4153
  172SAPE  H20R19437   2.191   5.102   5.124 -0.6177  0.5728 -0.1400
  172SAPE  H20S19438   2.028   5.045   5.172  0.0731 -0.4037 -0.6805
  172SAPE  H20T19439   2.091   5.212   5.211  2.4007 -1.3317  2.2497
  172SAPE   C3319440   1.504   5.109   3.344  0.5704  0.7117  0.2858
  172SAPE   H3X19441   1.607   5.067   3.337  0.5929  0.4161  1.9750
  172SAPE   H3Y19442   1.463   5.049   3.428  1.1742  0.8763  0.7114
  172SAPE   C3419443   1.518   5.258   3.378  0.0540  0.0402 -0.3950
  172SAPE   H4X19444   1.423   5.304   3.345 -0.6127  2.1316  3.6883
  172SAPE   H4Y19445   1.594   5.313   3.318 -0.5225  0.8562 -0.3989
  172SAPE   C3519446   1.523   5.288   3.528  0.0980  0.4679  0.6578
  172SAPE   H5X19447   1.530   5.398   3.542 -0.1143  0.7707 -1.2677
  172SAPE   H5Y19448   1.625   5.252   3.555 -0.3193  0.1743  1.9032
  172SAPE   C3619449   1.411   5.229   3.610  0.7048  0.2858 -0.9037
  172SAPE   H6X19450   1.402   5.118   3.599 -3.1915  0.3802 -0.1295
  172SAPE   H6Y19451   1.317   5.282   3.585  1.7075  3.2749  1.1750
  172SAPE   C3719452   1.438   5.239   3.759 -0.4066  0.1193 -0.5112
  172SAPE   H7X19453   1.457   5.346   3.781  2.2396 -0.8560  2.7367
  172SAPE   H7Y19454   1.532   5.183   3.774 -0.7759 -0.4174 -0.1494
  172SAPE   C3819455   1.327   5.181   3.840 -0.2045  1.0310 -0.3081
  172SAPE   H8X19456   1.316   5.077   3.801 -0.6636  1.0296 -0.1795
  172SAPE   H8Y19457   1.233   5.234   3.811 -0.8097 -0.7053 -1.7266
  172SAPE   C3919458   1.335   5.179   3.998 -0.0818  0.2194 -0.3819
  172SAPE   H9X19459   1.368   5.279   4.033 -1.0273  0.4540 -0.1351
  172SAPE   H9Y19460   1.408   5.103   4.032 -1.2866 -0.8519 -0.1126
  172SAPE  C31019461   1.200   5.149   4.064  0.1286  0.4428  0.2940
  172SAPE  H10X19462   1.150   5.058   4.025  0.3905 -0.4060  1.8680
  172SAPE  H10Y19463   1.133   5.238   4.061 -1.2420 -0.5680  0.1326
  172SAPE  C31119464   1.228   5.121   4.213 -0.3443 -0.0554  0.0753
  172SAPE  H11X19465   1.321   5.173   4.244 -0.4197  0.7953 -1.0422
  172SAPE  H11Y19466   1.252   5.018   4.245 -1.2171 -0.1430  0.4848
  172SAPE  C31219467   1.117   5.167   4.308  0.5821  0.0444 -0.8176
  172SAPE  H12X19468   1.025   5.108   4.289 -0.2472  1.4539 -1.3537
  172SAPE  H12Y19469   1.085   5.273   4.296 -1.1369 -0.2076  1.0693
  172SAPE  C31319470   1.161   5.142   4.451  0.6378  0.1825  0.8484
  172SAPE  H13X19471   1.252   5.204   4.464  0.5818  0.1785  1.2579
  172SAPE  H13Y19472   1.187   5.034   4.447 -0.3642 -0.0454  0.0161
  172SAPE  C31419473   1.045   5.179   4.539 -0.1647  0.6265  0.0693
  172SAPE  H14X19474   1.033   5.105   4.621 -0.7300  1.1268  0.4503
  172SAPE  H14Y19475   0.952   5.174   4.480 -0.5578 -4.3315  0.7046
  172SAPE  C31519476   1.079   5.310   4.598  0.1892  0.0923 -0.7778
  172SAPE  H15X19477   0.993   5.350   4.656 -1.3266  1.6237 -3.8503
  172SAPE  H15Y19478   1.097   5.388   4.521 -1.5595 -0.8082 -2.1709
  172SAPE  C31619479   1.188   5.306   4.707 -0.0916  0.3063 -0.1814
  172SAPE  H16X19480   1.287   5.277   4.665 -0.3062  0.8520 -1.1086
  172SAPE  H16Y19481   1.157   5.243   4.793 -0.9316 -0.1619 -0.8095
  172SAPE  C31719482   1.200   5.449   4.756 -0.4551  0.3161 -0.1931
  172SAPE  H17X19483   1.101   5.479   4.797 -1.7224 -2.5301 -0.9477
  172SAPE  H17Y19484   1.227   5.505   4.664 -3.0981 -0.4531 -1.5269
  172SAPE  C31819485   1.307   5.475   4.861 -0.2609 -0.4519 -0.0141
  172SAPE  H18X19486   1.398   5.411   4.867  0.5380  0.7266  1.1012
  172SAPE  H18Y19487   1.262   5.467   4.962 -0.8558  2.4861  0.0449
  172SAPE  H18Z19488   1.353   5.575   4.848 -1.7493  0.3993  0.9356
  173SLPC     N19489   2.199   0.546   7.592  0.4743 -0.5445  0.4314
  173SLPC   C1319490   2.290   0.453   7.662 -0.1196 -0.0413 -0.0729
  173SLPC  H13A19491   2.381   0.499   7.697 -0.7968  1.5311 -0.3036
  173SLPC  H13B19492   2.232   0.409   7.741 -2.2091 -1.4950 -2.2685
  173SLPC  H13C19493   2.335   0.384   7.593  2.6537  0.8789  0.6778
  173SLPC   C1419494   2.159   0.662   7.679 -0.0642 -0.0242 -1.1879
  173SLPC  H14A19495   2.238   0.691   7.746 -1.4935  1.2267  0.0227
  173SLPC  H14B19496   2.121   0.744   7.620  0.4166  0.0092 -1.4587
  173SLPC  H14C19497   2.074   0.636   7.740 -1.5038 -0.6929 -3.3578
  173SLPC   C1519498   2.068   0.481   7.556  0.8667  0.5214  0.3717
  173SLPC  H15A19499   2.024   0.422   7.636  1.0898  0.8878  0.7739
  173SLPC  H15B19500   1.995   0.558   7.536 -0.5111 -0.4391  1.4898
  173SLPC  H15C19501   2.082   0.427   7.464  1.4607  1.3211 -0.0134
  173SLPC   C1219502   2.273   0.602   7.463  0.5476 -0.4152 -0.0085
  173SLPC  H12A19503   2.274   0.513   7.401  2.5196 -1.1215  0.9304
  173SLPC  H12B19504   2.378   0.620   7.480  0.4683  0.1272 -0.0762
  173SLPC   C1119505   2.208   0.723   7.392 -0.4136 -0.0253 -0.0940
  173SLPC  H11A19506   2.277   0.756   7.311  0.2436 -0.2811  0.3544
  173SLPC  H11B19507   2.201   0.804   7.467  0.0013 -0.1104  0.0410
  173SLPC     P19508   2.008   0.759   7.220 -0.0058  0.2108 -0.1174
  173SLPC   O1319509   1.861   0.744   7.219  0.1052  0.5778  0.1462
  173SLPC   O1419510   2.056   0.898   7.208  0.2945 -0.6408 -0.1773
  173SLPC   O1219511   2.070   0.698   7.352  0.0595 -0.7650  0.2598
  173SLPC   O1119512   2.071   0.686   7.100 -0.0417 -0.6596 -0.3713
  173SLPC    C119513   2.133   0.558   7.103 -0.2937  0.3184 -0.3372
  173SLPC    HA19514   2.242   0.571   7.115 -0.2162  1.1047 -1.7909
  173SLPC    HB19515   2.105   0.488   7.186  0.6647 -1.3233 -1.3463
  173SLPC    C219516   2.107   0.474   6.977 -0.0253 -0.3022  0.3951
  173SLPC    HS19517   2.147   0.530   6.890  0.1543 -2.3847 -0.9214
  173SLPC   O2119518   1.968   0.468   6.947 -0.4269 -0.8288 -0.2575
  173SLPC   C2119519   1.874   0.440   7.035 -0.0761 -0.0481  0.1054
  173SLPC   O2219520   1.889   0.407   7.153 -0.1038  0.1141  0.3457
  173SLPC   C2219521   1.740   0.436   6.963  0.4225  0.5043 -0.4477
  173SLPC   H2R19522   1.652   0.406   7.023  1.6578 -3.5882 -0.3427
  173SLPC   H2S19523   1.717   0.544   6.949  1.8700  0.6613 -1.9073
  173SLPC    C319524   2.162   0.326   6.983  0.3218 -0.3131  0.0192
  173SLPC    HX19525   2.124   0.280   7.077 -1.1512  0.0962 -0.3514
  173SLPC    HY19526   2.273   0.336   6.979  0.1508  1.4821 -1.9772
  173SLPC   O3119527   2.115   0.259   6.866  0.1939  0.2269 -0.1105
  173SLPC   C3119528   2.198   0.233   6.767  0.7858 -0.4478  1.1453
  173SLPC   O3219529   2.316   0.258   6.764 -0.3803  0.2220  0.2103
  173SLPC   C3219530   2.119   0.173   6.647  0.4663 -0.2221 -0.0851
  173SLPC   H2X19531   2.024   0.231   6.640  0.0003 -0.9755 -0.1512
  173SLPC   H2Y19532   2.077   0.080   6.690  0.5840  0.2227  1.0056
  173SLPC   C2319533   1.733   0.372   6.820 -0.3871  0.8907  0.4523
  173SLPC   H3R19534   1.825   0.400   6.764 -1.3930  1.7163 -0.8597
  173SLPC   H3S19535   1.648   0.421   6.768 -0.3062  0.6425  0.0793
  173SLPC   C2419536   1.703   0.222   6.822  0.0561  0.3082 -0.0605
  173SLPC   H4R19537   1.786   0.179   6.882 -0.1802 -0.2927 -0.1622
  173SLPC   H4S19538   1.727   0.188   6.719 -0.8966  0.2963 -0.2869
  173SLPC   C2519539   1.564   0.178   6.883 -0.0893  0.4566  0.9168
  173SLPC   H5R19540   1.510   0.275   6.886  0.0972  0.8787 -3.1848
  173SLPC   H5S19541   1.568   0.146   6.989 -0.5211  0.7990  1.0442
  173SLPC   C2619542   1.482   0.078   6.794  0.8153  0.7964  0.3987
  173SLPC   H6R19543   1.491   0.113   6.689  2.8082 -1.2393 -0.1992
  173SLPC   H6S19544   1.373   0.085   6.810  0.4846 -1.1194 -0.7136
  173SLPC   C2719545   1.532  -0.070   6.811 -0.2401  0.1638 -0.0314
  173SLPC   H7R19546   1.465  -0.127   6.880 -0.1644 -2.2917 -1.8738
  173SLPC   H7S19547   1.626  -0.058   6.869 -0.1965  1.0453 -0.2729
  173SLPC   C2819548   1.566  -0.134   6.678  0.1756 -0.0680  0.2477
  173SLPC   H8R19549   1.625  -0.227   6.695  1.5672  0.6900 -0.2779
  173SLPC   H8S19550   1.624  -0.055   6.626 -2.0282  0.5887 -1.3935
  173SLPC   C2919551   1.447  -0.175   6.604  0.5169  0.3595  1.1925
  173SLPC   H9R19552   1.369  -0.220   6.666 -1.4064  1.5565 -0.2545
  173SLPC  C21019553   1.423  -0.155   6.473  0.0315  0.3299 -0.2963
  173SLPC  H10R19554   1.331  -0.197   6.430 -0.6403 -0.9120  2.1582
  173SLPC  C21119555   1.517  -0.082   6.376  0.2643  0.7885 -0.1242
  173SLPC  H11R19556   1.620  -0.107   6.408 -0.2263  0.1894  1.0265
  173SLPC  H11S19557   1.501   0.028   6.371 -2.3229  0.4463 -1.5370
  173SLPC  C21219558   1.512  -0.125   6.229  0.0414 -0.0028 -0.2729
  173SLPC  H12R19559   1.437  -0.200   6.200  1.1474 -0.4010 -2.2539
  173SLPC  C21319560   1.588  -0.071   6.130 -0.1182  0.0038 -0.4131
  173SLPC  H13R19561   1.574  -0.110   6.028  0.5253 -4.1446  0.8835
  173SLPC  C21419562   1.681   0.048   6.153 -0.2646 -0.2554  0.7799
  173SLPC  H14R19563   1.786   0.012   6.149 -0.5047 -0.8630 -0.9263
  173SLPC  H14S19564   1.670   0.095   6.252 -3.0914 -0.1429  0.4972
  173SLPC  C21519565   1.662   0.161   6.056 -0.1712 -0.3240  0.1009
  173SLPC  H15R19566   1.680   0.116   5.956 -0.9674  3.0593 -1.7123
  173SLPC  H15S19567   1.748   0.229   6.076 -1.8084  3.0915 -3.2649
  173SLPC  C21619568   1.517   0.227   6.058 -0.2323  0.6782  0.1704
  173SLPC  H16R19569   1.510   0.319   6.120 -1.4736 -0.3665  1.6393
  173SLPC  H16S19570   1.449   0.155   6.107 -1.6799  2.6657  1.2305
  173SLPC  C21719571   1.468   0.258   5.914 -0.4140 -0.2023 -0.3915
  173SLPC  H17R19572   1.359   0.275   5.928 -0.1699  2.2726 -1.0907
  173SLPC  H17S19573   1.483   0.172   5.844 -3.4331 -0.8660 -0.3541
  173SLPC  C21819574   1.536   0.380   5.855  0.0019 -0.2313  0.3771
  173SLPC  H18R19575   1.643   0.361   5.831  0.9675  0.1401  3.8569
  173SLPC  H18S19576   1.529   0.460   5.931 -2.2837  0.1055 -0.1393
  173SLPC  H18T19577   1.477   0.416   5.768 -0.6298  0.1007  0.9348
  173SLPC   C3319578   2.183   0.155   6.510  0.2976 -0.0352 -0.3828
  173SLPC   H3X19579   2.265   0.080   6.511  1.7582  1.4818  1.3973
  173SLPC   H3Y19580   2.240   0.241   6.470  1.5536 -0.5957  0.1726
  173SLPC   C3419581   2.083   0.118   6.402 -0.2801  0.5369  0.3548
  173SLPC   H4X19582   2.006   0.194   6.379 -0.9509 -0.1343  0.3727
  173SLPC   H4Y19583   2.017   0.035   6.433 -1.2528  0.6644 -1.2359
  173SLPC   C3519584   2.149   0.072   6.270  0.3988 -0.1684  0.2448
  173SLPC   H5X19585   2.226  -0.006   6.286 -1.9898 -2.7359  0.0682
  173SLPC   H5Y19586   2.192   0.166   6.228  0.6069 -0.2262  0.3335
  173SLPC   C3619587   2.044   0.034   6.165  0.1376  0.4306  0.1145
  173SLPC   H6X19588   1.965   0.111   6.154  0.3742  0.8181  1.0159
  173SLPC   H6Y19589   1.994  -0.061   6.194 -1.9571  2.0589  2.2383
  173SLPC   C3719590   2.103   0.004   6.018 -0.5763 -0.8407 -0.3412
  173SLPC   H7X19591   2.168  -0.086   6.014  0.2235 -0.2767 -0.0541
  173SLPC   H7Y19592   2.166   0.091   5.992 -0.1112 -1.4737 -1.4047
  173SLPC   C3819593   2.001  -0.009   5.905  0.1099  0.3949 -0.5881
  173SLPC   H8X19594   1.919   0.066   5.908  0.2049  0.7015 -3.0828
  173SLPC   H8Y19595   1.954  -0.109   5.896 -2.8303  1.6652 -0.4339
  173SLPC   C3919596   2.073   0.006   5.768 -0.1760  0.1553 -0.1278
  173SLPC   H9X19597   2.173  -0.043   5.757 -0.3384 -0.1747 -0.1415
  173SLPC   H9Y19598   2.088   0.115   5.756  1.5173 -0.0887 -0.6007
  173SLPC  C31019599   1.982  -0.037   5.653 -0.2322  0.3241  0.1571
  173SLPC  H10X19600   1.947  -0.140   5.676  1.6841 -0.5151 -0.4587
  173SLPC  H10Y19601   2.044  -0.042   5.561 -0.7246  2.6688 -0.3524
  173SLPC  C31119602   1.856   0.051   5.633 -0.6483 -0.6522  0.0869
  173SLPC  H11X19603   1.879   0.159   5.622 -1.3844  0.0146  3.6123
  173SLPC  H11Y19604   1.800   0.050   5.729 -0.1097  0.3663  0.4311
  173SLPC  C31219605   1.748   0.011   5.530  0.6563  0.8136 -0.0244
  173SLPC  H12X19606   1.789   0.042   5.431 -0.1827  2.2119  0.0390
  173SLPC  H12Y19607   1.657   0.072   5.551 -0.5511 -1.6836  2.7673
  173SLPC  C31319608   1.719  -0.134   5.527  0.0794  0.9363  0.4354
  173SLPC  H13X19609   1.727  -0.175   5.631  1.3433 -0.0660 -0.0288
  173SLPC  H13Y19610   1.788  -0.200   5.472 -3.5066 -0.5965 -2.6943
  173SLPC  C31419611   1.586  -0.170   5.468  0.8492 -0.1691 -0.5616
  173SLPC  H14X19612   1.587  -0.276   5.435  1.0972  0.0948 -1.4291
  173SLPC  H14Y19613   1.568  -0.114   5.374 -0.4512 -0.8013 -0.7163
  173SLPC  C31519614   1.462  -0.144   5.564 -0.3002 -0.3569  0.3109
  173SLPC  H15X19615   1.364  -0.165   5.517  0.5400 -2.5585 -0.5719
  173SLPC  H15Y19616   1.471  -0.036   5.589 -0.0517 -0.2485 -0.2242
  173SLPC  C31619617   1.463  -0.220   5.702  0.5786 -0.4035 -0.1404
  173SLPC  H16X19618   1.562  -0.213   5.754  0.3240 -1.6340  0.5551
  173SLPC  H16Y19619   1.450  -0.330   5.700 -0.7325 -0.2518 -1.0680
  173SLPC  C31719620   1.363  -0.147   5.798  0.2458  0.5872 -0.7098
  173SLPC  H17X19621   1.272  -0.124   5.739 -0.9035 -0.2382  0.6789
  173SLPC  H17Y19622   1.406  -0.050   5.831  0.7943  0.1374 -0.0630
  173SLPC  C31819623   1.335  -0.246   5.910  0.6504  0.2364 -0.2955
  173SLPC  H18X19624   1.272  -0.329   5.871 -0.9584  2.0069 -1.6237
  173SLPC  H18Y19625   1.268  -0.195   5.983 -0.9454 -2.4241  0.2491
  173SLPC  H18Z19626   1.423  -0.284   5.966  0.3548 -1.5113 -0.9544
  174SLPC     N19627   4.933   0.963   7.541 -0.4954  0.7932 -0.5803
  174SLPC   C1319628   4.836   1.074   7.529  0.0555  0.0853  0.0202
  174SLPC  H13A19629   4.782   1.069   7.436 -1.2237  2.3501  0.5677
  174SLPC  H13B19630   4.755   1.059   7.599 -0.7627 -0.9229 -1.1043
  174SLPC  H13C19631   4.882   1.172   7.529 -1.8740  1.0451  1.0852
  174SLPC   C1419632   4.870   0.831   7.553 -0.0847 -0.4596  0.2874
  174SLPC  H14A19633   4.949   0.757   7.553 -0.2444 -0.7419 -2.5976
  174SLPC  H14B19634   4.813   0.818   7.644  0.9556  0.4677  1.1119
  174SLPC  H14C19635   4.818   0.817   7.460 -1.9748 -2.4677  1.5744
  174SLPC   C1519636   5.007   0.982   7.673  0.2730 -0.8249  0.4580
  174SLPC  H15A19637   5.042   1.083   7.682 -1.1200 -0.3741  1.0501
  174SLPC  H15B19638   4.953   0.949   7.760  0.5348 -1.3726  0.4236
  174SLPC  H15C19639   5.098   0.923   7.676  0.4474 -0.5390  0.7699
  174SLPC   C1219640   5.022   0.975   7.415 -0.7534  0.1439  0.5138
  174SLPC  H12A19641   5.068   1.072   7.408 -2.4374  0.8845 -0.7018
  174SLPC  H12B19642   4.962   0.983   7.326  1.0428  0.5036 -0.7001
  174SLPC   C1119643   5.136   0.864   7.388  0.9512 -0.3080 -0.0122
  174SLPC  H11A19644   5.199   0.901   7.305  0.8800 -1.4153 -0.5711
  174SLPC  H11B19645   5.078   0.770   7.373  0.9176 -0.9418  3.2695
  174SLPC     P19646   5.326   0.741   7.501 -0.4415  0.0797 -0.1727
  174SLPC   O1319647   5.447   0.806   7.554  0.1660  0.8483 -0.6207
  174SLPC   O1419648   5.278   0.624   7.584  0.1261  0.1483 -0.1375
  174SLPC   O1219649   5.214   0.852   7.505  0.0664  0.0921  0.0522
  174SLPC   O1119650   5.343   0.694   7.344  0.2131 -0.1843  0.3071
  174SLPC    C119651   5.427   0.775   7.254 -0.2778  0.7414 -0.3087
  174SLPC    HA19652   5.401   0.883   7.248  0.2524  0.7879 -2.9836
  174SLPC    HB19653   5.531   0.755   7.288 -0.4119  0.4412 -0.0707
  174SLPC    C219654   5.420   0.714   7.110 -0.5632 -0.4489  0.1802
  174SLPC    HS19655   5.480   0.771   7.036 -2.2198 -0.1663 -1.0056
  174SLPC   O2119656   5.283   0.718   7.062  0.2700 -0.3774 -0.2304
  174SLPC   C2119657   5.228   0.840   7.032 -0.2261 -0.0550 -0.5338
  174SLPC   O2219658   5.290   0.945   7.045 -0.1284  0.1938 -0.2992
  174SLPC   C2219659   5.091   0.836   6.970 -0.2039  0.3470  0.1845
  174SLPC   H2R19660   5.023   0.796   7.049 -2.6082 -0.3589 -2.0744
  174SLPC   H2S19661   5.057   0.937   6.939 -0.4728  0.4753  0.8794
  174SLPC    C319662   5.477   0.575   7.098 -0.3828 -0.1976  0.2354
  174SLPC    HX19663   5.448   0.512   7.185  0.7891  1.2441  1.7193
  174SLPC    HY19664   5.587   0.586   7.104 -0.4382  0.9272 -0.5483
  174SLPC   O3119665   5.438   0.518   6.968 -0.0091  0.5550  0.0693
  174SLPC   C3119666   5.391   0.389   6.967 -0.1619 -0.0363  0.3642
  174SLPC   O3219667   5.369   0.319   7.065 -0.7682 -0.4987 -0.8279
  174SLPC   C3219668   5.366   0.341   6.831  0.4545  0.1181  0.1772
  174SLPC   H2X19669   5.462   0.306   6.786 -1.0942  0.5516 -3.8524
  174SLPC   H2Y19670   5.342   0.421   6.758 -1.2854 -1.4429 -1.0477
  174SLPC   C2319671   5.079   0.735   6.847  0.0241 -0.0932 -0.6884
  174SLPC   H3R19672   4.979   0.688   6.841  0.2982 -0.9769  1.0495
  174SLPC   H3S19673   5.150   0.650   6.852 -1.7711 -1.5905  1.7612
  174SLPC   C2419674   5.111   0.800   6.707  0.1278  0.2335 -0.2750
  174SLPC   H4R19675   5.218   0.833   6.710  0.4865 -0.7470 -1.2751
  174SLPC   H4S19676   5.043   0.887   6.695 -2.6897 -1.8757 -0.3131
  174SLPC   C2519677   5.076   0.708   6.590  0.0489  0.1201 -0.1492
  174SLPC   H5R19678   4.969   0.677   6.590  1.0613 -4.2448 -2.6410
  174SLPC   H5S19679   5.140   0.618   6.607  2.7122  1.4166 -2.5941
  174SLPC   C2619680   5.099   0.769   6.457 -0.1242 -0.0596 -0.8506
  174SLPC   H6R19681   5.207   0.760   6.434  0.1603  0.4195  0.2611
  174SLPC   H6S19682   5.067   0.875   6.444  0.8182  0.2142 -1.0459
  174SLPC   C2719683   5.030   0.688   6.344 -0.2952  0.7014 -0.3682
  174SLPC   H7R19684   4.922   0.689   6.373 -0.3757 -0.0243 -0.6042
  174SLPC   H7S19685   5.051   0.580   6.360 -3.1133  0.3453  1.7696
  174SLPC   C2819686   5.056   0.747   6.202 -0.1931 -0.1273 -0.5217
  174SLPC   H8R19687   5.054   0.856   6.222 -0.6166  0.1355 -1.8804
  174SLPC   H8S19688   4.970   0.720   6.137  0.0546 -0.1181 -0.8558
  174SLPC   C2919689   5.189   0.705   6.144 -0.4465 -0.1415  0.1542
  174SLPC   H9R19690   5.268   0.677   6.216  0.5835  1.0823 -0.4564
  174SLPC  C21019691   5.218   0.705   6.011 -0.5286 -0.1145 -0.8230
  174SLPC  H10R19692   5.320   0.679   5.980 -0.3467 -0.5776  0.1297
  174SLPC  C21119693   5.126   0.750   5.902 -0.4770  0.3117  0.4039
  174SLPC  H11R19694   5.170   0.842   5.858  0.7153 -0.3461  0.1916
  174SLPC  H11S19695   5.022   0.775   5.932 -2.1641 -2.2996 -2.6545
  174SLPC  C21219696   5.112   0.634   5.808  0.5059 -0.0004 -0.1532
  174SLPC  H12R19697   5.098   0.536   5.857  1.8910 -0.9681 -1.6092
  174SLPC  C21319698   5.099   0.639   5.675 -0.2170 -0.3660 -0.1182
  174SLPC  H13R19699   5.082   0.548   5.617 -1.2648  0.2361 -0.7901
  174SLPC  C21419700   5.108   0.757   5.583  0.2651  0.8474  0.4834
  174SLPC  H14R19701   5.090   0.848   5.643  2.0574  0.1853  2.1095
  174SLPC  H14S19702   5.014   0.759   5.524  0.3565 -1.4967  0.1396
  174SLPC  C21519703   5.224   0.747   5.482 -0.4836 -0.3375 -1.0513
  174SLPC  H15R19704   5.201   0.805   5.390  2.3487 -0.1763 -1.7298
  174SLPC  H15S19705   5.246   0.644   5.450  0.6690 -0.2659 -0.5347
  174SLPC  C21619706   5.363   0.791   5.539 -0.2209  0.0526 -0.4410
  174SLPC  H16R19707   5.368   0.746   5.640  1.6523  0.1385 -0.4471
  174SLPC  H16S19708   5.371   0.902   5.550 -1.6112  0.0321  1.0223
  174SLPC  C21719709   5.487   0.733   5.460  0.1774 -0.0928  0.0683
  174SLPC  H17R19710   5.472   0.623   5.449  1.3130 -0.2319 -0.1296
  174SLPC  H17S19711   5.580   0.748   5.519  0.5400  1.5942 -0.8700
  174SLPC  C21819712   5.506   0.797   5.320  0.4918  0.8128  0.3091
  174SLPC  H18R19713   5.420   0.764   5.258  2.0221 -0.7640 -1.0537
  174SLPC  H18S19714   5.600   0.769   5.269 -0.8420 -1.5068 -1.0724
  174SLPC  H18T19715   5.493   0.907   5.331 -1.0812  0.5288  1.8982
  174SLPC   C3319716   5.275   0.213   6.822  0.5288  0.2434 -0.4266
  174SLPC   H3X19717   5.187   0.223   6.889  0.4143 -2.8359 -0.0004
  174SLPC   H3Y19718   5.326   0.123   6.862 -0.8118  0.3116  1.5923
  174SLPC   C3419719   5.241   0.197   6.679  0.4763  0.8597  0.7559
  174SLPC   H4X19720   5.216   0.091   6.658  2.9699  0.3057  0.3125
  174SLPC   H4Y19721   5.338   0.211   6.626  0.7288 -0.2374  0.9051
  174SLPC   C3519722   5.117   0.284   6.642  0.4298 -0.2881 -0.0049
  174SLPC   H5X19723   5.138   0.393   6.654 -1.4941  0.3261 -1.7715
  174SLPC   H5Y19724   5.041   0.269   6.722  1.4700  0.7479  1.2248
  174SLPC   C3619725   5.073   0.251   6.503 -0.6772 -0.4449 -0.1526
  174SLPC   H6X19726   4.980   0.310   6.489  0.7172  1.8142 -0.5148
  174SLPC   H6Y19727   5.050   0.142   6.499  2.4972 -1.1890 -2.4135
  174SLPC   C3719728   5.174   0.287   6.390 -0.1022 -0.3805 -0.5131
  174SLPC   H7X19729   5.275   0.258   6.424  0.3963  1.2865 -0.4850
  174SLPC   H7Y19730   5.192   0.396   6.376  0.4029 -0.5474 -1.2370
  174SLPC   C3819731   5.136   0.229   6.251 -1.0638 -0.5509  0.3762
  174SLPC   H8X19732   5.029   0.244   6.225 -0.7943  1.6809  0.3663
  174SLPC   H8Y19733   5.156   0.119   6.257 -1.5712 -0.5614  2.7334
  174SLPC   C3919734   5.217   0.289   6.131 -0.0546  0.6242  0.2432
  174SLPC   H9X19735   5.325   0.280   6.155 -0.5130  1.1976  2.7530
  174SLPC   H9Y19736   5.182   0.392   6.107 -1.4548 -0.0923 -0.9850
  174SLPC  C31019737   5.191   0.209   6.001 -0.5248  0.1550 -0.0509
  174SLPC  H10X19738   5.082   0.187   5.999 -0.3274 -1.0598  0.8855
  174SLPC  H10Y19739   5.246   0.112   6.004  2.1435  1.6114  0.6719
  174SLPC  C31119740   5.231   0.279   5.872  0.0329  0.8378 -0.9377
  174SLPC  H11X19741   5.283   0.374   5.897 -0.1234  0.3226  1.5220
  174SLPC  H11Y19742   5.139   0.310   5.817  0.4259 -0.3236 -2.3009
  174SLPC  C31219743   5.320   0.196   5.775  0.6078 -0.2409 -0.4622
  174SLPC  H12X19744   5.282   0.092   5.762  0.1323 -0.0316 -0.7416
  174SLPC  H12Y19745   5.416   0.189   5.830 -0.7573  4.1453  3.0597
  174SLPC  C31319746   5.338   0.271   5.639  0.3738  0.5954 -0.2261
  174SLPC  H13X19747   5.309   0.376   5.663 -1.3637  0.0126  0.3879
  174SLPC  H13Y19748   5.258   0.232   5.572  0.1867  1.9054 -0.7930
  174SLPC  C31419749   5.474   0.242   5.573 -0.1651  0.1511  0.0089
  174SLPC  H14X19750   5.466   0.142   5.525 -0.4600 -1.1655  2.6718
  174SLPC  H14Y19751   5.559   0.231   5.644 -0.6924  1.4963  0.8779
  174SLPC  C31519752   5.512   0.351   5.469 -0.0468 -0.6076 -0.1465
  174SLPC  H15X19753   5.516   0.445   5.529  1.3602 -0.1988 -0.8548
  174SLPC  H15Y19754   5.423   0.372   5.406  1.1587 -0.2296 -1.7856
  174SLPC  C31619755   5.636   0.326   5.383  0.6385 -0.0602 -0.3906
  174SLPC  H16X19756   5.625   0.244   5.310  1.0271  0.9887 -1.6743
  174SLPC  H16Y19757   5.717   0.274   5.437 -1.8165 -2.4877  1.2345
  174SLPC  C31719758   5.692   0.440   5.313  0.5893 -0.3815 -0.2744
  174SLPC  H17X19759   5.795   0.415   5.280 -0.3834 -1.7540 -2.5478
  174SLPC  H17Y19760   5.699   0.531   5.377 -0.3886  0.4792 -1.3365
  174SLPC  C31819761   5.602   0.472   5.191  0.7041  0.1465 -0.3629
  174SLPC  H18X19762   5.629   0.566   5.137 -1.4173  0.3712 -1.1342
  174SLPC  H18Y19763   5.493   0.477   5.212  0.8812 -0.1526  0.6594
  174SLPC  H18Z19764   5.619   0.390   5.118  1.7116 -0.4096  0.4790
  175SLPC     N19765   3.604   2.521   6.862  1.1141 -0.0850 -0.7737
  175SLPC   C1319766   3.608   2.612   6.980 -0.2429 -0.6603 -0.2075
  175SLPC  H13A19767   3.514   2.618   7.032  0.4087  0.6942  0.9087
  175SLPC  H13B19768   3.670   2.566   7.056 -1.0180 -2.4371 -0.6209
  175SLPC  H13C19769   3.650   2.710   6.961  0.3386 -0.4916  1.7516
  175SLPC   C1419770   3.563   2.385   6.915 -1.1920 -0.3143 -0.4486
  175SLPC  H14A19771   3.642   2.350   6.979 -1.4556 -0.5886 -0.2660
  175SLPC  H14B19772   3.474   2.387   6.977 -0.0966 -1.5364  1.2498
  175SLPC  H14C19773   3.560   2.323   6.827  0.6303  1.5933 -1.9346
  175SLPC   C1519774   3.733   2.504   6.790 -0.0338  0.0794 -0.2484
  175SLPC  H15A19775   3.762   2.598   6.748  1.9161 -0.5081 -0.3317
  175SLPC  H15B19776   3.813   2.474   6.857 -0.3975 -1.7089 -0.5468
  175SLPC  H15C19777   3.726   2.448   6.698  0.5150  3.2451 -2.3594
  175SLPC   C1219778   3.496   2.583   6.769  0.2267  0.4587  0.0292
  175SLPC  H12A19779   3.527   2.682   6.740 -0.1300  0.3990 -0.5653
  175SLPC  H12B19780   3.400   2.593   6.818 -0.4003 -0.7926 -0.8885
  175SLPC   C1119781   3.467   2.507   6.636 -0.1825  0.3820 -0.4847
  175SLPC  H11A19782   3.453   2.399   6.658  0.6013  0.3103 -0.3155
  175SLPC  H11B19783   3.554   2.518   6.567 -0.3718 -1.3364 -1.0599
  175SLPC     P19784   3.336   2.689   6.506  0.1150 -0.1500 -0.1675
  175SLPC   O1319785   3.311   2.804   6.591 -0.1261 -0.4230 -0.5037
  175SLPC   O1419786   3.461   2.683   6.424  0.3045  0.1682  0.0997
  175SLPC   O1219787   3.345   2.568   6.591  0.2674  0.5128 -0.5852
  175SLPC   O1119788   3.211   2.665   6.418 -0.3081  0.1915 -0.4148
  175SLPC    C119789   3.143   2.536   6.397  0.0049 -0.4918  0.0142
  175SLPC    HA19790   3.169   2.459   6.473  3.1124 -1.1300 -1.5659
  175SLPC    HB19791   3.034   2.558   6.388  0.2539  0.2528 -1.4282
  175SLPC    C219792   3.190   2.466   6.266 -0.2493  0.1209  0.1449
  175SLPC    HS19793   3.294   2.428   6.274  0.6603  2.2145 -0.7333
  175SLPC   O2119794   3.167   2.571   6.164 -0.8184  0.2885  0.1362
  175SLPC   C2119795   3.254   2.556   6.062  0.6956  0.1758  0.0725
  175SLPC   O2219796   3.344   2.477   6.056  0.4984  0.0807  0.2772
  175SLPC   C2219797   3.219   2.654   5.947 -0.2105 -0.1092 -0.1139
  175SLPC   H2R19798   3.130   2.707   5.987  2.4520  2.5768  2.7853
  175SLPC   H2S19799   3.303   2.726   5.943 -0.9273  1.0343  2.8796
  175SLPC    C319800   3.103   2.342   6.217 -0.0125 -0.8975  0.8266
  175SLPC    HX19801   2.999   2.380   6.208  0.1809 -0.4527  0.4011
  175SLPC    HY19802   3.108   2.267   6.299 -1.3869  1.2456  3.0244
  175SLPC   O3119803   3.145   2.286   6.088  0.3647  0.4618 -0.4650
  175SLPC   C3119804   3.227   2.193   6.091  0.8235  0.4058 -0.4315
  175SLPC   O3219805   3.276   2.142   6.191  0.3372 -0.0012  0.6562
  175SLPC   C3219806   3.254   2.132   5.962  0.0636 -0.7123  0.3210
  175SLPC   H2X19807   3.165   2.072   5.933 -0.0347  0.1118 -1.1859
  175SLPC   H2Y19808   3.345   2.071   5.979  1.0557  0.5964 -0.2032
  175SLPC   C2319809   3.213   2.582   5.805 -0.0668  0.1926 -0.7160
  175SLPC   H3R19810   3.125   2.516   5.819  1.6864 -2.1073  0.0686
  175SLPC   H3S19811   3.302   2.517   5.791 -0.5796 -0.0488 -3.2869
  175SLPC   C2419812   3.196   2.684   5.696 -0.5144 -0.9488  0.0960
  175SLPC   H4R19813   3.261   2.774   5.701 -0.5713 -0.8931 -0.1554
  175SLPC   H4S19814   3.096   2.721   5.728  0.7925  1.9942  1.1615
  175SLPC   C2519815   3.200   2.619   5.559 -0.1642 -0.0354  0.1329
  175SLPC   H5R19816   3.122   2.543   5.537 -0.6604 -0.1276  2.0439
  175SLPC   H5S19817   3.302   2.576   5.547  0.3443  0.2944  2.6597
  175SLPC   C2619818   3.190   2.727   5.450 -0.0385 -0.1916 -0.0074
  175SLPC   H6R19819   3.247   2.815   5.487 -0.6959  0.7649 -1.2079
  175SLPC   H6S19820   3.082   2.744   5.431 -0.4492 -1.5920  0.8753
  175SLPC   C2719821   3.246   2.683   5.313  0.0583 -0.6035  0.2529
  175SLPC   H7R19822   3.190   2.593   5.279  1.5476 -1.1407 -0.9293
  175SLPC   H7S19823   3.351   2.649   5.322  0.3582  0.6175  1.6102
  175SLPC   C2819824   3.255   2.793   5.214  0.2529  0.3397 -0.6468
  175SLPC   H8R19825   3.321   2.757   5.132  0.4834 -0.7541 -0.0056
  175SLPC   H8S19826   3.305   2.883   5.255 -0.5550  0.7217 -0.4725
  175SLPC   C2919827   3.125   2.831   5.164  0.6089  0.8036 -0.2397
  175SLPC   H9R19828   3.075   2.912   5.220 -1.3913  0.5640 -1.5709
  175SLPC  C21019829   3.050   2.773   5.069 -0.0931  0.9144  0.1509
  175SLPC  H10R19830   2.957   2.827   5.048 -0.2351  1.1952  1.4262
  175SLPC  C21119831   3.074   2.662   4.973 -0.1105 -0.0170 -0.4960
  175SLPC  H11R19832   3.000   2.580   4.990  2.7305 -3.0875 -1.6470
  175SLPC  H11S19833   3.175   2.619   4.994  0.1290  0.5867 -0.4063
  175SLPC  C21219834   3.061   2.703   4.828 -0.2678 -0.1184  0.0604
  175SLPC  H12R19835   3.123   2.789   4.801  2.2544 -1.5308  0.9797
  175SLPC  C21319836   3.002   2.640   4.721  0.1468  0.4785 -0.3317
  175SLPC  H13R19837   2.998   2.685   4.621 -0.3041 -1.5598 -1.2782
  175SLPC  C21419838   2.924   2.505   4.723 -0.7307 -0.0840  0.1366
  175SLPC  H14R19839   2.835   2.514   4.657 -0.8696 -1.0318  0.1736
  175SLPC  H14S19840   2.879   2.486   4.823  0.3392  0.6779  0.7777
  175SLPC  C21519841   3.009   2.386   4.672  0.2312  0.2209  0.0773
  175SLPC  H15R19842   3.090   2.369   4.746  0.7939  1.8435 -0.1410
  175SLPC  H15S19843   3.051   2.418   4.574 -1.1148  0.3710 -0.4798
  175SLPC  C21619844   2.927   2.257   4.652 -0.0561 -0.9244  0.1023
  175SLPC  H16R19845   2.861   2.262   4.562 -0.0010  1.8010  0.1468
  175SLPC  H16S19846   2.859   2.252   4.740 -1.2139  2.6121 -0.4399
  175SLPC  C21719847   3.024   2.139   4.628 -0.3522 -0.3006  0.6538
  175SLPC  H17R19848   3.078   2.126   4.724 -3.9391  0.6976  2.9868
  175SLPC  H17S19849   3.095   2.153   4.543  0.8231  0.1619  1.6839
  175SLPC  C21819850   2.928   2.018   4.598  0.0812 -0.3653 -0.6601
  175SLPC  H18R19851   2.980   1.924   4.571  0.3174 -0.5170  0.2975
  175SLPC  H18S19852   2.866   2.040   4.509 -0.2715 -1.2611 -0.6442
  175SLPC  H18T19853   2.865   1.992   4.686  0.7027 -0.6092 -0.2850
  175SLPC   C3319854   3.283   2.238   5.849  0.1754 -0.1866 -1.0361
  175SLPC   H3X19855   3.376   2.293   5.877 -1.1280  0.8411  1.5588
  175SLPC   H3Y19856   3.204   2.316   5.845  0.3326  0.0440  0.1013
  175SLPC   C3419857   3.285   2.167   5.713 -0.2120  0.2461 -0.0738
  175SLPC   H4X19858   3.184   2.123   5.694  0.4503 -1.4974  0.1984
  175SLPC   H4Y19859   3.361   2.086   5.722 -0.2929  0.3750  3.5377
  175SLPC   C3519860   3.333   2.267   5.602 -0.1038 -0.1869 -0.2730
  175SLPC   H5X19861   3.438   2.292   5.629 -0.0579 -0.8477  0.1998
  175SLPC   H5Y19862   3.269   2.357   5.611  0.1962 -0.1423  2.1625
  175SLPC   C3619863   3.305   2.207   5.460 -0.3572 -0.2695  0.3352
  175SLPC   H6X19864   3.220   2.136   5.458 -1.0786  0.5815  0.1458
  175SLPC   H6Y19865   3.395   2.143   5.444  0.4526  0.4666  1.6757
  175SLPC   C3719866   3.304   2.320   5.346 -0.5586  0.2315 -0.2655
  175SLPC   H7X19867   3.399   2.377   5.352 -0.3753  0.0606 -1.2808
  175SLPC   H7Y19868   3.211   2.379   5.355 -0.2353  0.5284  1.4563
  175SLPC   C3819869   3.283   2.261   5.205 -0.3837  0.1421 -0.1243
  175SLPC   H8X19870   3.191   2.200   5.213 -0.4226  0.2383  0.1683
  175SLPC   H8Y19871   3.368   2.194   5.179 -0.6876 -0.9155  1.4633
  175SLPC   C3919872   3.275   2.371   5.097 -0.1005  0.5141  0.0788
  175SLPC   H9X19873   3.362   2.436   5.119  0.5580 -1.1642  2.8718
  175SLPC   H9Y19874   3.187   2.438   5.111 -0.2980  0.8647 -2.2985
  175SLPC  C31019875   3.289   2.314   4.958 -0.7774  0.5416  0.5346
  175SLPC  H10X19876   3.199   2.262   4.919 -0.1618 -0.0841 -0.0593
  175SLPC  H10Y19877   3.369   2.239   4.965  0.5516  1.7266 -1.0185
  175SLPC  C31119878   3.344   2.418   4.865  0.4360 -0.8847  0.3141
  175SLPC  H11X19879   3.432   2.473   4.905 -0.1612 -1.5580  2.7090
  175SLPC  H11Y19880   3.271   2.500   4.848  3.1988  2.1809  2.0718
  175SLPC  C31219881   3.379   2.361   4.735 -0.6893  0.5312  0.7600
  175SLPC  H12X19882   3.314   2.273   4.715 -0.7935  0.6357  0.6343
  175SLPC  H12Y19883   3.486   2.333   4.736 -0.6667  0.2610 -1.9581
  175SLPC  C31319884   3.361   2.459   4.616  0.2035  0.0546  0.0540
  175SLPC  H13X19885   3.429   2.543   4.641 -0.2545  0.2084  0.8314
  175SLPC  H13Y19886   3.255   2.490   4.616 -0.1967 -1.2419  0.3644
  175SLPC  C31419887   3.382   2.405   4.478 -0.5505  0.7045 -0.7934
  175SLPC  H14X19888   3.339   2.302   4.473  1.1225 -0.1806  1.2369
  175SLPC  H14Y19889   3.490   2.391   4.459 -0.5103 -0.6838  0.2341
  175SLPC  C31519890   3.325   2.504   4.373  0.8068 -0.0156  0.1799
  175SLPC  H15X19891   3.394   2.527   4.288  1.2292 -0.3454  0.4262
  175SLPC  H15Y19892   3.299   2.601   4.419  0.8040  0.2957 -0.4671
  175SLPC  C31619893   3.193   2.452   4.309  0.2943 -0.1910 -0.1015
  175SLPC  H16X19894   3.157   2.534   4.242 -0.3909 -0.4375 -0.0412
  175SLPC  H16Y19895   3.116   2.437   4.387  0.3351  0.7060  0.1271
  175SLPC  C31719896   3.210   2.328   4.219 -0.6218 -0.3520 -0.5914
  175SLPC  H17X19897   3.267   2.254   4.278  0.4056  1.8139  1.2661
  175SLPC  H17Y19898   3.277   2.354   4.134  0.7172  0.5657  0.6889
  175SLPC  C31819899   3.083   2.267   4.173  1.1166  0.3804 -0.3319
  175SLPC  H18X19900   3.036   2.352   4.119  0.5716  0.6692  0.5600
  175SLPC  H18Y19901   3.021   2.236   4.261 -0.0314  2.3079 -0.4042
  175SLPC  H18Z19902   3.090   2.174   4.114 -0.7554 -0.8798  1.3034
  176SLPC     N19903   2.891   1.977   6.711  0.1632  0.0449  0.3870
  176SLPC   C1319904   2.870   2.123   6.735 -0.0214  0.0222  0.2537
  176SLPC  H13A19905   2.935   2.155   6.816  0.2815 -1.1615  0.5013
  176SLPC  H13B19906   2.889   2.184   6.649 -0.4645 -0.2402 -0.0351
  176SLPC  H13C19907   2.770   2.151   6.765  0.9053  1.3235  2.4019
  176SLPC   C1419908   3.041   1.954   6.684 -0.3751  0.3133  0.8897
  176SLPC  H14A19909   3.080   2.042   6.636 -0.9978  0.8990  1.4311
  176SLPC  H14B19910   3.096   1.953   6.777 -0.5237  1.7130  1.0071
  176SLPC  H14C19911   3.055   1.860   6.632  4.3208  0.3786  1.6647
  176SLPC   C1519912   2.812   1.943   6.593 -0.2579  0.1673 -0.9165
  176SLPC  H15A19913   2.714   1.988   6.598  0.1189  0.9059  0.0817
  176SLPC  H15B19914   2.856   1.971   6.498  0.7089 -1.6461 -1.0520
  176SLPC  H15C19915   2.800   1.835   6.600  1.1280  0.0921  3.5269
  176SLPC   C1219916   2.852   1.905   6.839  0.7521  0.1958 -0.1441
  176SLPC  H12A19917   2.745   1.921   6.842  1.0734  3.5453 -2.0213
  176SLPC  H12B19918   2.900   1.952   6.924 -1.7528  0.5932  1.1470
  176SLPC   C1119919   2.882   1.756   6.842  0.0409  0.6883  0.1793
  176SLPC  H11A19920   2.826   1.720   6.931  0.4780 -1.4441 -0.3425
  176SLPC  H11B19921   2.991   1.743   6.861 -0.0092  0.7540  0.5105
  176SLPC     P19922   2.690   1.630   6.697  0.3844  0.5582  0.1967
  176SLPC   O1319923   2.597   1.687   6.797  0.3563 -0.4150 -0.4182
  176SLPC   O1419924   2.671   1.677   6.557  0.2479  0.3792 -0.4093
  176SLPC   O1219925   2.838   1.678   6.730  0.1005 -0.0243  0.1502
  176SLPC   O1119926   2.710   1.475   6.715 -0.4002  0.0204 -0.7417
  176SLPC    C119927   2.814   1.409   6.641  0.4923 -0.3506  0.2704
  176SLPC    HA19928   2.831   1.465   6.547 -0.2850 -0.1285  0.2612
  176SLPC    HB19929   2.903   1.404   6.709  1.0655  0.0590 -0.4346
  176SLPC    C219930   2.780   1.260   6.601 -0.2499 -0.0873  0.1354
  176SLPC    HS19931   2.877   1.216   6.572 -0.2500 -1.1511  1.6293
  176SLPC   O2119932   2.677   1.246   6.504 -0.3131 -0.1273  0.4353
  176SLPC   C2119933   2.729   1.270   6.384  0.3848  0.0154 -0.6006
  176SLPC   O2219934   2.849   1.269   6.357  1.1534 -0.3336  0.4509
  176SLPC   C2219935   2.615   1.281   6.280  0.1169  0.1122 -0.5882
  176SLPC   H2R19936   2.653   1.293   6.176 -0.3373  0.3642 -0.7285
  176SLPC   H2S19937   2.547   1.195   6.297 -2.6036  2.2589  0.0919
  176SLPC    C319938   2.741   1.168   6.718 -1.2007 -0.4711 -0.2062
  176SLPC    HX19939   2.653   1.220   6.761 -0.4430  0.6462  0.0272
  176SLPC    HY19940   2.820   1.181   6.795 -1.3832  0.3744 -0.1494
  176SLPC   O3119941   2.728   1.031   6.673 -0.9201  0.5953 -0.0044
  176SLPC   C3119942   2.601   0.993   6.677  0.3640 -0.0875  0.2580
  176SLPC   O3219943   2.507   1.062   6.714  0.7195  0.5606 -0.6823
  176SLPC   C3219944   2.596   0.833   6.658  0.5750  0.1929 -0.3248
  176SLPC   H2X19945   2.603   0.797   6.763 -1.6371 -0.9804 -0.5186
  176SLPC   H2Y19946   2.685   0.796   6.603  0.3598  1.6920 -1.7429
  176SLPC   C2319947   2.517   1.396   6.300  0.1893 -0.5687 -0.5264
  176SLPC   H3R19948   2.472   1.393   6.401 -1.3243 -1.3955 -1.1962
  176SLPC   H3S19949   2.433   1.379   6.230 -1.3293  0.3745  0.9948
  176SLPC   C2419950   2.576   1.539   6.282  0.2831  0.3057 -0.0694
  176SLPC   H4R19951   2.655   1.542   6.360  0.1548  0.6402  0.0471
  176SLPC   H4S19952   2.502   1.617   6.305  0.4304  0.9658 -1.6881
  176SLPC   C2519953   2.640   1.571   6.151 -0.4248 -0.0641 -0.8336
  176SLPC   H5R19954   2.714   1.498   6.113  1.2128  0.4196  1.2419
  176SLPC   H5S19955   2.703   1.662   6.160 -1.5635  0.6835 -0.1227
  176SLPC   C2619956   2.541   1.592   6.042 -0.3139 -0.1558 -0.3485
  176SLPC   H6R19957   2.479   1.501   6.024  0.2020 -0.9186  1.5014
  176SLPC   H6S19958   2.595   1.617   5.948  1.3224 -1.4836  0.1970
  176SLPC   C2719959   2.445   1.711   6.069 -0.1322  0.1400 -0.0975
  176SLPC   H7R19960   2.503   1.792   6.118  3.4429 -2.0897 -0.2631
  176SLPC   H7S19961   2.367   1.672   6.138 -0.9781 -2.8524 -2.4814
  176SLPC   C2819962   2.384   1.762   5.940  0.6078 -0.6163  0.0780
  176SLPC   H8R19963   2.320   1.680   5.902  0.5995 -1.1072  1.1042
  176SLPC   H8S19964   2.464   1.782   5.866 -0.7903  2.0109 -0.8657
  176SLPC   C2919965   2.310   1.896   5.956  0.1265 -0.3120 -0.0082
  176SLPC   H9R19966   2.342   1.984   6.014 -1.5764  1.9233 -2.2721
  176SLPC  C21019967   2.198   1.923   5.893 -0.1952  0.0018  0.4483
  176SLPC  H10R19968   2.136   2.008   5.924  0.4936  1.7037 -2.4679
  176SLPC  C21119969   2.125   1.846   5.786  0.3673 -0.1333  0.7734
  176SLPC  H11R19970   2.050   1.783   5.837  0.4896 -0.2159  0.8508
  176SLPC  H11S19971   2.191   1.771   5.737 -1.2645 -1.1807  0.0699
  176SLPC  C21219972   2.061   1.931   5.680 -0.5949 -0.0120 -0.0571
  176SLPC  H12R19973   1.953   1.947   5.696 -0.2433  1.8026  0.7303
  176SLPC  C21319974   2.125   1.986   5.577  0.6937  0.1738  0.1083
  176SLPC  H13R19975   2.073   2.033   5.493 -0.5927  0.3588  0.9734
  176SLPC  C21419976   2.280   1.974   5.564 -0.1490  0.0070 -0.1695
  176SLPC  H14R19977   2.332   1.928   5.650  1.3086  1.5182 -0.2022
  176SLPC  H14S19978   2.325   2.075   5.554  0.5650 -0.3823 -0.9427
  176SLPC  C21519979   2.317   1.890   5.438 -0.6364 -0.4444 -0.3745
  176SLPC  H15R19980   2.268   1.793   5.460 -0.4153 -0.3764  0.4883
  176SLPC  H15S19981   2.426   1.870   5.439 -0.3325  1.0152 -1.4615
  176SLPC  C21619982   2.271   1.960   5.302 -0.5359  0.4609  0.5824
  176SLPC  H16R19983   2.317   2.061   5.311  0.7769 -0.1005  0.4086
  176SLPC  H16S19984   2.161   1.970   5.292 -0.8580  0.5907  3.3550
  176SLPC  C21719985   2.337   1.895   5.180  0.0060 -0.4824 -0.7194
  176SLPC  H17R19986   2.305   1.790   5.160  1.6302 -0.6323 -2.9102
  176SLPC  H17S19987   2.447   1.906   5.189 -0.1307  0.1179  0.3823
  176SLPC  C21819988   2.307   1.955   5.044 -0.2545 -0.7637  0.3964
  176SLPC  H18R19989   2.200   1.985   5.038 -0.0533  0.4916  2.2042
  176SLPC  H18S19990   2.324   1.876   4.968 -2.2354 -0.5050 -0.3874
  176SLPC  H18T19991   2.367   2.044   5.018 -1.2088 -0.0875  0.4795
  176SLPC   C3319992   2.466   0.772   6.596 -0.4605  0.0354 -0.0587
  176SLPC   H3X19993   2.465   0.806   6.490  0.2507  0.5885  0.1054
  176SLPC   H3Y19994   2.374   0.819   6.638 -0.0096  0.0879  0.8846
  176SLPC   C3419995   2.457   0.617   6.603 -0.1403  0.6844 -0.8300
  176SLPC   H4X19996   2.352   0.586   6.586 -0.3748  1.8743 -1.7176
  176SLPC   H4Y19997   2.494   0.584   6.702  3.2032 -0.9424 -2.4185
  176SLPC   C3519998   2.546   0.537   6.500  0.3808 -0.1526 -0.5125
  176SLPC   H5X19999   2.528   0.430   6.523  0.3766  0.1209  0.8548
  176SLPC   H5Y20000   2.651   0.570   6.513  0.5609 -1.2573  1.1174
  176SLPC   C3620001   2.501   0.566   6.353 -1.4207 -0.3985  0.8120
  176SLPC   H6X20002   2.503   0.674   6.327 -0.7190 -0.7742 -0.8674
  176SLPC   H6Y20003   2.393   0.541   6.338 -1.2697  0.0687 -1.3989
  176SLPC   C3720004   2.581   0.482   6.254 -0.2422 -0.1493  0.3339
  176SLPC   H7X20005   2.521   0.479   6.161  0.4845 -0.9051 -0.1336
  176SLPC   H7Y20006   2.590   0.376   6.286  0.0741 -0.6906 -1.4279
  176SLPC   C3820007   2.712   0.548   6.217 -0.6236  0.0887 -0.6912
  176SLPC   H8X20008   2.775   0.537   6.308 -0.4145 -0.5180 -0.9001
  176SLPC   H8Y20009   2.701   0.658   6.209  3.2261  0.4544 -3.8714
  176SLPC   C3920010   2.778   0.481   6.101 -0.5502 -0.0699 -0.4285
  176SLPC   H9X20011   2.767   0.370   6.104 -0.4203 -0.1160 -1.5173
  176SLPC   H9Y20012   2.887   0.502   6.098 -1.0031  2.5759 -0.6918
  176SLPC  C31020013   2.730   0.529   5.969 -0.5422  0.0464 -0.4783
  176SLPC  H10X20014   2.713   0.638   5.967  0.7976  0.3148  0.8055
  176SLPC  H10Y20015   2.627   0.492   5.951 -0.1222 -1.5538  0.1734
  176SLPC  C31120016   2.814   0.471   5.854 -0.1525 -0.4324 -0.0510
  176SLPC  H11X20017   2.779   0.377   5.807 -0.8511  1.5372 -3.8514
  176SLPC  H11Y20018   2.920   0.473   5.888  0.0798  0.6973 -0.7997
  176SLPC  C31220019   2.817   0.568   5.731  0.7791  0.3283  1.0411
  176SLPC  H12X20020   2.888   0.527   5.656 -0.3307  0.2001  0.0478
  176SLPC  H12Y20021   2.860   0.664   5.766  0.4041  1.8889 -2.4486
  176SLPC  C31320022   2.678   0.581   5.672  0.3743  0.3448 -0.2900
  176SLPC  H13X20023   2.615   0.641   5.741  1.8960  0.2835  1.2465
  176SLPC  H13Y20024   2.631   0.480   5.663  0.8896 -0.2404  2.4427
  176SLPC  C31420025   2.688   0.635   5.528 -0.5580 -0.5078  0.3344
  176SLPC  H14X20026   2.586   0.636   5.483 -1.2137  0.7728  1.7855
  176SLPC  H14Y20027   2.758   0.571   5.470 -0.6387  0.0982 -0.4563
  176SLPC  C31520028   2.740   0.780   5.526  0.3485 -0.2433  0.1452
  176SLPC  H15X20029   2.834   0.772   5.586 -0.7682 -0.3205  1.9473
  176SLPC  H15Y20030   2.671   0.845   5.584  1.7471  0.8088  0.7246
  176SLPC  C31620031   2.764   0.830   5.385  0.0128  0.2447  0.4372
  176SLPC  H16X20032   2.778   0.939   5.392 -0.2528  0.3352 -0.3429
  176SLPC  H16Y20033   2.673   0.810   5.325  1.6342 -0.6959 -1.8760
  176SLPC  C31720034   2.880   0.769   5.302  0.7798 -0.1136  0.2029
  176SLPC  H17X20035   2.878   0.658   5.307  0.5394 -0.0590  1.8196
  176SLPC  H17Y20036   2.970   0.803   5.358  1.8487  1.6124 -2.3907
  176SLPC  C31820037   2.882   0.828   5.156  0.3979 -0.3055  0.1797
  176SLPC  H18X20038   2.948   0.783   5.078  2.5127  2.8553 -0.0528
  176SLPC  H18Y20039   2.907   0.935   5.173  0.6252 -0.2108 -0.6943
  176SLPC  H18Z20040   2.780   0.814   5.114 -0.1702 -2.9183  2.1613
  177SLPC     N20041   1.630   0.933   7.424  0.0866 -0.0841 -0.2685
  177SLPC   C1320042   1.727   1.007   7.337  0.1719 -0.8299 -1.0054
  177SLPC  H13A20043   1.779   0.937   7.274 -0.4090 -2.1052 -0.1377
  177SLPC  H13B20044   1.675   1.080   7.277  1.1592  0.4246 -0.3556
  177SLPC  H13C20045   1.795   1.064   7.398  1.0868  0.2336 -2.9230
  177SLPC   C1420046   1.571   1.027   7.525  0.5453 -0.5248 -0.1131
  177SLPC  H14A20047   1.636   1.042   7.610  0.1236 -2.2108  0.5342
  177SLPC  H14B20048   1.534   1.122   7.489  2.9475 -1.0393 -4.6449
  177SLPC  H14C20049   1.479   0.987   7.563 -0.1309  2.7167  2.0773
  177SLPC   C1520050   1.705   0.827   7.497 -0.1848 -1.0973 -0.5855
  177SLPC  H15A20051   1.645   0.784   7.576 -0.9479 -2.8462 -2.0695
  177SLPC  H15B20052   1.733   0.742   7.438  0.0025 -1.4216 -0.0309
  177SLPC  H15C20053   1.796   0.869   7.538 -0.1103  0.7440 -2.4846
  177SLPC   C1220054   1.516   0.870   7.342 -0.0493  0.2572  0.1919
  177SLPC  H12A20055   1.563   0.824   7.257  1.4056  1.2122  0.4564
  177SLPC  H12B20056   1.449   0.944   7.301  0.1808  0.7585  0.6992
  177SLPC   C1120057   1.424   0.762   7.413  0.2669  0.9237  0.2398
  177SLPC  H11A20058   1.492   0.678   7.438 -1.3413 -1.2675 -2.2307
  177SLPC  H11B20059   1.354   0.723   7.336  0.4636  0.6675  0.1915
  177SLPC     P20060   1.225   0.891   7.516 -0.2745 -0.1855 -0.3053
  177SLPC   O1320061   1.103   0.809   7.497 -0.1508  0.4268 -0.2866
  177SLPC   O1420062   1.227   0.978   7.638  0.1304  0.4868  0.7206
  177SLPC   O1220063   1.350   0.802   7.521  0.1535 -0.3287 -0.0602
  177SLPC   O1120064   1.250   0.981   7.392 -0.2658  0.3225  0.2746
  177SLPC    C120065   1.154   0.987   7.288  0.3647 -0.3271  0.3961
  177SLPC    HA20066   1.096   0.895   7.267  0.6330 -0.2591 -0.7202
  177SLPC    HB20067   1.070   1.057   7.305 -0.9756 -2.1488  1.6822
  177SLPC    C220068   1.210   1.046   7.157 -0.3073 -0.1820  0.0086
  177SLPC    HS20069   1.134   1.092   7.090 -2.0552 -0.8091  1.4964
  177SLPC   O2120070   1.299   0.954   7.093 -0.0798 -0.0220 -0.0365
  177SLPC   C2120071   1.238   0.881   7.000 -0.1954 -0.4022  0.2147
  177SLPC   O2220072   1.120   0.871   6.989  0.2218  0.1361 -0.1380
  177SLPC   C2220073   1.353   0.823   6.907 -0.4207  0.1938 -0.2519
  177SLPC   H2R20074   1.405   0.751   6.974 -0.2359  2.7291  2.5142
  177SLPC   H2S20075   1.307   0.766   6.823  0.9048  0.9767 -1.5595
  177SLPC    C320076   1.298   1.173   7.179  0.2055 -0.6427  0.3989
  177SLPC    HX20077   1.386   1.146   7.240  0.8898  0.3485 -0.1353
  177SLPC    HY20078   1.254   1.244   7.252  1.1063  0.6018 -0.2523
  177SLPC   O3120079   1.340   1.245   7.061  0.1180 -0.3024 -0.9441
  177SLPC   C3120080   1.248   1.325   7.004 -0.0184 -0.7414  0.5132
  177SLPC   O3220081   1.134   1.335   7.044  0.4134 -0.6880 -0.1625
  177SLPC   C3220082   1.318   1.395   6.890  0.1250 -0.5490 -0.1208
  177SLPC   H2X20083   1.418   1.350   6.873 -0.1729 -1.2353 -0.0919
  177SLPC   H2Y20084   1.316   1.505   6.907 -1.5523 -0.7201  1.0682
  177SLPC   C2320085   1.459   0.912   6.851 -0.1134  0.6736  0.3084
  177SLPC   H3R20086   1.551   0.854   6.832  1.1499  1.4253  3.5199
  177SLPC   H3S20087   1.489   0.984   6.930 -0.8264  1.5142 -0.1675
  177SLPC   C2420088   1.411   0.972   6.722  0.0913 -0.5734  0.0057
  177SLPC   H4R20089   1.334   1.042   6.759  2.0850  1.3850  0.6184
  177SLPC   H4S20090   1.370   0.900   6.647 -2.5105  1.2722 -0.4718
  177SLPC   C2520091   1.528   1.046   6.653  0.0724 -0.0532  0.0606
  177SLPC   H5R20092   1.601   0.978   6.606 -0.3726  0.1212 -0.9034
  177SLPC   H5S20093   1.591   1.117   6.711  0.1184  0.5356 -0.6907
  177SLPC   C2620094   1.472   1.135   6.538 -0.2013  0.0115 -0.2049
  177SLPC   H6R20095   1.525   1.232   6.527  0.0426 -0.2398 -1.4610
  177SLPC   H6S20096   1.364   1.157   6.555 -0.6131  0.7584 -3.1205
  177SLPC   C2720097   1.482   1.063   6.403  0.7487 -0.3966 -0.3069
  177SLPC   H7R20098   1.413   1.130   6.347  1.7133  0.6986 -0.2357
  177SLPC   H7S20099   1.443   0.961   6.420  0.5990 -0.2032  0.5102
  177SLPC   C2820100   1.624   1.065   6.334  0.2121  0.1913 -0.3195
  177SLPC   H8R20101   1.619   0.989   6.253 -2.3801  0.5665 -0.5727
  177SLPC   H8S20102   1.696   1.020   6.406 -1.0759 -0.8823  0.3575
  177SLPC   C2920103   1.674   1.201   6.292 -0.3794  0.0005 -1.0150
  177SLPC   H9R20104   1.676   1.275   6.373 -3.0420 -0.3007 -0.5972
  177SLPC  C21020105   1.718   1.245   6.174 -0.3217  0.2931  0.1244
  177SLPC  H10R20106   1.757   1.346   6.157 -0.0594  0.1299 -0.2636
  177SLPC  C21120107   1.722   1.171   6.041 -0.2948  0.1545 -0.1337
  177SLPC  H11R20108   1.742   1.239   5.955  1.3186 -2.3277 -1.8683
  177SLPC  H11S20109   1.624   1.123   6.021 -0.1408  0.1937 -1.0558
  177SLPC  C21220110   1.822   1.054   6.029 -0.1334 -0.1959 -0.5352
  177SLPC  H12R20111   1.879   1.042   6.123 -0.5016  1.2952 -0.0955
  177SLPC  C21320112   1.829   0.961   5.937  0.4866 -0.6880  0.2155
  177SLPC  H13R20113   1.911   0.888   5.942  0.5194 -0.6854 -0.2890
  177SLPC  C21420114   1.749   0.964   5.809 -0.2444  0.0333 -0.3325
  177SLPC  H14R20115   1.670   1.041   5.818  0.5900  0.7135  2.0457
  177SLPC  H14S20116   1.692   0.870   5.797  1.5215 -1.3570  1.3348
  177SLPC  C21520117   1.831   0.983   5.682 -0.2936  0.7904 -0.0620
  177SLPC  H15R20118   1.910   0.905   5.676 -1.3565 -0.2015 -3.5828
  177SLPC  H15S20119   1.884   1.080   5.686  0.0458  0.5971  0.1629
  177SLPC  C21620120   1.758   0.988   5.550  0.3312  0.8738 -0.3006
  177SLPC  H16R20121   1.688   1.075   5.549 -0.2472  0.4302  0.5246
  177SLPC  H16S20122   1.684   0.907   5.536 -0.4080  0.9400  2.5430
  177SLPC  C21720123   1.859   0.979   5.431  0.3135 -0.0143 -0.2672
  177SLPC  H17R20124   1.932   0.897   5.449 -1.6031 -1.8784 -0.5731
  177SLPC  H17S20125   1.924   1.069   5.422  2.8562 -1.4116  2.1902
  177SLPC  C21820126   1.780   0.959   5.301 -0.0743  0.0871  1.0899
  177SLPC  H18R20127   1.733   0.858   5.297  0.1469 -0.0038 -2.0665
  177SLPC  H18S20128   1.840   0.983   5.211 -0.5636  1.6621  1.1603
  177SLPC  H18T20129   1.693   1.028   5.293 -0.0610  0.2153  1.9181
  177SLPC   C3320130   1.234   1.369   6.761 -0.6052 -0.0566 -0.2850
  177SLPC   H3X20131   1.187   1.268   6.764  0.7836 -0.7083  0.8770
  177SLPC   H3Y20132   1.300   1.364   6.671 -0.0914  0.1081  0.0777
  177SLPC   C3420133   1.121   1.470   6.730 -0.3026  0.1980  1.0541
  177SLPC   H4X20134   1.154   1.573   6.753 -0.1419  0.0498  1.5008
  177SLPC   H4Y20135   1.031   1.453   6.793 -1.1293 -0.1585 -0.2017
  177SLPC   C3520136   1.074   1.469   6.580  0.4382 -0.0666 -0.1469
  177SLPC   H5X20137   1.154   1.527   6.529  3.0095 -1.5047  1.9777
  177SLPC   H5Y20138   0.989   1.539   6.588  0.5023  0.0041 -0.0749
  177SLPC   C3620139   1.030   1.344   6.511 -0.3153  0.3265 -0.0760
  177SLPC   H6X20140   0.944   1.300   6.567 -0.3995  0.2101 -0.2973
  177SLPC   H6Y20141   1.116   1.272   6.513 -0.9505 -0.4612 -0.5512
  177SLPC   C3720142   0.991   1.357   6.356 -0.4208  0.2801 -0.2525
  177SLPC   H7X20143   0.933   1.452   6.352  2.3161  2.1109  0.5206
  177SLPC   H7Y20144   0.918   1.281   6.321 -0.9760  0.9736 -0.6298
  177SLPC   C3820145   1.112   1.363   6.268 -0.1665  0.3869 -0.4658
  177SLPC   H8X20146   1.172   1.273   6.290 -1.7808 -0.2062  1.8632
  177SLPC   H8Y20147   1.166   1.457   6.293  2.1383 -0.6191 -1.3560
  177SLPC   C3920148   1.080   1.370   6.122  0.0359 -0.8537 -0.2807
  177SLPC   H9X20149   1.020   1.461   6.102  0.9950 -0.1477 -0.0253
  177SLPC   H9Y20150   1.010   1.285   6.105 -2.7364  0.5496  3.0616
  177SLPC  C31020151   1.189   1.367   6.020  0.0671  0.1900  0.2009
  177SLPC  H10X20152   1.271   1.294   6.037  1.5835  1.8432  0.2340
  177SLPC  H10Y20153   1.234   1.468   6.027 -1.3563  0.7846  1.3522
  177SLPC  C31120154   1.118   1.354   5.884  0.5153 -0.1728  0.3957
  177SLPC  H11X20155   1.039   1.431   5.874  0.5984  0.0054  1.0737
  177SLPC  H11Y20156   1.063   1.259   5.870 -3.1880  1.8822 -0.0847
  177SLPC  C31220157   1.218   1.381   5.776  0.6906 -0.3863 -0.7703
  177SLPC  H12X20158   1.313   1.325   5.787 -0.5281 -2.0929  1.8618
  177SLPC  H12Y20159   1.241   1.490   5.784 -0.0360 -0.2884  0.0992
  177SLPC  C31320160   1.161   1.353   5.637 -0.1607  0.5568  0.4198
  177SLPC  H13X20161   1.066   1.410   5.629  0.4334  1.7649  1.5775
  177SLPC  H13Y20162   1.126   1.248   5.625 -2.6782  1.2511  0.9682
  177SLPC  C31420163   1.259   1.384   5.521  0.3638 -0.5425 -0.7466
  177SLPC  H14X20164   1.291   1.491   5.524  1.2816 -0.6919 -2.8192
  177SLPC  H14Y20165   1.215   1.372   5.419 -1.7288 -0.2363  0.0857
  177SLPC  C31520166   1.393   1.306   5.518 -0.8353 -0.0028  0.0167
  177SLPC  H15X20167   1.376   1.197   5.516 -1.3284  0.0709  0.0148
  177SLPC  H15Y20168   1.432   1.316   5.622  1.2920 -0.3030 -0.7018
  177SLPC  C31620169   1.494   1.355   5.418 -0.0514  0.5159 -0.0283
  177SLPC  H16X20170   1.591   1.344   5.471  0.0138 -0.4066 -0.3156
  177SLPC  H16Y20171   1.471   1.463   5.404  0.8448  0.8175  0.7325
  177SLPC  C31720172   1.479   1.294   5.279 -0.0960 -0.1219 -0.3422
  177SLPC  H17X20173   1.376   1.313   5.241 -0.1119 -2.1043 -1.3889
  177SLPC  H17Y20174   1.488   1.185   5.293  1.2038  0.0780  0.5738
  177SLPC  C31820175   1.579   1.347   5.180  0.2654  0.3877 -0.6944
  177SLPC  H18X20176   1.679   1.329   5.225 -1.0246  1.0269  2.7365
  177SLPC  H18Y20177   1.579   1.457   5.170  2.4040  0.4744 -0.2139
  177SLPC  H18Z20178   1.569   1.303   5.078 -1.2503 -0.2806 -0.2917
  178SLPC     N20179   5.149   5.868   7.471 -0.0781  0.3572  0.3288
  178SLPC   C1320180   5.264   5.777   7.493  0.0339 -0.0592  0.6216
  178SLPC  H13A20181   5.322   5.782   7.402 -0.2144 -1.0773  0.3898
  178SLPC  H13B20182   5.317   5.818   7.578 -2.4075  3.8623  0.5193
  178SLPC  H13C20183   5.239   5.676   7.522  0.5424  0.1526  1.8687
  178SLPC   C1420184   5.066   5.861   7.595 -0.3207 -0.4346 -0.2073
  178SLPC  H14A20185   4.983   5.924   7.567  0.2950  0.4321 -0.1211
  178SLPC  H14B20186   5.021   5.766   7.621 -1.7750  0.4137  0.5302
  178SLPC  H14C20187   5.120   5.892   7.683  0.8609 -3.5177  0.2935
  178SLPC   C1520188   5.062   5.825   7.360 -0.2270 -1.3905 -0.3672
  178SLPC  H15A20189   5.110   5.847   7.266  1.3251 -1.6175  0.3469
  178SLPC  H15B20190   5.033   5.721   7.364 -1.6393 -0.9951  0.4700
  178SLPC  H15C20191   4.968   5.878   7.366  0.1235 -0.7963 -0.0290
  178SLPC   C1220192   5.197   6.013   7.436  0.4065 -0.2401  0.0324
  178SLPC  H12A20193   5.234   6.066   7.523 -2.5008  2.9378 -0.4672
  178SLPC  H12B20194   5.109   6.074   7.427 -0.1586 -0.8383  1.2303
  178SLPC   C1120195   5.288   6.021   7.309  0.4446 -0.1699  0.6234
  178SLPC  H11A20196   5.299   6.129   7.288 -2.1338 -0.0174 -0.1626
  178SLPC  H11B20197   5.227   5.985   7.224 -1.0080  0.1677  1.4942
  178SLPC     P20198   5.554   6.017   7.336 -0.3333  0.1218  0.2204
  178SLPC   O1320199   5.567   6.092   7.458  0.5896  0.2517 -0.0334
  178SLPC   O1420200   5.658   5.917   7.309 -0.0921 -0.4463 -0.1759
  178SLPC   O1220201   5.411   5.952   7.315  0.3641 -0.2463 -0.4052
  178SLPC   O1120202   5.558   6.123   7.219  0.3313  0.7180 -0.7164
  178SLPC    C120203   5.642   6.102   7.105 -1.0416 -0.5619  0.3457
  178SLPC    HA20204   5.712   6.187   7.094 -1.5826 -0.3457 -1.8600
  178SLPC    HB20205   5.707   6.012   7.107  0.4292  0.4531 -0.7082
  178SLPC    C220206   5.562   6.100   6.974 -0.0349 -0.2196  0.1229
  178SLPC    HS20207   5.626   6.065   6.890 -0.3811  0.3794 -0.3927
  178SLPC   O2120208   5.504   6.228   6.951  0.2832 -0.0225 -0.0858
  178SLPC   C2120209   5.569   6.306   6.878  0.6129  0.7860  0.3351
  178SLPC   O2220210   5.686   6.290   6.842 -0.2660  0.1117 -0.1949
  178SLPC   C2220211   5.478   6.423   6.843  0.3394 -0.2735  0.0008
  178SLPC   H2R20212   5.379   6.375   6.826  0.9779 -1.2534 -1.1731
  178SLPC   H2S20213   5.483   6.489   6.932  0.4292  0.4366 -0.5209
  178SLPC    C320214   5.442   5.999   6.981 -0.0561 -0.3966  0.1273
  178SLPC    HX20215   5.360   6.040   7.044  0.5912  0.5125  0.4058
  178SLPC    HY20216   5.493   5.920   7.040 -1.1108  1.3752  3.7143
  178SLPC   O3120217   5.399   5.972   6.851  0.1123  0.5062 -0.0609
  178SLPC   C3120218   5.363   5.842   6.829  0.5925  0.0732 -0.3475
  178SLPC   O3220219   5.360   5.758   6.914  0.7720  0.0706 -0.9367
  178SLPC   C3220220   5.335   5.829   6.680  0.3099  0.0648 -0.0426
  178SLPC   H2X20221   5.432   5.840   6.627 -1.1040 -0.7471 -3.0327
  178SLPC   H2Y20222   5.264   5.906   6.642 -2.2532 -2.2820 -0.3636
  178SLPC   C2320223   5.525   6.503   6.720 -0.4875 -0.4373  0.4979
  178SLPC   H3R20224   5.633   6.526   6.719 -0.5971  0.1926  1.8700
  178SLPC   H3S20225   5.471   6.600   6.726  0.4882  0.0580  1.6143
  178SLPC   C2420226   5.486   6.445   6.583  0.3252  0.0538 -0.3662
  178SLPC   H4R20227   5.376   6.429   6.573  0.5005 -2.5623  1.1022
  178SLPC   H4S20228   5.532   6.344   6.576  0.4835  0.1375 -0.5434
  178SLPC   C2520229   5.539   6.528   6.467 -0.5551 -0.1946  0.4819
  178SLPC   H5R20230   5.649   6.530   6.474 -0.5643  0.4184  0.4963
  178SLPC   H5S20231   5.499   6.628   6.494  3.3723  1.0945  2.1157
  178SLPC   C2620232   5.495   6.470   6.333 -0.6077 -0.4003 -0.0371
  178SLPC   H6R20233   5.386   6.475   6.314 -0.7000  1.7443  0.6715
  178SLPC   H6S20234   5.522   6.363   6.325  0.0506 -0.1697 -1.0402
  178SLPC   C2720235   5.551   6.554   6.212 -0.4011  0.0452 -0.1914
  178SLPC   H7R20236   5.661   6.553   6.228 -0.1256 -0.6265 -1.9216
  178SLPC   H7S20237   5.517   6.658   6.229  0.2316 -0.0614  2.0442
  178SLPC   C2820238   5.502   6.494   6.079  0.3304 -0.3192 -1.0904
  178SLPC   H8R20239   5.395   6.522   6.085  0.2147  1.6114 -6.3788
  178SLPC   H8S20240   5.513   6.384   6.087  0.1775 -0.2086  1.1243
  178SLPC   C2920241   5.579   6.554   5.966  0.0191 -0.4820  0.7730
  178SLPC   H9R20242   5.568   6.663   5.960 -1.0391 -0.6542 -0.9735
  178SLPC  C21020243   5.655   6.494   5.871  0.0596  0.4645 -1.0283
  178SLPC  H10R20244   5.701   6.563   5.799  0.6263  1.1955  0.0108
  178SLPC  C21120245   5.696   6.352   5.863 -0.3121 -0.6446 -0.2728
  178SLPC  H11R20246   5.624   6.288   5.807  1.1902 -1.8053 -0.9545
  178SLPC  H11S20247   5.700   6.308   5.964 -4.2148  1.9307  1.2480
  178SLPC  C21220248   5.824   6.358   5.791  0.3504  0.2987 -0.1664
  178SLPC  H12R20249   5.915   6.390   5.845 -1.1931 -0.0004  2.8234
  178SLPC  C21320250   5.832   6.337   5.659 -0.3939 -0.6679 -0.1114
  178SLPC  H13R20251   5.925   6.359   5.605  0.3855 -1.2763  0.9307
  178SLPC  C21420252   5.716   6.296   5.572 -0.1083  0.1495  0.7363
  178SLPC  H14R20253   5.617   6.334   5.605  0.2913  1.5947  0.3740
  178SLPC  H14S20254   5.713   6.185   5.569 -0.5634  0.1496 -1.8126
  178SLPC  C21520255   5.721   6.356   5.430  0.0247  0.1528 -0.9573
  178SLPC  H15R20256   5.818   6.332   5.382  0.0860  0.2884 -0.9008
  178SLPC  H15S20257   5.726   6.467   5.432 -2.2749  0.3337 -1.6010
  178SLPC  C21620258   5.601   6.320   5.337 -0.0828 -0.4658 -1.0184
  178SLPC  H16R20259   5.606   6.383   5.246  3.9192  0.2717 -0.5012
  178SLPC  H16S20260   5.507   6.340   5.392  0.9163 -0.9994  1.0002
  178SLPC  C21720261   5.615   6.176   5.289 -0.1684  0.9194 -0.0446
  178SLPC  H17R20262   5.642   6.113   5.377  0.5723  0.9633 -0.2350
  178SLPC  H17S20263   5.706   6.171   5.226 -0.7825 -1.0471 -0.8624
  178SLPC  C21820264   5.494   6.112   5.213 -0.5128  0.3884  0.7418
  178SLPC  H18R20265   5.407   6.121   5.281 -0.7396 -0.4644  0.5787
  178SLPC  H18S20266   5.513   6.005   5.188 -2.4170 -0.2963  1.9748
  178SLPC  H18T20267   5.469   6.174   5.124 -0.6611 -0.3698  0.2486
  178SLPC   C3320268   5.267   5.699   6.647 -0.3468  0.4037  0.1273
  178SLPC   H3X20269   5.160   5.718   6.624  0.1383  1.3795 -1.4248
  178SLPC   H3Y20270   5.289   5.619   6.722  1.1427 -0.8884 -1.6101
  178SLPC   C3420271   5.321   5.657   6.505  0.2745  0.1482  0.6037
  178SLPC   H4X20272   5.275   5.560   6.478  0.4014  0.2389  0.0544
  178SLPC   H4Y20273   5.431   5.650   6.514  0.2546 -1.6138 -0.1162
  178SLPC   C3520274   5.274   5.755   6.392  0.8198 -0.2533 -0.6575
  178SLPC   H5X20275   5.315   5.857   6.404 -1.9419  0.9408 -0.5572
  178SLPC   H5Y20276   5.165   5.773   6.401  0.9113 -0.6325  2.3072
  178SLPC   C3620277   5.304   5.692   6.258 -0.0317 -0.5771  0.0920
  178SLPC   H6X20278   5.244   5.601   6.237 -0.6445 -0.5197  1.5061
  178SLPC   H6Y20279   5.412   5.667   6.255  0.3976  0.9315  1.5686
  178SLPC   C3720280   5.275   5.791   6.139 -0.7740  0.2388  0.2815
  178SLPC   H7X20281   5.347   5.875   6.150  0.2134 -0.3437 -1.2932
  178SLPC   H7Y20282   5.170   5.824   6.153 -0.3706  1.4396  0.5662
  178SLPC   C3820283   5.307   5.721   6.008  0.7515 -0.3917 -0.6505
  178SLPC   H8X20284   5.270   5.616   6.014  0.2250 -0.1293  2.7170
  178SLPC   H8Y20285   5.418   5.720   6.004  0.8556  3.0317 -0.7379
  178SLPC   C3920286   5.256   5.787   5.888  0.8539  0.1674  0.2807
  178SLPC   H9X20287   5.286   5.894   5.878  0.5268  0.1348 -1.4771
  178SLPC   H9Y20288   5.147   5.782   5.905  0.8781  0.6097  0.5830
  178SLPC  C31020289   5.282   5.719   5.749  0.3753  0.4721 -0.5113
  178SLPC  H10X20290   5.268   5.610   5.762 -0.6392  0.8105  1.7511
  178SLPC  H10Y20291   5.390   5.741   5.735 -0.0264  0.9933 -3.6320
  178SLPC  C31120292   5.189   5.782   5.641 -0.8133  0.4664 -0.4641
  178SLPC  H11X20293   5.199   5.893   5.633  0.7807  0.2120 -3.2336
  178SLPC  H11Y20294   5.082   5.761   5.660 -0.7985  1.1309  0.4527
  178SLPC  C31220295   5.210   5.731   5.500  0.3151 -0.0082 -0.4983
  178SLPC  H12X20296   5.156   5.635   5.487 -0.1400  0.1267  0.3214
  178SLPC  H12Y20297   5.321   5.722   5.498  0.5479  2.2624 -1.2612
  178SLPC  C31320298   5.175   5.832   5.392  0.9385 -0.1724 -0.0413
  178SLPC  H13X20299   5.226   5.926   5.421  0.7223  0.3082 -1.1513
  178SLPC  H13Y20300   5.065   5.849   5.393  1.2424  2.1628  0.4637
  178SLPC  C31420301   5.228   5.792   5.256  0.3821 -0.3386  0.2653
  178SLPC  H14X20302   5.189   5.694   5.220  2.1363 -1.1481  0.4718
  178SLPC  H14Y20303   5.337   5.770   5.251  0.5547  0.6496 -0.8810
  178SLPC  C31520304   5.207   5.908   5.153 -0.6252  0.2790  0.3296
  178SLPC  H15X20305   5.265   5.884   5.061 -0.6020  2.9684 -0.4459
  178SLPC  H15Y20306   5.258   5.997   5.196 -0.8602  1.6068 -1.9960
  178SLPC  C31620307   5.065   5.949   5.119 -0.5746  0.0274  0.9477
  178SLPC  H16X20308   5.026   6.000   5.210 -1.3138  0.3499  0.4615
  178SLPC  H16Y20309   5.006   5.856   5.117 -0.1228 -0.2890  1.7613
  178SLPC  C31720310   5.051   6.033   4.988  0.3696  0.2863  0.0916
  178SLPC  H17X20311   5.083   5.977   4.898  1.4715  1.2788 -0.1592
  178SLPC  H17Y20312   5.135   6.105   5.000  0.3119  0.2525  0.7668
  178SLPC  C31820313   4.912   6.105   4.973  0.9115  0.9781 -0.3437
  178SLPC  H18X20314   4.824   6.060   4.923 -0.9187  1.8331  1.9077
  178SLPC  H18Y20315   4.928   6.197   4.913  0.4289  2.2277  1.3596
  178SLPC  H18Z20316   4.870   6.128   5.074  1.9615 -3.0832  1.2263
  179SLPC     N20317   5.026   1.555   1.962 -0.3087 -0.1735  0.3842
  179SLPC   C1320318   5.168   1.530   1.916  0.5080  0.0251  0.6719
  179SLPC  H13A20319   5.187   1.572   1.818  0.5265 -0.4444  0.4759
  179SLPC  H13B20320   5.233   1.569   1.993  0.7027  0.0356  0.5022
  179SLPC  H13C20321   5.193   1.426   1.905  1.7223  0.4334 -0.7580
  179SLPC   C1420322   4.931   1.484   1.865 -0.2058  0.2999  0.0644
  179SLPC  H14A20323   4.947   1.523   1.766 -1.0978  1.5189  0.3641
  179SLPC  H14B20324   4.951   1.378   1.867  2.3725  0.7127 -0.9238
  179SLPC  H14C20325   4.828   1.498   1.894 -0.0938 -1.2143  1.2987
  179SLPC   C1520326   5.010   1.706   1.961  0.0609 -0.2637  0.9567
  179SLPC  H15A20327   4.917   1.727   2.011 -0.0515 -2.6120  1.8286
  179SLPC  H15B20328   5.079   1.766   2.019 -1.1369  2.5544 -0.3030
  179SLPC  H15C20329   5.009   1.743   1.859 -1.0624 -0.4427  0.8847
  179SLPC   C1220330   5.006   1.495   2.102 -0.5567 -0.5306 -0.7011
  179SLPC  H12A20331   4.908   1.513   2.143  0.2805 -0.4160  1.3477
  179SLPC  H12B20332   5.062   1.548   2.178 -0.5885 -0.6842 -0.5694
  179SLPC   C1120333   5.040   1.339   2.123  0.0878 -0.2056 -0.1097
  179SLPC  H11A20334   5.072   1.331   2.229 -0.0420 -0.7685 -0.1110
  179SLPC  H11B20335   5.129   1.321   2.060 -0.6767 -2.5397 -0.6133
  179SLPC     P20336   4.785   1.265   2.156 -0.1698 -0.0300 -0.3761
  179SLPC   O1320337   4.690   1.297   2.047  0.4480  0.6887  0.2382
  179SLPC   O1420338   4.760   1.143   2.230 -0.1574  0.3238  0.1482
  179SLPC   O1220339   4.929   1.257   2.087  0.0049  0.0535  0.1428
  179SLPC   O1120340   4.793   1.400   2.242 -0.0344  0.0433 -0.5661
  179SLPC    C120341   4.682   1.491   2.252  0.2543  0.7018 -0.1111
  179SLPC    HA20342   4.692   1.555   2.162 -0.6330 -2.1225 -2.3845
  179SLPC    HB20343   4.589   1.433   2.270  0.3909  0.3614 -0.4819
  179SLPC    C220344   4.704   1.600   2.365  0.3691  0.0880 -0.1832
  179SLPC    HS20345   4.611   1.659   2.359  0.1205 -0.1428  1.2404
  179SLPC   O2120346   4.819   1.676   2.341  0.4920  0.1319  0.0525
  179SLPC   C2120347   4.810   1.813   2.356 -0.4612 -0.9682  0.2983
  179SLPC   O2220348   4.715   1.871   2.399  0.0363 -0.3011 -0.1425
  179SLPC   C2220349   4.949   1.876   2.334 -0.3449  0.2714 -0.1762
  179SLPC   H2R20350   5.029   1.816   2.383  0.6863  1.0274 -0.8802
  179SLPC   H2S20351   4.964   1.886   2.224 -2.2024 -1.1460 -0.6110
  179SLPC    C320352   4.728   1.532   2.507  0.1108 -0.1629 -0.4149
  179SLPC    HX20353   4.736   1.613   2.584 -0.7169 -0.9987  0.5924
  179SLPC    HY20354   4.816   1.466   2.498 -0.2921 -1.2581  2.6082
  179SLPC   O3120355   4.614   1.450   2.541 -0.3642  0.2591 -0.1082
  179SLPC   C3120356   4.634   1.403   2.661 -0.3206  0.4613  0.0997
  179SLPC   O3220357   4.720   1.438   2.738  0.0528 -0.2880 -0.0687
  179SLPC   C3220358   4.525   1.292   2.696  0.1619 -0.5195  0.4663
  179SLPC   H2X20359   4.544   1.206   2.629  0.6646 -1.6320  1.9667
  179SLPC   H2Y20360   4.431   1.336   2.658 -0.0106 -0.3048  1.1208
  179SLPC   C2320361   4.969   2.019   2.390 -0.9550 -0.4750 -0.3345
  179SLPC   H3R20362   4.963   1.999   2.499  0.9382 -0.2708 -0.1571
  179SLPC   H3S20363   4.891   2.089   2.354 -1.9534 -1.7629 -0.7697
  179SLPC   C2420364   5.108   2.092   2.368 -0.0537  0.8834 -0.1531
  179SLPC   H4R20365   5.079   2.198   2.380 -0.3190  1.0351 -1.8681
  179SLPC   H4S20366   5.139   2.079   2.262 -3.3820 -1.1255 -1.0424
  179SLPC   C2520367   5.224   2.045   2.463  0.5526  0.6655  0.4383
  179SLPC   H5R20368   5.306   2.111   2.429  0.5909  1.3109  1.7625
  179SLPC   H5S20369   5.263   1.948   2.425  1.3227  1.6952 -1.5672
  179SLPC   C2620370   5.199   2.038   2.607  0.1564 -0.2660 -1.2145
  179SLPC   H6R20371   5.292   2.001   2.656 -0.0139  1.5005  0.5740
  179SLPC   H6S20372   5.117   1.971   2.641  0.2794 -0.6194 -1.6034
  179SLPC   C2720373   5.168   2.171   2.674  0.6065  0.1131  0.2974
  179SLPC   H7R20374   5.082   2.215   2.620  0.9433  0.0935 -0.2614
  179SLPC   H7S20375   5.258   2.228   2.642 -0.5834  2.2886  0.6280
  179SLPC   C2820376   5.144   2.172   2.823 -0.2917  1.1281 -0.1673
  179SLPC   H8R20377   5.219   2.107   2.871 -1.0075 -0.6273 -1.3155
  179SLPC   H8S20378   5.046   2.130   2.853 -0.1758  0.7227 -0.3599
  179SLPC   C2920379   5.147   2.312   2.877  0.9942 -0.6125 -0.6327
  179SLPC   H9R20380   5.057   2.375   2.881  0.2789 -1.6511 -0.0552
  179SLPC  C21020381   5.254   2.374   2.930 -0.2373  0.0952 -0.3866
  179SLPC  H10R20382   5.240   2.477   2.964 -2.1320 -0.4444  0.5968
  179SLPC  C21120383   5.392   2.310   2.939  0.1381 -0.4415 -0.1321
  179SLPC  H11R20384   5.428   2.287   2.836  1.8325  0.5536  0.2024
  179SLPC  H11S20385   5.391   2.206   2.979  0.6000 -1.8726 -3.4853
  179SLPC  C21220386   5.490   2.394   3.016 -0.2287  0.2137 -0.0267
  179SLPC  H12R20387   5.521   2.488   2.968  0.2615 -1.0239 -2.2934
  179SLPC  C21320388   5.550   2.373   3.131 -0.4908  0.1089 -0.0619
  179SLPC  H13R20389   5.623   2.447   3.169  0.6450 -1.0650  0.1190
  179SLPC  C21420390   5.521   2.260   3.226  0.2181  0.3232  0.1943
  179SLPC  H14R20391   5.570   2.267   3.326 -1.3665 -0.3199  1.0555
  179SLPC  H14S20392   5.543   2.159   3.184 -2.5320 -1.1571  2.0316
  179SLPC  C21520393   5.372   2.233   3.265 -0.0336 -0.5220 -0.3906
  179SLPC  H15R20394   5.366   2.146   3.334 -0.6766 -0.5155 -0.4331
  179SLPC  H15S20395   5.319   2.194   3.176 -0.4275 -0.3620 -0.2277
  179SLPC  C21620396   5.292   2.364   3.306 -0.3105  0.4097  0.0724
  179SLPC  H16R20397   5.324   2.451   3.245 -0.1374 -1.5255 -2.8141
  179SLPC  H16S20398   5.323   2.391   3.409  2.7285 -0.9231 -0.3618
  179SLPC  C21720399   5.138   2.332   3.300 -0.6829  0.1912 -0.2849
  179SLPC  H17R20400   5.134   2.295   3.195 -0.2500  0.1391 -0.2827
  179SLPC  H17S20401   5.074   2.423   3.305  0.5920  1.0562  1.0782
  179SLPC  C21820402   5.092   2.223   3.391 -0.1805  0.2061 -0.7348
  179SLPC  H18R20403   5.110   2.251   3.497  1.7827 -0.5548 -0.8091
  179SLPC  H18S20404   5.149   2.128   3.377 -1.2417 -0.9145  1.8862
  179SLPC  H18T20405   4.985   2.196   3.383 -0.3280  0.8744 -1.0921
  179SLPC   C3320406   4.510   1.247   2.842  1.1065  0.1154 -0.5940
  179SLPC   H3X20407   4.613   1.231   2.882  1.9802 -0.9520 -3.0756
  179SLPC   H3Y20408   4.459   1.148   2.840  0.3514  0.5225 -1.6835
  179SLPC   C3420409   4.432   1.330   2.940  0.6595  0.0846 -0.0334
  179SLPC   H4X20410   4.332   1.348   2.894 -0.1486  0.5498  1.8260
  179SLPC   H4Y20411   4.475   1.432   2.954 -1.6997  1.0205  0.9891
  179SLPC   C3520412   4.411   1.277   3.083  0.2466 -0.1835 -0.4084
  179SLPC   H5X20413   4.328   1.337   3.127  0.5455  0.5542 -0.8520
  179SLPC   H5Y20414   4.375   1.172   3.095  1.5298 -0.5182  0.8166
  179SLPC   C3620415   4.533   1.290   3.176  0.3969 -0.5533  0.3542
  179SLPC   H6X20416   4.575   1.392   3.159 -1.2750 -0.1449 -1.8987
  179SLPC   H6Y20417   4.610   1.215   3.147 -0.1350 -1.6035  1.5647
  179SLPC   C3720418   4.501   1.275   3.328 -0.2108  1.0308  0.5064
  179SLPC   H7X20419   4.465   1.171   3.339 -2.4542  1.3721 -2.3587
  179SLPC   H7Y20420   4.419   1.343   3.361 -0.7266 -0.3787  2.2900
  179SLPC   C3820421   4.628   1.278   3.411  1.0131  0.0300  0.6569
  179SLPC   H8X20422   4.678   1.378   3.409  0.7084  0.3241  3.6187
  179SLPC   H8Y20423   4.698   1.203   3.369  1.1510 -0.0694  1.0595
  179SLPC   C3920424   4.597   1.240   3.553 -0.1540  0.2301 -0.1881
  179SLPC   H9X20425   4.694   1.225   3.606  0.3504  2.9757 -0.1821
  179SLPC   H9Y20426   4.537   1.147   3.554  1.2278 -0.8257 -3.5118
  179SLPC  C31020427   4.503   1.339   3.622  0.3260  0.0633  0.2613
  179SLPC  H10X20428   4.401   1.316   3.584  0.6299  0.3691 -0.8039
  179SLPC  H10Y20429   4.523   1.443   3.586  0.2718 -0.4886 -1.4831
  179SLPC  C31120430   4.509   1.322   3.779  0.1281 -0.1039  0.6768
  179SLPC  H11X20431   4.443   1.407   3.807 -1.6037 -0.8407 -0.9947
  179SLPC  H11Y20432   4.616   1.337   3.806  1.3482 -1.2784 -2.9562
  179SLPC  C31220433   4.468   1.191   3.847  0.2312  0.3642 -0.4794
  179SLPC  H12X20434   4.497   1.097   3.794  0.4734 -0.0444  0.3520
  179SLPC  H12Y20435   4.357   1.200   3.845  0.2606  0.6522 -0.9164
  179SLPC  C31320436   4.511   1.175   4.000 -0.9645 -1.0068  0.1596
  179SLPC  H13X20437   4.621   1.184   4.002 -1.0064 -0.1701 -0.5935
  179SLPC  H13Y20438   4.485   1.073   4.037  2.6728 -2.2262 -0.2663
  179SLPC  C31420439   4.447   1.282   4.090  0.1160  0.0877  1.1909
  179SLPC  H14X20440   4.337   1.285   4.080  0.3190  1.8339 -1.4475
  179SLPC  H14Y20441   4.492   1.380   4.063  2.2101 -0.4682  2.4135
  179SLPC  C31520442   4.473   1.259   4.232  0.2842  1.2564 -0.3759
  179SLPC  H15X20443   4.583   1.256   4.250  0.2369  0.3106 -0.2219
  179SLPC  H15Y20444   4.418   1.168   4.263  0.2518  0.9279 -1.3621
  179SLPC  C31620445   4.411   1.369   4.312 -0.1824  0.4832  0.7171
  179SLPC  H16X20446   4.304   1.387   4.288  0.6132  1.0041 -3.0742
  179SLPC  H16Y20447   4.463   1.465   4.290 -0.5957  0.5049 -0.1748
  179SLPC  C31720448   4.416   1.339   4.461  0.0364 -0.4244 -0.1018
  179SLPC  H17X20449   4.351   1.253   4.486 -1.3355  0.2689 -1.1812
  179SLPC  H17Y20450   4.380   1.434   4.507 -1.4154  0.4292 -2.8040
  179SLPC  C31820451   4.554   1.304   4.513  0.3499  0.1825  0.4012
  179SLPC  H18X20452   4.554   1.194   4.522  0.9462 -0.1346 -2.5040
  179SLPC  H18Y20453   4.577   1.366   4.602 -0.0623  0.2553  0.4588
  179SLPC  H18Z20454   4.630   1.324   4.435 -0.6506 -0.6196 -0.8113
  180SLPC     N20455   3.133   0.663   2.560 -0.2980 -0.3347 -0.0449
  180SLPC   C1320456   3.008   0.601   2.500 -0.5125 -0.6153  0.6961
  180SLPC  H13A20457   2.959   0.653   2.420  0.5746 -0.7657 -0.0853
  180SLPC  H13B20458   3.034   0.503   2.462  1.5528  0.0252  0.3693
  180SLPC  H13C20459   2.929   0.589   2.573 -0.3957 -0.5315  0.8367
  180SLPC   C1420460   3.237   0.651   2.447 -0.2691  0.1092 -0.5563
  180SLPC  H14A20461   3.248   0.548   2.417 -0.2519 -0.8883  2.6168
  180SLPC  H14B20462   3.213   0.712   2.361  0.8557 -0.1285 -1.0636
  180SLPC  H14C20463   3.327   0.688   2.493 -0.3757  0.0277 -0.2839
  180SLPC   C1520464   3.178   0.575   2.673 -0.4711  0.0364 -0.6668
  180SLPC  H15A20465   3.164   0.474   2.637  0.7599 -0.6837  0.7357
  180SLPC  H15B20466   3.282   0.585   2.701 -1.0913  0.2450  1.7471
  180SLPC  H15C20467   3.112   0.578   2.758  0.2811  1.6156 -0.0882
  180SLPC   C1220468   3.102   0.806   2.602  0.3476  0.2517  0.4424
  180SLPC  H12A20469   3.015   0.818   2.664  0.0849  1.5875 -0.1432
  180SLPC  H12B20470   3.072   0.856   2.511  0.6269 -1.8233 -0.8570
  180SLPC   C1120471   3.209   0.888   2.675  0.0797  0.2576  0.2863
  180SLPC  H11A20472   3.260   0.825   2.751  2.9398 -0.3949 -2.0139
  180SLPC  H11B20473   3.175   0.979   2.729 -0.4681  0.2948 -0.1158
  180SLPC     P20474   3.314   1.064   2.505  0.0180 -0.0851 -0.0485
  180SLPC   O1320475   3.381   1.053   2.373 -0.1793  0.1914 -0.3981
  180SLPC   O1420476   3.180   1.123   2.499  0.6014  0.5044  0.5618
  180SLPC   O1220477   3.305   0.923   2.573  0.4820 -0.1560 -0.0576
  180SLPC   O1120478   3.408   1.150   2.597  0.0722 -0.4970  0.7951
  180SLPC    C120479   3.529   1.100   2.645 -0.0151 -0.3918 -0.1363
  180SLPC    HA20480   3.563   1.001   2.607  0.1163  0.2629 -1.7721
  180SLPC    HB20481   3.609   1.177   2.633 -0.5009  0.6665  2.6459
  180SLPC    C220482   3.521   1.083   2.799  1.3500 -0.6929  0.3034
  180SLPC    HS20483   3.441   1.010   2.822  0.2124  0.0616 -1.0294
  180SLPC   O2120484   3.479   1.218   2.843  0.3521 -0.0626  0.4469
  180SLPC   C2120485   3.423   1.218   2.962  0.2401  0.4339 -0.2101
  180SLPC   O2220486   3.383   1.122   3.020  0.1835  0.0297 -0.5917
  180SLPC   C2220487   3.394   1.361   3.004  0.3613 -0.3073 -0.2812
  180SLPC   H2R20488   3.481   1.430   3.015 -0.1286  0.4337 -0.9551
  180SLPC   H2S20489   3.350   1.403   2.911  0.5211 -1.5864 -0.9637
  180SLPC    C320490   3.658   1.052   2.870 -0.1723 -0.5983 -0.2162
  180SLPC    HX20491   3.720   1.143   2.860  2.1908 -2.1333 -0.3292
  180SLPC    HY20492   3.719   0.977   2.815 -0.4069 -0.2285 -0.9902
  180SLPC   O3120493   3.644   1.023   3.009 -0.4468 -0.7938  0.2416
  180SLPC   C3120494   3.600   0.901   3.036  0.4178  0.0643 -0.1832
  180SLPC   O3220495   3.584   0.810   2.960 -0.0527  0.4938 -0.2411
  180SLPC   C3220496   3.544   0.914   3.175 -0.4192 -0.5327  0.5151
  180SLPC   H2X20497   3.488   1.009   3.188 -0.0207 -0.3899  1.1891
  180SLPC   H2Y20498   3.627   0.921   3.248  0.2094  1.1719 -0.3100
  180SLPC   C2320499   3.299   1.375   3.122  0.0682 -0.5155 -0.3255
  180SLPC   H3R20500   3.214   1.304   3.120 -0.5151  0.1933 -1.2887
  180SLPC   H3S20501   3.244   1.470   3.103 -1.4162 -1.5877 -1.6430
  180SLPC   C2420502   3.367   1.383   3.256 -0.1379  0.1559  0.7820
  180SLPC   H4R20503   3.281   1.407   3.323 -1.7888 -0.5289 -1.0047
  180SLPC   H4S20504   3.441   1.465   3.265  0.4854 -0.1506 -1.1794
  180SLPC   C2520505   3.442   1.261   3.305  0.1032  0.7470 -0.5226
  180SLPC   H5R20506   3.527   1.227   3.243 -1.2134 -3.6616 -0.3077
  180SLPC   H5S20507   3.367   1.179   3.294 -0.9805  2.0204 -4.1357
  180SLPC   C2620508   3.485   1.269   3.451  0.1827 -0.4139  0.3459
  180SLPC   H6R20509   3.387   1.273   3.502  1.2850  0.7064  2.5290
  180SLPC   H6S20510   3.538   1.365   3.467 -0.7582  0.2195 -0.2832
  180SLPC   C2720511   3.572   1.149   3.492 -0.9756  0.4206  0.2929
  180SLPC   H7R20512   3.677   1.163   3.461 -0.7856 -0.5896  0.4433
  180SLPC   H7S20513   3.522   1.058   3.452  2.8550 -1.2062 -1.2706
  180SLPC   C2820514   3.569   1.121   3.643  0.2325 -0.6211  0.0085
  180SLPC   H8R20515   3.608   1.021   3.672  0.1960 -0.0025  2.4552
  180SLPC   H8S20516   3.460   1.116   3.665 -0.0759  1.7466 -0.7125
  180SLPC   C2920517   3.656   1.222   3.721 -0.0424 -0.5504  0.3251
  180SLPC   H9R20518   3.693   1.315   3.673 -1.8269  0.5955  1.0713
  180SLPC  C21020519   3.677   1.214   3.853  0.8506 -0.3531  0.2376
  180SLPC  H10R20520   3.745   1.277   3.912  0.8598  0.8438 -1.0016
  180SLPC  C21120521   3.607   1.110   3.935  0.0452 -0.0201 -0.0948
  180SLPC  H11R20522   3.674   1.070   4.015  0.0048 -0.1310 -0.1158
  180SLPC  H11S20523   3.585   1.022   3.870 -0.7477  0.5930 -0.6779
  180SLPC  C21220524   3.483   1.183   3.986 -0.1879 -0.4447  0.1290
  180SLPC  H12R20525   3.443   1.262   3.921  2.7507 -0.0839 -1.4336
  180SLPC  C21320526   3.411   1.153   4.092  0.7520  0.5161 -0.4268
  180SLPC  H13R20527   3.323   1.211   4.125  2.1983  2.1263  0.7780
  180SLPC  C21420528   3.451   1.054   4.192 -0.7672 -0.3076 -0.3318
  180SLPC  H14R20529   3.544   0.995   4.174 -0.8130  0.3671 -3.1925
  180SLPC  H14S20530   3.362   0.991   4.212 -0.8349  0.1025  0.7704
  180SLPC  C21520531   3.489   1.126   4.328  0.1837  0.9494 -0.1474
  180SLPC  H15R20532   3.395   1.181   4.352 -0.6014 -0.1634 -0.5833
  180SLPC  H15S20533   3.574   1.197   4.326  0.3097  0.8266  0.5234
  180SLPC  C21620534   3.526   1.026   4.441 -0.7482 -0.1287  0.0893
  180SLPC  H16R20535   3.624   0.984   4.408 -0.8115  1.3782 -2.2879
  180SLPC  H16S20536   3.450   0.947   4.421 -1.5040  0.7164 -0.4149
  180SLPC  C21720537   3.513   1.078   4.585 -0.4095  0.2197 -0.3269
  180SLPC  H17R20538   3.408   1.109   4.602 -1.4848 -1.2866 -3.4212
  180SLPC  H17S20539   3.582   1.164   4.585 -1.0423  0.7467 -1.3642
  180SLPC  C21820540   3.552   0.964   4.678 -0.0717  0.2113  0.1406
  180SLPC  H18R20541   3.491   0.872   4.672  0.2738  0.0583 -1.1698
  180SLPC  H18S20542   3.550   1.008   4.780 -0.1000 -2.2547  1.2773
  180SLPC  H18T20543   3.651   0.921   4.654 -1.1055 -2.2927  0.0610
  180SLPC   C3320544   3.450   0.794   3.219 -0.3797 -0.4081 -0.3949
  180SLPC   H3X20545   3.502   0.698   3.200 -0.8714 -0.8442  0.4330
  180SLPC   H3Y20546   3.356   0.779   3.163 -0.0950 -0.3868 -0.8846
  180SLPC   C3420547   3.425   0.808   3.365 -0.0786 -0.5658 -0.2005
  180SLPC   H4X20548   3.366   0.901   3.382  0.6362 -0.0566 -0.4844
  180SLPC   H4Y20549   3.524   0.810   3.414 -0.5715 -1.5190  0.8789
  180SLPC   C3520550   3.349   0.688   3.423  0.5786  0.8367  0.1368
  180SLPC   H5X20551   3.407   0.598   3.395 -0.1943  0.1596  0.6727
  180SLPC   H5Y20552   3.247   0.681   3.380  1.1493  0.3124 -1.1590
  180SLPC   C3620553   3.329   0.687   3.577 -0.6018  0.1330  0.4030
  180SLPC   H6X20554   3.249   0.612   3.596  1.5120 -1.8253  2.1610
  180SLPC   H6Y20555   3.292   0.788   3.604  0.4478  0.9408 -1.0451
  180SLPC   C3720556   3.456   0.650   3.652 -0.0385 -0.0172  0.8254
  180SLPC   H7X20557   3.528   0.733   3.636  1.9543 -1.5039  1.5730
  180SLPC   H7Y20558   3.502   0.559   3.608 -2.5991  0.1428 -2.6564
  180SLPC   C3820559   3.432   0.626   3.800 -0.5774  0.1115 -0.1620
  180SLPC   H8X20560   3.524   0.575   3.838  0.5420  1.2848 -1.1859
  180SLPC   H8Y20561   3.345   0.566   3.834  1.5965 -1.0178  4.1973
  180SLPC   C3920562   3.434   0.758   3.878  1.0146 -0.7500  0.4759
  180SLPC   H9X20563   3.353   0.828   3.848  0.7075 -1.0832  0.5249
  180SLPC   H9Y20564   3.529   0.813   3.858  0.3484  0.3349  0.2008
  180SLPC  C31020565   3.411   0.745   4.032  0.0070 -0.0499  0.7147
  180SLPC  H10X20566   3.302   0.743   4.050 -0.0128 -0.9726  0.5495
  180SLPC  H10Y20567   3.456   0.839   4.071 -3.2602  1.0097  2.2164
  180SLPC  C31120568   3.474   0.620   4.094 -0.1063 -0.0404  0.6689
  180SLPC  H11X20569   3.579   0.610   4.059  0.0412  1.0501  0.7748
  180SLPC  H11Y20570   3.425   0.525   4.065  0.0241  0.1091 -0.0693
  180SLPC  C31220571   3.476   0.626   4.248  0.5403 -0.0929 -0.6195
  180SLPC  H12X20572   3.536   0.710   4.289  0.2933  0.5401 -1.5149
  180SLPC  H12Y20573   3.539   0.539   4.277  0.3256  0.4491  1.6449
  180SLPC  C31320574   3.340   0.625   4.307  0.5487 -0.3241 -0.1058
  180SLPC  H13X20575   3.287   0.537   4.263  0.7521 -0.0142 -0.9905
  180SLPC  H13Y20576   3.285   0.721   4.304  0.1133 -0.5378  0.7825
  180SLPC  C31420577   3.344   0.593   4.457 -0.1235 -0.1286 -0.3089
  180SLPC  H14X20578   3.388   0.674   4.519 -1.0990 -0.0691  0.3346
  180SLPC  H14Y20579   3.404   0.502   4.477 -1.1159 -0.5177  1.0202
  180SLPC  C31520580   3.195   0.580   4.506 -0.4885 -0.1331  0.2344
  180SLPC  H15X20581   3.148   0.507   4.438  0.1629 -0.6201  0.3045
  180SLPC  H15Y20582   3.138   0.675   4.492 -0.4449 -0.2203 -0.5343
  180SLPC  C31620583   3.182   0.530   4.650  0.3114 -0.7911  0.8475
  180SLPC  H16X20584   3.231   0.430   4.649  1.1913 -0.3735 -0.0879
  180SLPC  H16Y20585   3.074   0.520   4.674 -0.1223  0.5286 -0.4502
  180SLPC  C31720586   3.258   0.618   4.754 -0.3491 -0.0747 -0.1301
  180SLPC  H17X20587   3.197   0.711   4.745  1.0803  0.6915 -2.7287
  180SLPC  H17Y20588   3.357   0.645   4.713  0.1124 -0.0974  0.9388
  180SLPC  C31820589   3.267   0.569   4.892  0.3927 -0.6180 -0.3526
  180SLPC  H18X20590   3.347   0.634   4.935  0.2041  0.3762 -1.4562
  180SLPC  H18Y20591   3.302   0.465   4.907  1.4512 -0.1837  0.3238
  180SLPC  H18Z20592   3.176   0.584   4.954 -1.8766 -3.4101 -2.7419
  181SLPC     N20593   2.638   0.356   2.433 -0.2603  0.1174 -0.3986
  181SLPC   C1320594   2.776   0.344   2.500  0.0217  0.2522 -0.1283
  181SLPC  H13A20595   2.789   0.247   2.545 -1.2222  0.9735  1.9286
  181SLPC  H13B20596   2.860   0.350   2.432  1.2299  0.0122  1.3074
  181SLPC  H13C20597   2.777   0.419   2.578 -2.4964  0.9717 -0.6756
  181SLPC   C1420598   2.642   0.266   2.312 -0.5532 -0.3447  0.3808
  181SLPC  H14A20599   2.678   0.167   2.335  2.0959 -0.3516 -3.0328
  181SLPC  H14B20600   2.540   0.265   2.275  0.5094 -1.5324 -2.7914
  181SLPC  H14C20601   2.711   0.306   2.239  0.5092 -1.1675  0.9110
  181SLPC   C1520602   2.615   0.491   2.372  0.0280 -0.0536  0.3079
  181SLPC  H15A20603   2.693   0.523   2.304 -0.6961 -0.9889 -1.0208
  181SLPC  H15B20604   2.528   0.495   2.307  0.2401  1.2000  0.0738
  181SLPC  H15C20605   2.586   0.557   2.452  1.9487 -0.8824  1.7487
  181SLPC   C1220606   2.527   0.318   2.524 -0.4659 -0.7929  0.6046
  181SLPC  H12A20607   2.549   0.216   2.553  2.7070 -0.2203  0.5765
  181SLPC  H12B20608   2.435   0.324   2.468  0.3229 -0.1895 -0.6814
  181SLPC   C1120609   2.511   0.389   2.663  0.2169  0.5959  0.0205
  181SLPC  H11A20610   2.600   0.361   2.724 -0.2083 -1.5126 -0.2208
  181SLPC  H11B20611   2.425   0.334   2.708 -0.3177  1.1176 -0.3554
  181SLPC     P20612   2.349   0.581   2.613 -0.1768 -0.1657 -0.0477
  181SLPC   O1320613   2.378   0.699   2.526 -0.3843  1.3146  0.4271
  181SLPC   O1420614   2.262   0.476   2.557 -0.4609 -0.1338 -0.6956
  181SLPC   O1220615   2.497   0.524   2.656  0.5563 -0.3008 -0.1206
  181SLPC   O1120616   2.292   0.630   2.747  0.5051 -0.6020 -0.6437
  181SLPC    C120617   2.348   0.608   2.876  0.3984 -0.0067  0.0693
  181SLPC    HA20618   2.268   0.610   2.953 -0.6887 -0.4901 -1.0067
  181SLPC    HB20619   2.396   0.508   2.892  1.2153  0.5711  1.4557
  181SLPC    C220620   2.442   0.727   2.917 -0.7980 -0.0901  0.4300
  181SLPC    HS20621   2.531   0.717   2.852 -1.1932 -0.6506 -0.0250
  181SLPC   O2120622   2.484   0.720   3.058 -0.3353 -0.1861  0.0514
  181SLPC   C2120623   2.598   0.771   3.091 -0.4139  0.2316  0.0160
  181SLPC   O2220624   2.679   0.821   3.012 -0.2243 -0.1866  0.0487
  181SLPC   C2220625   2.623   0.748   3.237 -0.8399  0.5782 -0.1671
  181SLPC   H2R20626   2.691   0.660   3.237 -0.4307  0.8898 -0.0316
  181SLPC   H2S20627   2.690   0.830   3.271 -0.3096  0.9106 -1.9260
  181SLPC    C320628   2.371   0.872   2.902 -0.3885 -0.2951  0.6555
  181SLPC    HX20629   2.279   0.880   2.963 -1.1952 -0.4490 -0.5184
  181SLPC    HY20630   2.340   0.891   2.798 -1.5084  2.5008  1.4099
  181SLPC   O3120631   2.459   0.975   2.949 -0.0495 -0.5280 -0.3205
  181SLPC   C3120632   2.537   1.029   2.855  0.4883 -0.2764  0.3059
  181SLPC   O3220633   2.547   0.992   2.739 -0.4126 -0.1826 -0.2917
  181SLPC   C3220634   2.610   1.153   2.916  0.4112  0.1722 -0.0689
  181SLPC   H2X20635   2.614   1.232   2.837 -0.2737  1.5535  1.2377
  181SLPC   H2Y20636   2.715   1.140   2.948 -0.1603  0.8898  2.2519
  181SLPC   C2320637   2.512   0.737   3.335 -0.9276 -0.4968 -0.8935
  181SLPC   H3R20638   2.465   0.637   3.322  0.9558 -1.3149 -1.7712
  181SLPC   H3S20639   2.428   0.809   3.326 -0.1310  0.4827 -0.6136
  181SLPC   C2420640   2.565   0.741   3.482 -0.0835 -1.2276  0.1331
  181SLPC   H4R20641   2.670   0.705   3.480  0.4938  0.4475 -1.1603
  181SLPC   H4S20642   2.516   0.657   3.537  0.4193 -0.9882  0.9691
  181SLPC   C2520643   2.559   0.879   3.541 -0.2231 -0.4041 -0.3308
  181SLPC   H5R20644   2.473   0.937   3.501  0.6010 -0.5954 -2.5225
  181SLPC   H5S20645   2.643   0.938   3.498 -1.7374  1.2648 -1.1254
  181SLPC   C2620646   2.556   0.881   3.694 -0.3882  0.1537 -0.0668
  181SLPC   H6R20647   2.480   0.809   3.732 -2.4924  2.9913  1.5293
  181SLPC   H6S20648   2.511   0.975   3.732 -0.0337  1.3964 -2.5098
  181SLPC   C2720649   2.693   0.851   3.748  0.0456  1.6808  0.8102
  181SLPC   H7R20650   2.757   0.941   3.758 -0.7758  2.0817  3.3656
  181SLPC   H7S20651   2.750   0.783   3.680  2.3679  3.1036  1.2178
  181SLPC   C2820652   2.682   0.788   3.888  0.2085  0.1841  0.6911
  181SLPC   H8R20653   2.615   0.701   3.874 -2.0021  2.0095 -0.8753
  181SLPC   H8S20654   2.623   0.863   3.945 -0.5288  0.7138 -0.7261
  181SLPC   C2920655   2.823   0.760   3.948  0.5106  0.2200 -1.0404
  181SLPC   H9R20656   2.903   0.831   3.919 -0.7621  0.3013 -4.9783
  181SLPC  C21020657   2.851   0.646   4.008  0.7423  0.3944 -0.3425
  181SLPC  H10R20658   2.942   0.623   4.066  0.9558  1.5020 -0.2071
  181SLPC  C21120659   2.739   0.549   4.037  0.3189  0.3916 -0.1460
  181SLPC  H11R20660   2.721   0.489   3.945 -2.1267  1.1942 -0.2764
  181SLPC  H11S20661   2.645   0.604   4.061 -0.9822 -1.4601 -0.7713
  181SLPC  C21220662   2.776   0.446   4.148 -0.5603 -1.1562 -0.0696
  181SLPC  H12R20663   2.773   0.342   4.112  1.0660 -1.1418 -0.3321
  181SLPC  C21320664   2.822   0.467   4.272  0.3830 -0.4610 -0.7627
  181SLPC  H13R20665   2.843   0.378   4.332  0.2083  1.7556  2.8859
  181SLPC  C21420666   2.847   0.596   4.343 -0.5083 -0.6238 -0.1685
  181SLPC  H14R20667   2.834   0.694   4.293 -0.2542  0.9750  2.6604
  181SLPC  H14S20668   2.945   0.599   4.396 -0.7637  0.9610  0.2834
  181SLPC  C21520669   2.744   0.593   4.464 -0.4435 -0.8897 -0.0162
  181SLPC  H15R20670   2.640   0.590   4.426 -0.6095 -0.6333  0.4080
  181SLPC  H15S20671   2.753   0.689   4.520 -0.5981  0.2710 -1.9082
  181SLPC  C21620672   2.768   0.476   4.566  1.0072 -0.2499 -0.5086
  181SLPC  H16R20673   2.876   0.469   4.587  1.4147 -2.3324 -2.7743
  181SLPC  H16S20674   2.754   0.379   4.513 -1.8442 -0.6456  0.7990
  181SLPC  C21720675   2.685   0.465   4.694  0.4485  0.1460 -0.2971
  181SLPC  H17R20676   2.705   0.370   4.749  3.1586  0.6976 -0.2185
  181SLPC  H17S20677   2.576   0.473   4.673  0.5877 -2.2660 -2.4061
  181SLPC  C21820678   2.719   0.574   4.800  0.4166  0.0236  0.4443
  181SLPC  H18R20679   2.671   0.547   4.896 -0.0984 -0.8470 -0.0430
  181SLPC  H18S20680   2.677   0.670   4.763  2.8099 -0.2261 -3.4820
  181SLPC  H18T20681   2.830   0.573   4.811  0.1667 -2.0455  5.4885
  181SLPC   C3320682   2.542   1.237   3.027  0.1134  0.7692 -0.0292
  181SLPC   H3X20683   2.435   1.215   3.007  0.6142 -2.0317 -0.0468
  181SLPC   H3Y20684   2.550   1.346   3.014  1.2245  0.4594 -2.2846
  181SLPC   C3420685   2.587   1.191   3.167  0.3537  0.1481 -0.1271
  181SLPC   H4X20686   2.697   1.185   3.160  0.6205  1.1772  2.3413
  181SLPC   H4Y20687   2.553   1.085   3.175  0.5620 -0.3175 -3.5798
  181SLPC   C3520688   2.532   1.276   3.281  0.3445 -0.5177  1.5489
  181SLPC   H5X20689   2.421   1.283   3.283  0.4040  0.9998  0.6782
  181SLPC   H5Y20690   2.564   1.382   3.276  0.2352 -0.5415 -0.1502
  181SLPC   C3620691   2.568   1.217   3.413  0.2352 -0.3121 -0.6230
  181SLPC   H6X20692   2.675   1.189   3.406  0.4657  0.7170 -1.4896
  181SLPC   H6Y20693   2.507   1.125   3.423 -0.3852  0.1782  0.2559
  181SLPC   C3720694   2.558   1.317   3.528 -0.5809 -0.0411  0.2171
  181SLPC   H7X20695   2.451   1.345   3.517 -0.6213 -0.0631  0.5269
  181SLPC   H7Y20696   2.620   1.408   3.515 -1.1226  0.6402  2.0789
  181SLPC   C3820697   2.588   1.258   3.670 -0.4795 -0.1303  0.2862
  181SLPC   H8X20698   2.692   1.216   3.674 -1.1558 -1.8846  0.4971
  181SLPC   H8Y20699   2.522   1.170   3.686  1.2557 -1.6280 -0.2663
  181SLPC   C3920700   2.571   1.346   3.794  0.2573  0.6279  0.2758
  181SLPC   H9X20701   2.468   1.386   3.801  0.2643  0.6267  0.3773
  181SLPC   H9Y20702   2.633   1.437   3.783 -0.0504  0.7187 -0.8169
  181SLPC  C31020703   2.618   1.290   3.925  0.4430 -0.4826 -0.6239
  181SLPC  H10X20704   2.623   1.371   4.001 -1.9578 -2.2566  1.5926
  181SLPC  H10Y20705   2.717   1.239   3.921  0.0247 -1.2795 -1.0027
  181SLPC  C31120706   2.534   1.181   3.995  1.3070 -0.0795 -0.0307
  181SLPC  H11X20707   2.511   1.105   3.918  1.6879  0.7500 -0.9865
  181SLPC  H11Y20708   2.446   1.240   4.027  1.0280 -0.8694  0.6746
  181SLPC  C31220709   2.604   1.115   4.112  0.2763  0.1288 -0.1454
  181SLPC  H12X20710   2.636   1.192   4.185 -1.1903 -0.5398  1.2615
  181SLPC  H12Y20711   2.696   1.070   4.068  0.0507  0.0569 -0.5472
  181SLPC  C31320712   2.524   0.995   4.177  0.7478  0.0068 -0.7788
  181SLPC  H13X20713   2.508   0.916   4.099 -4.4207  0.2253 -0.3013
  181SLPC  H13Y20714   2.422   1.020   4.212 -0.7135 -3.7433 -1.7995
  181SLPC  C31420715   2.604   0.941   4.293 -0.7823  1.1438 -0.1750
  181SLPC  H14X20716   2.713   0.952   4.274 -0.2049 -1.4456  1.2242
  181SLPC  H14Y20717   2.596   0.830   4.289  0.6158  0.9975  0.3981
  181SLPC  C31520718   2.566   0.999   4.428 -0.4701  0.0834 -1.1352
  181SLPC  H15X20719   2.461   0.971   4.449 -0.3442 -0.6572 -1.4562
  181SLPC  H15Y20720   2.582   1.108   4.413 -0.5395  0.0910 -1.1549
  181SLPC  C31620721   2.651   0.970   4.552  0.6898 -0.2337 -0.5415
  181SLPC  H16X20722   2.753   0.997   4.520  1.0125 -0.1022  0.5601
  181SLPC  H16Y20723   2.653   0.860   4.565  1.9632 -0.2467 -0.7912
  181SLPC  C31720724   2.610   1.046   4.681  0.6145  0.1386  0.9323
  181SLPC  H17X20725   2.503   1.025   4.702 -0.2036 -0.7774 -3.2747
  181SLPC  H17Y20726   2.624   1.156   4.673  0.3426  0.1024 -0.0889
  181SLPC  C31820727   2.686   0.996   4.805 -0.4182 -0.7074 -0.6967
  181SLPC  H18X20728   2.797   0.994   4.800 -0.2759  1.2221  0.5216
  181SLPC  H18Y20729   2.647   0.896   4.834 -3.5306  0.8617  0.9716
  181SLPC  H18Z20730   2.663   1.056   4.896 -0.2838  0.4082 -1.3848
  182SLPC     N20731   0.022   1.959   2.342 -0.5589 -0.5419 -0.3620
  182SLPC   C1320732   0.166   1.941   2.368 -0.5781 -0.0108 -0.0174
  182SLPC  H13A20733   0.170   1.890   2.463  0.9803 -1.1080 -0.6466
  182SLPC  H13B20734   0.217   1.876   2.299  1.3419  0.8500  0.5096
  182SLPC  H13C20735   0.232   2.027   2.369  1.1445 -1.2486  2.1687
  182SLPC   C1420736  -0.040   1.825   2.364  0.0450 -0.5262 -0.2508
  182SLPC  H14A20737  -0.147   1.829   2.351 -0.1708 -1.1310  1.1709
  182SLPC  H14B20738   0.014   1.761   2.295 -0.0547 -0.6264 -0.2361
  182SLPC  H14C20739  -0.021   1.779   2.460 -0.5490 -2.5101 -1.0198
  182SLPC   C1520740  -0.007   2.002   2.206 -0.6158  0.5377  0.5865
  182SLPC  H15A20741   0.052   2.091   2.185  1.3332 -0.3954  1.7986
  182SLPC  H15B20742   0.018   1.926   2.133 -1.8903  2.6841 -2.2659
  182SLPC  H15C20743  -0.112   2.022   2.191 -0.4846 -0.1890 -1.6471
  182SLPC   C1220744  -0.030   2.057   2.445  0.5366  0.3416  0.1189
  182SLPC  H12A20745  -0.018   2.012   2.542 -0.2368 -2.4477 -0.9939
  182SLPC  H12B20746  -0.137   2.068   2.437  0.5229 -0.9752 -3.6903
  182SLPC   C1120747   0.033   2.201   2.447  0.3204 -0.3791  0.2748
  182SLPC  H11A20748  -0.024   2.279   2.502 -0.1529 -1.4135  1.2958
  182SLPC  H11B20749   0.029   2.239   2.343  0.2461 -1.3713 -0.0866
  182SLPC     P20750   0.197   2.183   2.657 -0.3275 -0.1173  0.2518
  182SLPC   O1320751   0.090   2.102   2.725  0.7454 -0.2281  0.0621
  182SLPC   O1420752   0.339   2.139   2.665 -0.3691 -0.2624  0.5170
  182SLPC   O1220753   0.165   2.204   2.505 -0.3735 -0.0855 -0.0143
  182SLPC   O1120754   0.192   2.334   2.706 -0.5216  0.1579  0.1156
  182SLPC    C120755   0.128   2.374   2.829  0.7925 -0.1292 -0.3185
  182SLPC    HA20756   0.022   2.341   2.820  0.6646  0.6218 -1.7839
  182SLPC    HB20757   0.173   2.318   2.914 -1.9433 -0.5146  0.9817
  182SLPC    C220758   0.131   2.532   2.847 -0.3114 -0.0613  0.1682
  182SLPC    HS20759   0.235   2.567   2.861  0.7934 -1.9191 -2.5004
  182SLPC   O2120760   0.036   2.560   2.952  0.3466  0.1316 -0.0327
  182SLPC   C2120761   0.086   2.535   3.071 -0.2198 -0.1101  0.1632
  182SLPC   O2220762   0.205   2.538   3.097  0.0637  0.5912 -0.1953
  182SLPC   C2220763  -0.024   2.530   3.168 -0.1057 -0.2791 -0.1910
  182SLPC   H2R20764  -0.085   2.622   3.171 -2.3520 -1.6988  0.2166
  182SLPC   H2S20765  -0.085   2.446   3.127  2.1337 -0.7155 -2.9822
  182SLPC    C320766   0.086   2.601   2.715  0.4684  0.0956  0.0213
  182SLPC    HX20767  -0.010   2.546   2.703 -0.6254  2.0287 -0.3649
  182SLPC    HY20768   0.150   2.563   2.633  0.4803 -1.1793  0.5947
  182SLPC   O3120769   0.068   2.746   2.728  0.2589 -0.3535  0.0741
  182SLPC   C3120770  -0.028   2.798   2.661  0.2051  0.4359  0.8625
  182SLPC   O3220771  -0.101   2.736   2.583 -0.2960 -0.3045  0.4758
  182SLPC   C3220772  -0.034   2.937   2.694  0.0077 -0.0671 -0.0433
  182SLPC   H2X20773  -0.061   2.990   2.600  1.7343 -0.5171 -0.8378
  182SLPC   H2Y20774   0.071   2.974   2.704  0.7820 -1.1082 -3.2321
  182SLPC   C2320775   0.021   2.512   3.319  0.1372  0.4267  0.7233
  182SLPC   H3R20776   0.101   2.583   3.351  0.2636  0.1917  0.9325
  182SLPC   H3S20777   0.042   2.403   3.323 -0.8857  0.1379 -0.8331
  182SLPC   C2420778  -0.100   2.525   3.407 -0.5930 -0.7473  0.0322
  182SLPC   H4R20779  -0.191   2.477   3.365 -3.9418  3.1500  2.0017
  182SLPC   H4S20780  -0.132   2.632   3.403 -2.0612 -1.1672 -0.2084
  182SLPC   C2520781  -0.075   2.484   3.556  0.5195 -0.0774 -0.2823
  182SLPC   H5R20782   0.027   2.520   3.583 -0.6082  2.8269  0.4469
  182SLPC   H5S20783  -0.064   2.374   3.564 -1.2723 -0.2054  0.8912
  182SLPC   C2620784  -0.177   2.545   3.653 -0.2401  0.4983 -0.3380
  182SLPC   H6R20785  -0.278   2.514   3.619 -0.0210 -1.4959  0.6801
  182SLPC   H6S20786  -0.161   2.655   3.648 -2.0634  0.9559  1.9244
  182SLPC   C2720787  -0.175   2.499   3.797 -0.6113 -0.3409 -0.5844
  182SLPC   H7R20788  -0.094   2.552   3.851 -1.8250  1.4647 -0.4438
  182SLPC   H7S20789  -0.158   2.389   3.797 -2.6277 -0.8407  3.4963
  182SLPC   C2820790  -0.299   2.535   3.892  0.6392  0.0951  0.6964
  182SLPC   H8R20791  -0.267   2.506   3.994 -1.0269 -1.7745  0.7424
  182SLPC   H8S20792  -0.377   2.461   3.865 -0.6972  1.7243 -0.1044
  182SLPC   C2920793  -0.357   2.677   3.868 -0.0351 -0.1391  0.4106
  182SLPC   H9R20794  -0.387   2.711   3.768 -2.6227 -0.2723  1.0520
  182SLPC  C21020795  -0.389   2.756   3.966  0.3214  0.0076  0.5654
  182SLPC  H10R20796  -0.437   2.851   3.938  1.4821  0.7033  0.8770
  182SLPC  C21120797  -0.404   2.729   4.114  0.4806 -0.1640 -0.1642
  182SLPC  H11R20798  -0.445   2.821   4.162 -2.3675 -1.3915 -0.0346
  182SLPC  H11S20799  -0.302   2.726   4.157 -1.0523  1.9282  4.2471
  182SLPC  C21220800  -0.488   2.614   4.170 -0.3255  0.1398 -0.3817
  182SLPC  H12R20801  -0.529   2.547   4.094 -0.8557 -1.0140  0.8708
  182SLPC  C21320802  -0.489   2.578   4.300 -0.4544 -0.3449 -0.2794
  182SLPC  H13R20803  -0.536   2.481   4.321 -0.5431 -0.5447 -1.3229
  182SLPC  C21420804  -0.423   2.654   4.416  0.4794 -0.2481 -0.2667
  182SLPC  H14R20805  -0.496   2.667   4.498  1.6221 -1.1680  0.9528
  182SLPC  H14S20806  -0.382   2.754   4.390  1.5979 -0.6890 -0.2876
  182SLPC  C21520807  -0.296   2.580   4.456  0.0587  0.1374  0.3127
  182SLPC  H15R20808  -0.248   2.644   4.533 -1.4084  0.0619  1.3458
  182SLPC  H15S20809  -0.221   2.573   4.374 -0.7441  1.8364 -0.6183
  182SLPC  C21620810  -0.307   2.433   4.505  0.2160 -0.1990  0.4263
  182SLPC  H16R20811  -0.337   2.366   4.421 -0.2130 -2.6955  2.4451
  182SLPC  H16S20812  -0.394   2.416   4.573  0.5208  1.5063  1.2904
  182SLPC  C21720813  -0.182   2.385   4.581  0.3226  0.7129 -0.5488
  182SLPC  H17R20814  -0.101   2.362   4.508 -1.2666 -0.8014 -1.9015
  182SLPC  H17S20815  -0.209   2.283   4.614 -2.0940  0.2614 -3.5498
  182SLPC  C21820816  -0.128   2.460   4.699 -0.2002  0.1791 -0.2991
  182SLPC  H18R20817  -0.190   2.450   4.791 -0.3478 -2.6474 -0.6241
  182SLPC  H18S20818  -0.126   2.570   4.689 -2.1991  0.3120  0.2646
  182SLPC  H18T20819  -0.024   2.426   4.720  0.0532  0.9132 -0.3324
  182SLPC   C3320820  -0.125   2.971   2.812 -0.2086  1.1177  0.3158
  182SLPC   H3X20821  -0.219   2.917   2.787  1.4438 -0.7456 -2.5034
  182SLPC   H3Y20822  -0.141   3.081   2.813 -1.6555  0.9573 -1.0467
  182SLPC   C3420823  -0.077   2.915   2.944  1.3480 -0.2465  0.8121
  182SLPC   H4X20824   0.030   2.943   2.959  0.9499  0.0684  3.6873
  182SLPC   H4Y20825  -0.062   2.805   2.952  3.1349 -0.1199 -0.3000
  182SLPC   C3520826  -0.172   2.963   3.049 -0.6376 -0.1526 -0.5818
  182SLPC   H5X20827  -0.280   2.942   3.034 -0.7023  0.5413 -1.1570
  182SLPC   H5Y20828  -0.160   3.073   3.047 -3.2890  0.1933 -1.7753
  182SLPC   C3620829  -0.132   2.915   3.189  1.0581  0.5291  0.0558
  182SLPC   H6X20830  -0.022   2.903   3.199  0.9471 -0.0006  0.7172
  182SLPC   H6Y20831  -0.169   2.812   3.208 -1.0263  1.3786  0.8923
  182SLPC   C3720832  -0.168   3.011   3.300  0.2039 -0.5211  0.0450
  182SLPC   H7X20833  -0.277   3.027   3.307  0.0644 -1.1437 -0.5942
  182SLPC   H7Y20834  -0.123   3.111   3.282  1.0567 -0.8495  0.2805
  182SLPC   C3820835  -0.115   2.943   3.429  0.2781 -0.9730 -0.1316
  182SLPC   H8X20836  -0.005   2.954   3.420  0.1763 -1.0935 -2.0129
  182SLPC   H8Y20837  -0.141   2.835   3.440 -2.2690 -0.1963  2.7443
  182SLPC   C3920838  -0.172   3.010   3.561  0.4519 -0.0653  0.1852
  182SLPC   H9X20839  -0.279   2.982   3.573  0.3711 -1.1611 -2.4018
  182SLPC   H9Y20840  -0.161   3.116   3.529 -0.3813 -0.2272 -0.6696
  182SLPC  C31020841  -0.099   2.980   3.690  0.5703  0.7994  0.1715
  182SLPC  H10X20842   0.011   2.988   3.678  0.4405  0.5791 -1.3924
  182SLPC  H10Y20843  -0.127   2.877   3.721 -1.0369  1.4537  0.9854
  182SLPC  C31120844  -0.143   3.076   3.801 -0.1762  0.5099 -0.1928
  182SLPC  H11X20845  -0.254   3.080   3.792 -0.3550 -0.6587  1.1452
  182SLPC  H11Y20846  -0.101   3.176   3.774  0.1754  1.0699  2.2430
  182SLPC  C31220847  -0.100   3.029   3.941 -0.5838  1.0485  0.1407
  182SLPC  H12X20848   0.007   3.002   3.924 -0.7531  1.0484 -1.0255
  182SLPC  H12Y20849  -0.164   2.945   3.976  0.7448 -0.0024  0.1754
  182SLPC  C31320850  -0.110   3.141   4.045  0.6345 -0.7448  0.3017
  182SLPC  H13X20851  -0.214   3.178   4.052  0.8897  0.3176 -1.0884
  182SLPC  H13Y20852  -0.044   3.220   4.004 -0.0882 -0.1229  0.3154
  182SLPC  C31420853  -0.062   3.097   4.181  0.1227  0.5493  0.0077
  182SLPC  H14X20854  -0.066   3.186   4.248  2.4884 -0.0112  0.9950
  182SLPC  H14Y20855   0.047   3.076   4.174  0.0482  0.3710 -0.7085
  182SLPC  C31520856  -0.150   2.989   4.234 -0.4570  0.0235  0.5465
  182SLPC  H15X20857  -0.132   2.897   4.174 -0.8906  0.6103 -0.4914
  182SLPC  H15Y20858  -0.255   3.021   4.215 -0.1732 -0.0371 -1.2295
  182SLPC  C31620859  -0.139   2.966   4.390  0.3471  0.0665  0.3953
  182SLPC  H16X20860  -0.218   2.892   4.415 -0.3955  0.3571 -0.9634
  182SLPC  H16Y20861  -0.150   3.066   4.437 -2.0518 -0.0903  0.3052
  182SLPC  C31720862   0.000   2.904   4.435 -0.9827  0.8707  1.2742
  182SLPC  H17X20863   0.074   2.983   4.411 -1.4404  0.7676 -0.6185
  182SLPC  H17Y20864   0.026   2.823   4.364 -0.8077  2.9918 -1.2329
  182SLPC  C31820865  -0.012   2.849   4.576 -0.3471  0.5538 -0.4104
  182SLPC  H18X20866  -0.049   2.930   4.643 -2.0186 -0.6666  0.2086
  182SLPC  H18Y20867   0.083   2.806   4.614  1.0507  1.8852 -2.2276
  182SLPC  H18Z20868  -0.095   2.775   4.575  0.6999 -0.6537  0.1484
  183SLPC     N20869   1.919   2.267   1.927  0.1919 -0.4121 -0.1906
  183SLPC   C1320870   1.870   2.141   1.859 -0.7785 -0.0899  0.0245
  183SLPC  H13A20871   1.779   2.103   1.904 -1.1312 -0.2003 -0.7650
  183SLPC  H13B20872   1.860   2.158   1.753  0.7624 -0.4159 -0.1913
  183SLPC  H13C20873   1.950   2.069   1.855 -0.5436  0.0770  1.1705
  183SLPC   C1420874   1.805   2.364   1.918 -0.1549  0.0880 -0.6438
  183SLPC  H14A20875   1.838   2.466   1.929  0.9318 -0.3016 -0.0762
  183SLPC  H14B20876   1.760   2.363   1.819 -1.8016  0.7196  0.0690
  183SLPC  H14C20877   1.728   2.338   1.988 -0.3374  1.7509 -0.1972
  183SLPC   C1520878   2.023   2.320   1.839  0.1419  0.0667  0.1840
  183SLPC  H15A20879   2.114   2.262   1.837 -0.3571 -0.7104 -0.6920
  183SLPC  H15B20880   1.989   2.348   1.740  1.1620  3.6473  0.6895
  183SLPC  H15C20881   2.050   2.420   1.870  0.2946  0.1200 -0.1142
  183SLPC   C1220882   1.966   2.244   2.074 -0.1065 -0.2285  0.5415
  183SLPC  H12A20883   2.051   2.178   2.077 -1.0552 -1.6774 -1.7284
  183SLPC  H12B20884   1.884   2.188   2.116 -2.3643  2.3574 -0.1024
  183SLPC   C1120885   2.005   2.372   2.154  0.1888 -0.0359  0.1830
  183SLPC  H11A20886   2.038   2.350   2.258  0.5475  1.2364  0.3500
  183SLPC  H11B20887   1.915   2.437   2.158  0.3456  0.1859  0.0932
  183SLPC     P20888   2.174   2.565   2.172  0.4761  0.2299 -0.1018
  183SLPC   O1320889   2.302   2.596   2.110  0.2143 -1.0400 -0.8511
  183SLPC   O1420890   2.070   2.671   2.168  0.2539  1.1750 -0.0333
  183SLPC   O1220891   2.115   2.446   2.098 -0.1401 -0.5196  0.4480
  183SLPC   O1120892   2.189   2.511   2.324 -0.0592  0.0809  0.4788
  183SLPC    C120893   2.296   2.424   2.363 -0.4186  0.3301 -0.7213
  183SLPC    HA20894   2.258   2.321   2.379 -0.5577  0.3082 -1.1909
  183SLPC    HB20895   2.370   2.407   2.282  0.0998 -0.8720 -0.0227
  183SLPC    C220896   2.360   2.465   2.492 -0.0705  0.4154  0.3644
  183SLPC    HS20897   2.444   2.400   2.523 -0.6804 -0.1427  0.8720
  183SLPC   O2120898   2.253   2.462   2.590  0.5936  0.1255  0.1226
  183SLPC   C2120899   2.214   2.343   2.632 -0.5001 -0.5566 -0.0637
  183SLPC   O2220900   2.257   2.240   2.582 -0.1305  0.4015 -0.3107
  183SLPC   C2220901   2.118   2.352   2.747 -0.2660  0.5105 -0.5278
  183SLPC   H2R20902   2.167   2.404   2.832  1.4941  0.7475 -1.6458
  183SLPC   H2S20903   2.037   2.418   2.708 -1.6304 -1.0120 -0.3780
  183SLPC    C320904   2.429   2.605   2.475 -0.3622  0.1572 -0.6805
  183SLPC    HX20905   2.342   2.674   2.467  1.2245  2.3006 -0.2102
  183SLPC    HY20906   2.476   2.615   2.375 -1.4622  0.4760 -1.1804
  183SLPC   O3120907   2.518   2.640   2.590  0.4749  0.0515 -0.0160
  183SLPC   C3120908   2.479   2.742   2.672  0.4817  0.7265 -0.3374
  183SLPC   O3220909   2.365   2.784   2.685  0.1817 -0.8087  0.4142
  183SLPC   C3220910   2.599   2.791   2.753  0.0815 -0.3653 -0.8514
  183SLPC   H2X20911   2.676   2.821   2.679  1.3194 -0.1088  0.5100
  183SLPC   H2Y20912   2.646   2.707   2.808  1.5988  1.3933  0.6407
  183SLPC   C2320913   2.068   2.213   2.802 -0.2047 -0.4849  0.1760
  183SLPC   H3R20914   2.045   2.146   2.717  0.9259  0.2584 -0.7373
  183SLPC   H3S20915   1.980   2.227   2.869  0.4846  0.2926  0.9415
  183SLPC   C2420916   2.183   2.149   2.887 -0.6362  0.8526  0.0027
  183SLPC   H4R20917   2.237   2.230   2.941  0.7361 -0.3779  0.5534
  183SLPC   H4S20918   2.265   2.097   2.834  0.3136  0.6787  1.5788
  183SLPC   C2520919   2.125   2.055   2.997 -0.0694 -0.5967  0.3721
  183SLPC   H5R20920   2.200   1.974   3.011  0.1329 -0.0507  3.1475
  183SLPC   H5S20921   2.030   2.021   2.953  0.4215 -1.4521 -0.0536
  183SLPC   C2620922   2.081   2.124   3.127  0.3088 -0.5563  0.5823
  183SLPC   H6R20923   1.988   2.180   3.103  0.1676 -0.4579  1.3500
  183SLPC   H6S20924   2.153   2.203   3.158 -1.1407  2.2647 -2.5001
  183SLPC   C2720925   2.050   2.031   3.241  0.3340  0.1117  0.6119
  183SLPC   H7R20926   2.145   1.975   3.256  0.2039  0.4536  3.0869
  183SLPC   H7S20927   1.980   1.960   3.192  0.4181  0.0644  0.5584
  183SLPC   C2820928   1.978   2.100   3.361  0.0593  0.0290  0.4655
  183SLPC   H8R20929   1.937   2.017   3.423 -2.2123  2.7541  2.8807
  183SLPC   H8S20930   1.884   2.146   3.324 -0.3659  0.0446  1.5479
  183SLPC   C2920931   2.062   2.200   3.434  0.2077  0.2427  0.3588
  183SLPC   H9R20932   2.086   2.287   3.370  3.0648 -2.4274 -2.6097
  183SLPC  C21020933   2.119   2.189   3.558  0.0821 -0.2469 -0.1428
  183SLPC  H10R20934   2.169   2.284   3.581 -0.9427 -0.1309  1.8372
  183SLPC  C21120935   2.110   2.086   3.664  0.3560  0.0869  0.5063
  183SLPC  H11R20936   2.209   2.056   3.704  0.2633  2.1147  2.4226
  183SLPC  H11S20937   2.067   1.994   3.618  1.5266  0.8648 -2.3619
  183SLPC  C21220938   2.013   2.120   3.771  0.2910  0.3355 -0.5866
  183SLPC  H12R20939   1.966   2.218   3.756 -1.3341 -0.5460 -1.4532
  183SLPC  C21320940   2.011   2.057   3.894  0.6207 -0.6524  0.4808
  183SLPC  H13R20941   1.949   2.098   3.975  0.7690  1.2036 -0.3131
  183SLPC  C21420942   2.092   1.941   3.939 -0.4657  0.4980  0.2361
  183SLPC  H14R20943   2.140   1.889   3.853 -0.7705  1.0182 -0.2596
  183SLPC  H14S20944   2.028   1.873   4.000 -0.2623  0.4482  0.3931
  183SLPC  C21520945   2.212   1.979   4.034  0.2958  0.2534 -0.1804
  183SLPC  H15R20946   2.273   2.049   3.974 -1.2400  0.7423 -1.2201
  183SLPC  H15S20947   2.276   1.888   4.041  3.3280  2.1548 -1.4604
  183SLPC  C21620948   2.167   2.049   4.164 -0.1231 -0.1484  0.1261
  183SLPC  H16R20949   2.077   1.990   4.192 -0.4306  0.1328 -0.2629
  183SLPC  H16S20950   2.138   2.151   4.134  2.9430  0.9718  0.5448
  183SLPC  C21720951   2.267   2.057   4.281  0.1938  0.4113  0.8565
  183SLPC  H17R20952   2.306   1.954   4.295  1.8185  0.5340 -2.0379
  183SLPC  H17S20953   2.208   2.082   4.372 -3.6172 -2.8078 -0.4921
  183SLPC  C21820954   2.376   2.164   4.249  0.3110  0.3760  0.4551
  183SLPC  H18R20955   2.332   2.259   4.213  1.7265  1.7156  2.0981
  183SLPC  H18S20956   2.443   2.122   4.170 -1.0009 -0.6689 -0.1542
  183SLPC  H18T20957   2.443   2.197   4.331  1.3848 -0.4876 -0.0432
  183SLPC   C3320958   2.576   2.914   2.849 -0.0165  0.0954  0.3280
  183SLPC   H3X20959   2.485   2.963   2.807 -1.3350 -0.4728  2.3720
  183SLPC   H3Y20960   2.663   2.984   2.855  0.1873 -0.1517  0.2723
  183SLPC   C3420961   2.508   2.879   2.983  0.0971 -0.3773  0.8013
  183SLPC   H4X20962   2.417   2.823   2.952  0.2660  0.6413 -1.8040
  183SLPC   H4Y20963   2.479   2.975   3.030 -0.2689  1.5893 -3.0056
  183SLPC   C3520964   2.595   2.804   3.083 -0.0757  0.1560 -0.5178
  183SLPC   H5X20965   2.686   2.867   3.097 -0.1420 -0.0045  0.7074
  183SLPC   H5Y20966   2.630   2.707   3.040 -0.4893  0.3536 -1.3270
  183SLPC   C3620967   2.536   2.789   3.221  0.1243  0.3710 -0.0931
  183SLPC   H6X20968   2.565   2.692   3.267  0.9461  0.1557 -1.0229
  183SLPC   H6Y20969   2.427   2.786   3.199 -0.1135 -1.3072  1.0571
  183SLPC   C3720970   2.576   2.898   3.324  0.3685 -0.7005  0.4107
  183SLPC   H7X20971   2.547   2.996   3.282  2.8510  0.3894  0.9921
  183SLPC   H7Y20972   2.687   2.897   3.332  0.3637 -0.0090  0.6087
  183SLPC   C3820973   2.508   2.865   3.457  0.0351 -0.3908 -0.2834
  183SLPC   H8X20974   2.547   2.771   3.500  0.0782 -0.6306 -0.8355
  183SLPC   H8Y20975   2.399   2.856   3.434  0.4423 -0.1290 -2.6148
  183SLPC   C3920976   2.531   2.965   3.560  0.1821  0.1494  0.2745
  183SLPC   H9X20977   2.511   3.071   3.534  0.9347  0.5794  1.3602
  183SLPC   H9Y20978   2.640   2.964   3.582  0.2283 -2.4546  0.1772
  183SLPC  C31020979   2.451   2.943   3.684 -1.1171  0.7628  0.0338
  183SLPC  H10X20980   2.475   2.843   3.727 -0.6982 -0.1089 -2.0899
  183SLPC  H10Y20981   2.342   2.943   3.665 -1.0361  1.3149 -0.4397
  183SLPC  C31120982   2.474   3.053   3.794 -0.2002 -0.3745  0.2943
  183SLPC  H11X20983   2.385   3.027   3.856 -0.0151  0.0884  0.7683
  183SLPC  H11Y20984   2.465   3.156   3.755 -0.3780 -0.3709  0.3445
  183SLPC  C31220985   2.601   3.040   3.877 -0.1037 -0.1355 -0.2837
  183SLPC  H12X20986   2.673   3.109   3.827 -0.1523  1.0998  1.2728
  183SLPC  H12Y20987   2.632   2.934   3.864 -3.2807 -1.3841  1.3401
  183SLPC  C31320988   2.592   3.067   4.025 -0.1588  0.6044  0.4380
  183SLPC  H13X20989   2.649   2.990   4.082 -0.6324  0.5950  0.9081
  183SLPC  H13Y20990   2.490   3.043   4.062  0.0116 -0.2793  0.3654
  183SLPC  C31420991   2.608   3.212   4.074 -0.1240  0.0589 -0.9653
  183SLPC  H14X20992   2.580   3.283   3.993 -0.3381  0.8518 -0.2126
  183SLPC  H14Y20993   2.716   3.232   4.090  0.6028 -1.5021 -3.3231
  183SLPC  C31520994   2.534   3.250   4.206  0.0515 -0.6820  0.5440
  183SLPC  H15X20995   2.428   3.216   4.197 -0.1039  0.0373 -0.6463
  183SLPC  H15Y20996   2.541   3.360   4.217 -0.2471 -0.7299  1.2447
  183SLPC  C31620997   2.607   3.186   4.327 -0.4861 -0.5805  0.1137
  183SLPC  H16X20998   2.691   3.249   4.366  0.3521 -2.5169  1.5786
  183SLPC  H16Y20999   2.651   3.093   4.284 -0.2512 -0.2364 -0.4028
  183SLPC  C31721000   2.519   3.134   4.439 -0.4633 -0.6044 -0.1259
  183SLPC  H17X21001   2.580   3.113   4.530  0.5590 -0.3554 -0.7374
  183SLPC  H17Y21002   2.461   3.044   4.409 -0.4572 -0.4400 -0.6435
  183SLPC  C31821003   2.437   3.249   4.471 -0.0926 -0.3402 -0.0064
  183SLPC  H18X21004   2.492   3.345   4.485  1.7725 -1.0183 -2.1977
  183SLPC  H18Y21005   2.381   3.232   4.565  0.6264  1.2359  0.7432
  183SLPC  H18Z21006   2.361   3.265   4.391 -0.7237 -1.2491  0.3931
  184SLPC     N21007   0.793   3.424   2.298 -0.5033  0.2486 -0.4269
  184SLPC   C1321008   0.919   3.361   2.344  0.9787  0.1483  0.0928
  184SLPC  H13A21009   0.891   3.262   2.377  0.3270  0.1465 -0.4541
  184SLPC  H13B21010   0.985   3.349   2.259  0.2226 -1.0604 -0.3386
  184SLPC  H13C21011   0.956   3.414   2.430 -0.8508  1.3148  0.2057
  184SLPC   C1421012   0.738   3.351   2.178 -0.7005  0.2420 -0.0062
  184SLPC  H14A21013   0.795   3.360   2.086 -1.8904  0.7393 -0.7097
  184SLPC  H14B21014   0.721   3.246   2.199 -0.6591  0.3748  0.7260
  184SLPC  H14C21015   0.645   3.399   2.155 -0.1243  0.5525 -1.8421
  184SLPC   C1521016   0.813   3.566   2.259  0.3440 -0.0008 -0.0995
  184SLPC  H15A21017   0.730   3.591   2.193 -0.2937 -2.5821 -0.3874
  184SLPC  H15B21018   0.827   3.632   2.343  1.5119 -1.1841  0.6849
  184SLPC  H15C21019   0.901   3.575   2.198 -0.2393 -1.8287 -1.3347
  184SLPC   C1221020   0.689   3.419   2.403  0.2611  0.2600 -0.4091
  184SLPC  H12A21021   0.652   3.319   2.422  0.8113  0.1433  0.0733
  184SLPC  H12B21022   0.599   3.478   2.401 -1.6446 -2.4845 -0.2590
  184SLPC   C1121023   0.748   3.449   2.545 -0.7648  0.3281 -1.3867
  184SLPC  H11A21024   0.663   3.483   2.608  0.3147 -0.1382  0.3828
  184SLPC  H11B21025   0.824   3.527   2.522 -0.8983  0.4361 -1.4603
  184SLPC     P21026   0.752   3.193   2.634 -0.4593 -0.2497  0.1478
  184SLPC   O1321027   0.620   3.208   2.694 -0.2872  0.1125  0.1669
  184SLPC   O1421028   0.760   3.104   2.516  0.6310  0.1430 -0.0394
  184SLPC   O1221029   0.814   3.328   2.592  0.2827  0.3277 -0.3586
  184SLPC   O1121030   0.865   3.150   2.744  0.3045 -0.5502  0.2644
  184SLPC    C121031   0.950   3.036   2.725  0.5932 -0.5429  0.2266
  184SLPC    HA21032   0.979   3.022   2.618 -0.8663  0.3653 -0.3119
  184SLPC    HB21033   1.038   3.056   2.790 -0.3611 -1.1491  1.7655
  184SLPC    C221034   0.895   2.903   2.784  0.4904  0.5428 -0.0142
  184SLPC    HS21035   0.797   2.878   2.738 -0.0744 -0.6576  1.7110
  184SLPC   O2121036   0.862   2.930   2.918  0.1901  0.0981  0.2340
  184SLPC   C2121037   0.802   2.840   2.993 -0.4721  0.5521  0.4337
  184SLPC   O2221038   0.777   2.727   2.959  0.3885  0.3358  0.4888
  184SLPC   C2221039   0.772   2.886   3.126  0.1141 -0.4158  0.0718
  184SLPC   H2R21040   0.824   2.982   3.149 -2.0369  0.3644  2.2165
  184SLPC   H2S21041   0.667   2.923   3.130  0.1429 -0.4407  2.2295
  184SLPC    C321042   0.993   2.777   2.769  0.3337  0.5319  0.5755
  184SLPC    HX21043   1.037   2.790   2.667 -0.7643  1.5060  0.2064
  184SLPC    HY21044   0.930   2.686   2.781 -0.6786  0.7567 -2.1440
  184SLPC   O3121045   1.093   2.778   2.871 -0.1402  0.0984 -1.1360
  184SLPC   C3121046   1.220   2.769   2.850  0.0715  0.2642 -0.0359
  184SLPC   O3221047   1.279   2.753   2.746 -0.3220 -0.2935  0.8516
  184SLPC   C3221048   1.294   2.761   2.979  0.1227 -0.7303  0.0754
  184SLPC   H2X21049   1.372   2.840   2.976  1.2242 -1.5722  3.0989
  184SLPC   H2Y21050   1.336   2.658   2.991  0.8113 -0.7858 -2.2124
  184SLPC   C2321051   0.814   2.794   3.245  0.0861  0.5565  0.4384
  184SLPC   H3R21052   0.923   2.792   3.266  0.0858 -3.5381  0.9557
  184SLPC   H3S21053   0.780   2.691   3.218 -0.7396  1.0118 -0.3037
  184SLPC   C2421054   0.738   2.807   3.380 -0.5547  0.0640 -0.3257
  184SLPC   H4R21055   0.641   2.861   3.376 -0.5634 -0.0077 -1.4330
  184SLPC   H4S21056   0.806   2.865   3.445  0.9683 -0.4561 -1.4000
  184SLPC   C2521057   0.707   2.678   3.451  0.1212  0.5982 -0.4919
  184SLPC   H5R21058   0.633   2.623   3.389 -1.9972  2.5804  0.1718
  184SLPC   H5S21059   0.668   2.704   3.552  1.3894 -2.4278  0.9169
  184SLPC   C2621060   0.833   2.591   3.474  0.6314 -0.1037 -0.0050
  184SLPC   H6R21061   0.904   2.656   3.530  1.8273 -0.4716 -1.0354
  184SLPC   H6S21062   0.884   2.571   3.377 -0.2274  0.9564 -0.7059
  184SLPC   C2721063   0.814   2.458   3.549 -0.7855 -0.4371 -0.2220
  184SLPC   H7R21064   0.914   2.409   3.551 -1.1372 -1.1607  0.2430
  184SLPC   H7S21065   0.759   2.392   3.479 -1.2626  0.4679 -0.7141
  184SLPC   C2821066   0.750   2.470   3.691 -0.0423 -0.2219 -0.0946
  184SLPC   H8R21067   0.656   2.528   3.677 -0.1542 -0.7730 -1.7824
  184SLPC   H8S21068   0.826   2.522   3.753 -0.1871 -0.3478  0.1954
  184SLPC   C2921069   0.722   2.328   3.739  0.4038  0.4100 -0.0362
  184SLPC   H9R21070   0.713   2.251   3.661  0.8114  1.4654 -1.1646
  184SLPC  C21021071   0.680   2.287   3.863  0.9552  0.2388 -0.0063
  184SLPC  H10R21072   0.657   2.182   3.886 -0.5702  0.5147 -0.2041
  184SLPC  C21121073   0.654   2.388   3.972 -0.2854 -0.6207  0.3947
  184SLPC  H11R21074   0.647   2.490   3.927  0.4168 -1.4572 -1.7451
  184SLPC  H11S21075   0.735   2.395   4.047 -0.8460 -0.4050  0.9891
  184SLPC  C21221076   0.532   2.358   4.064  0.0292 -0.4161  0.2370
  184SLPC  H12R21077   0.442   2.417   4.042  0.2035 -0.3994 -0.4689
  184SLPC  C21321078   0.531   2.268   4.161 -0.1335 -0.4835  0.6308
  184SLPC  H13R21079   0.435   2.256   4.213 -0.5139  0.9666  0.2971
  184SLPC  C21421080   0.640   2.166   4.204 -0.5005  0.3213 -0.2664
  184SLPC  H14R21081   0.726   2.183   4.136 -0.6213  2.9583  0.1603
  184SLPC  H14S21082   0.595   2.065   4.190  2.0271 -0.6101 -2.4808
  184SLPC  C21521083   0.683   2.188   4.351 -0.4810  0.1013 -0.7693
  184SLPC  H15R21084   0.766   2.119   4.377 -0.3681  0.5094 -0.0305
  184SLPC  H15S21085   0.605   2.153   4.421  0.7678 -4.3716 -1.2896
  184SLPC  C21621086   0.730   2.336   4.380 -0.0601  0.5915  0.7775
  184SLPC  H16R21087   0.642   2.397   4.348  0.4550  0.5956 -0.7294
  184SLPC  H16S21088   0.814   2.340   4.307 -0.0943  2.1790  0.7930
  184SLPC  C21721089   0.773   2.335   4.527 -0.0652 -0.5076  0.3383
  184SLPC  H17R21090   0.829   2.243   4.556  2.7677  1.4523  1.5548
  184SLPC  H17S21091   0.676   2.330   4.581  0.3188 -0.7950  1.0079
  184SLPC  C21821092   0.862   2.447   4.577 -0.4091 -0.1152 -0.3113
  184SLPC  H18R21093   0.961   2.447   4.526 -0.0375 -2.1755  0.3012
  184SLPC  H18S21094   0.869   2.439   4.687 -3.1941 -0.1108 -0.0706
  184SLPC  H18T21095   0.805   2.538   4.552 -1.7871 -0.9231 -0.2244
  184SLPC   C3321096   1.205   2.793   3.104  0.1890  0.0523 -0.7478
  184SLPC   H3X21097   1.130   2.712   3.119  0.2023  0.3400  1.0307
  184SLPC   H3Y21098   1.151   2.887   3.080  1.4014  0.4158 -2.2080
  184SLPC   C3421099   1.290   2.814   3.233 -0.3259  0.1565  0.6572
  184SLPC   H4X21100   1.333   2.917   3.235  1.1730 -0.4663  2.3147
  184SLPC   H4Y21101   1.379   2.748   3.236 -0.2568  0.0078 -2.1353
  184SLPC   C3521102   1.207   2.787   3.357  0.1120  0.6373  0.1841
  184SLPC   H5X21103   1.150   2.692   3.345  0.7687  0.2686 -0.0442
  184SLPC   H5Y21104   1.136   2.869   3.380 -1.5642 -1.1437  1.6979
  184SLPC   C3621105   1.285   2.795   3.491  1.0233 -0.2120 -0.4859
  184SLPC   H6X21106   1.327   2.897   3.506  0.4748  0.2057 -1.6514
  184SLPC   H6Y21107   1.366   2.719   3.496  0.0572 -1.4688 -2.5162
  184SLPC   C3721108   1.187   2.781   3.607 -0.1945 -0.6319  0.4637
  184SLPC   H7X21109   1.080   2.796   3.581  0.6687  1.1273 -2.5801
  184SLPC   H7Y21110   1.205   2.865   3.678 -1.5902  1.6025 -1.6735
  184SLPC   C3821111   1.184   2.643   3.673  0.0872 -0.0929  0.2313
  184SLPC   H8X21112   1.284   2.612   3.710 -0.3018 -1.9157 -0.1438
  184SLPC   H8Y21113   1.158   2.565   3.598  1.6328 -0.8115  0.3953
  184SLPC   C3921114   1.090   2.629   3.788  0.5114  0.2634 -0.2606
  184SLPC   H9X21115   1.100   2.522   3.817 -1.7390 -0.2973 -1.3370
  184SLPC   H9Y21116   0.981   2.641   3.768 -0.1193  1.6028  3.1809
  184SLPC  C31021117   1.122   2.714   3.912 -0.3040  0.4969 -0.1439
  184SLPC  H10X21118   1.077   2.659   3.997  2.4359 -5.3239 -1.9123
  184SLPC  H10Y21119   1.075   2.815   3.906 -0.2392  0.6439  1.3702
  184SLPC  C31121120   1.270   2.734   3.942 -0.7918  0.1013 -0.4700
  184SLPC  H11X21121   1.323   2.801   3.870  1.1546 -0.2960  0.5199
  184SLPC  H11Y21122   1.326   2.640   3.923 -0.1223  0.5425 -0.7056
  184SLPC  C31221123   1.303   2.762   4.093  0.1652  0.0850 -0.1479
  184SLPC  H12X21124   1.234   2.845   4.119 -2.8699 -1.0779 -3.6906
  184SLPC  H12Y21125   1.406   2.802   4.098  0.2026  0.1999 -1.5251
  184SLPC  C31321126   1.308   2.651   4.186 -0.4123 -0.4150  0.3864
  184SLPC  H13X21127   1.384   2.576   4.155 -0.1787 -0.0585  0.0853
  184SLPC  H13Y21128   1.212   2.595   4.178 -0.5295 -0.0463 -1.2273
  184SLPC  C31421129   1.337   2.685   4.331  0.3244 -0.2194  0.3775
  184SLPC  H14X21130   1.267   2.765   4.363 -1.7529 -1.7327 -0.1558
  184SLPC  H14Y21131   1.437   2.733   4.332 -0.3804  1.3313  2.0026
  184SLPC  C31521132   1.333   2.559   4.425  0.0086 -0.1863 -0.6176
  184SLPC  H15X21133   1.412   2.483   4.407  1.6908  0.9293  1.4189
  184SLPC  H15Y21134   1.237   2.512   4.398 -0.1784  0.7316 -1.6109
  184SLPC  C31621135   1.318   2.576   4.576 -0.9643 -0.3722  0.1006
  184SLPC  H16X21136   1.274   2.486   4.623 -0.3450 -1.1638 -0.7824
  184SLPC  H16Y21137   1.256   2.667   4.595  0.3930  1.1643 -2.2506
  184SLPC  C31721138   1.448   2.612   4.654 -0.1822 -0.5123  1.0485
  184SLPC  H17X21139   1.532   2.585   4.586 -0.1002 -1.0133  1.3487
  184SLPC  H17Y21140   1.455   2.555   4.749 -2.4440 -0.7238  1.1261
  184SLPC  C31821141   1.459   2.758   4.689 -0.4437  0.0106  0.0265
  184SLPC  H18X21142   1.392   2.780   4.775  0.9875 -0.0637  1.1897
  184SLPC  H18Y21143   1.439   2.820   4.599  0.2395  0.6565  0.3126
  184SLPC  H18Z21144   1.560   2.777   4.730 -2.0732  1.6851  3.6815
  185POPC     N21145   0.258   5.720   7.516  0.7491 -0.0647 -0.0514
  185POPC   C1221146   0.375   5.812   7.506  0.0209  0.1544  0.0517
  185POPC  H12A21147   0.466   5.755   7.491 -0.4983 -0.4313 -1.0686
  185POPC  H12B21148   0.390   5.858   7.602 -1.8822 -2.3085  1.6441
  185POPC   C1321149   0.278   5.607   7.610 -0.4531 -0.3437 -0.0447
  185POPC  H13A21150   0.286   5.634   7.714 -2.0645 -2.4139  0.6902
  185POPC  H13B21151   0.192   5.542   7.610 -1.7299  1.2694 -0.2375
  185POPC  H13C21152   0.360   5.549   7.569  0.4544  2.0112 -1.8295
  185POPC   C1421153   0.132   5.793   7.569 -0.0104 -0.0783 -0.9084
  185POPC  H14A21154   0.152   5.830   7.669 -1.4779  1.2518 -1.0774
  185POPC  H14B21155   0.114   5.885   7.516  3.2154  1.7317  0.8304
  185POPC  H14C21156   0.041   5.735   7.569  1.0610 -2.0180  1.7102
  185POPC   C1521157   0.224   5.675   7.380 -0.3912 -0.4578  0.5135
  185POPC  H15A21158   0.131   5.622   7.395 -0.9673  0.3509 -0.1175
  185POPC  H15B21159   0.300   5.612   7.336 -0.0628  0.4598 -0.2589
  185POPC  H15C21160   0.200   5.762   7.321  0.0405 -1.4891 -1.2481
  185POPC   C1121161   0.388   5.926   7.392 -0.6022 -0.1394 -0.6854
  185POPC  H11A21162   0.394   5.864   7.300 -1.4189  1.3213 -1.7622
  185POPC  H11B21163   0.485   5.979   7.392  0.1827 -1.4133 -3.3940
  185POPC     P21164   0.269   6.153   7.460  0.3613  0.0091 -0.2898
  185POPC   O1321165   0.303   6.131   7.604 -0.6471  0.0691 -0.1922
  185POPC   O1421166   0.140   6.223   7.435  0.1949  0.1951 -0.6604
  185POPC   O1221167   0.277   6.018   7.381 -0.1121  0.3577 -0.2829
  185POPC   O1121168   0.379   6.242   7.387  0.6101  0.1218 -0.1278
  185POPC    C121169   0.358   6.301   7.257 -0.0284 -0.4309  0.5622
  185POPC    HA21170   0.427   6.387   7.240  0.6424 -0.9840  0.4410
  185POPC    HB21171   0.255   6.332   7.232 -0.9353 -2.6092  1.3245
  185POPC    C221172   0.399   6.192   7.151  0.0234  0.6624  0.6768
  185POPC    HS21173   0.342   6.099   7.173  1.9584 -0.0176  3.2286
  185POPC   O2121174   0.542   6.166   7.172  0.5267  0.0601 -0.0741
  185POPC   C2121175   0.591   6.070   7.090  0.1955  0.3685  0.3108
  185POPC   O2221176   0.528   6.000   7.018  0.2102  0.3053  0.4172
  185POPC   C2221177   0.743   6.070   7.116  0.0801 -0.1596 -0.1699
  185POPC   H2R21178   0.756   5.965   7.149  1.2611  0.2912  0.8669
  185POPC   H2S21179   0.771   6.142   7.196 -0.4304  1.1196 -1.1048
  185POPC    C321180   0.368   6.236   7.005  0.1174 -0.4496 -0.5667
  185POPC    HX21181   0.257   6.239   7.002  0.1119  1.9211  0.2053
  185POPC    HY21182   0.398   6.163   6.928  1.0262 -1.0726  0.3553
  185POPC   O3121183   0.418   6.370   6.991  0.0045  0.5399 -0.5276
  185POPC   C3121184   0.528   6.378   6.922  0.4331 -0.1029  0.5876
  185POPC   O3221185   0.580   6.291   6.855 -0.2414 -0.2534 -0.4237
  185POPC   C3221186   0.563   6.532   6.918 -0.0163  0.4341 -0.6960
  185POPC   H2X21187   0.650   6.550   6.984 -1.8757  1.1622  1.7212
  185POPC   H2Y21188   0.475   6.581   6.965 -1.0359 -2.5889  0.8089
  185POPC   C2321189   0.832   6.116   6.994  0.1102  0.0761 -0.8582
  185POPC   H3R21190   0.855   6.219   7.029 -2.4569 -0.4989  3.1585
  185POPC   H3S21191   0.763   6.129   6.908 -2.3301 -0.4879  0.9277
  185POPC   C2421192   0.939   6.018   6.944  0.3296 -0.0161  0.3459
  185POPC   H4R21193   0.887   5.925   6.909  0.8362  0.0697 -0.6875
  185POPC   H4S21194   1.015   6.002   7.023  0.9788  0.7505 -0.1108
  185POPC   C2521195   1.013   6.058   6.819  0.1316 -0.3960  0.0467
  185POPC   H5R21196   1.093   5.985   6.794 -0.8392 -0.6001 -2.7994
  185POPC   H5S21197   1.060   6.158   6.823 -1.3176  0.4322 -2.1406
  185POPC   C2621198   0.932   6.061   6.685 -0.1210  0.0124  0.0216
  185POPC   H6R21199   0.837   6.115   6.703 -0.2085 -0.2582  0.3975
  185POPC   H6S21200   0.908   5.954   6.664 -0.2036  0.3027 -1.4052
  185POPC   C2721201   1.015   6.123   6.574  1.3020 -0.3659  0.5098
  185POPC   H7R21202   1.111   6.069   6.559  1.9837  1.1334 -0.6829
  185POPC   H7S21203   1.050   6.225   6.603  1.3149 -0.6833  1.6798
  185POPC   C2821204   0.942   6.139   6.439  0.3413 -0.4180  0.3502
  185POPC   H8R21205   1.009   6.196   6.372 -0.5728  1.9034  1.2709
  185POPC   H8S21206   0.851   6.200   6.460 -0.0565 -1.4926  2.0019
  185POPC   C2921207   0.897   6.016   6.371 -1.1290  0.9321 -1.0086
  185POPC   H9121208   0.860   5.938   6.440 -2.9039  0.4695 -2.3948
  185POPC  C21021209   0.937   5.971   6.251 -0.2512 -0.4505  0.0948
  185POPC  H10121210   0.898   5.872   6.222 -1.4995  0.3565 -1.1213
  185POPC  C21121211   1.022   6.057   6.151 -0.1201 -0.3454 -0.0397
  185POPC  H11R21212   1.130   6.052   6.175 -0.1920 -1.3704  0.0777
  185POPC  H11S21213   0.994   6.164   6.167  0.4684 -0.4870  2.3716
  185POPC  C21221214   0.998   6.023   6.003 -0.6353  0.3317  0.4133
  185POPC  H12R21215   0.908   5.959   5.987 -0.6121  1.0604 -3.7835
  185POPC  H12S21216   1.086   5.977   5.953 -0.7282  0.9353 -0.3202
  185POPC  C21321217   0.976   6.138   5.911  0.2582  0.3314  0.2595
  185POPC  H13R21218   0.976   6.100   5.807 -1.5017 -0.1351  0.3998
  185POPC  H13S21219   1.063   6.202   5.936  2.2044 -1.8996 -0.4008
  185POPC  C21421220   0.841   6.209   5.931 -0.6081 -0.2714 -0.4945
  185POPC  H14R21221   0.834   6.293   5.858  1.3378 -2.7940 -3.8628
  185POPC  H14S21222   0.836   6.238   6.038  1.3681  0.2891 -0.5077
  185POPC  C21521223   0.719   6.122   5.889  0.4245  0.2908  0.3323
  185POPC  H15R21224   0.621   6.172   5.907  0.4963  1.4916 -2.1397
  185POPC  H15S21225   0.724   6.034   5.956 -1.6785 -0.2636 -0.1613
  185POPC  C21621226   0.712   6.088   5.740 -0.2313  0.4242  0.5886
  185POPC  H16R21227   0.799   6.025   5.713  0.0498  1.6824 -1.6736
  185POPC  H16S21228   0.738   6.184   5.691 -0.4774  1.2370  1.9861
  185POPC  C21721229   0.579   6.022   5.694  0.1465  0.2564 -0.7642
  185POPC  H17R21230   0.562   5.935   5.762 -1.0619  0.2785 -1.0322
  185POPC  H17S21231   0.606   5.975   5.597  0.1518  2.2001 -1.7593
  185POPC  C21821232   0.457   6.122   5.677  0.2358  0.2955 -0.0241
  185POPC  H18R21233   0.448   6.183   5.769 -1.7941 -1.0291  0.7220
  185POPC  H18S21234   0.360   6.068   5.674 -1.0622  2.3557  2.1568
  185POPC  H18T21235   0.481   6.187   5.590 -3.8186  0.6514 -1.0636
  185POPC   C3321236   0.606   6.594   6.777 -0.5810  0.0203 -0.6328
  185POPC   H3X21237   0.688   6.532   6.736  0.1782  1.4530 -1.3415
  185POPC   H3Y21238   0.652   6.695   6.785 -0.2823 -0.1890  0.5621
  185POPC   C3421239   0.484   6.603   6.691 -0.3261 -0.9044 -0.3454
  185POPC   H4X21240   0.436   6.701   6.709 -1.0614 -1.4514  0.8853
  185POPC   H4Y21241   0.412   6.518   6.697  0.0375 -1.3881 -2.3519
  185POPC   C3521242   0.528   6.585   6.543 -0.3039 -0.4703  0.5735
  185POPC   H5X21243   0.632   6.621   6.524  0.9711 -3.4139  1.3686
  185POPC   H5Y21244   0.455   6.647   6.488 -1.1137 -0.1954  1.9135
  185POPC   C3621245   0.531   6.442   6.492  0.5797 -0.2343  0.6470
  185POPC   H6X21246   0.435   6.388   6.479 -0.5233  1.0245  2.9090
  185POPC   H6Y21247   0.601   6.394   6.565  1.0993 -0.4947 -0.0133
  185POPC   C3721248   0.599   6.436   6.354 -0.0522  0.3251 -0.2048
  185POPC   H7X21249   0.622   6.329   6.335  4.2546  0.4567  2.8249
  185POPC   H7Y21250   0.693   6.494   6.347 -0.2898  0.6621 -0.6984
  185POPC   C3821251   0.499   6.481   6.242 -0.6153 -0.4694 -0.2257
  185POPC   H8X21252   0.447   6.578   6.258  0.5650  0.5090 -1.9813
  185POPC   H8Y21253   0.424   6.400   6.234  0.4504 -1.3447 -2.4246
  185POPC   C3921254   0.561   6.507   6.103  0.1484  0.4749 -0.0545
  185POPC   H9X21255   0.612   6.416   6.066 -1.9943 -1.4663  1.4653
  185POPC   H9Y21256   0.641   6.582   6.123 -1.0682  1.3356  1.9807
  185POPC  C31021257   0.460   6.560   6.005  0.2182 -1.2100  0.4677
  185POPC  H10X21258   0.397   6.641   6.048  1.4228  1.4373 -2.3597
  185POPC  H10Y21259   0.391   6.477   5.981 -0.9438  0.2392 -1.4605
  185POPC  C31121260   0.493   6.605   5.863 -0.4521  0.3636 -0.1775
  185POPC  H11X21261   0.536   6.516   5.813  1.2744  2.3778 -2.5260
  185POPC  H11Y21262   0.571   6.684   5.857  0.3891 -0.5284 -1.6136
  185POPC  C31221263   0.360   6.631   5.789  0.3586 -0.2937 -0.3539
  185POPC  H12X21264   0.296   6.713   5.827 -0.0275 -0.4309 -0.6976
  185POPC  H12Y21265   0.307   6.533   5.789  0.6725 -0.4645 -0.6553
  185POPC  C31321266   0.376   6.661   5.637 -0.3211  0.2942 -0.3778
  185POPC  H13X21267   0.273   6.691   5.607  0.1562  1.2969 -1.0818
  185POPC  H13Y21268   0.417   6.581   5.572 -0.0294 -0.6601  0.9485
  185POPC  C31421269   0.460   6.790   5.634 -0.3572 -0.0814  0.2140
  185POPC  H14X21270   0.565   6.759   5.649 -0.3479 -0.0102  0.2937
  185POPC  H14Y21271   0.437   6.855   5.721  3.2801  0.4921  0.9035
  185POPC  C31521272   0.452   6.873   5.500 -0.8523 -0.1874 -0.0885
  185POPC  H15X21273   0.528   6.952   5.512 -0.9799 -0.1179  0.2681
  185POPC  H15Y21274   0.358   6.930   5.486  1.6115  4.1039 -0.6377
  185POPC  C31621275   0.494   6.797   5.375 -0.5751 -0.1876  0.6271
  185POPC  H16X21276   0.494   6.849   5.277 -0.3427 -0.3824  0.5212
  185POPC  H16Y21277   0.428   6.709   5.355  0.2636 -0.8862  0.8467
  185POPC  H16Z21278   0.600   6.763   5.379 -0.3288 -0.0259 -2.2505
  186POPC     N21279   2.263   5.804   7.945 -0.2347  0.1404 -0.6351
  186POPC   C1221280   2.296   5.748   7.807  0.0075 -0.2036 -0.5486
  186POPC  H12A21281   2.201   5.739   7.757 -0.5698  0.6606  0.3447
  186POPC  H12B21282   2.327   5.647   7.827  0.5090  0.2738  1.2757
  186POPC   C1321283   2.385   5.791   8.032  0.1537  0.0027 -0.3165
  186POPC  H13A21284   2.408   5.687   8.051  0.4220  0.0033 -0.6239
  186POPC  H13B21285   2.473   5.825   7.978 -0.5354  1.8153 -0.3431
  186POPC  H13C21286   2.382   5.843   8.126 -0.3864 -1.4460  0.5053
  186POPC   C1421287   2.236   5.948   7.927 -0.6147  0.0801  0.2388
  186POPC  H14A21288   2.213   5.981   8.027  1.6351  3.3947 -0.1985
  186POPC  H14B21289   2.323   6.004   7.895 -0.9788  1.4414  1.5395
  186POPC  H14C21290   2.164   5.967   7.849  0.0531  1.1795 -0.1436
  186POPC   C1521291   2.150   5.725   8.004 -0.3603 -0.1726 -0.0219
  186POPC  H15A21292   2.188   5.625   8.017  1.0903  0.2717 -0.6404
  186POPC  H15B21293   2.065   5.713   7.939  0.4509 -3.1970 -0.6679
  186POPC  H15C21294   2.120   5.762   8.101 -1.0363  1.5292 -0.8253
  186POPC   C1121295   2.414   5.810   7.720  0.0026 -0.3335  0.1663
  186POPC  H11A21296   2.393   5.916   7.694  0.5318 -0.0403  0.8954
  186POPC  H11B21297   2.404   5.744   7.631 -2.8832  1.2106 -0.7737
  186POPC     P21298   2.658   5.899   7.731  0.2704  0.0584 -0.1341
  186POPC   O1321299   2.785   5.851   7.782  0.8078 -1.1791 -0.0693
  186POPC   O1421300   2.632   6.047   7.734  0.7713 -0.6296  0.0137
  186POPC   O1221301   2.539   5.808   7.794 -0.3180 -0.0405 -0.1061
  186POPC   O1121302   2.633   5.861   7.578 -1.0064  0.0289  1.0816
  186POPC    C121303   2.664   5.730   7.533  0.8230  0.0330  0.1461
  186POPC    HA21304   2.599   5.661   7.591 -0.1517  1.5163  0.9050
  186POPC    HB21305   2.771   5.705   7.543  0.8778  0.7894  1.7181
  186POPC    C221306   2.641   5.727   7.380 -0.4562  0.4608  0.3617
  186POPC    HS21307   2.710   5.804   7.340 -0.2829  0.1433  0.0499
  186POPC   O2121308   2.495   5.740   7.348  0.0912 -0.3975  0.9204
  186POPC   C2121309   2.477   5.824   7.247  0.0356 -0.1188  0.0515
  186POPC   O2221310   2.569   5.887   7.194  0.2001  0.1452  0.1366
  186POPC   C2221311   2.338   5.832   7.206  0.0894  0.5934  0.5511
  186POPC   H2R21312   2.282   5.869   7.295 -0.1780  0.7084  0.3343
  186POPC   H2S21313   2.305   5.735   7.164 -1.5623  0.6783  1.5606
  186POPC    C321314   2.700   5.590   7.319  0.1894 -0.3932 -0.6936
  186POPC    HX21315   2.647   5.519   7.385 -0.5542  1.1916  0.4873
  186POPC    HY21316   2.808   5.581   7.341  0.2379  0.5856 -0.4732
  186POPC   O3121317   2.657   5.577   7.187  0.4670 -0.2722 -0.1128
  186POPC   C3121318   2.736   5.623   7.094 -0.4573  0.2975  0.1622
  186POPC   O3221319   2.856   5.652   7.108  0.2313  0.2818 -0.1026
  186POPC   C3221320   2.669   5.633   6.953  0.3523  0.0398 -0.1942
  186POPC   H2X21321   2.595   5.714   6.964 -0.4307 -0.5948 -0.6923
  186POPC   H2Y21322   2.626   5.531   6.940 -1.7789  0.8983 -0.2513
  186POPC   C2321323   2.316   5.942   7.090  0.2902  0.1633 -0.4542
  186POPC   H3R21324   2.377   6.031   7.116 -0.7177  0.3361  1.4644
  186POPC   H3S21325   2.209   5.973   7.098  0.5543  1.3354 -1.1711
  186POPC   C2421326   2.347   5.902   6.947 -0.2900 -0.2312 -0.0419
  186POPC   H4R21327   2.287   5.812   6.925 -0.5231 -0.7146  2.2674
  186POPC   H4S21328   2.455   5.879   6.934 -0.5373 -2.1506  0.9928
  186POPC   C2521329   2.314   6.009   6.844 -0.2949 -0.0338  0.4565
  186POPC   H5R21330   2.396   6.083   6.850 -0.6761  0.4437 -0.0503
  186POPC   H5S21331   2.215   6.056   6.865 -1.1545 -1.5790 -0.0024
  186POPC   C2621332   2.315   5.945   6.701 -0.6768 -0.7855 -0.1019
  186POPC   H6R21333   2.257   5.850   6.695  0.6979 -1.5843 -1.5289
  186POPC   H6S21334   2.422   5.925   6.677 -0.7013 -1.0870  0.0239
  186POPC   C2721335   2.276   6.050   6.598 -0.3029 -0.1499 -0.1121
  186POPC   H7R21336   2.183   6.106   6.622  1.6260  2.0595  2.8717
  186POPC   H7S21337   2.263   5.999   6.501 -1.5949  1.4335 -0.8240
  186POPC   C2821338   2.394   6.152   6.577  0.2599  0.3760 -0.0028
  186POPC   H8R21339   2.485   6.102   6.539  0.5219  1.9446 -1.5838
  186POPC   H8S21340   2.412   6.192   6.679 -1.8954  2.2314 -0.2619
  186POPC   C2921341   2.342   6.248   6.474 -0.1219 -0.0617  1.9376
  186POPC   H9121342   2.284   6.333   6.511 -0.5002  0.1261  0.9415
  186POPC  C21021343   2.362   6.237   6.337 -0.3939 -0.6574  0.3078
  186POPC  H10121344   2.333   6.321   6.271 -0.0017 -1.0642 -0.3912
  186POPC  C21121345   2.425   6.118   6.255 -0.3653 -0.2810 -0.6235
  186POPC  H11R21346   2.439   6.031   6.323  2.2138 -0.9338 -1.8572
  186POPC  H11S21347   2.528   6.152   6.231 -0.6887  2.5101  1.4290
  186POPC  C21221348   2.347   6.069   6.120 -0.1052 -0.6961 -0.0355
  186POPC  H12R21349   2.238   6.060   6.143  0.0649 -0.7375  0.8051
  186POPC  H12S21350   2.381   5.966   6.096  0.5869  0.1033 -2.7341
  186POPC  C21321351   2.353   6.163   5.997 -0.3265  0.1591 -0.4724
  186POPC  H13R21352   2.459   6.178   5.969 -0.4365  1.6914 -0.1638
  186POPC  H13S21353   2.316   6.265   6.020  1.8590  0.8068  0.4140
  186POPC  C21421354   2.274   6.103   5.878  0.4860 -0.5172 -0.2331
  186POPC  H14R21355   2.167   6.086   5.903 -0.2834  2.8958 -0.6151
  186POPC  H14S21356   2.330   6.013   5.847  1.9819  0.3442 -0.1478
  186POPC  C21521357   2.294   6.203   5.761  0.9186  0.4119  0.4034
  186POPC  H15R21358   2.398   6.196   5.723  0.5792  0.4911 -0.5572
  186POPC  H15S21359   2.286   6.311   5.784  1.8916  0.7925 -0.9455
  186POPC  C21621360   2.194   6.154   5.653 -0.1834 -0.7536 -0.2632
  186POPC  H16R21361   2.093   6.166   5.698  0.3292  1.7500  0.3694
  186POPC  H16S21362   2.217   6.046   5.641 -0.7265 -1.0548  1.1600
  186POPC  C21721363   2.208   6.230   5.524  0.3740 -0.2773  0.0797
  186POPC  H17R21364   2.315   6.214   5.500  0.4028  0.3716 -0.2386
  186POPC  H17S21365   2.203   6.338   5.547 -0.8277 -0.3764  0.3664
  186POPC  C21821366   2.123   6.191   5.408 -0.1615  0.1978  0.4762
  186POPC  H18R21367   2.162   6.226   5.311 -2.1768  0.5264 -0.2676
  186POPC  H18S21368   2.018   6.225   5.426 -0.2416 -0.2738  0.9414
  186POPC  H18T21369   2.119   6.080   5.404 -2.4682  0.2813 -1.3161
  186POPC   C3321370   2.762   5.667   6.839 -0.9424 -0.8879 -0.1443
  186POPC   H3X21371   2.847   5.599   6.820  0.3362  1.2024 -2.6144
  186POPC   H3Y21372   2.805   5.766   6.865 -1.7692 -0.9300  1.5540
  186POPC   C3421373   2.688   5.687   6.704  0.2704  0.1470  0.7627
  186POPC   H4X21374   2.593   5.742   6.722  0.6739  1.4964 -0.9992
  186POPC   H4Y21375   2.660   5.589   6.658  2.4875 -0.5632  0.7968
  186POPC   C3521376   2.766   5.765   6.601 -0.5255 -0.9829  0.7311
  186POPC   H5X21377   2.869   5.723   6.593  0.3765  1.1397  0.6627
  186POPC   H5Y21378   2.781   5.871   6.631  1.1027 -0.7932 -0.5762
  186POPC   C3621379   2.703   5.765   6.461 -0.6949  0.2281 -0.0312
  186POPC   H6X21380   2.596   5.785   6.480 -0.3507  2.5786 -0.3380
  186POPC   H6Y21381   2.720   5.679   6.393  0.3166  0.3171  0.0923
  186POPC   C3721382   2.767   5.876   6.363  0.1503  0.4109 -0.3633
  186POPC   H7X21383   2.877   5.883   6.375  0.2023 -0.5315 -0.2234
  186POPC   H7Y21384   2.730   5.966   6.417  0.1680 -0.7452  1.6629
  186POPC   C3821385   2.709   5.869   6.221 -0.0285  1.0533 -1.1860
  186POPC   H8X21386   2.714   5.972   6.181 -2.2628  0.5193 -3.0794
  186POPC   H8Y21387   2.603   5.837   6.231  0.7028 -2.1783 -2.4852
  186POPC   C3921388   2.783   5.780   6.122 -0.2386  0.2979 -0.1830
  186POPC   H9X21389   2.810   5.693   6.185 -0.5313 -0.6185 -1.2965
  186POPC   H9Y21390   2.875   5.821   6.075 -0.0218 -1.0958 -1.0076
  186POPC  C31021391   2.696   5.731   6.012 -0.1670  0.1168  0.3446
  186POPC  H10X21392   2.608   5.678   6.055  0.6056 -2.2015 -0.7461
  186POPC  H10Y21393   2.746   5.647   5.959  0.8381  1.1913 -0.4386
  186POPC  C31121394   2.649   5.838   5.921 -0.0875  0.2167 -0.1594
  186POPC  H11X21395   2.740   5.882   5.874  0.2053  2.4313  2.2661
  186POPC  H11Y21396   2.605   5.925   5.973  1.1778 -0.2404  1.7826
  186POPC  C31221397   2.552   5.794   5.812 -0.3960  0.1540  0.3627
  186POPC  H12X21398   2.453   5.761   5.848 -0.7077 -0.0881 -0.7000
  186POPC  H12Y21399   2.592   5.701   5.766 -0.2073 -0.1068  1.0432
  186POPC  C31321400   2.557   5.891   5.694 -0.1117  0.5068 -0.5065
  186POPC  H13X21401   2.656   5.937   5.677 -0.9934  1.7987 -2.5736
  186POPC  H13Y21402   2.496   5.979   5.724 -0.6239  0.1578 -0.5047
  186POPC  C31421403   2.495   5.827   5.571  0.0179 -0.5561  0.3574
  186POPC  H14X21404   2.392   5.795   5.596 -0.3380  0.0351 -0.3320
  186POPC  H14Y21405   2.566   5.746   5.540  0.2117  0.0045 -0.7040
  186POPC  C31521406   2.489   5.914   5.448 -0.1254  0.1171 -0.9298
  186POPC  H15X21407   2.583   5.965   5.418 -1.1814  0.7385 -3.4126
  186POPC  H15Y21408   2.407   5.988   5.464 -1.1164 -1.2448  0.6551
  186POPC  C31621409   2.438   5.845   5.318 -0.4475  0.3316  0.4019
  186POPC  H16X21410   2.340   5.797   5.339 -0.2360 -0.0310  0.5694
  186POPC  H16Y21411   2.512   5.763   5.305 -1.1085 -0.4730  1.4358
  186POPC  H16Z21412   2.447   5.916   5.234  3.3840 -1.0835 -0.5737
  187POPC     N21413   0.481   4.585   2.038  0.1585  0.0774  0.4794
  187POPC   C1221414   0.344   4.628   2.063 -0.1418 -0.6701 -0.5943
  187POPC  H12A21415   0.294   4.558   2.129 -0.3161  0.1417  0.1569
  187POPC  H12B21416   0.287   4.629   1.971 -1.2124 -1.7204  0.0229
  187POPC   C1321417   0.543   4.693   1.953 -0.0372 -0.2369  0.4042
  187POPC  H13A21418   0.480   4.699   1.866  1.5881 -2.5975 -1.0335
  187POPC  H13B21419   0.546   4.792   1.995 -0.1022  0.5254 -1.3085
  187POPC  H13C21420   0.641   4.669   1.913  0.1095  2.0968 -0.8435
  187POPC   C1421421   0.562   4.572   2.160 -0.0404  0.2806 -0.2136
  187POPC  H14A21422   0.667   4.565   2.138  0.0865 -0.7965  0.6174
  187POPC  H14B21423   0.550   4.668   2.207 -2.0803  0.0177 -0.1087
  187POPC  H14C21424   0.514   4.501   2.227 -2.1452  2.9731  1.3287
  187POPC   C1521425   0.486   4.451   1.970  0.0485 -0.6911 -0.5131
  187POPC  H15A21426   0.421   4.378   2.015  1.5412 -2.5969 -1.3255
  187POPC  H15B21427   0.586   4.411   1.964  0.0883 -0.4098 -1.8331
  187POPC  H15C21428   0.454   4.461   1.868 -1.4811 -0.1851 -0.0021
  187POPC   C1121429   0.316   4.767   2.123 -0.3138 -0.2425  0.0160
  187POPC  H11A21430   0.216   4.769   2.171 -0.2582 -1.4781  0.2101
  187POPC  H11B21431   0.322   4.842   2.041  0.0482 -1.5747 -1.2185
  187POPC     P21432   0.483   4.937   2.246  0.3027 -0.3098  0.6375
  187POPC   O1321433   0.526   4.999   2.115  0.9520 -0.0047 -0.6337
  187POPC   O1421434   0.584   4.918   2.353  0.4928 -0.2573  0.1464
  187POPC   O1221435   0.408   4.806   2.224 -1.2743  0.3738 -0.4117
  187POPC   O1121436   0.358   5.019   2.308 -0.1565  0.2033  0.7947
  187POPC    C121437   0.261   4.951   2.390  0.0074  0.4332 -0.3222
  187POPC    HA21438   0.233   4.845   2.368 -0.4494  0.9785 -2.6533
  187POPC    HB21439   0.169   5.013   2.376 -0.3658  0.3272  1.4227
  187POPC    C221440   0.290   4.970   2.541 -0.2959 -0.5476  0.7309
  187POPC    HS21441   0.352   5.062   2.551  2.3004 -2.1655  0.5443
  187POPC   O2121442   0.360   4.851   2.583 -0.3685 -0.4876  0.7473
  187POPC   C2121443   0.457   4.873   2.673  0.6710  0.2951  0.0349
  187POPC   O2221444   0.480   4.986   2.711 -0.0937 -0.0644 -0.4165
  187POPC   C2221445   0.517   4.745   2.726  0.1073 -0.4241 -0.2886
  187POPC   H2R21446   0.571   4.698   2.641 -0.4849  1.1215 -1.5793
  187POPC   H2S21447   0.439   4.674   2.760  1.2015 -0.6982  1.7259
  187POPC    C321448   0.154   4.991   2.619  0.2450 -0.7275 -0.5914
  187POPC    HX21449   0.089   4.901   2.612 -0.2222 -0.6371  1.9010
  187POPC    HY21450   0.094   5.070   2.568 -1.3408 -2.0986 -0.9557
  187POPC   O3121451   0.167   5.040   2.753  0.4264 -0.0218 -0.2079
  187POPC   C3121452   0.195   4.948   2.843 -0.4078 -0.4049  0.4023
  187POPC   O3221453   0.219   4.832   2.820 -0.0104  0.6220 -0.4757
  187POPC   C3221454   0.188   5.009   2.985  0.3031 -0.0621  0.0867
  187POPC   H2X21455   0.099   5.073   3.006  0.5208 -0.5459  3.0179
  187POPC   H2Y21456   0.286   5.062   2.991  0.0230  0.4274  0.4297
  187POPC   C2321457   0.613   4.768   2.841  0.0261  0.1292 -0.5143
  187POPC   H3R21458   0.680   4.855   2.824 -1.1994  0.9581 -1.2327
  187POPC   H3S21459   0.665   4.671   2.849 -0.7254 -0.4922 -2.6558
  187POPC   C2421460   0.541   4.785   2.977  0.0244  0.0938  0.0109
  187POPC   H4R21461   0.484   4.692   3.002  0.7400 -0.4249 -0.2530
  187POPC   H4S21462   0.479   4.877   2.985 -0.5202  0.0101 -2.5667
  187POPC   C2521463   0.654   4.815   3.073 -0.0812  0.2601 -0.0872
  187POPC   H5R21464   0.680   4.922   3.060 -1.5308  0.6565  0.0610
  187POPC   H5S21465   0.744   4.753   3.052  0.3647  1.0823 -0.6915
  187POPC   C2621466   0.612   4.796   3.213  0.1898  0.2233  0.1074
  187POPC   H6R21467   0.501   4.803   3.219  0.2121 -0.4371  2.5456
  187POPC   H6S21468   0.649   4.879   3.277 -0.0303  0.8768 -0.6071
  187POPC   C2721469   0.655   4.661   3.272 -0.9039 -0.2703  0.3171
  187POPC   H7R21470   0.763   4.675   3.253 -1.1442  4.2150  1.0978
  187POPC   H7S21471   0.618   4.583   3.202  0.5611 -0.1690 -0.6096
  187POPC   C2821472   0.609   4.636   3.414  0.2909 -0.0961  0.5928
  187POPC   H8R21473   0.500   4.620   3.422  0.3396 -0.9923 -0.3134
  187POPC   H8S21474   0.625   4.734   3.463 -0.2851  0.8576 -1.0435
  187POPC   C2921475   0.689   4.529   3.471 -0.4093  0.3440  0.1862
  187POPC   H9121476   0.749   4.475   3.396 -0.7677  1.4466 -0.9115
  187POPC  C21021477   0.696   4.502   3.601  0.8830 -1.0230 -0.7452
  187POPC  H10121478   0.747   4.408   3.630 -0.7694 -1.4856  0.8267
  187POPC  C21121479   0.624   4.563   3.721 -0.9218  0.3114  0.4007
  187POPC  H11R21480   0.537   4.618   3.679 -1.2901  0.5210  1.4229
  187POPC  H11S21481   0.692   4.635   3.772 -0.2040  0.4805 -0.7442
  187POPC  C21221482   0.575   4.459   3.826 -0.5717 -0.2164 -0.5070
  187POPC  H12R21483   0.646   4.373   3.822  1.8707  1.6627 -0.2080
  187POPC  H12S21484   0.473   4.431   3.794 -1.9601  0.6933  2.7233
  187POPC  C21321485   0.559   4.514   3.967 -0.5248 -0.6368 -0.0035
  187POPC  H13R21486   0.480   4.592   3.954  1.2965  1.0485 -1.6346
  187POPC  H13S21487   0.647   4.570   4.006 -0.0966 -0.7062 -0.8594
  187POPC  C21421488   0.529   4.395   4.062 -0.5409 -0.4270 -0.3180
  187POPC  H14R21489   0.609   4.319   4.049  0.9454  0.3996  2.9985
  187POPC  H14S21490   0.424   4.361   4.048 -1.0200  0.8898 -0.1151
  187POPC  C21521491   0.554   4.432   4.216  0.3473  0.4878  0.1055
  187POPC  H15R21492   0.661   4.461   4.218 -0.3584  3.5781 -1.3042
  187POPC  H15S21493   0.549   4.337   4.274  0.6068  1.0522  1.0798
  187POPC  C21621494   0.468   4.541   4.269 -0.0695 -0.0789  0.2217
  187POPC  H16R21495   0.363   4.506   4.268  0.4958 -2.0835  2.2493
  187POPC  H16S21496   0.479   4.628   4.200 -1.7056 -1.4604 -1.8995
  187POPC  C21721497   0.502   4.588   4.413 -0.1734  0.0834 -0.1032
  187POPC  H17R21498   0.596   4.647   4.403 -1.1737  2.2094  2.0048
  187POPC  H17S21499   0.517   4.505   4.484 -1.5050  0.3136  0.4748
  187POPC  C21821500   0.393   4.685   4.456  0.5991  0.0134  0.9159
  187POPC  H18R21501   0.412   4.720   4.560  0.5391 -0.2146  1.0033
  187POPC  H18S21502   0.300   4.625   4.454  1.8719 -2.1229  1.9525
  187POPC  H18T21503   0.382   4.772   4.389  1.1409  0.0316  0.8425
  187POPC   C3321504   0.201   4.897   3.095  0.1695  0.3582  0.3517
  187POPC   H3X21505   0.307   4.887   3.126  0.2224  0.3437  0.1668
  187POPC   H3Y21506   0.187   4.796   3.051  1.5654  1.4451 -2.8676
  187POPC   C3421507   0.101   4.918   3.206  0.5689  0.7838 -0.0082
  187POPC   H4X21508  -0.005   4.918   3.172  0.7683 -0.6118 -0.6898
  187POPC   H4Y21509   0.124   5.014   3.256  1.2446  0.4312  0.3653
  187POPC   C3521510   0.116   4.817   3.325  0.0869  0.3691 -0.2530
  187POPC   H5X21511   0.224   4.801   3.348 -0.4428 -1.5528  1.2208
  187POPC   H5Y21512   0.079   4.717   3.294 -0.9418  0.6801 -0.0416
  187POPC   C3621513   0.039   4.859   3.456 -0.0490  0.9313  0.0765
  187POPC   H6X21514  -0.064   4.818   3.454  1.3538 -2.9399 -0.3985
  187POPC   H6Y21515   0.048   4.969   3.447  1.4213  0.6780 -2.3527
  187POPC   C3721516   0.104   4.807   3.586  0.2963  0.4564 -1.1296
  187POPC   H7X21517   0.209   4.841   3.597 -0.1245  1.1849  1.3697
  187POPC   H7Y21518   0.079   4.699   3.590  1.4524  0.2131  0.0695
  187POPC   C3821519   0.040   4.871   3.716 -0.1549  0.0367  0.0075
  187POPC   H8X21520  -0.070   4.861   3.712 -0.2061  0.5940 -4.1012
  187POPC   H8Y21521   0.053   4.980   3.727 -0.7111  0.1415 -0.3870
  187POPC   C3921522   0.088   4.814   3.848  0.1763  0.2643 -0.8806
  187POPC   H9X21523   0.199   4.804   3.853  0.0304 -1.4221 -0.3855
  187POPC   H9Y21524   0.051   4.710   3.862 -2.1937  1.1805  0.2413
  187POPC  C31021525   0.042   4.896   3.975 -0.1392 -0.3464 -0.1015
  187POPC  H10X21526  -0.065   4.890   4.001  0.3562 -1.3264  1.9418
  187POPC  H10Y21527   0.066   5.004   3.960  0.7827 -0.3161  1.3792
  187POPC  C31121528   0.120   4.848   4.099  0.0390 -0.1535  0.2512
  187POPC  H11X21529   0.228   4.839   4.073  0.1284 -0.6565  0.7839
  187POPC  H11Y21530   0.081   4.746   4.118 -1.9699  0.4814 -0.1906
  187POPC  C31221531   0.095   4.924   4.228  0.5267  0.4229 -0.2212
  187POPC  H12X21532   0.092   5.032   4.203 -0.2988  0.1031 -1.6869
  187POPC  H12Y21533   0.183   4.891   4.287  0.8031  0.2260 -0.7289
  187POPC  C31321534  -0.041   4.898   4.299 -0.5166 -0.5486  0.4413
  187POPC  H13X21535  -0.121   4.890   4.222  0.4914  1.6057 -0.9189
  187POPC  H13Y21536  -0.052   4.987   4.364  1.2602 -1.5077  2.1450
  187POPC  C31421537  -0.027   4.769   4.375 -0.5924 -0.2841 -0.3437
  187POPC  H14X21538   0.059   4.762   4.445 -0.4525  0.2267 -0.4574
  187POPC  H14Y21539  -0.013   4.688   4.300  2.1355 -1.2143  1.0364
  187POPC  C31521540  -0.156   4.732   4.456 -0.2084  0.1099  0.3044
  187POPC  H15X21541  -0.250   4.716   4.398 -0.9982 -1.0898  1.8372
  187POPC  H15Y21542  -0.166   4.828   4.510  0.3782  0.6801 -0.5805
  187POPC  C31621543  -0.140   4.607   4.546 -0.0176  0.4676  0.1280
  187POPC  H16X21544  -0.238   4.602   4.597 -0.7425  2.9836 -0.8584
  187POPC  H16Y21545  -0.047   4.611   4.606  1.3407  1.1493 -1.9017
  187POPC  H16Z21546  -0.133   4.521   4.475  0.4158  0.0525  0.6668
  188POPC     N21547   6.030   5.862   2.380 -0.9866 -0.0090  0.8792
  188POPC   C1221548   6.059   5.894   2.527 -0.3232  0.9417  0.4203
  188POPC  H12A21549   5.963   5.926   2.566 -0.7342 -0.5878  0.7007
  188POPC  H12B21550   6.148   5.956   2.529 -0.9278  2.1489 -2.9858
  188POPC   C1321551   6.150   5.798   2.309  0.3443 -0.3857 -0.5675
  188POPC  H13A21552   6.225   5.876   2.305 -0.7462  0.8869  1.9992
  188POPC  H13B21553   6.190   5.713   2.363 -3.1883 -1.2559  0.9028
  188POPC  H13C21554   6.124   5.781   2.205 -0.7998  1.3473 -0.5959
  188POPC   C1421555   5.907   5.780   2.368  0.3649 -0.9901 -0.3850
  188POPC  H14A21556   5.884   5.772   2.263  0.0800  3.6008 -0.8994
  188POPC  H14B21557   5.919   5.682   2.411  0.1029 -0.9780 -0.2800
  188POPC  H14C21558   5.824   5.836   2.410  1.3112 -0.2495  0.5609
  188POPC   C1521559   6.003   5.987   2.300  0.8297  0.0261 -0.0277
  188POPC  H15A21560   5.996   5.971   2.193 -0.9241  4.3033 -0.7590
  188POPC  H15B21561   6.088   6.054   2.301  1.0226 -0.1621  2.4107
  188POPC  H15C21562   5.918   6.044   2.332 -0.7263 -2.7682  1.1542
  188POPC   C1121563   6.097   5.769   2.619 -0.2885 -0.2271  0.4234
  188POPC  H11A21564   6.029   5.684   2.599 -0.0143 -0.1835 -0.7559
  188POPC  H11B21565   6.084   5.796   2.726 -0.6206 -3.9683  1.4841
  188POPC     P21566   6.352   5.830   2.657  0.0762  0.1557  0.1592
  188POPC   O1321567   6.319   5.971   2.618  0.0931  0.3504 -0.0055
  188POPC   O1421568   6.486   5.784   2.638  0.0018 -0.6080  0.2604
  188POPC   O1221569   6.234   5.737   2.599  0.1111  0.2348 -0.0819
  188POPC   O1121570   6.318   5.818   2.815 -0.3807  0.3501  0.1424
  188POPC    C121571   6.413   5.737   2.890 -0.0425  0.4794 -0.1867
  188POPC    HA21572   6.518   5.738   2.854 -0.6290 -1.3297 -2.1329
  188POPC    HB21573   6.384   5.630   2.880  1.0604  0.2448 -1.0589
  188POPC    C221574   6.404   5.773   3.042  0.2871  1.6350 -0.3181
  188POPC    HS21575   6.497   5.731   3.085  0.4415 -0.3905 -2.3924
  188POPC   O2121576   6.285   5.718   3.104  0.5360 -0.3818  0.0883
  188POPC   C2121577   6.301   5.591   3.139  0.7253 -0.5957 -0.4540
  188POPC   O2221578   6.385   5.514   3.108 -0.5558 -0.3397 -0.3483
  188POPC   C2221579   6.167   5.552   3.207 -0.0668 -0.0944  0.5206
  188POPC   H2R21580   6.108   5.486   3.140 -0.2934  1.9579 -1.4531
  188POPC   H2S21581   6.110   5.644   3.232  1.5737  0.5813  1.9457
  188POPC    C321582   6.414   5.919   3.068 -0.3745 -0.3414 -0.6241
  188POPC    HX21583   6.317   5.949   3.024 -0.7857  0.8745  1.0091
  188POPC    HY21584   6.497   5.971   3.016 -0.5325 -0.6396 -1.1871
  188POPC   O3121585   6.404   5.954   3.212 -0.5182  0.1590  0.8180
  188POPC   C3121586   6.517   5.923   3.283  0.2791 -0.2393  0.4739
  188POPC   O3221587   6.621   5.879   3.246 -0.3231  0.4104  0.0869
  188POPC   C3221588   6.487   5.957   3.428  0.6668 -0.7862 -0.4861
  188POPC   H2X21589   6.402   5.895   3.462 -1.7916  3.2869  1.4757
  188POPC   H2Y21590   6.454   6.062   3.437 -0.9610 -1.1693 -1.5772
  188POPC   C2321591   6.198   5.478   3.344 -0.0396  0.3175  0.1678
  188POPC   H3R21592   6.268   5.396   3.315 -0.2705 -0.4447  1.6899
  188POPC   H3S21593   6.115   5.426   3.395  0.1358  2.2941  2.6557
  188POPC   C2421594   6.255   5.581   3.448 -0.2708 -0.5216 -0.1290
  188POPC   H4R21595   6.190   5.671   3.451  2.5531  1.6828 -0.7046
  188POPC   H4S21596   6.357   5.610   3.415 -0.5948 -0.9980 -1.6229
  188POPC   C2521597   6.263   5.522   3.596 -0.5195 -0.2591  0.2311
  188POPC   H5R21598   6.338   5.442   3.614  1.0855  1.0056 -0.5910
  188POPC   H5S21599   6.159   5.494   3.622 -0.1054 -1.6656  0.4116
  188POPC   C2621600   6.301   5.629   3.692 -0.7132  0.7185  0.4824
  188POPC   H6R21601   6.225   5.709   3.705  0.4776  1.8721  0.4817
  188POPC   H6S21602   6.392   5.683   3.658  0.7865 -2.4617 -0.9434
  188POPC   C2721603   6.330   5.572   3.835 -0.6430  0.8333 -0.4412
  188POPC   H7R21604   6.416   5.504   3.822 -1.8962 -0.2605 -4.2204
  188POPC   H7S21605   6.241   5.518   3.875 -0.2243  1.2135  1.0545
  188POPC   C2821606   6.369   5.677   3.932 -0.0986  0.1414  0.2047
  188POPC   H8R21607   6.269   5.722   3.952 -1.0855 -1.2274 -1.4108
  188POPC   H8S21608   6.429   5.744   3.867  1.6959 -1.4498  0.1440
  188POPC   C2921609   6.435   5.642   4.064 -0.3778  0.3376  0.7053
  188POPC   H9121610   6.491   5.547   4.064  1.5106  1.3512  2.7722
  188POPC  C21021611   6.407   5.694   4.183  0.4479 -0.2569 -0.4522
  188POPC  H10121612   6.472   5.669   4.267 -0.8570  0.8883  0.9573
  188POPC  C21121613   6.303   5.803   4.223  0.8195  0.2313 -0.1579
  188POPC  H11R21614   6.203   5.767   4.192  1.5591 -2.4479  0.3691
  188POPC  H11S21615   6.325   5.890   4.156  0.4850 -1.0204 -1.9722
  188POPC  C21221616   6.313   5.845   4.371  0.2026  0.6403 -0.3867
  188POPC  H12R21617   6.256   5.939   4.385 -0.0157  0.3438  0.8422
  188POPC  H12S21618   6.418   5.876   4.392  0.2362  0.4699 -0.3026
  188POPC  C21321619   6.262   5.744   4.479 -0.4851 -0.0458  0.0128
  188POPC  H13R21620   6.304   5.643   4.464  0.2529  0.1458  0.6903
  188POPC  H13S21621   6.151   5.734   4.474 -0.5881  0.0250  1.4914
  188POPC  C21421622   6.307   5.780   4.620  0.8082 -0.1472  0.4638
  188POPC  H14R21623   6.279   5.883   4.649 -1.9550 -0.1746 -1.7771
  188POPC  H14S21624   6.418   5.787   4.619  0.9204  2.0623  4.7822
  188POPC  C21521625   6.260   5.679   4.725  0.5354  0.0400  0.6022
  188POPC  H15R21626   6.150   5.665   4.731  1.0380 -4.7797  3.9126
  188POPC  H15S21627   6.279   5.726   4.824  0.6001  0.0524  0.5847
  188POPC  C21621628   6.313   5.542   4.707 -0.1505  0.3852 -0.1698
  188POPC  H16R21629   6.406   5.538   4.647  0.2460 -0.7925  0.4714
  188POPC  H16S21630   6.239   5.482   4.650 -0.3004  1.0969 -0.7311
  188POPC  C21721631   6.340   5.462   4.833  0.0719  0.8966  0.5398
  188POPC  H17R21632   6.264   5.478   4.914 -1.6045  0.7867 -0.9472
  188POPC  H17S21633   6.445   5.483   4.860  0.2902  1.9091 -0.9575
  188POPC  C21821634   6.338   5.305   4.803  0.6203 -0.3534 -0.5176
  188POPC  H18R21635   6.234   5.271   4.788 -0.1097  2.6763 -3.7726
  188POPC  H18S21636   6.395   5.247   4.879  0.3081 -2.3143 -1.7107
  188POPC  H18T21637   6.399   5.282   4.713  1.2013 -2.0612  0.2769
  188POPC   C3321638   6.604   5.929   3.522  0.0746  1.4328 -0.2044
  188POPC   H3X21639   6.692   5.991   3.498  1.3931 -0.0606  0.5753
  188POPC   H3Y21640   6.634   5.822   3.519 -0.8230  1.1831 -1.1718
  188POPC   C3421641   6.567   5.965   3.662 -0.3758 -0.4602  0.0315
  188POPC   H4X21642   6.472   5.914   3.688 -1.8457  2.1553  0.1945
  188POPC   H4Y21643   6.546   6.074   3.664 -0.4750 -0.4819  0.3569
  188POPC   C3521644   6.676   5.929   3.763  0.1019 -1.0387  0.3303
  188POPC   H5X21645   6.770   5.980   3.732 -1.0887  1.8172  1.1098
  188POPC   H5Y21646   6.697   5.821   3.752 -0.5965 -1.3696  1.9867
  188POPC   C3621647   6.636   5.952   3.901 -0.0079 -0.2034  0.3719
  188POPC   H6X21648   6.533   5.911   3.917 -0.6057  1.4075  0.8302
  188POPC   H6Y21649   6.627   6.059   3.929 -2.1654  0.5161 -2.5468
  188POPC   C3721650   6.731   5.894   3.995  0.3353  0.7638 -0.0621
  188POPC   H7X21651   6.829   5.946   3.983 -0.1603  1.5131 -1.0668
  188POPC   H7Y21652   6.752   5.789   3.966 -0.7110  0.6056 -0.2772
  188POPC   C3821653   6.697   5.925   4.138  0.0029  0.7410  0.0743
  188POPC   H8X21654   6.596   5.881   4.137  1.1213 -1.9802 -1.2478
  188POPC   H8Y21655   6.706   6.034   4.162 -1.6705  0.9427 -0.0935
  188POPC   C3921656   6.794   5.845   4.238 -0.0290 -0.0609  0.3117
  188POPC   H9X21657   6.893   5.896   4.239  0.0256 -0.1686  0.3851
  188POPC   H9Y21658   6.826   5.743   4.206  1.8891  0.2455  1.0897
  188POPC  C31021659   6.736   5.832   4.382  0.2567 -0.0948  0.4446
  188POPC  H10X21660   6.649   5.763   4.377  0.8966 -1.2383  3.1466
  188POPC  H10Y21661   6.704   5.929   4.424 -1.8339 -0.2171 -0.7405
  188POPC  C31121662   6.840   5.775   4.473  0.7461 -0.1430 -0.1838
  188POPC  H11X21663   6.921   5.842   4.509  0.0392  0.4717  0.2809
  188POPC  H11Y21664   6.890   5.686   4.429  1.2578 -1.3558  2.6371
  188POPC  C31221665   6.781   5.721   4.602  0.5945  0.1044 -0.2742
  188POPC  H12X21666   6.853   5.663   4.663  0.2315  1.1720  1.2320
  188POPC  H12Y21667   6.695   5.656   4.573  1.4244 -0.8569 -0.6516
  188POPC  C31321668   6.743   5.831   4.704  0.8543  0.3004 -0.3862
  188POPC  H13X21669   6.691   5.917   4.656 -1.4187 -0.6391  0.2548
  188POPC  H13Y21670   6.844   5.854   4.743  2.1023 -0.7085 -2.8365
  188POPC  C31421671   6.646   5.795   4.824 -0.0248  0.5813 -0.7790
  188POPC  H14X21672   6.545   5.782   4.780  1.3720 -0.4826 -4.0261
  188POPC  H14Y21673   6.637   5.891   4.879  1.2041  0.0276  0.4487
  188POPC  C31521674   6.681   5.670   4.906 -0.5052  0.0902  0.0528
  188POPC  H15X21675   6.786   5.699   4.932 -0.6720  1.2936 -0.5427
  188POPC  H15Y21676   6.685   5.582   4.838  0.8650  0.6193 -0.5993
  188POPC  C31621677   6.605   5.641   5.036  0.2123  0.0388  0.6616
  188POPC  H16X21678   6.662   5.566   5.094  1.8951 -0.5230 -1.5823
  188POPC  H16Y21679   6.504   5.604   5.010 -0.3022  0.3180  2.1624
  188POPC  H16Z21680   6.597   5.744   5.078  0.5639 -0.6606  2.4916
  189SAPI   C1221681   4.627   0.340   7.285  0.3206 -0.6301 -0.5627
  189SAPI    H221682   4.593   0.351   7.180 -0.8882 -3.2946 -0.5281
  189SAPI    O221683   4.516   0.359   7.370 -0.9660 -0.3761 -0.3148
  189SAPI   HO221684   4.439   0.390   7.323 -1.1926 -1.2138 -0.5269
  189SAPI   C1321685   4.692   0.206   7.307  0.8291  0.2945  0.2382
  189SAPI    H321686   4.776   0.208   7.235 -0.3993  0.3139 -1.2499
  189SAPI    O321687   4.612   0.096   7.254 -0.0032 -0.9579 -0.1366
  189SAPI   HO321688   4.525   0.096   7.295 -0.0487 -1.9159 -0.2173
  189SAPI   C1421689   4.748   0.186   7.443 -0.7675  0.5485 -0.2491
  189SAPI    H421690   4.658   0.167   7.506 -0.4486  0.2346  0.1139
  189SAPI    O421691   4.837   0.070   7.446  0.3299  0.4515 -0.5153
  189SAPI   HO421692   4.839   0.032   7.534 -0.3192  3.3107  0.8545
  189SAPI   C1521693   4.822   0.306   7.499  0.2661 -0.9511 -0.4392
  189SAPI    H521694   4.931   0.290   7.491  0.8409  1.8602  0.7506
  189SAPI    O521695   4.814   0.314   7.641 -0.0947 -0.2479 -0.0121
  189SAPI   HO521696   4.864   0.240   7.676  0.3563  0.2448  0.3813
  189SAPI   C1621697   4.794   0.448   7.437 -0.0427  0.9312 -0.1524
  189SAPI    H621698   4.721   0.490   7.509 -0.9215  1.1243 -1.1229
  189SAPI    O621699   4.902   0.534   7.439 -0.5046 -0.1531 -0.2532
  189SAPI   HO621700   4.945   0.524   7.354  0.9124  2.4291  0.0568
  189SAPI   C1121701   4.732   0.449   7.302  0.0143  0.2061  0.4870
  189SAPI    H121702   4.812   0.409   7.236  0.2320 -2.2050  2.0938
  189SAPI     P21703   4.748   0.673   7.151  0.0944 -0.4990 -0.2973
  189SAPI   O1321704   4.891   0.644   7.162 -0.3545  0.1219 -0.0229
  189SAPI   O1421705   4.696   0.813   7.170  0.2400 -0.2295  1.1695
  189SAPI   O1221706   4.682   0.582   7.266 -0.6721  0.1752  0.2729
  189SAPI   O1121707   4.692   0.611   7.016 -0.3188 -0.4351 -0.3264
  189SAPI    C121708   4.547   0.602   7.013 -0.9157  1.1847 -0.4092
  189SAPI    HA21709   4.526   0.494   7.010  1.7847  0.5297  1.0567
  189SAPI    HB21710   4.492   0.638   7.102  0.1099  0.5432  0.5004
  189SAPI    C221711   4.480   0.650   6.878 -0.2350  0.1473 -0.0174
  189SAPI    HS21712   4.386   0.592   6.869 -0.0676 -0.0423 -0.6162
  189SAPI   O2121713   4.559   0.620   6.762  0.8827 -0.3335 -0.4332
  189SAPI   C2121714   4.605   0.496   6.744  0.4260  0.5854 -0.0632
  189SAPI   O2221715   4.553   0.398   6.800 -0.5076  0.1538 -0.0504
  189SAPI   C2221716   4.726   0.491   6.646  0.1141 -0.4019 -0.1033
  189SAPI   H2R21717   4.795   0.537   6.720 -0.1249 -1.0919  0.5582
  189SAPI   H2S21718   4.749   0.386   6.617 -1.2708 -0.7928  0.1701
  189SAPI    C321719   4.446   0.799   6.864  0.3678  0.5547  0.2838
  189SAPI    HX21720   4.527   0.871   6.889 -0.7578  2.0282 -0.0997
  189SAPI    HY21721   4.377   0.810   6.951  0.2712 -0.7545  0.3934
  189SAPI   O3121722   4.390   0.847   6.737  0.1650  0.4416  0.2159
  189SAPI   C3121723   4.272   0.794   6.705  0.2302 -0.5444 -0.0763
  189SAPI   O3221724   4.207   0.712   6.768  0.2147 -0.0056  0.4071
  189SAPI   C3221725   4.230   0.856   6.567 -0.9855 -0.5061  0.0603
  189SAPI   H2X21726   4.320   0.902   6.521 -0.9357  0.3983  1.0209
  189SAPI   H2Y21727   4.152   0.934   6.577 -0.2509  0.2880 -0.2602
  189SAPI   C2321728   4.701   0.579   6.517 -0.0112  0.1478  0.9893
  189SAPI   H3R21729   4.802   0.587   6.471 -1.1620  0.7523 -1.6215
  189SAPI   H3S21730   4.679   0.683   6.552 -2.0232  1.4343 -3.3909
  189SAPI   C2421731   4.610   0.513   6.412  0.5862 -0.0196  0.1647
  189SAPI   H4R21732   4.583   0.586   6.334  2.0810 -1.4732 -1.8300
  189SAPI   H4S21733   4.512   0.496   6.461 -0.8662  4.2772 -0.8648
  189SAPI   C2521734   4.662   0.382   6.351 -0.6787  0.4415 -0.4826
  189SAPI   H5R21735   4.685   0.302   6.423  3.4662  1.7044 -0.1340
  189SAPI   C2621736   4.704   0.351   6.230 -0.5062 -0.2190  0.3734
  189SAPI   H6R21737   4.726   0.246   6.205 -0.3905  0.0979 -0.9037
  189SAPI   C2721738   4.710   0.441   6.113  0.2151  0.7639  0.2003
  189SAPI   H7R21739   4.817   0.451   6.087 -0.0773 -0.2804 -1.5683
  189SAPI   H7S21740   4.676   0.540   6.149 -1.4628  0.3552 -0.1728
  189SAPI   C2821741   4.619   0.381   6.001 -0.0485  0.3179  0.2078
  189SAPI   H8R21742   4.534   0.318   6.029 -0.9354  0.0919 -2.6127
  189SAPI   C2921743   4.637   0.414   5.872 -0.2287 -0.3528 -0.5543
  189SAPI   H9R21744   4.572   0.377   5.792  1.2854 -0.6828 -1.6708
  189SAPI  C21021745   4.742   0.503   5.807 -0.5214  0.3852  0.6006
  189SAPI  H10R21746   4.821   0.533   5.879 -2.1847 -0.3676  2.8104
  189SAPI  H10S21747   4.703   0.601   5.772 -2.2078  0.1078  1.6403
  189SAPI  C21121748   4.803   0.426   5.694 -0.0244 -0.2866  0.7658
  189SAPI  H11R21749   4.899   0.382   5.724  1.1789  2.3320  1.0806
  189SAPI  C21221750   4.774   0.439   5.563  0.3889  0.6398 -0.9249
  189SAPI  H12R21751   4.825   0.379   5.485 -0.7857  0.5967 -1.6840
  189SAPI  C21321752   4.656   0.524   5.514  0.3393 -0.2447 -0.0379
  189SAPI  H13R21753   4.692   0.624   5.481  2.5596 -0.5510  1.2995
  189SAPI  H13S21754   4.590   0.554   5.598 -0.8846 -0.6178 -0.8396
  189SAPI  C21421755   4.583   0.456   5.404 -0.1184  0.6503  0.0506
  189SAPI  H14R21756   4.482   0.418   5.425  0.2774 -0.1734  0.5201
  189SAPI  C21521757   4.629   0.420   5.283 -0.4468  0.0012  0.1301
  189SAPI  H15R21758   4.569   0.359   5.213 -0.6063  0.1464  0.1392
  189SAPI  C21621759   4.768   0.456   5.225 -0.8065  0.5231 -0.8433
  189SAPI  H16R21760   4.826   0.363   5.204 -2.2710 -1.4023  2.7546
  189SAPI  H16S21761   4.832   0.515   5.294  0.7815 -1.5220 -0.4634
  189SAPI  C21721762   4.761   0.541   5.097 -0.5778  0.7805 -0.5573
  189SAPI  H17R21763   4.705   0.636   5.112 -1.2078  0.4881 -1.0256
  189SAPI  H17S21764   4.704   0.484   5.020 -2.0441  0.4216  0.7466
  189SAPI  C21821765   4.908   0.558   5.046 -0.2162  0.6572 -0.5344
  189SAPI  H18R21766   4.949   0.459   5.019 -0.0330 -0.2238  2.6441
  189SAPI  H18S21767   4.972   0.597   5.128 -0.0329  1.5167 -1.0686
  189SAPI  C21921768   4.912   0.662   4.933 -0.2950 -0.1348 -0.2402
  189SAPI  H19R21769   4.862   0.624   4.842 -1.1792  0.6078 -0.0766
  189SAPI  H19S21770   5.017   0.679   4.900  0.1012 -0.1199  0.9473
  189SAPI  C22021771   4.863   0.794   4.974 -0.0700  0.0402  0.4830
  189SAPI  H20R21772   4.904   0.819   5.074  2.0162 -1.8179  0.1704
  189SAPI  H20S21773   4.753   0.793   4.989 -0.1850  1.8185 -0.0508
  189SAPI  H20T21774   4.888   0.878   4.906  1.7138  1.1287  2.3636
  189SAPI   C3321775   4.184   0.750   6.459 -0.0729 -0.3086  0.1835
  189SAPI   H3X21776   4.138   0.794   6.368  2.0297 -0.8767 -1.2168
  189SAPI   H3Y21777   4.108   0.682   6.504 -1.2237 -0.3966 -1.7845
  189SAPI   C3421778   4.302   0.671   6.404  0.4087  0.4788  0.3836
  189SAPI   H4X21779   4.337   0.605   6.486 -1.9965  1.5198  2.3718
  189SAPI   H4Y21780   4.382   0.739   6.367 -0.4464  0.3482 -1.8314
  189SAPI   C3521781   4.264   0.574   6.290 -0.1634 -0.4801  0.3216
  189SAPI   H5X21782   4.157   0.548   6.303 -0.7599  1.3127 -0.6725
  189SAPI   H5Y21783   4.334   0.487   6.292  1.1926  0.3523 -3.2904
  189SAPI   C3621784   4.296   0.649   6.156  0.3085  0.2483 -0.6284
  189SAPI   H6X21785   4.401   0.683   6.149  0.3926  0.3771  0.9781
  189SAPI   H6Y21786   4.232   0.740   6.159  0.4534  0.3340  1.3921
  189SAPI   C3721787   4.263   0.567   6.031  0.7644  0.2064  0.1859
  189SAPI   H7X21788   4.157   0.533   6.032  0.9511 -0.4853  1.9252
  189SAPI   H7Y21789   4.325   0.474   6.038 -0.1186 -0.3176  1.5683
  189SAPI   C3821790   4.294   0.648   5.901  0.2737 -0.7831 -0.6024
  189SAPI   H8X21791   4.403   0.653   5.880  0.2121  0.8983 -0.6915
  189SAPI   H8Y21792   4.257   0.753   5.906 -2.0879 -1.5287 -1.2371
  189SAPI   C3921793   4.230   0.586   5.777  0.3790 -0.0400  0.2735
  189SAPI   H9X21794   4.121   0.606   5.774  0.6561  1.3774 -2.5392
  189SAPI   H9Y21795   4.245   0.476   5.780  1.2271  0.0622 -0.0204
  189SAPI  C31021796   4.290   0.643   5.649  0.7957 -0.7524 -0.0137
  189SAPI  H10X21797   4.399   0.621   5.641  0.7911 -2.7427  3.3186
  189SAPI  H10Y21798   4.283   0.754   5.657 -0.2732 -0.8844  1.3878
  189SAPI  C31121799   4.223   0.588   5.529  0.5528  0.3429  0.7543
  189SAPI  H11X21800   4.117   0.621   5.535  0.4583  0.4741 -1.0265
  189SAPI  H11Y21801   4.220   0.478   5.543  0.8729  0.5153  2.2732
  189SAPI  C31221802   4.276   0.646   5.401  0.8449 -0.7415  0.0572
  189SAPI  H12X21803   4.387   0.646   5.408  0.9346  2.1696  0.0248
  189SAPI  H12Y21804   4.236   0.750   5.400 -0.7310 -1.3128 -1.0514
  189SAPI  C31321805   4.224   0.578   5.270 -0.6703  0.3705 -0.3504
  189SAPI  H13X21806   4.113   0.586   5.280 -0.5168  1.1503  0.8061
  189SAPI  H13Y21807   4.260   0.474   5.283  0.3067  0.6457 -0.8081
  189SAPI  C31421808   4.267   0.650   5.144  0.1233  0.3161  0.7209
  189SAPI  H14X21809   4.378   0.649   5.147  0.2050  0.9557 -1.0736
  189SAPI  H14Y21810   4.231   0.754   5.150 -0.6716  0.2120 -1.5494
  189SAPI  C31521811   4.208   0.588   5.017  0.2880  0.4501  0.5401
  189SAPI  H15X21812   4.250   0.485   5.009  3.0744  1.4840  0.7012
  189SAPI  H15Y21813   4.252   0.641   4.929  1.6214  1.9962  2.0736
  189SAPI  C31621814   4.052   0.591   5.002  0.4695 -0.7420  0.1578
  189SAPI  H16X21815   4.023   0.698   5.009  2.7654 -0.1065  0.6811
  189SAPI  H16Y21816   4.021   0.546   5.099 -2.1311 -1.1887 -0.7991
  189SAPI  C31721817   4.001   0.515   4.872  0.1980 -0.5315 -0.1633
  189SAPI  H17X21818   4.056   0.419   4.869 -0.3291 -0.8916  1.0660
  189SAPI  H17Y21819   4.032   0.569   4.780 -1.8540 -2.2952 -2.0221
  189SAPI  C31821820   3.846   0.481   4.870  0.1634  0.3303  0.0207
  189SAPI  H18X21821   3.792   0.579   4.873 -0.9370 -0.1490 -2.1363
  189SAPI  H18Y21822   3.822   0.407   4.949 -1.8736 -0.7652 -1.5331
  189SAPI  H18Z21823   3.827   0.434   4.771 -0.7100 -0.4648  0.5495
  190SAPI   C1221824   5.281   3.252   7.324  0.7851 -0.1362 -0.2425
  190SAPI    H221825   5.227   3.233   7.419 -0.0585  0.3948 -0.6080
  190SAPI    O221826   5.225   3.376   7.271  0.5811  0.3015  0.2025
  190SAPI   HO221827   5.134   3.358   7.243  1.0838 -0.6065 -0.9566
  190SAPI   C1321828   5.428   3.269   7.364 -0.7011  0.3662  0.2764
  190SAPI    H321829   5.457   3.164   7.384  1.9814  0.9361 -0.2519
  190SAPI    O321830   5.451   3.351   7.475 -0.5590 -0.1019  0.3959
  190SAPI   HO321831   5.481   3.433   7.435 -1.5980  0.2269  0.2438
  190SAPI   C1421832   5.512   3.298   7.248 -0.2244 -0.4791  0.0393
  190SAPI    H421833   5.491   3.403   7.219 -2.1397 -0.8008  0.1031
  190SAPI    O421834   5.652   3.308   7.278 -0.0751  0.7456  0.2955
  190SAPI   HO421835   5.688   3.394   7.256 -0.0860  1.0610  1.4069
  190SAPI   C1521836   5.487   3.230   7.122  0.0861 -0.0535  0.6637
  190SAPI    H521837   5.560   3.147   7.115  0.7765  0.6743 -1.9084
  190SAPI    O521838   5.508   3.315   7.012 -0.7250  0.1054 -0.7043
  190SAPI   HO521839   5.585   3.280   6.967 -0.6691  2.2974 -2.5067
  190SAPI   C1621840   5.340   3.169   7.106  0.2813  0.4304  0.5955
  190SAPI    H621841   5.274   3.244   7.058  1.5722  1.2076 -0.0199
  190SAPI    O621842   5.350   3.055   7.024  0.2876  0.1920  0.5169
  190SAPI   HO621843   5.264   3.028   6.991  0.2918  0.1375  0.5508
  190SAPI   C1121844   5.263   3.133   7.234 -0.3000  0.1281 -0.0949
  190SAPI    H121845   5.312   3.048   7.286 -2.5816 -1.6491 -0.6982
  190SAPI     P21846   5.073   2.956   7.189 -0.0455 -0.0044 -0.1789
  190SAPI   O1321847   4.928   2.947   7.209  0.0169  0.2996 -0.2616
  190SAPI   O1421848   5.156   2.851   7.260  0.0187 -0.3781  0.0250
  190SAPI   O1221849   5.125   3.109   7.225  0.4195  0.4943  0.1369
  190SAPI   O1121850   5.102   2.956   7.037 -0.5815  0.0460  0.3825
  190SAPI    C121851   5.038   3.035   6.939 -0.0797  0.0469  0.5053
  190SAPI    HA21852   4.928   3.028   6.952 -0.1431  0.7015  0.3645
  190SAPI    HB21853   5.078   3.138   6.953  0.1172  0.1578 -0.7367
  190SAPI    C221854   5.079   2.991   6.794  0.6156 -0.9555  0.3393
  190SAPI    HS21855   5.077   2.880   6.795  0.6277 -0.9500  0.8688
  190SAPI   O2121856   5.211   3.039   6.761  0.1674 -0.1853  0.1762
  190SAPI   C2121857   5.307   2.950   6.749  0.4291 -0.2908  0.0365
  190SAPI   O2221858   5.292   2.829   6.761  0.9229 -0.2751 -0.1753
  190SAPI   C2221859   5.443   3.015   6.717 -0.0169  0.0755 -0.3665
  190SAPI   H2R21860   5.415   3.111   6.668 -0.3552  0.4279  0.5031
  190SAPI   H2S21861   5.490   3.033   6.815  1.0466 -0.8837 -0.6772
  190SAPI    C321862   4.989   3.066   6.694 -0.2933  0.4529  0.0503
  190SAPI    HX21863   5.023   3.171   6.692  0.9749  0.0505 -0.5000
  190SAPI    HY21864   4.881   3.057   6.720 -0.4012 -0.1500 -0.5615
  190SAPI   O3121865   5.007   3.010   6.559  0.3035  0.3846 -0.0965
  190SAPI   C3121866   4.947   2.882   6.540 -0.2822 -0.2823  0.1404
  190SAPI   O3221867   4.886   2.822   6.622 -0.0704  0.3424  0.5279
  190SAPI   C3221868   4.980   2.836   6.399  0.3057 -0.6698 -0.5165
  190SAPI   H2X21869   4.921   2.904   6.333  0.9826  0.0875 -0.3537
  190SAPI   H2Y21870   4.944   2.733   6.379  1.7739 -1.4285  0.5914
  190SAPI   C2321871   5.543   2.942   6.629 -0.2742 -0.7026 -0.2623
  190SAPI   H3R21872   5.488   2.891   6.547 -0.0838  0.4095 -1.1051
  190SAPI   H3S21873   5.581   2.854   6.686  0.0199  1.0686  2.4574
  190SAPI   C2421874   5.670   3.022   6.575  0.0761  0.0587 -0.6672
  190SAPI   H4R21875   5.713   2.962   6.491 -0.6802  0.3102 -1.2405
  190SAPI   H4S21876   5.739   3.038   6.660  0.3772  0.1986 -0.9342
  190SAPI   C2521877   5.622   3.155   6.522 -0.3846  0.2541 -0.2183
  190SAPI   H5R21878   5.605   3.227   6.603  1.1590  0.2273  0.1654
  190SAPI   C2621879   5.606   3.200   6.399  0.7239  1.0628  0.9701
  190SAPI   H6R21880   5.572   3.304   6.388  0.3329  0.6722 -2.8452
  190SAPI   C2721881   5.624   3.125   6.274 -0.0368 -0.5048  0.1155
  190SAPI   H7R21882   5.707   3.054   6.296 -0.2062 -0.8826 -0.4331
  190SAPI   H7S21883   5.656   3.193   6.192  1.8967 -1.1613  0.2842
  190SAPI   C2821884   5.497   3.059   6.226 -0.0473  0.4708 -0.7212
  190SAPI   H8R21885   5.414   3.052   6.299 -0.6962  0.2293 -1.4734
  190SAPI   C2921886   5.470   3.014   6.106 -1.0500  0.5428  0.5597
  190SAPI   H9R21887   5.372   2.972   6.080 -0.6308 -0.9270  1.2280
  190SAPI  C21021888   5.554   3.028   5.979 -0.0323 -0.4727  0.1340
  190SAPI  H10R21889   5.528   2.939   5.917  0.8362 -0.0920 -0.7866
  190SAPI  H10S21890   5.664   3.038   5.988  0.0341  1.7292 -2.1336
  190SAPI  C21121891   5.522   3.154   5.906  0.5376  0.2268 -0.6551
  190SAPI  H11R21892   5.493   3.239   5.969  1.2229 -0.8975  1.2415
  190SAPI  C21221893   5.506   3.158   5.770  0.0494 -0.6048 -0.0373
  190SAPI  H12R21894   5.486   3.258   5.728 -0.2655 -0.0524  1.3789
  190SAPI  C21321895   5.539   3.058   5.666  0.6095 -0.2661  0.0024
  190SAPI  H13R21896   5.599   2.974   5.706  1.4646  0.6400  0.6876
  190SAPI  H13S21897   5.608   3.112   5.598  1.1846 -0.3478  0.5098
  190SAPI  C21421898   5.411   3.005   5.604  0.4429 -0.4688 -0.0775
  190SAPI  H14R21899   5.323   3.011   5.669 -0.8966 -0.4360 -1.8153
  190SAPI  C21521900   5.401   2.943   5.478  0.0848  0.1414  0.3129
  190SAPI  H15R21901   5.305   2.910   5.436  1.9629 -3.6489 -1.5124
  190SAPI  C21621902   5.514   2.929   5.379  0.3479  0.9806 -0.0853
  190SAPI  H16R21903   5.559   2.829   5.398 -0.3150  1.0683  2.1803
  190SAPI  H16S21904   5.597   2.999   5.402  1.3048  0.9002 -2.8651
  190SAPI  C21721905   5.479   2.951   5.229  0.0117 -0.0229  0.6253
  190SAPI  H17R21906   5.432   3.051   5.237  2.4102  1.3983 -1.4485
  190SAPI  H17S21907   5.405   2.875   5.197  1.8366 -0.9405 -1.6837
  190SAPI  C21821908   5.600   2.963   5.133 -0.5389 -0.4051 -0.7990
  190SAPI  H18R21909   5.653   2.870   5.162  0.4807  0.2951 -0.3208
  190SAPI  H18S21910   5.664   3.048   5.166 -1.4622 -0.6385  1.7932
  190SAPI  C21921911   5.567   2.967   4.984  0.3064  0.9919 -0.6831
  190SAPI  H19R21912   5.540   3.069   4.950 -1.2094  0.6855 -0.4649
  190SAPI  H19S21913   5.479   2.906   4.955  1.6236 -0.4641 -1.7530
  190SAPI  C22021914   5.689   2.915   4.905  0.1597 -0.4029  0.0840
  190SAPI  H20R21915   5.670   2.916   4.796  0.0064  3.3413 -0.0057
  190SAPI  H20S21916   5.713   2.810   4.933 -4.1102 -1.7055 -0.4909
  190SAPI  H20T21917   5.777   2.979   4.929 -0.9861  0.8444  1.1191
  190SAPI   C3321918   5.127   2.836   6.359 -0.5080  0.4625 -0.4141
  190SAPI   H3X21919   5.168   2.737   6.390 -1.1458 -0.2851 -1.8933
  190SAPI   H3Y21920   5.183   2.922   6.401  2.7281 -1.0820 -1.2322
  190SAPI   C3421921   5.141   2.848   6.207 -0.3802  0.0815  0.1635
  190SAPI   H4X21922   5.248   2.857   6.181 -0.1821  0.0288  0.9236
  190SAPI   H4Y21923   5.087   2.939   6.174  0.4260  0.7630  0.7007
  190SAPI   C3521924   5.089   2.726   6.126 -0.5830 -0.9605  0.1901
  190SAPI   H5X21925   4.978   2.727   6.123 -0.5792 -0.7862  0.0958
  190SAPI   H5Y21926   5.121   2.631   6.173 -0.9860 -1.2576 -0.1399
  190SAPI   C3621927   5.138   2.714   5.979 -0.4250  0.5568 -0.0357
  190SAPI   H6X21928   5.101   2.621   5.932  0.9421 -0.6095  1.0726
  190SAPI   H6Y21929   5.249   2.712   5.976 -0.3760 -2.7076  0.6713
  190SAPI   C3721930   5.083   2.833   5.903  0.0352 -0.1001 -0.2089
  190SAPI   H7X21931   5.149   2.920   5.923  0.7926 -0.4758 -1.0169
  190SAPI   H7Y21932   4.980   2.851   5.940 -0.1152  0.0661 -0.6936
  190SAPI   C3821933   5.062   2.807   5.759  0.7086 -0.2826 -0.1227
  190SAPI   H8X21934   5.009   2.712   5.734  1.0814 -0.8166  1.0342
  190SAPI   H8Y21935   5.160   2.799   5.709  1.1748  1.0488  0.5411
  190SAPI   C3921936   4.992   2.931   5.692  0.1634  0.3796 -0.5581
  190SAPI   H9X21937   5.052   3.022   5.713  3.5961 -1.1828 -2.7397
  190SAPI   H9Y21938   4.889   2.937   5.733  0.0076 -0.3652 -0.8330
  190SAPI  C31021939   4.996   2.922   5.537  0.0693 -0.0934  0.0807
  190SAPI  H10X21940   4.942   2.830   5.508  0.3960  0.5206 -2.7751
  190SAPI  H10Y21941   5.101   2.898   5.511  0.2260  0.1062  0.5276
  190SAPI  C31121942   4.940   3.034   5.457 -0.2822 -0.5077  0.1242
  190SAPI  H11X21943   4.965   3.133   5.502 -0.7670  0.1103 -0.9314
  190SAPI  H11Y21944   4.829   3.031   5.457 -0.3050 -1.2594 -2.3315
  190SAPI  C31221945   4.983   3.016   5.312 -0.2207 -0.2927 -0.2229
  190SAPI  H12X21946   4.963   2.915   5.270  1.6114  0.4154 -2.9858
  190SAPI  H12Y21947   5.093   3.033   5.311 -0.5181  2.2972 -3.1345
  190SAPI  C31321948   4.922   3.115   5.218 -0.2038  0.2566 -0.3100
  190SAPI  H13X21949   4.944   3.218   5.254  2.1564  0.2294 -1.4937
  190SAPI  H13Y21950   4.812   3.107   5.228 -0.2301  1.5182  0.5863
  190SAPI  C31421951   4.962   3.101   5.072 -0.5917  0.7563 -0.5764
  190SAPI  H14X21952   4.902   3.178   5.019 -1.4517 -0.2896 -1.1743
  190SAPI  H14Y21953   4.920   3.000   5.052 -1.2268  0.4915  1.7408
  190SAPI  C31521954   5.110   3.118   5.038 -0.0564  0.2088 -0.0301
  190SAPI  H15X21955   5.179   3.045   5.085 -0.2862  0.0085 -0.0021
  190SAPI  H15Y21956   5.147   3.214   5.081  0.6336 -0.1374  0.1638
  190SAPI  C31621957   5.137   3.110   4.890 -0.1224 -0.3201 -0.5042
  190SAPI  H16X21958   5.075   3.027   4.850 -1.7207  0.4888  0.2095
  190SAPI  H16Y21959   5.243   3.080   4.874  0.4666  0.1368  2.0638
  190SAPI  C31721960   5.101   3.231   4.809  0.1296 -0.5185 -0.0559
  190SAPI  H17X21961   5.142   3.325   4.852  2.6153 -1.1306 -0.9282
  190SAPI  H17Y21962   4.990   3.233   4.809  0.0863  0.1448 -2.3068
  190SAPI  C31821963   5.141   3.214   4.657  0.6201 -0.3380  0.1546
  190SAPI  H18X21964   5.136   3.109   4.620  0.5559  0.2807 -1.7297
  190SAPI  H18Y21965   5.242   3.252   4.632  0.1263  1.4353  0.7470
  190SAPI  H18Z21966   5.068   3.268   4.593  3.1379  1.2865 -1.5052
  191SAPI   C1221967   0.071   3.091   2.041 -0.5006  0.1432  0.4876
  191SAPI    H221968   0.139   3.148   1.974 -0.3194 -4.6061 -3.9278
  191SAPI    O221969  -0.035   3.079   1.953 -0.1315  0.0434  0.6976
  191SAPI   HO221970  -0.085   3.161   1.962 -0.8877 -0.5209  2.0739
  191SAPI   C1321971   0.132   2.964   2.090 -0.8740 -0.0934 -0.9451
  191SAPI    H321972   0.232   2.994   2.130  0.1178 -2.8996 -1.0686
  191SAPI    O321973   0.168   2.883   1.975  0.4815  0.5718  0.1183
  191SAPI   HO321974   0.090   2.885   1.919 -0.4193  3.3301  1.2886
  191SAPI   C1421975   0.055   2.884   2.196 -0.0322 -0.3616  0.6891
  191SAPI    H421976  -0.006   2.808   2.142  0.6190 -0.2368 -0.2378
  191SAPI    O421977   0.138   2.811   2.289  0.8455 -0.0087  0.2974
  191SAPI   HO421978   0.146   2.874   2.360 -0.2168  0.3956  0.0859
  191SAPI   C1521979  -0.050   2.965   2.274  1.1211 -0.3327 -0.4732
  191SAPI    H521980   0.002   2.999   2.366 -0.3935 -1.1737  0.7390
  191SAPI    O521981  -0.173   2.885   2.306  0.1711  0.0960  0.1648
  191SAPI   HO521982  -0.166   2.838   2.389 -2.0063  0.1562  0.4438
  191SAPI   C1621983  -0.085   3.100   2.227 -0.4349 -0.3423  0.2107
  191SAPI    H621984  -0.174   3.084   2.162 -1.0970  0.2375  0.9465
  191SAPI    O621985  -0.143   3.175   2.330 -0.4173 -0.0681 -0.2967
  191SAPI   HO621986  -0.130   3.267   2.306 -1.9252  0.0839 -0.5896
  191SAPI   C1121987   0.031   3.166   2.163 -0.0399  0.2906 -0.6026
  191SAPI    H121988   0.115   3.168   2.235  0.5346  1.5361 -1.2856
  191SAPI     P21989   0.052   3.423   2.196  0.1558  0.2707  0.1027
  191SAPI   O1321990   0.026   3.550   2.121  0.2373  0.3638  0.5004
  191SAPI   O1421991   0.192   3.399   2.245  0.0681  0.0915 -0.3295
  191SAPI   O1221992  -0.010   3.300   2.119 -0.4592  0.7149 -0.0665
  191SAPI   O1121993  -0.042   3.431   2.322 -0.2873  0.0242 -0.5721
  191SAPI    C121994  -0.153   3.523   2.318 -0.6432  0.2487  0.2705
  191SAPI    HA21995  -0.139   3.624   2.274 -3.1365  0.0131 -1.2432
  191SAPI    HB21996  -0.245   3.482   2.271  0.8607 -4.0131  0.6394
  191SAPI    C221997  -0.190   3.551   2.459  0.0542  0.1676 -0.4237
  191SAPI    HS21998  -0.276   3.621   2.460 -0.8954 -0.9513  1.1805
  191SAPI   O2121999  -0.081   3.601   2.539  0.3102  0.3517 -0.5055
  191SAPI   C2122000  -0.030   3.715   2.496  0.4765 -0.2088  0.1595
  191SAPI   O2222001  -0.087   3.801   2.432 -0.3005  0.1508  0.1151
  191SAPI   C2222002   0.109   3.732   2.560 -0.5300  0.2468 -0.4875
  191SAPI   H2R22003   0.174   3.648   2.529 -1.0417  0.7334 -3.1808
  191SAPI   H2S22004   0.144   3.831   2.523 -3.0831  0.7651 -1.7554
  191SAPI    C322005  -0.236   3.418   2.530 -0.3432  0.1335 -0.3221
  191SAPI    HX22006  -0.141   3.361   2.539  0.7330  1.9470  0.3155
  191SAPI    HY22007  -0.313   3.372   2.464 -0.8309 -2.4902  1.8795
  191SAPI   O3122008  -0.300   3.458   2.649  0.2621  0.1519  0.2202
  191SAPI   C3122009  -0.351   3.360   2.719  0.2418  0.0226 -0.0843
  191SAPI   O3222010  -0.389   3.252   2.679  0.1513 -0.5021  0.0391
  191SAPI   C3222011  -0.371   3.403   2.869 -0.2187  0.4628  0.1069
  191SAPI   H2X22012  -0.424   3.501   2.875  2.5839  2.1322 -0.5525
  191SAPI   H2Y22013  -0.270   3.427   2.908  0.0616  0.1519 -0.4068
  191SAPI   C2322014   0.103   3.738   2.713 -0.1886 -0.5888 -0.3260
  191SAPI   H3R22015   0.060   3.642   2.749 -0.1724 -0.6081 -0.3582
  191SAPI   H3S22016   0.041   3.824   2.747  0.1834 -0.9169  1.2589
  191SAPI   C2422017   0.252   3.741   2.761 -0.2253 -0.3073 -0.2313
  191SAPI   H4R22018   0.325   3.680   2.704  1.2101  0.3898  0.8232
  191SAPI   H4S22019   0.247   3.687   2.858  1.8695 -0.3203 -0.0970
  191SAPI   C2522020   0.298   3.888   2.773  0.0811  0.2178  0.3440
  191SAPI   H5R22021   0.319   3.938   2.678 -2.9077 -0.5337 -0.8269
  191SAPI   C2622022   0.312   3.959   2.882  0.3264 -0.0833 -0.5708
  191SAPI   H6R22023   0.354   4.060   2.878 -0.7669  0.3476 -1.9166
  191SAPI   C2722024   0.279   3.902   3.021  0.6138 -1.1023 -0.0495
  191SAPI   H7R22025   0.312   3.796   3.026  1.3414 -0.8429  0.8992
  191SAPI   H7S22026   0.170   3.887   3.031  1.0157 -3.0548  2.2391
  191SAPI   C2822027   0.319   3.982   3.140 -0.1527  0.0617  0.7255
  191SAPI   H8R22028   0.333   4.090   3.124  0.5701 -0.0701  0.4206
  191SAPI   C2922029   0.372   3.929   3.254  0.3866 -0.7142  0.3284
  191SAPI   H9R22030   0.395   3.993   3.341  1.0865 -2.1137  1.1990
  191SAPI  C21022031   0.379   3.787   3.301 -0.3652 -0.5488  0.5740
  191SAPI  H10R22032   0.320   3.725   3.229  0.7242  0.7514 -1.5264
  191SAPI  H10S22033   0.322   3.787   3.397 -2.3322 -2.5779 -0.4761
  191SAPI  C21122034   0.511   3.729   3.292  0.2150 -0.0807  0.2000
  191SAPI  H11R22035   0.557   3.715   3.193  0.9589  0.1428  0.5016
  191SAPI  C21222036   0.583   3.692   3.396  0.2203  0.2540 -0.1688
  191SAPI  H12R22037   0.675   3.636   3.372  0.3087  0.8689 -1.3110
  191SAPI  C21322038   0.547   3.704   3.542  0.0359  0.2773 -0.2778
  191SAPI  H13R22039   0.475   3.788   3.552  0.0552  0.4983 -1.7293
  191SAPI  H13S22040   0.634   3.744   3.599  1.5924 -0.5863 -1.9293
  191SAPI  C21422041   0.485   3.585   3.599 -0.1878 -0.3145 -0.3467
  191SAPI  H14R22042   0.415   3.530   3.535 -1.5383  0.6753  0.2182
  191SAPI  C21522043   0.506   3.527   3.719 -0.4493 -0.1553  0.0939
  191SAPI  H15R22044   0.437   3.442   3.734 -0.6878 -0.2455 -1.3665
  191SAPI  C21622045   0.609   3.563   3.825 -0.1591 -0.2164 -0.1498
  191SAPI  H16R22046   0.627   3.673   3.821  1.7188 -0.4840 -0.1681
  191SAPI  H16S22047   0.703   3.510   3.797 -1.9730 -2.3759 -2.5858
  191SAPI  C21722048   0.559   3.539   3.972  0.2931  0.2114 -0.0046
  191SAPI  H17R22049   0.552   3.428   3.975  0.4089  0.1661 -1.0019
  191SAPI  H17S22050   0.458   3.582   3.986  0.1201 -0.2795  0.2869
  191SAPI  C21822051   0.659   3.579   4.077  0.2744  0.9686 -0.0596
  191SAPI  H18R22052   0.688   3.686   4.069  0.5543  0.9490  0.5998
  191SAPI  H18S22053   0.750   3.519   4.053 -0.9425  0.3073 -3.5839
  191SAPI  C21922054   0.613   3.540   4.220 -0.1284  0.7325 -0.3565
  191SAPI  H19R22055   0.590   3.431   4.218  1.3558  0.3726 -2.9062
  191SAPI  H19S22056   0.522   3.601   4.237 -1.3293 -0.3313 -2.5156
  191SAPI  C22022057   0.718   3.554   4.322 -0.2655 -0.6170 -0.4020
  191SAPI  H20R22058   0.757   3.657   4.304  2.8222 -1.6367  0.0032
  191SAPI  H20S22059   0.801   3.482   4.313  0.2968  0.2537 -3.1874
  191SAPI  H20T22060   0.684   3.561   4.428 -0.4440  0.6880 -0.5186
  191SAPI   C3322061  -0.428   3.293   2.959  0.0611  0.5842  0.1790
  191SAPI   H3X22062  -0.378   3.194   2.957 -0.8214  0.0582  2.1435
  191SAPI   H3Y22063  -0.529   3.261   2.925  0.0588 -0.1066  0.8178
  191SAPI   C3422064  -0.437   3.347   3.094 -0.3060  0.5975 -0.9519
  191SAPI   H4X22065  -0.468   3.453   3.089 -0.3260  0.5325 -3.5146
  191SAPI   H4Y22066  -0.336   3.350   3.141 -0.5472  1.8761 -0.4764
  191SAPI   C3522067  -0.533   3.255   3.177 -0.3640 -0.2184 -0.1939
  191SAPI   H5X22068  -0.517   3.148   3.151 -1.9241 -0.3826 -0.5672
  191SAPI   H5Y22069  -0.637   3.276   3.145 -0.4765 -1.1553 -0.4586
  191SAPI   C3622070  -0.514   3.272   3.331 -0.9068  0.4476  0.1809
  191SAPI   H6X22071  -0.473   3.373   3.349 -0.1190 -0.3049  3.3824
  191SAPI   H6Y22072  -0.440   3.195   3.362 -0.0111  1.6780  1.1866
  191SAPI   C3722073  -0.637   3.244   3.416 -0.4918  0.6654  0.7780
  191SAPI   H7X22074  -0.696   3.162   3.370  1.1216 -0.7582  1.1242
  191SAPI   H7Y22075  -0.697   3.337   3.412 -0.5902  0.7376  2.7302
  191SAPI   C3822076  -0.603   3.212   3.562 -0.3273  0.0310  0.3530
  191SAPI   H8X22077  -0.528   3.284   3.600  0.6634 -0.7937 -0.0019
  191SAPI   H8Y22078  -0.557   3.113   3.581 -0.0513  0.0138 -0.3788
  191SAPI   C3922079  -0.729   3.224   3.645  0.4564  0.1102  0.0768
  191SAPI   H9X22080  -0.800   3.149   3.605 -0.8138  2.1075 -1.6482
  191SAPI   H9Y22081  -0.764   3.329   3.629 -0.7001 -0.3568 -0.5928
  191SAPI  C31022082  -0.708   3.224   3.799 -0.2921 -0.3157  0.5522
  191SAPI  H10X22083  -0.810   3.246   3.837 -1.4329 -0.8461 -2.0387
  191SAPI  H10Y22084  -0.638   3.305   3.829 -1.7731  1.4799 -0.6795
  191SAPI  C31122085  -0.664   3.084   3.851  0.7004 -0.5165  0.4178
  191SAPI  H11X22086  -0.567   3.052   3.808  1.6831  2.4093  0.2071
  191SAPI  H11Y22087  -0.751   3.021   3.821 -1.6160  2.6587 -0.2257
  191SAPI  C31222088  -0.654   3.077   4.000  0.5099 -0.2771 -0.3818
  191SAPI  H12X22089  -0.570   3.136   4.043  1.0149  0.6530 -2.5118
  191SAPI  H12Y22090  -0.635   2.974   4.035  0.7453 -0.5878 -1.3930
  191SAPI  C31322091  -0.789   3.116   4.076  0.5653  0.5244 -0.3013
  191SAPI  H13X22092  -0.862   3.033   4.064  2.7520 -1.2808 -2.3259
  191SAPI  H13Y22093  -0.827   3.202   4.018  0.3082  0.5327 -0.1215
  191SAPI  C31422094  -0.787   3.166   4.221  0.2035  0.8906 -0.4835
  191SAPI  H14X22095  -0.886   3.174   4.270  0.6087  0.3233  0.4547
  191SAPI  H14Y22096  -0.739   3.266   4.233 -0.1964  0.9652  0.6488
  191SAPI  C31522097  -0.688   3.075   4.301 -0.1245  0.7621 -0.5341
  191SAPI  H15X22098  -0.656   3.125   4.395  1.0825  0.2134 -0.6348
  191SAPI  H15Y22099  -0.595   3.062   4.240  0.6635  1.0390  0.5755
  191SAPI  C31622100  -0.742   2.936   4.338  0.0673 -0.5231  0.1062
  191SAPI  H16X22101  -0.664   2.876   4.390 -0.9738 -0.4620  1.8644
  191SAPI  H16Y22102  -0.767   2.885   4.243  0.0205  1.0109 -0.7294
  191SAPI  C31722103  -0.873   2.930   4.423  0.5660 -0.0648 -0.9096
  191SAPI  H17X22104  -0.891   3.032   4.461 -1.7041 -0.2341 -1.3462
  191SAPI  H17Y22105  -0.865   2.863   4.511 -1.3067  0.4894 -0.2650
  191SAPI  C31822106  -0.994   2.889   4.344 -0.4868  0.0066  0.3953
  191SAPI  H18X22107  -1.086   2.888   4.407 -0.3559  2.5414  0.7020
  191SAPI  H18Y22108  -0.978   2.787   4.301  0.1240 -0.1303  0.9375
  191SAPI  H18Z22109  -1.003   2.957   4.256  1.0839 -1.0480 -0.6354
  192SAPI   C1222110   1.161   0.643   2.381 -0.3957  0.2718 -0.3652
  192SAPI    H222111   1.238   0.722   2.372 -1.1080  0.9865 -0.3038
  192SAPI    O222112   1.036   0.705   2.405 -0.8778  0.9424 -0.2260
  192SAPI   HO222113   0.994   0.650   2.471  0.1713  0.4518  0.0585
  192SAPI   C1322114   1.154   0.565   2.258  0.1630  0.3606  0.3359
  192SAPI    H322115   1.257   0.524   2.249  1.3353  3.2768 -0.8179
  192SAPI    O322116   1.129   0.650   2.146  0.2734 -0.5759  0.4041
  192SAPI   HO322117   1.214   0.693   2.131 -0.3595  1.2750  1.6993
  192SAPI   C1422118   1.049   0.456   2.268 -0.7957 -0.3124  0.4501
  192SAPI    H422119   0.951   0.506   2.280 -0.7225  0.8853 -3.0012
  192SAPI    O422120   1.039   0.394   2.139  0.1635  0.5197  0.2062
  192SAPI   HO422121   0.962   0.337   2.140 -0.1760  0.9836  1.6546
  192SAPI   C1522122   1.084   0.357   2.374 -0.9010  0.0473 -0.1525
  192SAPI    H522123   1.171   0.295   2.345 -0.2875  0.9948 -0.3663
  192SAPI    O522124   0.984   0.259   2.395 -0.7334 -0.5427  0.5204
  192SAPI   HO522125   1.026   0.176   2.374  0.6444 -0.0625  1.2850
  192SAPI   C1622126   1.135   0.419   2.506  1.0338  0.2833 -0.6192
  192SAPI    H622127   1.040   0.434   2.563  0.7784  0.5839 -1.1245
  192SAPI    O622128   1.203   0.325   2.594  0.2291 -0.2870  0.4642
  192SAPI   HO622129   1.167   0.338   2.682  1.0435 -2.9955  1.2646
  192SAPI   C1122130   1.203   0.551   2.497  0.1361 -0.0725 -0.0884
  192SAPI    H122131   1.308   0.522   2.472  1.3218  2.7319  1.2901
  192SAPI     P22132   1.312   0.733   2.667 -0.4133  0.0593 -0.2881
  192SAPI   O1322133   1.264   0.807   2.784  0.2756  0.2071 -0.7084
  192SAPI   O1422134   1.365   0.811   2.549  0.3039  0.4447  0.3999
  192SAPI   O1222135   1.203   0.625   2.618  0.2223  0.3070 -0.2574
  192SAPI   O1122136   1.426   0.648   2.730 -0.0762  0.0869  0.8935
  192SAPI    C122137   1.392   0.558   2.838 -0.1668 -1.3891 -0.1609
  192SAPI    HA22138   1.320   0.604   2.909 -0.4290 -1.3899 -0.4238
  192SAPI    HB22139   1.340   0.465   2.806  1.2565 -2.5634  0.8552
  192SAPI    C222140   1.521   0.530   2.922  0.3760 -0.0590  0.4722
  192SAPI    HS22141   1.477   0.486   3.014  1.9417 -1.2677  0.6968
  192SAPI   O2122142   1.596   0.652   2.937 -0.0763 -0.4007 -0.2462
  192SAPI   C2122143   1.548   0.744   3.028  0.0295  0.2234  0.7037
  192SAPI   O2222144   1.443   0.728   3.088  1.2338 -0.4495  0.1770
  192SAPI   C2222145   1.641   0.863   3.020 -0.1483 -0.4046  0.0370
  192SAPI   H2R22146   1.745   0.830   2.997 -0.6357 -0.8388 -1.7277
  192SAPI   H2S22147   1.619   0.927   2.932  1.1242  1.4269  0.9703
  192SAPI    C322148   1.612   0.428   2.856  0.5371  0.1573 -0.6868
  192SAPI    HX22149   1.631   0.448   2.748  2.6803 -2.3845 -0.8781
  192SAPI    HY22150   1.550   0.336   2.847  0.2061  0.1035  1.6083
  192SAPI   O3122151   1.741   0.405   2.932  0.6714  0.0044 -0.2585
  192SAPI   C3122152   1.841   0.481   2.900  0.8650  0.1045  0.1169
  192SAPI   O3222153   1.847   0.563   2.810  0.4736 -0.6322 -0.2407
  192SAPI   C3222154   1.950   0.463   2.996 -0.6237 -0.1879  0.5349
  192SAPI   H2X22155   2.036   0.475   2.927 -0.9174 -0.2003  0.1586
  192SAPI   H2Y22156   1.946   0.362   3.041 -2.1710  0.6619  2.4931
  192SAPI   C2322157   1.634   0.941   3.153  0.5580  0.4065 -0.7564
  192SAPI   H3R22158   1.626   0.869   3.238 -1.0244 -0.5756 -1.6858
  192SAPI   H3S22159   1.538   0.992   3.173  1.6621  1.8239  1.3793
  192SAPI   C2422160   1.746   1.034   3.164  0.3455 -0.4841  0.2952
  192SAPI   H4R22161   1.835   0.973   3.138 -0.0781 -1.0628  0.1928
  192SAPI   H4S22162   1.764   1.054   3.271  1.0966  0.9428 -0.0699
  192SAPI   C2522163   1.758   1.154   3.072 -0.0160  0.3223 -0.8084
  192SAPI   H5R22164   1.792   1.135   2.969 -1.0439  3.4183 -1.8339
  192SAPI   C2622165   1.714   1.279   3.094  0.2854 -0.9632  0.2041
  192SAPI   H6R22166   1.716   1.352   3.012 -0.0223 -1.9344 -0.6957
  192SAPI   C2722167   1.654   1.330   3.223 -0.0547 -0.0376 -0.0184
  192SAPI   H7R22168   1.571   1.260   3.248  0.6371 -1.4862 -1.5495
  192SAPI   H7S22169   1.619   1.433   3.201  0.0709 -0.2804 -1.4309
  192SAPI   C2822170   1.757   1.326   3.338 -0.7000  0.1619  0.3616
  192SAPI   H8R22171   1.860   1.337   3.301 -1.5864 -1.6121 -3.0251
  192SAPI   C2922172   1.744   1.299   3.468  0.5329  0.4729 -0.3667
  192SAPI   H9R22173   1.830   1.299   3.536 -0.0834  0.7103  0.4217
  192SAPI  C21022174   1.609   1.262   3.538 -0.6911 -0.2171 -0.0324
  192SAPI  H10R22175   1.534   1.233   3.462  0.0188 -0.6931 -0.5702
  192SAPI  H10S22176   1.572   1.359   3.578 -0.3907  0.6197 -1.6829
  192SAPI  C21122177   1.602   1.165   3.652 -0.0384  0.2686 -0.3839
  192SAPI  H11R22178   1.602   1.059   3.622 -0.5267  0.7990 -2.4277
  192SAPI  C21222179   1.622   1.198   3.781 -0.7859 -0.1816  0.5348
  192SAPI  H12R22180   1.622   1.115   3.853 -1.1733  1.0863  2.0384
  192SAPI  C21322181   1.640   1.333   3.840  0.8436 -0.5827 -0.3184
  192SAPI  H13R22182   1.657   1.411   3.763 -0.5369  1.8578  1.6721
  192SAPI  H13S22183   1.729   1.334   3.907  0.1210  0.1162  0.6742
  192SAPI  C21422184   1.521   1.373   3.922 -0.4913 -0.4820 -0.3571
  192SAPI  H14R22185   1.448   1.444   3.881 -1.8558 -2.5160 -1.6222
  192SAPI  C21522186   1.500   1.329   4.052  0.7345  0.7178 -0.4471
  192SAPI  H15R22187   1.413   1.363   4.110 -0.3923 -1.8109 -0.5602
  192SAPI  C21622188   1.606   1.253   4.127 -0.5074  0.5603 -0.6295
  192SAPI  H16R22189   1.664   1.182   4.064 -0.3526  1.3583 -1.4038
  192SAPI  H16S22190   1.552   1.190   4.201 -3.9547 -1.7856 -4.7066
  192SAPI  C21722191   1.718   1.336   4.188 -0.2808  0.2036 -0.0091
  192SAPI  H17R22192   1.764   1.395   4.106 -0.9657  1.9076  0.7786
  192SAPI  H17S22193   1.798   1.266   4.222 -0.7295 -1.8639 -2.8543
  192SAPI  C21822194   1.662   1.441   4.291  0.5554  0.0426 -0.4047
  192SAPI  H18R22195   1.608   1.380   4.366  1.7664 -0.3369  0.1776
  192SAPI  H18S22196   1.598   1.516   4.240 -0.0932  0.4465  0.9556
  192SAPI  C21922197   1.771   1.530   4.359 -0.0273 -0.6084 -0.1713
  192SAPI  H19R22198   1.842   1.562   4.279 -0.1211 -1.5402 -0.6434
  192SAPI  H19S22199   1.826   1.471   4.436  0.7323 -1.3590 -1.2616
  192SAPI  C22022200   1.717   1.654   4.428  0.0088  0.4666 -0.4660
  192SAPI  H20R22201   1.639   1.705   4.368 -1.1642 -1.2177 -0.4601
  192SAPI  H20S22202   1.794   1.727   4.462 -1.8831  1.6537  1.5583
  192SAPI  H20T22203   1.666   1.619   4.521  0.5936  1.2366  0.1595
  192SAPI   C3322204   1.951   0.577   3.092 -0.1677  0.1138  0.0485
  192SAPI   H3X22205   1.861   0.561   3.155  0.3613  1.9114  1.3449
  192SAPI   H3Y22206   1.942   0.679   3.050  0.4439  0.6107  1.0776
  192SAPI   C3422207   2.065   0.573   3.183 -0.2565 -0.4272 -0.6494
  192SAPI   H4X22208   2.133   0.661   3.178 -0.5778 -0.1148  0.2305
  192SAPI   H4Y22209   2.125   0.481   3.171  0.0701 -0.3488  0.3062
  192SAPI   C3522210   2.021   0.560   3.331 -0.4330 -0.2447  0.7710
  192SAPI   H5X22211   1.968   0.463   3.344  0.2227 -0.6647  0.4269
  192SAPI   H5Y22212   1.960   0.649   3.354  0.2605  0.5974 -0.5175
  192SAPI   C3622213   2.147   0.569   3.421 -0.1615 -0.3520 -0.5099
  192SAPI   H6X22214   2.185   0.673   3.421 -0.9161 -0.0392  1.3719
  192SAPI   H6Y22215   2.227   0.508   3.374  0.8467  1.3777 -1.0964
  192SAPI   C3722216   2.115   0.538   3.569  0.3262  0.2642  0.0426
  192SAPI   H7X22217   2.060   0.443   3.584 -1.4357  1.2283 -0.1421
  192SAPI   H7Y22218   2.062   0.624   3.616  1.1363  0.8093 -0.0129
  192SAPI   C3822219   2.245   0.523   3.650  0.1275 -0.4302  0.0842
  192SAPI   H8X22220   2.305   0.614   3.627 -1.0589  0.4506  0.3547
  192SAPI   H8Y22221   2.308   0.444   3.604  2.3832  1.8327 -0.9554
  192SAPI   C3922222   2.218   0.513   3.800 -0.4398 -0.2395  0.0776
  192SAPI   H9X22223   2.150   0.427   3.820 -1.3139  0.1354 -1.2029
  192SAPI   H9Y22224   2.166   0.604   3.836 -1.8422 -0.8187 -0.3919
  192SAPI  C31022225   2.352   0.503   3.877  0.6573  0.2243 -0.3528
  192SAPI  H10X22226   2.411   0.592   3.847  1.4300  0.8419  2.6239
  192SAPI  H10Y22227   2.406   0.418   3.830  1.9355  1.5135 -1.3435
  192SAPI  C31122228   2.318   0.488   4.023 -0.2964  0.0842 -0.0538
  192SAPI  H11X22229   2.421   0.482   4.065 -0.1420  1.3273 -0.2043
  192SAPI  H11Y22230   2.250   0.406   4.054 -0.9021  0.9526  0.9704
  192SAPI  C31222231   2.266   0.622   4.083  0.3769 -1.2145 -0.8893
  192SAPI  H12X22232   2.185   0.664   4.020  1.3632  2.2211 -0.0735
  192SAPI  H12Y22233   2.351   0.690   4.062 -0.7539  0.8955  0.8971
  192SAPI  C31322234   2.251   0.624   4.234 -0.8848 -0.8699 -0.3178
  192SAPI  H13X22235   2.348   0.587   4.274 -0.1165  1.0236 -0.3041
  192SAPI  H13Y22236   2.175   0.547   4.261 -0.4555 -1.2655 -0.2219
  192SAPI  C31422237   2.220   0.765   4.291 -0.1412 -0.3347 -0.1643
  192SAPI  H14X22238   2.136   0.804   4.230 -1.7977 -2.6421  0.5337
  192SAPI  H14Y22239   2.308   0.834   4.285  0.7631 -1.1671  2.2833
  192SAPI  C31522240   2.180   0.772   4.442  0.4111  0.0980  0.7571
  192SAPI  H15X22241   2.091   0.707   4.454 -1.3951  2.5504  1.2731
  192SAPI  H15Y22242   2.155   0.879   4.455  2.2353  0.7474 -0.7445
  192SAPI  C31622243   2.281   0.726   4.547 -0.1934  0.5673 -0.3702
  192SAPI  H16X22244   2.381   0.774   4.543  0.6962 -1.0270  1.4331
  192SAPI  H16Y22245   2.293   0.616   4.538  1.6557  0.4788  2.1217
  192SAPI  C31722246   2.213   0.742   4.683 -0.2553 -0.8283 -0.3575
  192SAPI  H17X22247   2.109   0.703   4.683 -0.7597  0.4828 -0.9550
  192SAPI  H17Y22248   2.209   0.847   4.720  0.1420 -1.0167  0.2496
  192SAPI  C31822249   2.282   0.657   4.791 -0.4098 -0.7914  0.4878
  192SAPI  H18X22250   2.280   0.552   4.754 -1.0527 -0.0458 -1.7505
  192SAPI  H18Y22251   2.243   0.682   4.892  1.0142 -1.5318  1.2601
  192SAPI  H18Z22252   2.389   0.688   4.786 -0.2601 -1.3183  0.2954
  193SOD    SOD22253   3.478   3.058   0.077 -0.3076 -0.5515  0.2492
  194SOD    SOD22254   2.204   2.956   6.771  0.6986  0.0147 -0.4828
  195SOD    SOD22255   3.044   5.562   7.786 -0.0359 -0.8375 -0.1165
  196SOD    SOD22256   0.417   5.214   8.822  0.4046  0.2164  0.0353
  197SOD    SOD22257   0.648   2.549   2.936 -0.2067  0.3370 -0.0134
  198SOD    SOD22258   5.534   1.959   1.509 -0.2878  0.3800  0.2162
  199SOD    SOD22259   3.132   4.893   0.361  0.0147 -0.3318 -0.1158
  200SOD    SOD22260   5.540   0.981   8.402  0.2016  0.4549 -0.2315
  201SOD    SOD22261   5.867   3.272   1.956  0.2546 -0.1065  0.0184
  202SOD    SOD22262   5.722   5.560   2.097  0.3525  0.3057 -0.1001
  203SOD    SOD22263   0.516   6.444   7.771 -0.5125 -0.3955  0.1285
  204SOD    SOD22264   0.548   3.055   1.743  0.2292  0.1649  0.6475
  205SOD    SOD22265   1.346   3.509   8.265  0.0773 -0.1996  0.1997
  206SOD    SOD22266   2.103   0.267   9.370 -0.6266 -0.1495  0.0333
  207SOD    SOD22267   0.416   5.741   1.917 -0.1388 -0.4012  0.4363
  208SOD    SOD22268   5.921   4.310   0.438 -0.0171  0.0452  0.0572
  209SOD    SOD22269   4.465   0.887   2.442  0.7058 -0.4642  0.1466
  210SOD    SOD22270   2.889   0.159   1.985  0.1117 -0.1823 -0.0494
  211SOD    SOD22271   4.146   4.567   8.670  0.0469  0.3742 -0.1369
  212SOD    SOD22272   2.972   0.238   0.985  0.6499  0.2440  0.3299
  213SOD    SOD22273   0.594   1.136   2.680  0.3687 -0.3564  0.0895
  214SOD    SOD22274   1.740   0.812   0.504  0.0222  0.3578 -0.4643
  215SOD    SOD22275   5.263   5.629   0.995 -0.3994  0.7052 -0.0981
  216SOD    SOD22276   2.162   0.280   2.552  0.5131 -0.2027 -0.4670
  217SOD    SOD22277   6.134   6.179   7.993 -0.3344  0.0648 -0.2122
  218SOD    SOD22278   1.124   1.817   2.353  0.0372 -0.4427 -0.0156
  219SOD    SOD22279   6.381   2.455   1.498 -0.2327  0.9027  0.0225
  220SOD    SOD22280   0.167   3.800   9.105 -0.2658 -0.0137  0.2885
  221SOD    SOD22281   4.645   4.964   1.628 -0.2297  0.0746 -0.1566
  222SOD    SOD22282   3.307   0.261   8.186  0.1131 -0.1488  0.5208
  223SOD    SOD22283   0.840   2.819   7.209 -0.5476 -0.2666  0.3257
  224SOD    SOD22284   0.056   5.819   2.435 -0.1718 -0.2082 -0.2349
  225SOD    SOD22285   1.918   3.232   7.550 -0.3971 -0.2699  0.2833
  226SOD    SOD22286   2.619   0.534   9.213 -0.3599  0.1018 -0.3077
  227SOD    SOD22287   2.563   3.746   7.730 -0.1030  0.7323 -0.1481
  228SOD    SOD22288   4.747   3.849   8.455 -0.2928  0.2821 -0.1411
  229SOD    SOD22289   5.612   0.878   1.935  0.7392  0.2803  0.4841
  230SOD    SOD22290   3.789   2.774   8.591 -0.1080 -0.0631 -0.2165
  231SOD    SOD22291   0.664   1.008   1.306  0.2873  0.4909  0.5645
  232SOD    SOD22292   3.176   2.721   7.035 -0.0497  0.1492 -0.0248
  233SOD    SOD22293   3.960   5.930   9.509 -0.0767 -0.5205  0.0271
  234CLA    CLA22294   2.827   5.702   0.686 -0.1974 -0.0405  0.2908
  235CLA    CLA22295   1.866   5.434   0.842  0.3171  0.4065 -0.2968
  236CLA    CLA22296   2.645   5.336   0.121  0.2899  0.0597 -0.1667
  237CLA    CLA22297   2.545   1.519   8.169 -0.1878  0.3604  0.5010
  238CLA    CLA22298   3.776   1.891   8.660 -0.2092  0.0881  0.1673
  239CLA    CLA22299   3.120   4.238   1.332  0.2489  0.4635 -0.0098
  240CLA    CLA22300   2.469   0.139   9.066  0.1005 -0.1405  0.3859
  241CLA    CLA22301   6.179   2.637   0.817  0.0512  0.2838  0.0569
  242CLA    CLA22302   6.253   4.293   9.485 -0.2120  0.0523 -0.3221
  243CLA    CLA22303   0.855   2.594   1.802  0.1517 -0.3978  0.2611
  244CLA    CLA22304   1.151   0.974   0.161  0.0960  0.1063  0.0229
  245CLA    CLA22305   6.059   4.100   8.780 -0.1792  0.3991 -0.6383
  246CLA    CLA22306   1.566   1.334   2.039  0.1535  0.4342  0.2725
  247CLA    CLA22307   6.270   4.207   0.819 -0.4661  0.1748 -0.4511
  248CLA    CLA22308   2.531   4.063   9.239 -0.5888 -0.2982  0.1564
  249CLA    CLA22309   4.679   2.982   9.132 -0.1215  0.0322 -0.4391
  250CLA    CLA22310   5.721   1.447   9.372 -0.1690  0.1931  0.0985
  251TIP3   OH222311   1.200   3.916   8.227  0.0442  0.3851  0.5639
  251TIP3    H122312   1.234   3.994   8.271 -1.0039  0.3675  1.4468
  251TIP3    H222313   1.188   3.944   8.136  1.2229  0.7454  0.4960
  252TIP3   OH222314   4.065   3.918   1.198 -0.6982  0.0701  0.0609
  252TIP3    H122315   4.021   3.973   1.262 -1.3411  1.5294 -1.5564
  252TIP3    H222316   4.118   3.858   1.250 -1.4891  0.9283  1.9431
  253TIP3   OH222317   1.337   0.497   8.606  0.5485  0.2121 -0.2282
  253TIP3    H122318   1.328   0.578   8.654  0.1004  0.2632 -0.3896
  253TIP3    H222319   1.270   0.439   8.643  0.8599 -0.0820 -0.1173
  254TIP3   OH222320   6.445   5.197   6.810 -0.0322  0.2975 -0.6108
  254TIP3    H122321   6.379   5.229   6.871  0.1166  2.2540 -1.4027
  254TIP3    H222322   6.518   5.168   6.865 -1.0267 -0.7077  0.2191
  255TIP3   OH222323   4.717   1.228   1.784  0.3286 -0.0340  0.1467
  255TIP3    H122324   4.660   1.279   1.842  3.4868  2.1540  1.5862
  255TIP3    H222325   4.734   1.147   1.832  0.6555  0.5234  0.9836
  256TIP3   OH222326   5.991   0.626   7.743 -0.3150 -0.5142  0.6313
  256TIP3    H122327   6.075   0.659   7.774 -0.0856 -0.7378  0.2629
  256TIP3    H222328   6.004   0.614   7.648 -0.5449 -1.1958  0.6797
  257TIP3   OH222329   5.172   1.336   8.034 -0.3193 -0.2733  0.5611
  257TIP3    H122330   5.253   1.289   8.017 -1.4074 -1.7707 -0.7480
  257TIP3    H222331   5.198   1.429   8.035  1.7767 -0.8035  2.7023
  258TIP3   OH222332   4.036   0.178   1.314 -0.3568  0.2606 -0.3345
  258TIP3    H122333   3.952   0.141   1.342  0.4282 -0.4482  1.2349
  258TIP3    H222334   4.052   0.138   1.229  0.0553 -2.5173  0.9124
  259TIP3   OH222335   1.727   4.501   2.310  0.3207 -0.7631  0.0269
  259TIP3    H122336   1.775   4.422   2.335  2.6091  0.8310  0.9999
  259TIP3    H222337   1.750   4.566   2.376 -2.2573  0.5149 -0.1824
  260TIP3   OH222338   2.657   1.450   0.913  0.6752 -0.3980  0.7965
  260TIP3    H122339   2.658   1.452   0.818  3.2626 -0.7412  0.7353
  260TIP3    H222340   2.687   1.362   0.935  1.1093  0.0103  1.9096
  261TIP3   OH222341   3.623   1.571   6.996 -0.5598  0.2066 -0.3199
  261TIP3    H122342   3.693   1.514   7.028 -2.0922 -0.7032  1.5435
  261TIP3    H222343   3.601   1.535   6.910  1.3535  0.6469 -1.0544
  262TIP3   OH222344   3.870   2.931   7.909 -0.4852  0.4635  0.7577
  262TIP3    H122345   3.895   2.838   7.911 -0.1221  0.5653  0.9977
  262TIP3    H222346   3.774   2.929   7.901 -0.4208  0.0710 -0.0793
  263TIP3   OH222347   4.527   2.223   8.345 -0.3451  0.4074  1.0016
  263TIP3    H122348   4.513   2.152   8.408 -1.3803 -1.5279 -1.2882
  263TIP3    H222349   4.442   2.238   8.306  0.2097  1.8042  0.2618
  264TIP3   OH222350   2.123   4.042   1.369 -0.1211 -0.0155 -0.0040
  264TIP3    H122351   2.033   4.041   1.402  0.0459 -1.4080  0.5201
  264TIP3    H222352   2.156   3.954   1.389  0.5458 -0.4005 -2.4200
  265TIP3   OH222353   2.457   1.554   8.866 -0.1507 -0.2764  0.1481
  265TIP3    H122354   2.543   1.596   8.876 -0.1497 -0.6245  1.9486
  265TIP3    H222355   2.456   1.522   8.776  0.7931  1.4907 -0.5298
  266TIP3   OH222356   0.124   5.477   0.389 -0.2694  0.0773  0.9219
  266TIP3    H122357   0.149   5.511   0.303  1.9182 -2.1334  0.5710
  266TIP3    H222358   0.172   5.531   0.452  0.1009  0.1202  0.6064
  267TIP3   OH222359   4.661   5.976   0.256  0.0762  0.7782 -0.8300
  267TIP3    H122360   4.680   5.897   0.205  0.1682  0.0793  0.2578
  267TIP3    H222361   4.727   5.978   0.325 -2.0044 -0.2216  1.3662
  268TIP3   OH222362   1.181   6.230   2.240 -0.2909  0.0045 -0.0169
  268TIP3    H122363   1.223   6.297   2.186 -1.5026  0.2030 -0.7539
  268TIP3    H222364   1.096   6.268   2.263 -0.0794 -0.3584  1.4842
  269TIP3   OH222365   6.384   1.135   0.044  0.1939 -0.2059 -0.1583
  269TIP3    H122366   6.440   1.153  -0.032  1.0408 -0.8234  0.3109
  269TIP3    H222367   6.444   1.118   0.115 -0.5762  1.4274  0.9591
  270TIP3   OH222368   5.985   3.396   7.456 -0.0042 -0.6726 -0.3156
  270TIP3    H122369   6.010   3.318   7.506  0.3172 -0.9493 -0.9012
  270TIP3    H222370   5.927   3.444   7.515  0.2404 -1.0725  0.2658
  271TIP3   OH222371   0.372   0.871   0.091 -0.4477  0.0236  0.1303
  271TIP3    H122372   0.313   0.946   0.103  0.0181  0.7830 -1.8724
  271TIP3    H222373   0.455   0.900   0.129 -0.1831  0.6837 -0.9072
  272TIP3   OH222374   4.481   0.705   7.492  0.1394 -0.4595  0.3912
  272TIP3    H122375   4.522   0.648   7.428 -0.1939 -0.0054 -0.2303
  272TIP3    H222376   4.396   0.729   7.454 -0.4070 -0.8118  1.3365
  273TIP3   OH222377   4.504   6.213   1.286 -0.0273 -0.3901  0.5052
  273TIP3    H122378   4.561   6.210   1.210 -0.3876  0.8133  0.1658
  273TIP3    H222379   4.537   6.287   1.338 -0.8886 -0.0523  0.5904
  274TIP3   OH222380   5.531   0.926   7.788 -0.1985  0.3313 -0.2534
  274TIP3    H122381   5.469   0.934   7.860  0.8757 -0.6384  0.8403
  274TIP3    H222382   5.480   0.888   7.716 -0.7393 -1.1627  0.8589
  275TIP3   OH222383   5.015   6.089   1.718  0.7626 -0.2123  0.4356
  275TIP3    H122384   4.921   6.088   1.732  0.6030  0.5237 -0.5314
  275TIP3    H222385   5.047   6.011   1.764 -0.4023 -0.9247  0.0583
  276TIP3   OH222386   3.350   4.037   8.655  0.1374 -0.0453  0.2850
  276TIP3    H122387   3.354   4.077   8.741 -3.5460  0.6136  0.3142
  276TIP3    H222388   3.310   4.104   8.599  0.4581 -1.2033 -1.4065
  277TIP3   OH222389   4.936   6.406   8.436 -0.1460  0.0641 -0.0065
  277TIP3    H122390   4.861   6.432   8.491  1.2849  1.3387  1.4551
  277TIP3    H222391   4.985   6.344   8.490  0.5094  0.2021 -0.4298
  278TIP3   OH222392   3.714   0.311   8.022 -0.2841  0.3577 -0.5001
  278TIP3    H122393   3.742   0.238   8.077  3.3100  0.7373 -1.5677
  278TIP3    H222394   3.717   0.275   7.933  0.0600  1.3774 -0.9077
  279TIP3   OH222395   2.660   4.042   0.279 -0.4903 -0.3174 -0.0941
  279TIP3    H122396   2.691   3.959   0.316  0.7858 -0.7651 -2.0161
  279TIP3    H222397   2.578   4.020   0.236 -1.7252  0.1052  1.9101
  280TIP3   OH222398   1.434   1.920   1.262 -0.6757 -0.0902 -0.1392
  280TIP3    H122399   1.443   1.897   1.355 -0.0193 -1.9259 -0.6129
  280TIP3    H222400   1.343   1.949   1.254 -0.0930  2.5572  1.5234
  281TIP3   OH222401   3.340   5.716   0.494  0.4921 -0.4077  0.1340
  281TIP3    H122402   3.259   5.746   0.536  0.5751 -1.0132  0.7415
  281TIP3    H222403   3.385   5.796   0.468  1.0451  0.0605  2.3573
  282TIP3   OH222404   0.010   0.024   1.592  0.7802  0.2147  0.1380
  282TIP3    H122405   0.102   0.049   1.605  1.3038 -1.2249 -0.5641
  282TIP3    H222406   0.006  -0.003   1.500 -0.2435 -0.1406  0.2830
  283TIP3   OH222407   0.383   3.702   8.740 -0.1368  0.0224 -0.0328
  283TIP3    H122408   0.413   3.786   8.776 -0.4598  1.1141 -2.1466
  283TIP3    H222409   0.348   3.724   8.654  0.0563 -2.3620 -0.7965
  284TIP3   OH222410   2.695   3.193   8.813  0.1292  0.5546  0.1865
  284TIP3    H122411   2.696   3.178   8.718  2.0572 -1.6381  0.4633
  284TIP3    H222412   2.773   3.247   8.829 -0.7819  1.8447  0.4590
  285TIP3   OH222413   3.676   3.720   6.995 -0.5361 -0.1347 -0.6501
  285TIP3    H122414   3.651   3.730   7.087 -1.9529 -0.8436 -0.9278
  285TIP3    H222415   3.607   3.666   6.957  0.6137 -0.7996 -1.8896
  286TIP3   OH222416   0.791   0.468   1.797 -0.3676 -0.7517  0.4675
  286TIP3    H122417   0.715   0.425   1.758  0.3826  0.4960 -2.7262
  286TIP3    H222418   0.754   0.527   1.863 -2.0448 -1.2356  0.0097
  287TIP3   OH222419   0.092   5.117   8.059  0.0141 -0.4951  0.2430
  287TIP3    H122420   0.124   5.069   7.982  0.6737 -1.3541  1.0150
  287TIP3    H222421   0.042   5.190   8.023  0.4430 -0.7788 -0.9998
  288TIP3   OH222422   3.713   6.422   9.072 -0.0687  0.9306  0.0666
  288TIP3    H122423   3.622   6.446   9.055  0.4974  2.3798 -1.2277
  288TIP3    H222424   3.739   6.373   8.994  0.5049  1.2811  0.0342
  289TIP3   OH222425   3.915   2.030   0.346  0.2172  0.0815 -0.1010
  289TIP3    H122426   3.985   2.094   0.335 -0.4165  0.6396 -0.9704
  289TIP3    H222427   3.947   1.972   0.415  0.6026  1.6007  1.0618
  290TIP3   OH222428   5.971   2.877   9.314  0.4451 -0.0607  0.0865
  290TIP3    H122429   6.049   2.924   9.344 -0.2958 -0.3012  2.7005
  290TIP3    H222430   5.922   2.942   9.263  3.0430 -0.3902 -3.0864
  291TIP3   OH222431   5.891   2.179   0.588  0.1653 -0.6102  0.0505
  291TIP3    H122432   5.965   2.166   0.528 -0.4466 -1.0026 -0.6487
  291TIP3    H222433   5.923   2.241   0.653  1.0693 -0.6802 -0.3092
  292TIP3   OH222434   6.407   3.184   8.893 -0.2750  0.4373 -0.5491
  292TIP3    H122435   6.488   3.227   8.920  0.6809 -1.3334 -0.4665
  292TIP3    H222436   6.339   3.227   8.945  1.0447 -0.3501  1.9708
  293TIP3   OH222437   3.114   5.478   0.052 -0.1982  0.3551  0.3456
  293TIP3    H122438   3.061   5.554   0.025 -2.6005 -0.9913  0.9428
  293TIP3    H222439   3.082   5.457   0.140  0.5227 -1.2427  0.2577
  294TIP3   OH222440   1.512   0.038   0.632  1.1529  0.2103  0.0533
  294TIP3    H122441   1.471   0.019   0.547 -1.3751 -0.6062  1.3498
  294TIP3    H222442   1.591   0.087   0.610  0.5721  0.0690 -2.7566
  295TIP3   OH222443   6.211   4.810   7.019  0.3831  0.4445 -0.8706
  295TIP3    H122444   6.137   4.787   6.964  2.0513 -2.7672 -1.9954
  295TIP3    H222445   6.273   4.853   6.960  0.7549  0.1392 -0.7087
  296TIP3   OH222446   3.826   0.584   7.709 -0.1507 -0.2603  0.3989
  296TIP3    H122447   3.741   0.563   7.669 -0.4636  0.9075  0.4305
  296TIP3    H222448   3.840   0.676   7.689  1.2914 -0.5128  0.0857
  297TIP3   OH222449   4.640   0.535   7.785 -0.0355 -0.1994 -0.3649
  297TIP3    H122450   4.713   0.497   7.736 -0.9150 -3.4076  0.5562
  297TIP3    H222451   4.566   0.477   7.768 -1.5114  1.0309  1.3560
  298TIP3   OH222452   2.172   5.157   0.708 -0.2639 -0.6122 -0.3847
  298TIP3    H122453   2.185   5.113   0.624  0.1833 -1.8699  0.3149
  298TIP3    H222454   2.108   5.102   0.754  0.6192 -0.7978  0.6797
  299TIP3   OH222455   5.267   4.949   7.662 -0.1802 -0.1506 -0.4080
  299TIP3    H122456   5.299   5.001   7.588  1.0931  0.6470  0.6555
  299TIP3    H222457   5.225   5.013   7.719  0.3539 -0.4645  0.3512
  300TIP3   OH222458   2.171   6.184   7.307 -0.5035  0.5202  0.4408
  300TIP3    H122459   2.172   6.240   7.229  1.5768 -0.3437 -0.2167
  300TIP3    H222460   2.098   6.124   7.291  1.1523 -1.0439 -1.9895
  301TIP3   OH222461   0.750   5.856   8.738  0.1358  0.1973  0.1497
  301TIP3    H122462   0.790   5.930   8.783  0.1078  0.5392 -0.3811
  301TIP3    H222463   0.657   5.879   8.732 -0.0598 -0.3557  0.9088
  302TIP3   OH222464   5.764   0.880   7.120  0.4813  0.4431  0.1442
  302TIP3    H122465   5.783   0.898   7.028 -0.6376 -0.0288 -0.2029
  302TIP3    H222466   5.712   0.956   7.149  1.1098  0.7489  0.4903
  303TIP3   OH222467   5.778   3.057   0.282 -0.0537 -0.0432 -0.1241
  303TIP3    H122468   5.808   2.980   0.331 -0.4697 -0.7569 -0.9735
  303TIP3    H222469   5.690   3.034   0.251  0.2837  0.3097 -1.3903
  304TIP3   OH222470   6.307   5.059   0.238 -0.0582 -0.1615 -0.5422
  304TIP3    H122471   6.330   5.073   0.146 -2.6955 -0.5577 -1.3306
  304TIP3    H222472   6.373   4.997   0.270  0.7809 -0.1819 -2.2105
  305TIP3   OH222473   0.906   4.569   8.732  0.0644  0.1921 -0.0222
  305TIP3    H122474   0.843   4.641   8.722  0.5576  0.6883  0.3673
  305TIP3    H222475   0.869   4.514   8.801 -0.6476 -0.3028 -0.7741
  306TIP3   OH222476   6.355   0.574   0.913 -0.0080  0.1979  0.3738
  306TIP3    H122477   6.265   0.556   0.938 -0.2273  0.3695 -0.2857
  306TIP3    H222478   6.349   0.650   0.855  0.4712 -0.3259 -0.3693
  307TIP3   OH222479   5.822   0.597   7.171 -0.7577  0.0713 -0.5521
  307TIP3    H122480   5.902   0.583   7.120 -1.6874 -0.8206 -1.8400
  307TIP3    H222481   5.806   0.691   7.165 -0.9543 -0.0379 -2.1209
  308TIP3   OH222482   4.166   4.440   7.706 -0.4475 -0.2640 -0.1238
  308TIP3    H122483   4.213   4.469   7.628  0.4348  0.3217  0.5923
  308TIP3    H222484   4.146   4.521   7.753 -0.2018 -0.6565  0.6684
  309TIP3   OH222485   3.765   5.253   1.540 -0.0997  0.1113  0.1782
  309TIP3    H122486   3.813   5.307   1.478 -0.7996  0.5907  0.0427
  309TIP3    H222487   3.775   5.299   1.624 -3.6876  2.5531 -0.5256
  310TIP3   OH222488   5.916   4.074   7.675  0.3033 -0.1323 -0.6545
  310TIP3    H122489   5.999   4.121   7.663 -0.5038  1.1489 -1.4781
  310TIP3    H222490   5.933   4.013   7.747  1.9789  0.0438 -0.8635
  311TIP3   OH222491   0.363   5.560   1.465  0.4041  0.3363 -0.1643
  311TIP3    H122492   0.270   5.564   1.444 -0.2538 -0.3274  2.3337
  311TIP3    H222493   0.391   5.472   1.438  0.2133  0.3900 -0.5371
  312TIP3   OH222494   0.436   4.085   1.372  0.1113  0.1153  0.1346
  312TIP3    H122495   0.341   4.096   1.377  0.0897 -0.3766  4.2722
  312TIP3    H222496   0.471   4.163   1.414  1.4711 -0.3199 -0.1568
  313TIP3   OH222497   0.263   2.938   0.283  0.1822  0.5007 -0.6520
  313TIP3    H122498   0.269   2.928   0.188  0.5667 -0.4705 -0.5435
  313TIP3    H222499   0.170   2.954   0.300  0.2897  1.9312 -1.2768
  314TIP3   OH222500   4.352   2.551   0.928 -0.1204  0.0667  0.6104
  314TIP3    H122501   4.316   2.474   0.884 -1.1104  0.7215  0.2345
  314TIP3    H222502   4.294   2.565   1.002 -0.3723  0.8482  0.2784
  315TIP3   OH222503   1.374   0.396   9.083 -0.7957  0.2350  0.6149
  315TIP3    H122504   1.317   0.350   9.145 -1.4320 -0.8302 -0.7119
  315TIP3    H222505   1.412   0.327   9.029  1.9452  0.8886  1.5292
  316TIP3   OH222506   0.770   0.233   7.958  0.1725  0.2124 -0.0582
  316TIP3    H122507   0.750   0.300   8.024 -0.2102 -0.7085  0.7887
  316TIP3    H222508   0.842   0.271   7.908  2.0748  0.0505  2.3412
  317TIP3   OH222509   4.356   3.208   1.495  0.1246  0.4910 -0.3108
  317TIP3    H122510   4.285   3.172   1.549 -0.3720 -0.8611 -1.8029
  317TIP3    H222511   4.318   3.288   1.458  0.2340  1.0603  0.7628
  318TIP3   OH222512   4.116   3.396   8.853 -0.1935 -0.3447  0.0905
  318TIP3    H122513   4.114   3.492   8.853 -1.0898 -0.3187 -1.8665
  318TIP3    H222514   4.170   3.373   8.928 -1.0382  1.6617  1.3918
  319TIP3   OH222515   5.860   3.858   0.458  0.2654  0.4668  0.4515
  319TIP3    H122516   5.882   3.880   0.548 -0.0939 -0.4994  0.7912
  319TIP3    H222517   5.772   3.820   0.463  0.2073  0.4744 -0.3156
  320TIP3   OH222518   4.641   5.173   1.481  0.6342  0.5742 -0.4100
  320TIP3    H122519   4.547   5.189   1.495  0.7005  0.9459 -0.3811
  320TIP3    H222520   4.652   5.179   1.387  1.0536  2.9877 -0.2637
  321TIP3   OH222521   2.114   4.340   8.668  0.2561  0.0083  0.6309
  321TIP3    H122522   2.064   4.310   8.744  0.5090 -1.4468  0.2501
  321TIP3    H222523   2.165   4.264   8.642  2.6085  1.4023  0.9111
  322TIP3   OH222524   5.023   4.487   8.088  0.1783 -0.1729 -0.5123
  322TIP3    H122525   5.016   4.566   8.142 -0.1482 -1.0223  0.7268
  322TIP3    H222526   5.049   4.519   8.002 -1.3817  1.4336 -0.4376
  323TIP3   OH222527   3.299   3.549   1.433  0.2121  0.1977 -0.3397
  323TIP3    H122528   3.323   3.607   1.360  0.2455  0.7828  0.1282
  323TIP3    H222529   3.204   3.537   1.423 -0.2492  2.3304  0.9526
  324TIP3   OH222530   4.196   6.317   9.506 -0.4274  0.4138  0.3175
  324TIP3    H122531   4.115   6.348   9.466 -1.0896 -0.7661  0.6957
  324TIP3    H222532   4.227   6.248   9.447 -0.3418  0.0306  0.8082
  325TIP3   OH222533   3.344   0.600   9.428  0.6275 -0.0006 -0.5738
  325TIP3    H122534   3.309   0.515   9.401 -1.2729  0.0013  1.6281
  325TIP3    H222535   3.439   0.585   9.434  0.1549 -3.3751  3.6933
  326TIP3   OH222536   5.899   3.309   0.938  0.3897 -0.0273  0.3584
  326TIP3    H122537   5.852   3.384   0.974  0.8248  0.0747  0.7162
  326TIP3    H222538   5.885   3.239   1.001  0.3514 -0.1245  0.2430
  327TIP3   OH222539   0.795   4.575   1.032  0.0858 -0.3507 -0.4873
  327TIP3    H122540   0.888   4.590   1.012 -0.4110  2.1911 -1.2842
  327TIP3    H222541   0.769   4.503   0.975  1.0859  0.2941 -1.8038
  328TIP3   OH222542   5.563   1.108   1.040 -0.5833 -0.2485 -0.1383
  328TIP3    H122543   5.592   1.170   0.972 -3.6967  1.8632  0.2628
  328TIP3    H222544   5.470   1.094   1.022 -0.8600 -1.8045  2.1228
  329TIP3   OH222545   4.550   1.406   7.924  0.1285 -0.2938 -0.1806
  329TIP3    H122546   4.589   1.486   7.959 -1.6840  0.7478 -0.3928
  329TIP3    H222547   4.582   1.336   7.980  0.3798  0.8301  1.1061
  330TIP3   OH222548   4.771   1.935   6.898 -0.3203 -0.0539  0.0684
  330TIP3    H122549   4.752   1.895   6.813 -0.2206  0.3510 -0.1418
  330TIP3    H222550   4.813   2.018   6.877  1.5919 -0.8600  0.5237
  331TIP3   OH222551   2.436   5.880   8.913  0.3073  0.7272 -0.3213
  331TIP3    H122552   2.405   5.883   8.822  3.7190 -2.8225 -1.9163
  331TIP3    H222553   2.525   5.915   8.909  0.8920 -0.4522  1.4046
  332TIP3   OH222554   4.278   6.101   0.767  0.1680 -0.4278  0.8739
  332TIP3    H122555   4.304   6.062   0.850  1.7030  0.9242  1.0891
  332TIP3    H222556   4.348   6.075   0.706  0.2384  0.4256  0.5752
  333TIP3   OH222557   4.618   0.176   1.754  0.2405 -0.3564 -0.5469
  333TIP3    H122558   4.633   0.103   1.693  0.9157 -1.6521  1.0722
  333TIP3    H222559   4.648   0.142   1.838 -2.3737  0.6790  0.9065
  334TIP3   OH222560   5.910   2.995   8.214 -0.2328 -0.3936 -0.3922
  334TIP3    H122561   5.986   2.945   8.184  1.6910  1.4139  1.1010
  334TIP3    H222562   5.909   2.982   8.309 -2.4352 -1.1356 -0.4594
  335TIP3   OH222563   3.963   3.444   9.371 -0.0064 -0.3935  0.2098
  335TIP3    H122564   4.046   3.459   9.327  0.2914  0.4630  1.0370
  335TIP3    H222565   3.977   3.364   9.421 -0.1321 -1.0041 -0.7153
  336TIP3   OH222566   3.006   1.862   8.238 -0.1563  0.5094  0.0990
  336TIP3    H122567   2.929   1.889   8.288 -0.3283  2.7029 -1.2217
  336TIP3    H222568   2.975   1.853   8.148  0.5529 -1.5211 -0.0127
  337TIP3   OH222569   3.036   6.368   8.628  0.0905 -0.2174 -0.3756
  337TIP3    H122570   2.999   6.400   8.710 -0.3057 -1.1856 -0.1702
  337TIP3    H222571   3.088   6.292   8.653 -0.1255 -0.5896 -1.0302
  338TIP3   OH222572   1.307   2.565   2.153  0.0761  0.0344  0.1523
  338TIP3    H122573   1.268   2.498   2.209 -0.9222  0.2297 -0.2956
  338TIP3    H222574   1.380   2.599   2.204  1.5416 -2.3771 -0.1706
  339TIP3   OH222575   3.351   2.365   1.204  0.1242  0.1225 -0.1152
  339TIP3    H122576   3.282   2.339   1.143 -0.8576 -0.3371  1.1686
  339TIP3    H222577   3.346   2.461   1.205  0.1940  0.1384 -0.8031
  340TIP3   OH222578   0.229   6.334   0.667  0.5328 -0.3513 -0.1990
  340TIP3    H122579   0.285   6.360   0.594  1.9939 -0.3202  0.8931
  340TIP3    H222580   0.266   6.379   0.743 -0.9299 -0.4086  0.5903
  341TIP3   OH222581   5.679   0.421   2.026 -0.1246 -0.5139 -0.3142
  341TIP3    H122582   5.584   0.430   2.032 -0.3812 -3.3416  2.1685
  341TIP3    H222583   5.694   0.367   1.948 -0.4754  0.1333 -0.8442
  342TIP3   OH222584   6.417   0.997   2.630 -0.2769 -0.3398  0.0888
  342TIP3    H122585   6.333   1.042   2.645  0.1588  0.0813  1.3124
  342TIP3    H222586   6.473   1.026   2.701  1.2933  0.2480 -1.3214
  343TIP3   OH222587   0.001   4.299   6.991 -0.1052 -0.1837 -0.1948
  343TIP3    H122588   0.047   4.372   6.950  0.6990 -0.4943  0.1454
  343TIP3    H222589   0.053   4.222   6.967 -0.1125 -0.4685  0.7000
  344TIP3   OH222590   5.573   5.994   9.150  0.5611  0.2207 -0.0434
  344TIP3    H122591   5.624   6.015   9.072 -2.2445 -0.5123 -2.2247
  344TIP3    H222592   5.612   5.913   9.183  2.5892  1.2108  0.1605
  345TIP3   OH222593   4.221   5.217   2.939 -0.2143  0.5743  0.8354
  345TIP3    H122594   4.282   5.231   2.866 -1.0334 -1.0844 -0.2381
  345TIP3    H222595   4.148   5.276   2.920 -0.4256  0.1465  0.3007
  346TIP3   OH222596   0.484   1.976   2.806  0.2310  0.9263  0.4043
  346TIP3    H122597   0.472   1.891   2.763  0.4670  1.2411 -0.2911
  346TIP3    H222598   0.430   2.036   2.754  0.5221  1.3092  0.5449
  347TIP3   OH222599   4.774   4.301   1.382 -0.0239  0.7049  0.4903
  347TIP3    H122600   4.731   4.224   1.417 -0.1244  0.3072 -0.4713
  347TIP3    H222601   4.863   4.273   1.362 -0.1999  0.6844 -0.3173
  348TIP3   OH222602   5.529   5.919   8.025 -0.1586 -0.2394 -0.3010
  348TIP3    H122603   5.438   5.906   7.999 -0.8241 -1.5407  2.3262
  348TIP3    H222604   5.544   6.013   8.013 -1.7248 -0.0570 -1.0885
  349TIP3   OH222605   3.477   0.254   9.560 -0.4102 -0.0734 -0.2649
  349TIP3    H122606   3.502   0.177   9.611  0.3256  0.0502 -0.4262
  349TIP3    H222607   3.395   0.283   9.599  0.8748  0.9283  1.8475
  350TIP3   OH222608   1.335   2.255   7.103 -0.5414 -0.4713  0.0827
  350TIP3    H122609   1.334   2.349   7.118 -1.7415 -0.3914 -0.3641
  350TIP3    H222610   1.310   2.217   7.187  1.6353 -0.5124  0.7681
  351TIP3   OH222611   1.376   5.387   9.454  0.6719  0.2704  0.2344
  351TIP3    H122612   1.300   5.425   9.498 -0.3667  0.3188 -1.5301
  351TIP3    H222613   1.395   5.447   9.382  2.2452  0.1118  0.4686
  352TIP3   OH222614   3.029   5.771   7.681 -0.0830 -0.0961 -0.0533
  352TIP3    H122615   2.952   5.817   7.716  1.1676  0.7694  1.7417
  352TIP3    H222616   3.055   5.822   7.605 -0.0656  0.8811  0.5846
  353TIP3   OH222617   6.006   6.260   0.748 -0.5107 -0.0161  1.0261
  353TIP3    H122618   5.939   6.305   0.698 -0.5022 -1.2007 -0.1025
  353TIP3    H222619   6.087   6.308   0.731 -0.2255 -1.2075 -1.2935
  354TIP3   OH222620   2.202   0.210   2.306  0.0169  0.3316  0.3083
  354TIP3    H122621   2.260   0.143   2.269 -0.8456 -0.6879  0.7741
  354TIP3    H222622   2.118   0.166   2.317 -0.5378  1.4659  0.7276
  355TIP3   OH222623   6.337   0.274   8.289 -0.0095  0.0739  0.4908
  355TIP3    H122624   6.258   0.294   8.238  0.4964  2.1623  0.4244
  355TIP3    H222625   6.345   0.179   8.284 -1.5425 -0.0397 -0.9617
  356TIP3   OH222626   3.686   2.276   0.240  0.2513 -0.3331 -0.0633
  356TIP3    H122627   3.640   2.197   0.214 -1.1377  1.0538 -2.0883
  356TIP3    H222628   3.745   2.295   0.167 -0.9371  1.5594 -0.6096
  357TIP3   OH222629   0.386   4.290   1.609 -0.2411 -0.6555  0.5924
  357TIP3    H122630   0.413   4.207   1.648 -0.8431 -1.1517 -0.0303
  357TIP3    H222631   0.453   4.308   1.543 -1.2949 -1.8162 -0.8551
  358TIP3   OH222632   2.461   6.057   1.057  0.3680  0.2198 -0.1043
  358TIP3    H122633   2.475   5.979   1.109  1.3155 -0.5705 -1.4686
  358TIP3    H222634   2.451   6.025   0.967  1.9572  1.6941 -0.8730
  359TIP3   OH222635   1.256   4.236   0.731 -0.9854  0.0321 -0.6490
  359TIP3    H122636   1.172   4.282   0.733  0.3232  2.5910 -0.6625
  359TIP3    H222637   1.292   4.254   0.644  0.1100 -0.0098 -0.2241
  360TIP3   OH222638   4.119   0.813   8.457  0.1318 -0.5533 -0.4747
  360TIP3    H122639   4.204   0.770   8.466  0.0075 -0.9289 -1.0800
  360TIP3    H222640   4.067   0.753   8.404 -1.5889 -1.8742  2.4786
  361TIP3   OH222641   3.747   4.778   0.129 -0.2582 -0.1213 -0.2801
  361TIP3    H122642   3.731   4.819   0.214 -2.5716  0.1397 -0.7742
  361TIP3    H222643   3.785   4.848   0.076 -1.7674  0.7069 -0.3440
  362TIP3   OH222644   2.155   0.889   1.125 -0.4101  0.7555  0.4627
  362TIP3    H122645   2.122   0.865   1.038  1.6936 -0.2643 -0.1362
  362TIP3    H222646   2.174   0.983   1.118 -0.6755  0.7771 -0.0372
  363TIP3   OH222647   4.562   3.476   9.343 -0.1279  0.0732  0.0486
  363TIP3    H122648   4.493   3.422   9.383  0.0080  0.4149  0.7701
  363TIP3    H222649   4.524   3.506   9.260 -0.0519 -1.4461 -0.5590
  364TIP3   OH222650   1.345   1.379   9.032  0.1881 -0.6077  0.1263
  364TIP3    H122651   1.312   1.468   9.041  1.0677 -0.2146 -0.4228
  364TIP3    H222652   1.374   1.373   8.941  0.9535 -1.1664  0.3993
  365TIP3   OH222653   4.537   5.146   0.693 -0.2061  0.0575  0.4781
  365TIP3    H122654   4.599   5.134   0.764 -0.9335  0.1588  1.1476
  365TIP3    H222655   4.573   5.218   0.641  0.9601 -0.8276  0.0162
  366TIP3   OH222656   3.078   1.131   0.460  0.3533 -0.5786 -0.2702
  366TIP3    H122657   3.149   1.078   0.497 -1.0264 -1.5272  1.1137
  366TIP3    H222658   3.036   1.074   0.396  0.6055 -0.1288 -0.8493
  367TIP3   OH222659   0.237   2.088   7.232  0.2207 -0.1675 -0.3120
  367TIP3    H122660   0.253   2.026   7.161 -0.2161 -1.0953  0.3790
  367TIP3    H222661   0.150   2.124   7.213  0.9928  1.2435 -1.4158
  368TIP3   OH222662   2.720   1.112   7.795  0.2471  0.0890 -0.6103
  368TIP3    H122663   2.769   1.174   7.850  3.3035 -1.8347 -0.9399
  368TIP3    H222664   2.653   1.076   7.854  1.6585  0.0817  1.0927
  369TIP3   OH222665   3.370   5.840   0.809  0.2779  0.5932 -0.4941
  369TIP3    H122666   3.375   5.845   0.905  0.8124  2.1789 -0.5831
  369TIP3    H222667   3.284   5.801   0.792  0.2055  0.2279  0.6193
  370TIP3   OH222668   1.928   5.010   1.294  0.3784  0.0825  0.2637
  370TIP3    H122669   1.919   4.950   1.220  0.7889 -0.7537  0.8655
  370TIP3    H222670   1.996   4.969   1.349  0.8648  1.2512  0.5507
  371TIP3   OH222671   2.123   5.652   1.484  0.2240  0.2076 -0.1754
  371TIP3    H122672   2.119   5.603   1.566  1.6079  0.0946 -0.1486
  371TIP3    H222673   2.114   5.743   1.509  0.8325  0.1866  0.1402
  372TIP3   OH222674   5.563   3.875   9.568  0.2551  0.1877 -0.0054
  372TIP3    H122675   5.540   3.966   9.548  1.3007  0.5009  0.1345
  372TIP3    H222676   5.608   3.880   9.652  1.0190 -0.3553 -0.3708
  373TIP3   OH222677   1.724   6.280   0.022 -0.1507  0.1816 -0.1187
  373TIP3    H122678   1.803   6.307  -0.026 -0.0097 -2.7522 -1.8425
  373TIP3    H222679   1.756   6.216   0.086 -0.8699  0.8149  0.8923
  374TIP3   OH222680   5.707   1.314   1.192 -0.2600 -0.4779  0.0329
  374TIP3    H122681   5.755   1.350   1.118 -0.1973 -0.6508 -0.0132
  374TIP3    H222682   5.652   1.245   1.153 -0.0165 -0.7627  0.1855
  375TIP3   OH222683   3.415   4.536   9.244 -0.0033 -0.3808 -0.0367
  375TIP3    H122684   3.458   4.615   9.274 -0.0390  0.4102 -1.9272
  375TIP3    H222685   3.379   4.496   9.324 -1.8535  2.6037  0.7824
  376TIP3   OH222686   6.101   2.057   0.151  0.5475  0.0861  0.9860
  376TIP3    H122687   6.133   2.100   0.072  1.6071  1.0619  1.9098
  376TIP3    H222688   6.139   1.969   0.148  0.1816 -0.0520  0.1818
  377TIP3   OH222689   1.943   2.870   1.413 -0.1887  0.2905  0.2818
  377TIP3    H122690   1.954   2.958   1.449  0.4702  0.3733 -0.0966
  377TIP3    H222691   2.024   2.825   1.436  0.1691  0.2871 -0.9154
  378TIP3   OH222692   1.049   1.521   0.852  0.0874  0.1109  0.4281
  378TIP3    H122693   1.064   1.430   0.876  0.8665  0.1491  0.1272
  378TIP3    H222694   1.002   1.518   0.769 -1.2457 -0.0150  1.1652
  379TIP3   OH222695   4.192   3.034   1.641 -0.2047  0.0283  0.6255
  379TIP3    H122696   4.250   2.977   1.692 -0.6932  0.0681  1.2309
  379TIP3    H222697   4.121   3.056   1.701 -0.0529  1.2397  0.3912
  380TIP3   OH222698   5.274   0.839   1.562  0.0763  0.4521  0.2398
  380TIP3    H122699   5.211   0.767   1.558  0.8492 -0.2835  0.8255
  380TIP3    H222700   5.230   0.908   1.611 -0.7458  0.4662 -0.4904
  381TIP3   OH222701   5.863   5.725   2.047  0.0030 -0.2935 -0.3758
  381TIP3    H122702   5.918   5.690   1.977 -0.8907 -1.2106 -0.6372
  381TIP3    H222703   5.816   5.799   2.008 -2.6900 -2.5290 -1.7029
  382TIP3   OH222704   6.019   5.355   8.793  0.4687  0.0012  0.1254
  382TIP3    H122705   6.068   5.414   8.850  1.3406 -0.3744 -0.2107
  382TIP3    H222706   6.050   5.376   8.705 -0.8091  0.5270 -0.2126
  383TIP3   OH222707   0.718   1.225   1.404 -0.2332  0.1953  0.0775
  383TIP3    H122708   0.692   1.312   1.434  0.5598 -0.3271  2.4962
  383TIP3    H222709   0.813   1.230   1.394 -0.3556  0.0484 -1.5110
  384TIP3   OH222710   5.152   6.102   8.818  0.2993  0.4870 -0.2273
  384TIP3    H122711   5.143   6.149   8.900 -1.6398  1.1670 -0.7732
  384TIP3    H222712   5.180   6.014   8.843  0.3471  0.8653  1.0909
  385TIP3   OH222713   1.422   0.575   7.685 -0.2516 -0.1474  0.0498
  385TIP3    H122714   1.438   0.656   7.635 -0.4183 -0.4246 -0.4560
  385TIP3    H222715   1.329   0.558   7.673  0.1791 -1.5814 -1.6355
  386TIP3   OH222716   6.240   2.634   1.428 -0.2348 -0.3836  0.2760
  386TIP3    H122717   6.309   2.663   1.368  1.0332 -0.9620  1.4061
  386TIP3    H222718   6.222   2.711   1.482  0.3981 -0.5704  0.7655
  387TIP3   OH222719   3.875   0.716   1.209 -0.2659  0.1231  0.2541
  387TIP3    H122720   3.968   0.696   1.212 -0.3089 -0.4129 -1.1882
  387TIP3    H222721   3.871   0.811   1.207  0.2727  0.1417 -0.1692
  388TIP3   OH222722   2.447   4.802   1.933 -0.4523 -0.0444  0.3197
  388TIP3    H122723   2.366   4.847   1.907 -1.1962 -0.7973  1.2621
  388TIP3    H222724   2.444   4.801   2.028  1.3939  1.1651  0.4386
  389TIP3   OH222725   0.312   1.013   2.335 -0.2291 -0.1738  0.8185
  389TIP3    H122726   0.218   1.007   2.349 -0.3794 -0.2543 -0.1374
  389TIP3    H222727   0.334   0.932   2.288  0.8292 -1.6031  3.5606
  390TIP3   OH222728   3.481   2.801   8.282 -0.4162  0.2306  0.4002
  390TIP3    H122729   3.450   2.730   8.338 -2.2418 -1.0455 -2.0616
  390TIP3    H222730   3.561   2.767   8.243 -0.0111  0.4870  0.9950
  391TIP3   OH222731   3.866   6.113   0.040 -0.4580 -0.6544  0.2025
  391TIP3    H122732   3.771   6.102   0.051 -0.7207  2.1468  1.8518
  391TIP3    H222733   3.892   6.167   0.115  1.9231  1.0448 -1.6910
  392TIP3   OH222734   4.787   4.005   8.616 -0.3402  0.6835 -0.2189
  392TIP3    H122735   4.812   4.091   8.648  1.9619 -0.2102  0.5732
  392TIP3    H222736   4.832   3.944   8.674 -1.4919 -1.0663 -1.0812
  393TIP3   OH222737   6.204   4.831   8.966 -0.0707  0.5923 -0.1546
  393TIP3    H122738   6.180   4.742   8.991  2.2605 -0.0655  0.0211
  393TIP3    H222739   6.227   4.824   8.873  0.6358  0.8798 -0.0057
  394TIP3   OH222740   2.513   0.229   0.245 -0.4578 -0.3586  0.4591
  394TIP3    H122741   2.476   0.225   0.158 -1.0878 -0.0710  0.7113
  394TIP3    H222742   2.530   0.322   0.260  2.7514 -0.6221 -0.6249
  395TIP3   OH222743   1.097   2.095   1.920 -0.0193  0.6020 -0.2625
  395TIP3    H122744   1.078   2.156   1.849  0.3944  1.8445  0.6557
  395TIP3    H222745   1.153   2.144   1.980  0.3778 -0.7051  0.4902
  396TIP3   OH222746   3.829   3.670   7.595 -0.1759  0.2206 -0.4064
  396TIP3    H122747   3.877   3.749   7.622  0.2319  0.1901 -1.0184
  396TIP3    H222748   3.747   3.674   7.643  0.8923 -0.3193  1.5726
  397TIP3   OH222749   6.039   2.824   8.063  0.1820 -0.2154  0.7826
  397TIP3    H122750   6.010   2.735   8.081  1.2180 -0.8730 -0.6270
  397TIP3    H222751   5.968   2.862   8.010 -1.3507  0.6444  3.2747
  398TIP3   OH222752   2.657   3.417   7.432 -0.5874  0.3286 -0.3978
  398TIP3    H122753   2.615   3.468   7.501 -0.5333  1.7299 -1.3501
  398TIP3    H222754   2.588   3.402   7.368 -0.1486  0.8600 -1.0090
  399TIP3   OH222755   5.124   0.594   8.940  0.1892  0.2220  0.0476
  399TIP3    H122756   5.082   0.672   8.905  0.1909 -0.5896 -1.8983
  399TIP3    H222757   5.207   0.626   8.977  0.5447  1.0685 -1.4023
  400TIP3   OH222758   2.727   0.617   2.673 -0.3245 -0.2115 -0.0628
  400TIP3    H122759   2.731   0.713   2.679 -0.1510 -0.1915 -0.4565
  400TIP3    H222760   2.635   0.596   2.689 -0.1089 -0.0930  1.4483
  401TIP3   OH222761   1.605   6.257   7.453 -0.1166 -0.4039 -0.3757
  401TIP3    H122762   1.643   6.169   7.452 -0.5608 -0.5948 -0.9996
  401TIP3    H222763   1.514   6.244   7.428 -0.0398  0.3014 -1.0571
  402TIP3   OH222764   4.779   0.840   9.008  0.2524 -0.2633 -0.1440
  402TIP3    H122765   4.723   0.903   8.963  1.3988  2.0841  1.4703
  402TIP3    H222766   4.852   0.893   9.041  1.1771 -2.4293  1.5191
  403TIP3   OH222767   3.402   0.784   1.095  0.1820 -0.7293  0.3886
  403TIP3    H122768   3.398   0.875   1.064  0.5832 -0.1951  1.8281
  403TIP3    H222769   3.438   0.735   1.021 -0.4609  0.1948 -0.5723
  404TIP3   OH222770   5.256   3.721   7.528 -0.1811  0.0395  0.2117
  404TIP3    H122771   5.345   3.757   7.526  0.0686 -0.6057 -0.9704
  404TIP3    H222772   5.268   3.628   7.544 -0.7081  0.0781  0.8873
  405TIP3   OH222773   1.731   5.717   1.816  0.3016 -0.2157 -0.5503
  405TIP3    H122774   1.704   5.627   1.798  0.8374 -0.2647 -1.1513
  405TIP3    H222775   1.800   5.709   1.882 -0.5242 -0.1470  0.3502
  406TIP3   OH222776   1.842   3.633   0.490  0.1415  0.2660 -0.1515
  406TIP3    H122777   1.830   3.719   0.451 -0.1835  0.2265 -0.1363
  406TIP3    H222778   1.843   3.650   0.585 -1.9293  0.0142 -0.0544
  407TIP3   OH222779   6.530   1.287   0.280 -0.2986 -0.0328  0.5039
  407TIP3    H122780   6.571   1.210   0.320 -1.6090  0.2455  2.5287
  407TIP3    H222781   6.550   1.358   0.341 -1.6124  0.6182  0.2015
  408TIP3   OH222782   1.188   1.695   7.244  0.3556 -0.3771  0.2954
  408TIP3    H122783   1.160   1.717   7.155  2.7424  0.4919 -0.3071
  408TIP3    H222784   1.107   1.697   7.295 -0.7687  1.6182 -1.3716
  409TIP3   OH222785   3.958   2.328   0.836  0.4535  0.6264 -0.0652
  409TIP3    H122786   3.951   2.249   0.784  2.7311  0.0341  0.4123
  409TIP3    H222787   3.973   2.297   0.925  0.5340  1.6034  0.2764
  410TIP3   OH222788   0.480   1.045   1.173  1.1678 -0.0076 -0.0627
  410TIP3    H122789   0.422   1.121   1.179 -0.6951 -1.1520 -1.9685
  410TIP3    H222790   0.467   1.012   1.084  2.8535 -1.8422  0.3001
  411TIP3   OH222791   4.661   2.202   1.627  0.2549  0.3287 -0.1853
  411TIP3    H122792   4.589   2.164   1.678  0.0366  1.4289  0.3617
  411TIP3    H222793   4.617   2.247   1.555  0.5375 -0.8023 -1.0942
  412TIP3   OH222794   4.812   4.901   0.439  0.3720 -0.1893  0.2216
  412TIP3    H122795   4.753   4.827   0.425  2.1010 -1.2711 -2.3331
  412TIP3    H222796   4.797   4.959   0.364  1.0375  0.6039  0.6742
  413TIP3   OH222797   2.522   0.279   7.820  0.2590  0.1310  0.5012
  413TIP3    H122798   2.605   0.301   7.779  1.0532  1.5557  2.6820
  413TIP3    H222799   2.531   0.309   7.910 -2.5933  0.2446  0.8468
  414TIP3   OH222800   3.092   1.697   8.937  0.0990 -0.2352  0.0321
  414TIP3    H122801   3.019   1.635   8.936  0.0649 -0.2387  1.0641
  414TIP3    H222802   3.068   1.763   8.872 -0.1877 -0.9299 -0.5927
  415TIP3   OH222803   2.871   3.074   7.525  0.0041  0.2962  0.2312
  415TIP3    H122804   2.878   3.135   7.451 -0.1498  1.9084  1.4849
  415TIP3    H222805   2.945   3.096   7.582  0.3484 -1.1867  0.3905
  416TIP3   OH222806   4.672   5.464   8.190  0.3906  0.0897  0.0326
  416TIP3    H122807   4.661   5.453   8.095  0.1132  1.6187 -0.1432
  416TIP3    H222808   4.761   5.496   8.200  0.0160  1.1405  0.1491
  417TIP3   OH222809   2.896   5.137   2.610 -0.1964  0.9155  0.4359
  417TIP3    H122810   2.865   5.199   2.676 -1.9681 -0.1108  0.6322
  417TIP3    H222811   2.819   5.119   2.556  0.9568  0.9326 -1.2959
  418TIP3   OH222812   0.055   5.321   0.157 -0.0625 -0.0797  0.0259
  418TIP3    H122813   0.016   5.376   0.225 -0.7903 -1.1802  0.5313
  418TIP3    H222814   0.121   5.377   0.116 -0.6222  1.0921  0.6550
  419TIP3   OH222815   0.752   2.146   1.757  0.0084  0.0233 -0.0401
  419TIP3    H122816   0.670   2.183   1.788  0.1212 -1.7113  2.7376
  419TIP3    H222817   0.729   2.099   1.677 -1.2997  1.0771 -0.3115
  420TIP3   OH222818   5.109   3.517   8.276  0.9340  0.4474  0.6084
  420TIP3    H122819   5.130   3.429   8.308  0.0499  0.0179  0.0436
  420TIP3    H222820   5.039   3.503   8.213  1.5944  1.4484 -0.3725
  421TIP3   OH222821   2.861   1.729   6.363 -0.0988  0.0730 -0.2018
  421TIP3    H122822   2.781   1.722   6.414  0.1178 -0.2254  0.1016
  421TIP3    H222823   2.926   1.677   6.411 -0.2417 -1.3725 -1.4602
  422TIP3   OH222824   0.581   5.594   9.054 -0.7267  0.4343 -0.4742
  422TIP3    H122825   0.552   5.679   9.086 -1.2262  0.4315 -0.9105
  422TIP3    H222826   0.548   5.532   9.118 -0.2487  0.5717 -0.0837
  423TIP3   OH222827   5.372   2.496   0.145 -0.5330 -0.1504  0.5759
  423TIP3    H122828   5.427   2.418   0.145 -1.7161 -1.0577 -1.2357
  423TIP3    H222829   5.418   2.559   0.090 -0.5293 -0.3228  0.3808
  424TIP3   OH222830   0.118   2.157   0.628  0.3289 -0.1084 -0.4215
  424TIP3    H122831   0.121   2.154   0.724 -3.1429 -1.2251 -0.2188
  424TIP3    H222832   0.166   2.079   0.600  4.0514  1.7560  0.1056
  425TIP3   OH222833   3.238   1.361   1.770  0.0219 -0.0846 -0.2469
  425TIP3    H122834   3.250   1.411   1.850 -0.8341 -0.3376  0.0416
  425TIP3    H222835   3.320   1.311   1.761  0.0586 -0.1746  0.5435
  426TIP3   OH222836   0.825   6.419   9.279 -0.5151  0.5449 -0.2417
  426TIP3    H122837   0.746   6.454   9.320  0.1145  1.6038  0.0950
  426TIP3    H222838   0.867   6.369   9.348 -0.2046  1.1130 -0.0123
  427TIP3   OH222839   0.260   5.374   8.807 -0.8608  0.3900 -0.7338
  427TIP3    H122840   0.177   5.372   8.759 -0.6317  0.7645 -1.1580
  427TIP3    H222841   0.241   5.423   8.887 -1.4060 -0.7987 -0.1183
  428TIP3   OH222842   1.627   5.464   8.275 -0.5130  0.2118  0.3262
  428TIP3    H122843   1.534   5.484   8.265 -0.5632 -0.3408 -0.4146
  428TIP3    H222844   1.631   5.368   8.274  0.2180  0.2059 -1.5410
  429TIP3   OH222845   4.600   1.813   8.433  0.0482 -0.2410  0.3469
  429TIP3    H122846   4.513   1.852   8.424  0.6157  0.8910 -0.5136
  429TIP3    H222847   4.637   1.854   8.511  1.3351  2.4707 -1.5350
  430TIP3   OH222848   2.395   3.291   8.349  0.1541 -0.0410  0.3594
  430TIP3    H122849   2.330   3.361   8.348  0.3987  0.1761 -0.3952
  430TIP3    H222850   2.458   3.317   8.417  0.4433  0.6586 -0.1627
  431TIP3   OH222851   2.534   0.762   7.570  0.4170 -0.4200  0.0029
  431TIP3    H122852   2.595   0.689   7.562  0.5344 -0.2812 -0.4018
  431TIP3    H222853   2.557   0.804   7.653  1.1744 -0.0926 -0.3643
  432TIP3   OH222854   1.496   3.775   0.126 -0.6279 -0.6465  0.2384
  432TIP3    H122855   1.586   3.753   0.150 -0.4342 -0.4509 -0.2903
  432TIP3    H222856   1.477   3.720   0.050 -1.0058 -0.7864  0.4300
  433TIP3   OH222857   1.942   3.787   8.305  0.3963  0.4963  0.0853
  433TIP3    H122858   1.972   3.777   8.215 -0.5862  0.4746 -0.2554
  433TIP3    H222859   1.939   3.882   8.319 -1.1915  0.5642 -0.5376
  434TIP3   OH222860   1.245   5.650   1.889 -0.2116 -0.2971 -0.0164
  434TIP3    H122861   1.332   5.686   1.909 -0.6144  0.8460 -0.2722
  434TIP3    H222862   1.194   5.667   1.968 -0.4723 -0.0973 -0.2288
  435TIP3   OH222863   4.183   1.187   7.027  0.1120  0.5699  0.6611
  435TIP3    H122864   4.124   1.130   7.077 -1.5746  1.6677  0.0021
  435TIP3    H222865   4.146   1.275   7.036  0.6195  1.0310 -1.2295
  436TIP3   OH222866   1.191   6.513   7.790 -0.5603 -0.6287  0.1135
  436TIP3    H122867   1.262   6.460   7.753 -0.8980 -0.5892 -0.6229
  436TIP3    H222868   1.221   6.536   7.878 -0.6073 -2.4552  0.6412
  437TIP3   OH222869   1.875   5.816   8.327  0.1073  0.0206 -0.6261
  437TIP3    H122870   1.808   5.768   8.375  0.2840  0.0363 -0.3646
  437TIP3    H222871   1.842   5.820   8.237  0.5461 -1.4377 -0.8668
  438TIP3   OH222872   3.307   2.288   7.455 -0.3641 -0.1812 -0.1771
  438TIP3    H122873   3.359   2.308   7.533  1.7955 -0.3302 -1.4895
  438TIP3    H222874   3.216   2.303   7.481  0.4759  2.4390  1.5447
  439TIP3   OH222875   3.439   1.650   1.096  0.1840  0.1379 -0.2884
  439TIP3    H122876   3.418   1.612   1.010 -1.7475 -0.7479  0.4994
  439TIP3    H222877   3.362   1.703   1.118  0.3211 -0.2245  1.1889
  440TIP3   OH222878   0.589   3.511   0.426 -0.2638 -0.1195 -0.2256
  440TIP3    H122879   0.640   3.473   0.498  1.1332 -0.1147 -1.1733
  440TIP3    H222880   0.506   3.536   0.466 -1.1574 -3.7753  0.5617
  441TIP3   OH222881   5.634   3.739   9.086  0.0285 -0.1864  0.6202
  441TIP3    H122882   5.579   3.664   9.108 -1.1832  0.5185  0.0698
  441TIP3    H222883   5.655   3.727   8.994  1.6836 -0.9774  1.0578
  442TIP3   OH222884   3.312   3.707   7.459  0.0164 -0.4375  0.0185
  442TIP3    H122885   3.300   3.795   7.425  0.2550 -0.6612 -0.6704
  442TIP3    H222886   3.356   3.660   7.388 -0.3520 -1.1802  0.2692
  443TIP3   OH222887   1.595   1.500   8.354  0.5851  0.2985  0.6656
  443TIP3    H122888   1.602   1.439   8.427 -1.2283 -1.9853 -0.9108
  443TIP3    H222889   1.501   1.510   8.340  0.8362 -0.0820 -1.8618
  444TIP3   OH222890   5.418   2.840   0.541  0.2768 -0.0208 -0.3679
  444TIP3    H122891   5.364   2.762   0.558  2.3830 -1.5927 -0.5169
  444TIP3    H222892   5.395   2.865   0.451  1.6735 -2.3662 -1.4789
  445TIP3   OH222893   3.551   0.093   0.356  0.0442  0.1396 -0.1119
  445TIP3    H122894   3.474   0.037   0.346  0.9328 -0.7590 -2.6480
  445TIP3    H222895   3.587   0.069   0.441 -0.6688 -1.8147 -0.3018
  446TIP3   OH222896   4.939   3.328   7.854  0.0647  0.5013  0.1726
  446TIP3    H122897   5.018   3.304   7.806  2.1834  1.2872  3.0102
  446TIP3    H222898   4.897   3.395   7.799  0.9058 -0.4723 -1.7539
  447TIP3   OH222899   0.240   1.629   8.406 -0.1193  0.1024  0.0636
  447TIP3    H122900   0.320   1.675   8.433  0.3878 -0.3768 -0.5699
  447TIP3    H222901   0.214   1.673   8.325 -0.4051  0.1436  0.1766
  448TIP3   OH222902   5.399   5.598   7.983  0.2228  0.4788  0.0705
  448TIP3    H122903   5.484   5.583   8.025  0.5103  0.4162 -0.5255
  448TIP3    H222904   5.364   5.676   8.027 -0.1496 -0.4197  1.4389
  449TIP3   OH222905   0.708   2.092   7.626 -0.7754 -0.1909  0.0831
  449TIP3    H122906   0.802   2.110   7.636 -0.4294 -0.6091 -1.9677
  449TIP3    H222907   0.684   2.135   7.544 -2.1786 -0.8466  0.1222
  450TIP3   OH222908   5.430   0.131   1.405 -0.5597 -0.6305 -0.8384
  450TIP3    H122909   5.357   0.149   1.464 -0.5471 -1.0415 -0.6924
  450TIP3    H222910   5.499   0.191   1.434 -0.4070 -1.1157 -0.1517
  451TIP3   OH222911   4.878   3.998   2.446 -0.1137  0.0415  0.0544
  451TIP3    H122912   4.811   3.935   2.419  0.7674 -0.5283 -0.8722
  451TIP3    H222913   4.832   4.082   2.446 -1.2823 -0.5592  1.2159
  452TIP3   OH222914   1.624   1.795   0.302 -0.6136  0.2861 -0.1327
  452TIP3    H122915   1.566   1.790   0.227  1.5630  1.7046 -2.0495
  452TIP3    H222916   1.658   1.706   0.313  0.7980  0.4828 -2.3950
  453TIP3   OH222917   2.123   0.257   0.939  0.0649 -0.1097 -0.3621
  453TIP3    H122918   2.056   0.194   0.964  0.5823 -1.4705 -2.1757
  453TIP3    H222919   2.206   0.215   0.965  0.3636  0.1945 -0.8083
  454TIP3   OH222920   4.851   6.014   0.653 -0.1662 -0.0281  0.2137
  454TIP3    H122921   4.829   5.976   0.568 -0.6576  0.4140  0.1378
  454TIP3    H222922   4.943   6.039   0.646 -0.9390  2.7903 -1.2733
  455TIP3   OH222923   0.700   0.256   9.567 -0.1191  0.2332 -0.6772
  455TIP3    H122924   0.652   0.319   9.513  1.9639  2.8619  0.2769
  455TIP3    H222925   0.783   0.300   9.586 -0.2847 -0.8833  3.7453
  456TIP3   OH222926   4.596   2.214   7.161  0.3044  0.6604  0.3484
  456TIP3    H122927   4.519   2.210   7.104 -1.4263  2.3055  2.4079
  456TIP3    H222928   4.657   2.270   7.114 -0.3209  0.5234 -0.6815
  457TIP3   OH222929   0.775   1.841   9.121  0.3949  0.0469  0.4255
  457TIP3    H122930   0.808   1.921   9.161  0.0876  1.0067 -1.1718
  457TIP3    H222931   0.764   1.781   9.195  2.7279  0.6941  1.3837
  458TIP3   OH222932   5.015   0.866   1.321  0.0969 -0.0779  0.2519
  458TIP3    H122933   4.985   0.950   1.285 -0.7313  0.6318  2.4538
  458TIP3    H222934   4.993   0.870   1.413  1.7242 -1.9983  0.7971
  459TIP3   OH222935   0.461   1.313   0.674  0.1584 -0.4385  0.1322
  459TIP3    H122936   0.513   1.239   0.706 -2.6055 -1.3076  3.1777
  459TIP3    H222937   0.472   1.381   0.740 -0.7763  0.1994 -0.3348
  460TIP3   OH222938   1.231   1.063   1.874 -0.0035  0.3704 -0.6345
  460TIP3    H122939   1.281   1.036   1.797  0.1562 -0.9656 -0.0782
  460TIP3    H222940   1.287   1.039   1.948  0.1194  2.1892 -0.0812
  461TIP3   OH222941   2.887   5.008   8.652 -0.7399 -0.1818 -0.0754
  461TIP3    H122942   2.858   4.953   8.579 -0.4705 -0.6316  0.1483
  461TIP3    H222943   2.833   4.980   8.726 -0.3460 -0.4215  0.1314
  462TIP3   OH222944   5.972   5.341   8.442 -0.8428  0.2994 -0.2238
  462TIP3    H122945   5.887   5.381   8.460 -1.5135 -0.7148 -1.0098
  462TIP3    H222946   6.028   5.414   8.413 -1.2401  1.0803  0.9402
  463TIP3   OH222947   0.324   2.256   2.285 -0.5492 -0.0465  0.2188
  463TIP3    H122948   0.352   2.345   2.264  0.2921 -0.6004 -1.1278
  463TIP3    H222949   0.263   2.267   2.358 -0.1048  1.5852  0.3919
  464TIP3   OH222950   5.257   1.113   1.368  0.1138 -0.1156  0.5298
  464TIP3    H122951   5.345   1.076   1.373  1.2053  2.1503 -0.7938
  464TIP3    H222952   5.251   1.149   1.280 -2.5698 -1.1099  0.2102
  465TIP3   OH222953   4.063   4.752   1.475 -0.0994  0.1454  0.1140
  465TIP3    H122954   4.118   4.674   1.479 -1.8183 -1.1441 -0.2830
  465TIP3    H222955   3.980   4.721   1.438 -0.0802  2.6230 -2.3002
  466TIP3   OH222956   1.890   1.622   7.419 -0.3424  0.2865 -0.1082
  466TIP3    H122957   1.823   1.678   7.459 -0.7907  0.7217 -1.4059
  466TIP3    H222958   1.851   1.593   7.337 -0.3477 -2.4431  0.7553
  467TIP3   OH222959   3.992   3.735   8.619 -0.0656 -1.6475  0.3162
  467TIP3    H122960   3.933   3.710   8.547  0.7914 -0.8921 -0.6908
  467TIP3    H222961   3.948   3.809   8.661 -0.3172 -1.7408  0.2218
  468TIP3   OH222962   0.198   3.268   9.266  0.5521  0.1027  0.0581
  468TIP3    H122963   0.182   3.261   9.360 -0.2532  0.6131 -0.0388
  468TIP3    H222964   0.113   3.290   9.228  0.7910 -0.4598 -0.8360
  469TIP3   OH222965   0.242   1.932   0.521  0.5906 -0.2149  0.5689
  469TIP3    H122966   0.170   1.875   0.546 -1.4572  2.7504  2.0416
  469TIP3    H222967   0.231   1.944   0.426 -0.6337 -0.1310  0.7044
  470TIP3   OH222968   2.355   3.547   2.769 -0.2995  0.1872 -1.0416
  470TIP3    H122969   2.337   3.454   2.763 -0.1561 -0.0269  1.0758
  470TIP3    H222970   2.445   3.552   2.801 -0.9525  0.9714  0.8114
  471TIP3   OH222971   5.726   4.114   1.157 -0.1712 -0.3583 -0.1789
  471TIP3    H122972   5.764   4.036   1.198 -0.9807 -0.6370  0.0448
  471TIP3    H222973   5.682   4.080   1.079 -2.9487 -0.5727  1.3702
  472TIP3   OH222974   0.961   5.294   9.196  0.0291 -0.3759 -0.4757
  472TIP3    H122975   1.002   5.220   9.151 -1.0009 -0.9108 -0.5465
  472TIP3    H222976   0.983   5.370   9.142  2.5168 -0.3330  0.4674
  473TIP3   OH222977   3.411   6.376   1.375 -0.4184 -0.8307 -0.3720
  473TIP3    H122978   3.452   6.456   1.342 -0.3395 -1.8266 -2.9229
  473TIP3    H222979   3.339   6.359   1.314 -0.9343 -2.2955  0.5821
  474TIP3   OH222980   2.021   6.404   0.626 -0.5352 -0.4039  0.3436
  474TIP3    H122981   2.057   6.486   0.660 -1.4875 -0.1027  0.6658
  474TIP3    H222982   2.022   6.344   0.700  0.9429 -0.9730 -0.1042
  475TIP3   OH222983   3.798   6.310   2.676  0.4978 -0.7835 -0.4970
  475TIP3    H122984   3.833   6.300   2.764 -0.2645 -0.2416 -0.1252
  475TIP3    H222985   3.763   6.399   2.673 -2.9473 -1.9578 -0.0285
  476TIP3   OH222986   0.524   3.139   9.241  1.0669  0.5071  0.3214
  476TIP3    H122987   0.619   3.147   9.238  0.9470  2.2359  0.0430
  476TIP3    H222988   0.499   3.186   9.320  0.3549  1.2812 -0.3503
  477TIP3   OH222989   5.166   3.859   9.414 -0.0109 -0.4349  0.3813
  477TIP3    H122990   5.200   3.947   9.426  0.7555 -0.6238 -0.3572
  477TIP3    H222991   5.235   3.812   9.367 -1.3246 -0.7716 -1.3280
  478TIP3   OH222992   2.010   0.508   8.298  0.8103 -0.1310  0.2154
  478TIP3    H122993   1.997   0.603   8.296 -0.3560 -0.2639  0.3985
  478TIP3    H222994   2.005   0.480   8.207  0.5077 -0.0861  0.2182
  479TIP3   OH222995   1.291   5.043   9.520  0.0315 -0.5756 -0.2486
  479TIP3    H122996   1.240   5.114   9.559 -0.5724 -0.1834 -1.6746
  479TIP3    H222997   1.286   4.972   9.584 -1.6246 -0.2516  0.0253
  480TIP3   OH222998   3.982   4.807   0.390  0.2702  0.0534  0.0613
  480TIP3    H122999   4.040   4.783   0.463  0.7030  0.9126  0.0199
  480TIP3    H223000   3.951   4.724   0.355  1.2545 -0.4181  0.2799
  481TIP3   OH223001   2.386   4.170   1.395  0.1779  0.2559  0.3162
  481TIP3    H123002   2.441   4.228   1.342 -2.0426  0.8757 -1.4770
  481TIP3    H223003   2.297   4.189   1.367 -0.7580 -3.4497  0.2499
  482TIP3   OH223004   1.455   3.401   0.468 -0.1566  0.2152  0.2043
  482TIP3    H123005   1.419   3.473   0.520 -1.6162  0.7355 -1.4430
  482TIP3    H223006   1.440   3.427   0.377  0.8001 -1.4252 -0.4619
  483TIP3   OH223007   0.480   4.414   0.986 -0.2131 -0.2803  0.8899
  483TIP3    H123008   0.405   4.358   1.004 -0.6595  0.6364  1.9835
  483TIP3    H223009   0.443   4.491   0.943  0.2220 -0.2265  0.6046
  484TIP3   OH223010   1.148   5.374   7.270  0.1666 -0.0916  0.0976
  484TIP3    H123011   1.190   5.328   7.343  1.5970 -1.2297 -1.3767
  484TIP3    H223012   1.133   5.463   7.304 -0.5281 -0.9508  2.2318
  485TIP3   OH223013   2.032   2.837   0.005  0.4143  0.2170  0.7868
  485TIP3    H123014   2.115   2.850  -0.041  0.3786 -0.8434  0.3842
  485TIP3    H223015   2.057   2.793   0.086  0.2036 -0.5873  0.4209
  486TIP3   OH223016   5.331   3.328   0.846 -0.3605  0.2673 -0.4106
  486TIP3    H123017   5.406   3.272   0.868 -1.8510 -1.3618  0.8021
  486TIP3    H223018   5.360   3.416   0.868  1.6612 -0.1193 -1.2698
  487TIP3   OH223019   0.657   0.543   9.156 -0.1878  0.0875 -0.0985
  487TIP3    H123020   0.731   0.599   9.179 -0.7445  1.2573 -1.0079
  487TIP3    H223021   0.659   0.539   9.060 -1.4760  0.4129 -0.1578
  488TIP3   OH223022   6.401   0.708   8.669  0.4616 -0.1828  0.2253
  488TIP3    H123023   6.354   0.627   8.689 -0.9787  0.5968  0.1390
  488TIP3    H223024   6.430   0.697   8.578 -0.4511 -0.2776 -0.0624
  489TIP3   OH223025   1.496   5.142   8.808  0.2742  0.5238 -0.0118
  489TIP3    H123026   1.555   5.161   8.881  0.6916  0.5157 -0.3433
  489TIP3    H223027   1.552   5.102   8.741  0.0157  1.0927 -0.5815
  490TIP3   OH223028   1.315   2.758   7.214 -0.2599  0.5591 -0.3821
  490TIP3    H123029   1.232   2.715   7.233  0.8887 -1.4405  0.4280
  490TIP3    H223030   1.318   2.833   7.274 -1.3202  0.4832 -0.2232
  491TIP3   OH223031   3.649   3.586   1.404  0.1011  1.0462  0.2258
  491TIP3    H123032   3.706   3.662   1.412  1.7528 -0.1664  0.4154
  491TIP3    H223033   3.583   3.612   1.339  1.7617  1.9891 -1.1622
  492TIP3   OH223034   4.466   5.191   1.055 -0.0986  0.0507 -0.2624
  492TIP3    H123035   4.422   5.123   1.004 -0.2769  0.0252 -0.0766
  492TIP3    H223036   4.560   5.174   1.043 -0.0379 -2.2764  2.4243
  493TIP3   OH223037   1.288   4.245   1.972 -0.3032  0.6583  0.3683
  493TIP3    H123038   1.217   4.204   2.022 -0.4104  0.1227 -0.2052
  493TIP3    H223039   1.322   4.313   2.029 -0.8185  0.4500  0.9303
  494TIP3   OH223040   3.603   0.925   2.305  0.1649  0.1932 -0.0706
  494TIP3    H123041   3.639   0.995   2.251 -1.0793  0.4000 -0.6564
  494TIP3    H223042   3.522   0.961   2.341 -0.4403 -0.9097 -0.2964
  495TIP3   OH223043   0.393   3.528   0.913  0.1003  0.2632 -0.3071
  495TIP3    H123044   0.340   3.561   0.840  0.8223 -0.9079 -1.4062
  495TIP3    H223045   0.366   3.436   0.921  1.8155 -0.3116 -0.7865
  496TIP3   OH223046   6.322   4.179   1.508  0.0312  0.2357  0.2778
  496TIP3    H123047   6.231   4.180   1.479  0.4905  2.3661 -1.3618
  496TIP3    H223048   6.323   4.235   1.585  0.1166  1.3423 -0.4933
  497TIP3   OH223049   4.641   0.911   0.562 -0.2418  0.5615  0.1165
  497TIP3    H123050   4.637   0.999   0.526 -1.1485  1.0094  1.2647
  497TIP3    H223051   4.711   0.915   0.627 -1.5196  0.9698  1.5044
  498TIP3   OH223052   3.394   2.233   8.226  0.1339  0.7053  0.8958
  498TIP3    H123053   3.490   2.234   8.225  0.1413  1.3059  1.3107
  498TIP3    H223054   3.371   2.270   8.311 -0.4661  2.7700 -0.1029
  499TIP3   OH223055   4.857   6.195   1.985  0.5126  0.1772 -0.6741
  499TIP3    H123056   4.831   6.118   1.934  0.9531 -1.7171  1.7491
  499TIP3    H223057   4.845   6.168   2.076  1.4235  2.7451  0.2934
  500TIP3   OH223058   1.670   6.144   0.836  0.0158  0.3092  0.2744
  500TIP3    H123059   1.730   6.115   0.766  0.9364  0.9402  0.7863
  500TIP3    H223060   1.682   6.239   0.840  0.5681  0.1956  1.8209
  501TIP3   OH223061   2.497   3.889   9.501 -0.0732  0.0259  0.0478
  501TIP3    H123062   2.523   3.949   9.431 -1.8572  0.3509 -0.3883
  501TIP3    H223063   2.481   3.806   9.457  0.7627 -0.3154  0.3900
  502TIP3   OH223064   6.461   0.671   6.836  0.8430 -0.0359  0.0831
  502TIP3    H123065   6.504   0.609   6.894 -1.7092 -1.3278  0.7512
  502TIP3    H223066   6.453   0.751   6.888  2.8183  0.4210 -0.2522
  503TIP3   OH223067   4.098   0.226   2.064 -0.0806  0.6963 -0.2056
  503TIP3    H123068   4.146   0.159   2.111 -1.0327  1.2522  1.6449
  503TIP3    H223069   4.102   0.199   1.972  0.3371 -1.3773  0.3830
  504TIP3   OH223070   1.883   3.139   7.760 -0.5641 -0.3562 -0.5168
  504TIP3    H123071   1.796   3.142   7.799 -0.1669  0.3229  0.3370
  504TIP3    H223072   1.944   3.146   7.834  0.2021  0.5219 -1.2016
  505TIP3   OH223073   2.781   2.141   7.518  0.4511 -0.0548 -0.3621
  505TIP3    H123074   2.808   2.135   7.610 -1.2103 -0.7777  0.1170
  505TIP3    H223075   2.730   2.062   7.503 -0.2463  0.6032 -1.5946
  506TIP3   OH223076   2.405   4.894   9.402  0.1920 -0.4064 -0.1914
  506TIP3    H123077   2.341   4.962   9.381 -0.8843 -0.6752  1.9519
  506TIP3    H223078   2.490   4.934   9.382 -0.4023  1.5790  0.9523
  507TIP3   OH223079   0.408   4.586   1.651  0.0229 -0.1642  0.1622
  507TIP3    H123080   0.439   4.644   1.581  0.5053 -1.3954 -0.6902
  507TIP3    H223081   0.428   4.498   1.619 -0.0067 -0.7779  1.7379
  508TIP3   OH223082   4.896   5.809   9.085  0.1974 -0.1523 -0.4648
  508TIP3    H123083   4.975   5.793   9.034 -0.4418 -0.4328 -1.3986
  508TIP3    H223084   4.865   5.894   9.054  1.6124  1.3078  1.8809
  509TIP3   OH223085   2.580   1.007   9.450 -0.4459 -0.2321  0.6027
  509TIP3    H123086   2.598   1.101   9.445  0.7904 -0.4190  1.2758
  509TIP3    H223087   2.551   0.992   9.540  0.5460 -0.6697  0.8661
  510TIP3   OH223088   0.717   6.318   7.714  0.1767  0.0286  0.1606
  510TIP3    H123089   0.696   6.276   7.631 -2.3769 -0.7980  1.1308
  510TIP3    H223090   0.792   6.375   7.694  0.1751 -0.7592 -2.4678
  511TIP3   OH223091   4.728   5.578   8.722 -0.0007  0.4851  0.4493
  511TIP3    H123092   4.736   5.623   8.806 -0.2475  2.0967 -0.3684
  511TIP3    H223093   4.648   5.613   8.683  0.4302  0.2047 -0.7239
  512TIP3   OH223094   0.186   0.355   0.719 -0.5811  0.1446  0.4017
  512TIP3    H123095   0.264   0.340   0.666 -0.2974  0.1639  0.8106
  512TIP3    H223096   0.129   0.408   0.664 -0.3802 -0.0221  0.0339
  513TIP3   OH223097   3.008   5.204   8.933  0.2378  0.2363  0.4901
  513TIP3    H123098   3.033   5.143   9.002 -0.7293 -0.1919  0.4852
  513TIP3    H223099   3.016   5.154   8.852 -1.8747 -0.3818  0.5938
  514TIP3   OH223100   2.830   3.815   1.548 -0.5387 -0.1483 -0.0773
  514TIP3    H123101   2.802   3.899   1.584  0.0461  0.1979 -0.3991
  514TIP3    H223102   2.798   3.815   1.458  0.8041  0.4309 -0.5785
  515TIP3   OH223103   2.142   6.182   0.776 -0.1936  0.4718 -0.3957
  515TIP3    H123104   2.217   6.222   0.732  0.4745  0.2088  0.4891
  515TIP3    H223105   2.145   6.090   0.750  0.0704  0.3631  0.0136
  516TIP3   OH223106   5.406   1.244   7.142 -0.0361 -0.3805 -0.3080
  516TIP3    H123107   5.348   1.176   7.107  1.2579 -1.3938 -0.5668
  516TIP3    H223108   5.389   1.244   7.236  1.2712 -2.4453 -0.0088
  517TIP3   OH223109   4.531   0.601   8.724 -0.4123 -0.1675 -0.1290
  517TIP3    H123110   4.464   0.611   8.656  0.8166 -0.0203 -1.3482
  517TIP3    H223111   4.574   0.687   8.728  1.1008 -0.8563 -0.8923
  518TIP3   OH223112   1.010   5.269   1.492 -0.2200 -0.1578  0.5190
  518TIP3    H123113   0.926   5.243   1.455  1.1756 -0.6384 -2.6835
  518TIP3    H223114   1.001   5.363   1.509 -0.9577  0.1487 -1.3245
  519TIP3   OH223115   4.163   0.053   0.571 -0.4537 -0.4032  0.5240
  519TIP3    H123116   4.237   0.025   0.625  0.3139 -1.0831 -0.8186
  519TIP3    H223117   4.184   0.143   0.546 -0.7265 -0.1471  1.2032
  520TIP3   OH223118   2.802   1.968   8.584  0.1427  0.6731 -0.1404
  520TIP3    H123119   2.739   2.034   8.615  0.1391  0.6376 -0.0708
  520TIP3    H223120   2.813   1.987   8.491  0.3326  0.9287 -0.0674
  521TIP3   OH223121   4.014   2.975   0.895 -0.3996  0.3803  0.5943
  521TIP3    H123122   4.075   3.034   0.850 -1.9425 -0.8154 -3.4890
  521TIP3    H223123   4.049   2.887   0.878 -1.1763 -0.1685  1.6970
  522TIP3   OH223124   1.680   3.954   2.422  0.0989 -0.2166  0.7453
  522TIP3    H123125   1.660   3.873   2.468 -3.0952  0.5961  1.0543
  522TIP3    H223126   1.704   4.016   2.490 -0.8353 -0.0470  0.9428
  523TIP3   OH223127   5.503   1.830   1.165  0.2809  0.1831 -0.4603
  523TIP3    H123128   5.496   1.853   1.072 -1.1732 -0.3399 -0.5019
  523TIP3    H223129   5.582   1.777   1.171 -0.8083 -1.6873 -1.8279
  524TIP3   OH223130   6.312   3.534   1.979  0.1249 -0.1939 -0.7494
  524TIP3    H123131   6.393   3.556   2.025  0.7430  1.1646 -2.4032
  524TIP3    H223132   6.245   3.588   2.019  0.7456  1.3144 -1.6613
  525TIP3   OH223133   1.191   0.815   9.071  0.7385  0.0293  0.0473
  525TIP3    H123134   1.226   0.762   9.143  1.7639  0.3304 -0.2204
  525TIP3    H223135   1.191   0.905   9.104 -1.4383 -0.1309  0.6720
  526TIP3   OH223136   6.361   0.880   7.034 -0.4278  0.2027  0.0385
  526TIP3    H123137   6.279   0.917   7.000 -0.9826 -1.1135 -0.0977
  526TIP3    H223138   6.420   0.956   7.041 -1.8166  1.2816  0.6771
  527TIP3   OH223139   0.712   0.151   1.611 -0.2610 -0.4623 -0.2114
  527TIP3    H123140   0.754   0.151   1.697  0.1268 -0.6556 -0.3980
  527TIP3    H223141   0.635   0.206   1.622 -1.2453 -1.9371  0.7587
  528TIP3   OH223142   0.254   5.509   9.040  0.2980  0.1517  0.1262
  528TIP3    H123143   0.259   5.599   9.069  0.0861  0.1623  0.1339
  528TIP3    H223144   0.230   5.459   9.118 -0.9208  0.2645 -0.1499
  529TIP3   OH223145   6.031   5.628   0.431  0.2034  0.2540 -0.3860
  529TIP3    H123146   5.957   5.569   0.422 -0.3228  1.0056 -1.0751
  529TIP3    H223147   6.104   5.571   0.456  0.0121 -0.8820 -2.2574
  530TIP3   OH223148   0.024   4.363   0.181 -0.3825 -0.6040 -0.1229
  530TIP3    H123149  -0.058   4.320   0.206  0.0603 -0.6678  1.2810
  530TIP3    H223150   0.092   4.299   0.202  0.1145 -0.0858 -0.1297
  531TIP3   OH223151   2.855   6.300   2.442 -0.3565  0.2099 -0.0218
  531TIP3    H123152   2.830   6.211   2.467  0.7781 -0.0426  0.2517
  531TIP3    H223153   2.950   6.303   2.456 -0.3511  1.3879 -0.2629
  532TIP3   OH223154   3.369   1.506   7.388 -0.0036  0.5206  0.1403
  532TIP3    H123155   3.344   1.461   7.307 -0.7084  0.2419  0.5067
  532TIP3    H223156   3.286   1.537   7.425  0.3496  0.9639  0.5686
  533TIP3   OH223157   4.090   0.414   1.621  0.3864 -0.0212  0.6527
  533TIP3    H123158   4.004   0.422   1.579  0.5467  1.7942  0.5952
  533TIP3    H223159   4.076   0.447   1.710  0.5673 -1.7017  1.3256
  534TIP3   OH223160   0.630   4.358   7.631  0.2869  0.5160  0.0272
  534TIP3    H123161   0.706   4.301   7.642  1.1915  1.5912 -0.4548
  534TIP3    H223162   0.666   4.447   7.635 -1.0416  1.0589  0.4623
  535TIP3   OH223163   3.875   2.973   1.437  0.0956 -0.6243  0.1744
  535TIP3    H123164   3.844   2.910   1.372 -1.6395  0.5101 -0.1723
  535TIP3    H223165   3.805   3.039   1.442  1.4701  0.8449  1.0983
  536TIP3   OH223166   2.089   6.100   0.264  0.6633  0.3536  0.0495
  536TIP3    H123167   2.055   6.181   0.303  2.1731  0.2095  1.8140
  536TIP3    H223168   2.184   6.110   0.267  0.8633 -0.3909 -2.2013
  537TIP3   OH223169   2.473   2.970   2.457  0.3989 -0.2462  0.2378
  537TIP3    H123170   2.562   2.997   2.479 -0.4966  1.2315  2.3852
  537TIP3    H223171   2.419   3.048   2.472 -1.5186 -1.6226  0.9932
  538TIP3   OH223172   1.638   3.067   0.422  0.2493 -0.3072 -0.1214
  538TIP3    H123173   1.696   3.143   0.425  0.1182 -0.2110  0.0184
  538TIP3    H223174   1.606   3.064   0.332 -1.2485  0.9474  0.3246
  539TIP3   OH223175   0.894   1.581   1.205 -0.0980 -0.2262  0.1269
  539TIP3    H123176   0.870   1.546   1.290 -1.2927  2.4618  0.9954
  539TIP3    H223177   0.821   1.638   1.180  1.1713  0.7181 -1.6939
  540TIP3   OH223178   0.519   1.710   8.872 -0.1452 -0.2271  0.0945
  540TIP3    H123179   0.557   1.797   8.884  0.2728 -0.3634 -0.2426
  540TIP3    H223180   0.446   1.708   8.934  1.3103 -0.5109  1.8785
  541TIP3   OH223181   2.154   5.245   1.955 -0.1773  0.1036  0.4249
  541TIP3    H123182   2.210   5.321   1.939 -0.3265  0.5592  1.9313
  541TIP3    H223183   2.143   5.205   1.868 -1.4619  2.7449 -0.7625
  542TIP3   OH223184   5.362   0.199   7.561  1.1746 -0.3518 -0.2152
  542TIP3    H123185   5.304   0.274   7.548  2.1049  0.3536 -0.4094
  542TIP3    H223186   5.380   0.167   7.473 -0.1207 -1.5329 -0.0793
  543TIP3   OH223187   4.216   3.771   8.342 -0.3086 -0.3801 -0.1318
  543TIP3    H123188   4.177   3.835   8.284 -0.6820  0.2893  0.8335
  543TIP3    H223189   4.251   3.822   8.415  1.2178 -1.0809 -0.3349
  544TIP3   OH223190   4.238   5.693   2.161  0.2908 -0.4838  0.3369
  544TIP3    H123191   4.217   5.599   2.164 -3.4181 -0.1431 -3.9424
  544TIP3    H223192   4.197   5.729   2.239  0.7406 -2.1969  1.4326
  545TIP3   OH223193   1.757   5.237   1.306  0.7948 -0.0899 -0.3180
  545TIP3    H123194   1.817   5.162   1.314  0.2568 -0.3915  1.3374
  545TIP3    H223195   1.806   5.311   1.342 -0.2312 -0.6234  2.4251
  546TIP3   OH223196   5.696   4.988   7.711 -0.1650 -0.1916  0.1668
  546TIP3    H123197   5.771   5.045   7.730 -0.2385 -0.4128  1.1690
  546TIP3    H223198   5.728   4.929   7.642  0.3741  0.1263  0.1381
  547TIP3   OH223199   0.007   2.174   1.937  0.0218 -0.1786 -0.5831
  547TIP3    H123200   0.069   2.225   1.886  3.7078  0.2187  3.6746
  547TIP3    H223201  -0.057   2.238   1.968  0.5291  0.4907 -0.8959
  548TIP3   OH223202   4.267   2.132   8.467 -0.4802 -0.0040 -0.1105
  548TIP3    H123203   4.311   2.116   8.550  1.3439  0.6909 -0.8683
  548TIP3    H223204   4.192   2.187   8.489  1.9128  3.2090  0.8155
  549TIP3   OH223205   5.206   5.882   9.213  0.9146  0.5642  0.6554
  549TIP3    H123206   5.264   5.832   9.271  0.7969  0.4707  0.6934
  549TIP3    H223207   5.176   5.818   9.148  1.2268  0.7206  0.3524
  550TIP3   OH223208   6.495   4.750   0.776 -0.0568  1.0097 -0.3754
  550TIP3    H123209   6.558   4.761   0.848 -1.1802 -0.5709  0.9190
  550TIP3    H223210   6.507   4.659   0.748 -2.4766  0.2779  0.6842
  551TIP3   OH223211   3.456   5.286   7.397  0.8787 -0.1757 -0.1488
  551TIP3    H123212   3.397   5.270   7.470 -0.6455 -0.1029 -1.3136
  551TIP3    H223213   3.497   5.371   7.417  2.1555 -1.1403  1.6345
  552TIP3   OH223214   3.816   5.070   0.841 -0.5257  0.4933 -0.1282
  552TIP3    H123215   3.771   4.992   0.875  1.2693 -0.1773  0.8180
  552TIP3    H223216   3.818   5.056   0.746  1.7434 -1.8391  0.1389
  553TIP3   OH223217   2.906   5.990   7.395  0.7068 -0.5877  0.7063
  553TIP3    H123218   2.898   6.052   7.322 -0.9875  0.4096  1.6779
  553TIP3    H223219   2.963   5.921   7.361 -2.2283 -1.6964 -2.6459
  554TIP3   OH223220   2.322   4.557   0.854 -0.3254 -0.5218  0.4630
  554TIP3    H123221   2.268   4.621   0.807  0.8673  1.4270  1.6092
  554TIP3    H223222   2.292   4.563   0.945  2.0518  1.0287  1.2485
  555TIP3   OH223223   0.738   0.077   1.040 -0.0483  0.0754  0.1966
  555TIP3    H123224   0.746   0.056   1.133  1.6042 -0.2154  0.0269
  555TIP3    H223225   0.800   0.017   0.997 -0.7792  0.2081 -1.0921
  556TIP3   OH223226   2.830   4.749   1.918 -0.1813  0.2116  0.6544
  556TIP3    H123227   2.761   4.701   1.872 -1.4149  1.5571  1.0374
  556TIP3    H223228   2.795   4.762   2.006  0.2575  1.5204  0.6522
  557TIP3   OH223229   5.430   5.771   0.691 -0.1211 -0.0254 -0.8246
  557TIP3    H123230   5.472   5.689   0.665 -0.3686 -0.8318  1.1034
  557TIP3    H223231   5.498   5.818   0.739 -0.8848 -0.6852  1.0365
  558TIP3   OH223232   1.913   2.364   0.148  0.1996  0.1955 -0.0805
  558TIP3    H123233   1.914   2.269   0.137 -2.1538  0.0510  0.4277
  558TIP3    H223234   1.869   2.378   0.232  0.4860  1.7330 -0.1605
  559TIP3   OH223235   3.371   5.767   1.678  0.3044 -0.1974  0.2344
  559TIP3    H123236   3.402   5.798   1.763 -0.3758  0.7196  0.1735
  559TIP3    H223237   3.441   5.793   1.617 -0.2432  1.2636  0.1895
  560TIP3   OH223238   1.584   1.723   8.873 -0.1151 -0.0461  0.8381
  560TIP3    H123239   1.572   1.694   8.964  1.4218 -0.9636  0.7822
  560TIP3    H223240   1.626   1.809   8.881 -0.2560  0.0061  1.0082
  561TIP3   OH223241   1.113   0.736   8.270  0.0736 -0.1142 -0.5056
  561TIP3    H123242   1.104   0.717   8.177 -0.7908  1.6383 -0.8276
  561TIP3    H223243   1.134   0.829   8.273 -0.8109  0.0675  1.0715
  562TIP3   OH223244   2.003   3.163   8.015  0.1492  0.2967  0.2553
  562TIP3    H123245   1.956   3.247   8.015 -1.6270 -0.6491 -0.2082
  562TIP3    H223246   1.951   3.107   8.073 -1.6253 -1.9624 -3.1770
  563TIP3   OH223247   2.042   4.135   2.114  0.1574  0.1282 -0.0810
  563TIP3    H123248   2.013   4.057   2.066  0.7989  0.0346 -0.3160
  563TIP3    H223249   2.084   4.100   2.193 -0.5037  0.2696  0.3431
  564TIP3   OH223250   3.074   1.137   6.818  0.1857  0.3912  0.0065
  564TIP3    H123251   3.067   1.054   6.773 -2.8677 -0.1177  1.1821
  564TIP3    H223252   3.149   1.181   6.778  0.9100 -2.2424 -1.7016
  565TIP3   OH223253   3.431   6.027   1.923  0.9342  0.1835  0.6206
  565TIP3    H123254   3.507   6.033   1.865  2.7432  1.2298  2.9796
  565TIP3    H223255   3.418   6.115   1.956 -2.1725  0.3188 -0.6401
  566TIP3   OH223256   6.130   2.101   7.614  0.0765  0.2264 -0.3567
  566TIP3    H123257   6.166   2.176   7.660 -0.1651  2.4935 -3.5848
  566TIP3    H223258   6.201   2.071   7.557 -0.6953 -0.2149 -1.1100
  567TIP3   OH223259   4.327   4.653   1.678  0.0466 -0.3680 -0.8491
  567TIP3    H123260   4.376   4.732   1.656 -0.5470  0.0516 -0.6898
  567TIP3    H223261   4.281   4.675   1.759 -0.7050 -0.6229 -1.1954
  568TIP3   OH223262   1.239   0.323   7.086 -0.2539 -0.1293 -0.0705
  568TIP3    H123263   1.316   0.270   7.111  1.0290  0.5330 -2.3354
  568TIP3    H223264   1.267   0.413   7.101 -1.2080  0.0697  0.5752
  569TIP3   OH223265   1.306   0.323   0.890 -0.3131  0.4259  0.0243
  569TIP3    H123266   1.392   0.344   0.854 -0.3847  0.1423 -0.3142
  569TIP3    H223267   1.289   0.393   0.953  0.9947 -0.5318  1.5308
  570TIP3   OH223268   4.278   5.819   8.737  0.5485 -0.6527  0.6123
  570TIP3    H123269   4.207   5.875   8.704 -1.5178 -2.7064  1.2644
  570TIP3    H223270   4.262   5.815   8.831  2.5653  0.1250  1.0199
  571TIP3   OH223271   0.288   5.312   8.503 -0.0181  0.5795  0.3244
  571TIP3    H123272   0.194   5.299   8.509  0.1266 -3.7874 -2.4444
  571TIP3    H223273   0.301   5.358   8.419  0.3153 -0.0465  0.0223
  572TIP3   OH223274   2.151   6.499   8.694  0.2318  0.4883  0.2236
  572TIP3    H123275   2.224   6.561   8.703 -0.3004  1.0310  0.8749
  572TIP3    H223276   2.074   6.548   8.723 -0.3715 -0.1356 -0.2893
  573TIP3   OH223277   3.097   5.820   0.596  0.5739 -0.5647 -0.4719
  573TIP3    H123278   3.036   5.871   0.542 -0.1061  0.9973  1.6440
  573TIP3    H223279   3.040   5.762   0.647  0.6044  1.5150  2.1638
  574TIP3   OH223280   1.890   2.305   7.833 -0.2040  0.0322  0.0200
  574TIP3    H123281   1.894   2.348   7.748  0.3859 -2.6853 -1.4455
  574TIP3    H223282   1.796   2.305   7.855 -0.2912  1.3448 -0.2481
  575TIP3   OH223283   2.482   3.640   2.425  0.3311  0.8121  0.0856
  575TIP3    H123284   2.541   3.569   2.399  0.1837  1.4142 -2.1262
  575TIP3    H223285   2.504   3.657   2.517  1.5818 -0.8988  0.1540
  576TIP3   OH223286   4.761   5.110   6.828 -0.0061 -0.5284 -0.1219
  576TIP3    H123287   4.763   5.135   6.920 -0.5503 -0.8091 -0.0280
  576TIP3    H223288   4.820   5.171   6.785 -1.5737  1.1758  0.0360
  577TIP3   OH223289   2.042   2.836   7.250  0.0901  0.1295  0.2302
  577TIP3    H123290   2.100   2.797   7.184 -2.6775 -2.5707 -0.7999
  577TIP3    H223291   1.985   2.895   7.200  1.5676  2.5578  1.2021
  578TIP3   OH223292   3.927   5.733   9.381 -0.5415 -0.2818 -0.2687
  578TIP3    H123293   3.944   5.649   9.422 -2.2645 -0.9266 -0.7944
  578TIP3    H223294   3.930   5.714   9.287  0.1169  0.4867 -0.4165
  579TIP3   OH223295   3.616   6.175   1.315 -0.1897 -0.0285 -0.2666
  579TIP3    H123296   3.581   6.098   1.359 -2.7595 -0.6928 -3.1197
  579TIP3    H223297   3.558   6.246   1.342  1.0671  0.6003  0.9230
  580TIP3   OH223298   3.770   3.971   7.801  0.6617  0.6855 -0.6339
  580TIP3    H123299   3.781   4.041   7.737  4.6902  0.8253 -0.0817
  580TIP3    H223300   3.838   3.907   7.778  0.7280 -0.3803  2.0990
  581TIP3   OH223301   5.217   3.242   9.585  0.2528  0.9073  0.2847
  581TIP3    H123302   5.220   3.329   9.624  0.9862  1.7502 -1.5555
  581TIP3    H223303   5.141   3.244   9.527  0.1970  0.2707  0.3258
  582TIP3   OH223304   5.948   5.691   8.732  0.3750 -0.6458 -0.3376
  582TIP3    H123305   5.856   5.667   8.720 -0.5972  1.8732  1.3482
  582TIP3    H223306   5.949   5.786   8.729  2.6054 -0.5115  1.5997
  583TIP3   OH223307   2.228   6.388   1.446 -0.2603  0.2455 -0.4282
  583TIP3    H123308   2.137   6.368   1.468 -0.0549 -1.1142 -0.7159
  583TIP3    H223309   2.260   6.309   1.402  0.8489  0.9742 -0.9836
  584TIP3   OH223310   1.358   0.425   3.245 -0.1472 -0.5708 -0.0418
  584TIP3    H123311   1.280   0.481   3.249  0.3783  0.4436 -2.3641
  584TIP3    H223312   1.334   0.355   3.184  0.4567 -0.7570 -0.0707
  585TIP3   OH223313   4.450   5.951   9.405  0.0263 -0.2218 -0.2397
  585TIP3    H123314   4.494   5.987   9.328  0.9636 -0.1624  0.3127
  585TIP3    H223315   4.462   6.017   9.473  0.8735 -1.1132  0.4941
  586TIP3   OH223316   1.189   0.265   1.904 -0.3639  0.1873 -0.3873
  586TIP3    H123317   1.134   0.304   1.971  1.6318 -0.1864  1.6034
  586TIP3    H223318   1.236   0.339   1.865 -1.5964  0.4155 -1.4885
  587TIP3   OH223319   2.690   1.492   9.418  0.3427  0.2673 -0.0005
  587TIP3    H123320   2.687   1.545   9.338  0.7178 -1.3572 -1.1418
  587TIP3    H223321   2.735   1.548   9.482 -1.2217  2.1511 -0.4455
  588TIP3   OH223322   2.646   5.649   0.044 -0.6403 -0.2196 -0.0419
  588TIP3    H123323   2.705   5.706   0.093  1.6694  0.3699 -3.1916
  588TIP3    H223324   2.679   5.560   0.060 -0.8608 -0.1797  0.6428
  589TIP3   OH223325   3.571   2.402   2.370 -0.3749  0.0015  0.0512
  589TIP3    H123326   3.562   2.309   2.390 -2.0434 -0.7179 -3.3845
  589TIP3    H223327   3.482   2.435   2.364  0.0208  0.8618 -2.3840
  590TIP3   OH223328   4.888   3.356   0.835  0.7880  0.0002  0.2578
  590TIP3    H123329   4.875   3.271   0.793 -2.1654  0.8772 -0.8257
  590TIP3    H223330   4.869   3.420   0.766  0.9240  1.5313  1.5926
  591TIP3   OH223331   0.559   3.538   9.099 -0.4124  0.6271  0.4053
  591TIP3    H123332   0.565   3.533   9.195 -0.8383 -0.3463  0.3881
  591TIP3    H223333   0.530   3.628   9.082 -0.9103  0.6299  1.2211
  592TIP3   OH223334   4.054   0.449   9.095 -0.2149  0.3738 -0.8193
  592TIP3    H123335   4.122   0.467   9.159  0.5861 -0.1948 -1.4966
  592TIP3    H223336   4.100   0.410   9.021 -1.5068 -1.9734 -0.4862
  593TIP3   OH223337   0.097   0.501   7.042  0.2332  0.0712 -0.6532
  593TIP3    H123338   0.140   0.500   7.128 -1.8018 -0.3665  0.4289
  593TIP3    H223339   0.082   0.408   7.022 -3.5558  0.1595  0.8944
  594TIP3   OH223340   2.545   1.902   6.932 -0.0838 -0.1372 -0.3329
  594TIP3    H123341   2.472   1.944   6.887 -0.2227 -0.6817 -0.6225
  594TIP3    H223342   2.568   1.827   6.876  3.1137  2.0521 -2.2844
  595TIP3   OH223343   2.620   5.833   1.113 -0.2825 -0.3907 -0.0957
  595TIP3    H123344   2.623   5.777   1.190 -2.0152  0.1934  0.4493
  595TIP3    H223345   2.709   5.830   1.078  0.1093 -2.0668  0.8986
  596TIP3   OH223346   5.360   3.797   1.202  0.9067  0.0102 -0.0117
  596TIP3    H123347   5.313   3.779   1.121  0.8632 -1.6103  0.3439
  596TIP3    H223348   5.301   3.768   1.271  1.6604 -0.3234  0.5104
  597TIP3   OH223349   4.716   1.007   7.891  0.4155 -0.5065 -0.3710
  597TIP3    H123350   4.662   1.086   7.902 -1.2131 -1.4992 -0.7896
  597TIP3    H223351   4.657   0.944   7.848  2.3436 -1.2350 -2.0990
  598TIP3   OH223352   5.482   5.162   7.664  0.8888 -0.1821  0.0026
  598TIP3    H123353   5.479   5.209   7.747  2.6010  0.4191 -0.2217
  598TIP3    H223354   5.530   5.081   7.685  1.8783  0.2619 -0.5083
  599TIP3   OH223355   6.052   4.262   9.170 -0.3272  0.0081  0.2248
  599TIP3    H123356   6.099   4.183   9.197 -1.1946 -0.7396 -0.3831
  599TIP3    H223357   6.028   4.305   9.252  0.5088 -0.1310  0.5564
  600TIP3   OH223358   3.083   6.525   1.952 -0.2992  0.1189 -0.2028
  600TIP3    H123359   3.129   6.479   2.022 -1.1988 -0.7419 -0.1534
  600TIP3    H223360   3.146   6.532   1.881  1.4468  3.0489  1.4174
  601TIP3   OH223361   1.734   3.761   8.486 -0.0020  0.2708 -0.4818
  601TIP3    H123362   1.788   3.728   8.414 -1.1636  0.4673 -1.4907
  601TIP3    H223363   1.767   3.850   8.502 -0.0525  0.4182 -1.1431
  602TIP3   OH223364   1.853   6.456   8.374  0.4366  0.6598 -0.0246
  602TIP3    H123365   1.892   6.533   8.332  2.5946 -0.8152 -0.8851
  602TIP3    H223366   1.833   6.397   8.301 -5.0762  1.7929  0.0991
  603TIP3   OH223367   3.562   5.555   0.537  0.2797 -0.6538 -0.0341
  603TIP3    H123368   3.474   5.593   0.537 -0.6586 -2.6457  1.2401
  603TIP3    H223369   3.575   5.525   0.627  0.4970 -4.0714 -1.0490
  604TIP3   OH223370   2.330   1.218   0.062  0.4147 -0.4279  0.2223
  604TIP3    H123371   2.238   1.242   0.051  0.4538 -0.2807  0.2141
  604TIP3    H223372   2.377   1.271  -0.003  0.4715 -0.7361  0.0081
  605TIP3   OH223373   6.429   5.938   7.670 -0.1120 -0.4773  0.4221
  605TIP3    H123374   6.350   5.918   7.620  1.1119 -0.1965 -1.7435
  605TIP3    H223375   6.430   6.034   7.676  0.9596 -0.3647 -1.1654
  606TIP3   OH223376   4.522   5.358   0.231 -0.3596  0.1118  0.0212
  606TIP3    H123377   4.489   5.447   0.225  1.0979  0.6132 -1.0293
  606TIP3    H223378   4.444   5.303   0.223 -1.4797  1.2614  2.0943
  607TIP3   OH223379   0.507   2.345   8.452  0.1230  0.0263 -0.2886
  607TIP3    H123380   0.580   2.329   8.392 -0.0853 -4.8253  0.3793
  607TIP3    H223381   0.470   2.428   8.422  3.0422  0.3933 -3.5959
  608TIP3   OH223382   0.055   3.589   1.860 -0.0873  0.8430 -0.4350
  608TIP3    H123383   0.077   3.505   1.820  1.4794  1.6660 -1.3898
  608TIP3    H223384   0.066   3.574   1.954  2.1000  0.4707 -0.7033
  609TIP3   OH223385   1.608   0.022   7.416 -0.6642 -0.1375 -0.5662
  609TIP3    H123386   1.690   0.070   7.407 -0.3349 -0.1713  1.7285
  609TIP3    H223387   1.635  -0.070   7.421 -0.8453 -0.1638  0.0016
  610TIP3   OH223388   1.526   3.866   0.703 -0.8082 -0.1866  0.7104
  610TIP3    H123389   1.480   3.891   0.623  0.5138 -2.3057 -0.8112
  610TIP3    H223390   1.609   3.913   0.699 -0.1685 -1.3230  0.0854
  611TIP3   OH223391   4.481   5.020   9.277  0.4891 -0.1995  0.0420
  611TIP3    H123392   4.431   5.045   9.199  0.0250  1.7192  0.9015
  611TIP3    H223393   4.551   4.963   9.243 -0.5877 -0.6430 -1.5472
  612TIP3   OH223394   4.650   6.336   0.916  0.6804  0.3119 -0.0781
  612TIP3    H123395   4.671   6.261   0.971 -1.3900 -1.1810 -1.1714
  612TIP3    H223396   4.606   6.397   0.975  3.5237  1.3665  1.1230
  613TIP3   OH223397   4.410   5.191   7.261  0.2100  0.6561  0.3259
  613TIP3    H123398   4.351   5.177   7.187 -0.9783  1.2297  1.1348
  613TIP3    H223399   4.442   5.103   7.283  0.6954  0.4997 -0.9362
  614TIP3   OH223400   0.984   5.664   0.253  0.7216  0.2452 -0.0599
  614TIP3    H123401   0.970   5.756   0.232  1.2824  0.3115 -0.1692
  614TIP3    H223402   0.899   5.632   0.283  0.3143  0.5714 -0.8636
  615TIP3   OH223403   4.661   5.459   9.295 -0.1832  0.0562 -0.2006
  615TIP3    H123404   4.688   5.406   9.220 -0.0564  0.1972 -0.2556
  615TIP3    H223405   4.669   5.399   9.370 -0.1831 -0.0460 -0.2815
  616TIP3   OH223406   2.473   2.404   0.237 -0.0617 -0.0272 -0.1884
  616TIP3    H123407   2.439   2.320   0.208  0.5914 -0.1434 -0.6484
  616TIP3    H223408   2.451   2.465   0.167  1.5108 -0.3068 -0.9830
  617TIP3   OH223409   1.799   4.204   1.828 -0.0253  0.0549 -0.3167
  617TIP3    H123410   1.785   4.262   1.753  0.3127 -0.1587 -0.5452
  617TIP3    H223411   1.824   4.264   1.899  0.5790  0.1730 -0.6194
  618TIP3   OH223412   4.376   5.069   7.970  0.1787 -0.4883 -0.0646
  618TIP3    H123413   4.461   5.078   7.927  0.9586 -0.5339  1.3916
  618TIP3    H223414   4.397   5.026   8.053 -1.1270  0.4623  0.7834
  619TIP3   OH223415   2.957   3.899   8.953  0.3101  0.2656 -0.2320
  619TIP3    H123416   2.935   3.980   8.907  1.3300 -0.2232 -1.6469
  619TIP3    H223417   2.896   3.896   9.027  0.6908  2.6499  0.2601
  620TIP3   OH223418   3.969   3.065   9.322 -0.5870  0.5211  0.3209
  620TIP3    H123419   4.002   2.980   9.350 -1.3754  0.5567  1.3935
  620TIP3    H223420   3.936   3.106   9.402  0.8411  2.3337  0.0541
  621TIP3   OH223421   2.257   2.274   0.423 -0.0273  0.2489  0.1300
  621TIP3    H123422   2.307   2.356   0.427  0.0310  0.1732  1.2761
  621TIP3    H223423   2.166   2.302   0.435 -0.1315  0.2493 -0.6090
  622TIP3   OH223424   1.172   1.580   2.300  0.1628 -0.5717 -0.5345
  622TIP3    H123425   1.241   1.556   2.237  1.1599 -1.2884  0.7890
  622TIP3    H223426   1.207   1.553   2.385 -2.4688 -2.6618  0.0156
  623TIP3   OH223427   2.273   4.288   2.347  0.0340 -0.1707 -0.2304
  623TIP3    H123428   2.320   4.319   2.424 -0.5790 -2.4827  1.1746
  623TIP3    H223429   2.229   4.365   2.312  1.9792  1.3349  0.4853
  624TIP3   OH223430   3.422   5.506   0.945 -0.6432  0.3264 -0.2609
  624TIP3    H123431   3.450   5.530   1.033  0.3730  1.1750 -0.7868
  624TIP3    H223432   3.357   5.572   0.922 -0.7530  0.2319 -0.2195
  625TIP3   OH223433   3.635   4.994   8.443  0.1972 -0.1799  0.0324
  625TIP3    H123434   3.718   5.041   8.432 -0.5737  0.9946 -1.1441
  625TIP3    H223435   3.652   4.907   8.408  1.1900 -0.2645  0.6831
  626TIP3   OH223436   2.731   2.854   0.390 -1.0123 -0.0254  0.2125
  626TIP3    H123437   2.734   2.834   0.296  1.1048  0.1753  0.1866
  626TIP3    H223438   2.694   2.775   0.430 -1.4046 -0.3409 -0.7339
  627TIP3   OH223439   0.446   1.717   8.588 -0.2505  0.5212  0.1419
  627TIP3    H123440   0.409   1.797   8.627  0.5048  0.3730  1.2068
  627TIP3    H223441   0.492   1.674   8.660  0.5799 -0.1467 -0.7571
  628TIP3   OH223442   1.612   3.618   7.786  0.0197  0.2674 -0.8571
  628TIP3    H123443   1.657   3.701   7.803  1.3476 -0.6008  0.0941
  628TIP3    H223444   1.639   3.561   7.858  0.6030 -1.5475 -2.4076
  629TIP3   OH223445   2.373   5.859   9.292  0.2244 -0.4481  0.2320
  629TIP3    H123446   2.377   5.829   9.383  2.3802  0.5092  0.5266
  629TIP3    H223447   2.332   5.787   9.244  0.4886 -1.6345  1.7209
  630TIP3   OH223448   0.115   0.042   0.985  0.0849  0.1376  0.6041
  630TIP3    H123449   0.196   0.009   0.947 -0.7556 -0.3942 -0.7953
  630TIP3    H223450   0.133   0.049   1.079  1.9374  0.6295  0.2447
  631TIP3   OH223451   0.590   1.634   1.221  0.6353 -0.5709  0.0422
  631TIP3    H123452   0.505   1.607   1.257  1.2278 -1.8103  0.5350
  631TIP3    H223453   0.572   1.721   1.184 -1.0437 -1.1283 -0.5788
  632TIP3   OH223454   2.808   3.695   9.439  0.0830  0.0988 -0.1297
  632TIP3    H123455   2.726   3.669   9.397 -0.4991  0.7572  0.5857
  632TIP3    H223456   2.813   3.790   9.426  0.6261  0.0913  0.0061
  633TIP3   OH223457   0.288   3.056   7.187  0.4262 -0.5001  0.2448
  633TIP3    H123458   0.196   3.033   7.171  0.3576 -1.4152  1.8258
  633TIP3    H223459   0.322   3.077   7.100 -1.3735  0.2768 -0.3301
  634TIP3   OH223460   0.477   3.078   8.362 -0.1656 -0.3680 -0.2084
  634TIP3    H123461   0.496   3.113   8.275  0.7663  0.1676  0.1981
  634TIP3    H223462   0.383   3.060   8.361 -0.3021  0.3620 -1.0647
  635TIP3   OH223463   2.789   2.695   0.813  0.4906  0.3069  0.2458
  635TIP3    H123464   2.858   2.749   0.851  0.7980 -0.0559  0.2153
  635TIP3    H223465   2.708   2.728   0.851  0.7097  0.5447  0.5076
  636TIP3   OH223466   4.376   0.011   9.543  0.0867  0.0764 -0.1265
  636TIP3    H123467   4.432  -0.023   9.473 -0.8443 -1.1766 -0.3012
  636TIP3    H223468   4.307  -0.055   9.553  0.3011  0.1205  2.1174
  637TIP3   OH223469   6.180   4.013   8.224 -0.5448  0.1694 -0.8935
  637TIP3    H123470   6.256   4.072   8.226 -1.6834  1.6744 -0.2204
  637TIP3    H223471   6.187   3.963   8.305  0.6917 -1.0488 -1.6926
  638TIP3   OH223472   3.954   2.730   0.092  0.0885  0.5314 -0.1575
  638TIP3    H123473   3.970   2.819   0.123  1.7195  0.0285  0.6225
  638TIP3    H223474   3.916   2.740   0.005  0.8495  1.9942 -0.3490
  639TIP3   OH223475   4.791   5.727   9.454  0.2443  0.0036 -0.0118
  639TIP3    H123476   4.768   5.676   9.377  1.7724 -1.2830  0.3475
  639TIP3    H223477   4.836   5.805   9.420  0.5909 -0.3812 -0.4352
  640TIP3   OH223478   2.925   4.220   7.922 -0.3827 -0.3013 -0.0909
  640TIP3    H123479   2.980   4.227   7.845  0.2902 -0.7157  0.3430
  640TIP3    H223480   2.951   4.137   7.963  0.5540  0.7389  1.5367
  641TIP3   OH223481   2.183   6.220   8.782  0.2285 -0.6537 -0.1854
  641TIP3    H123482   2.199   6.314   8.772  0.5426 -0.9371 -3.2712
  641TIP3    H223483   2.096   6.206   8.745  1.0459 -1.8077 -1.8256
  642TIP3   OH223484   1.083   4.094   1.588 -0.6961  0.3628  0.2147
  642TIP3    H123485   1.077   4.181   1.628  1.6183 -0.8617  3.6267
  642TIP3    H223486   1.002   4.050   1.613 -0.5197  0.5621  1.1740
  643TIP3   OH223487   0.786   4.005   1.135  0.3954  0.0207 -0.3489
  643TIP3    H123488   0.729   4.026   1.061 -0.1062 -2.2733 -0.6769
  643TIP3    H223489   0.735   4.030   1.212  0.8735  2.3152 -0.7092
  644TIP3   OH223490   1.967   6.003   7.708  0.9436  0.0220  0.0166
  644TIP3    H123491   1.928   6.037   7.789  0.2365  0.2039 -0.3995
  644TIP3    H223492   1.914   5.927   7.686  0.4660  0.5901 -0.8486
  645TIP3   OH223493   1.783   2.947   1.063 -0.2431 -0.0043  0.3026
  645TIP3    H123494   1.784   3.042   1.053 -0.7790 -0.0077  0.1418
  645TIP3    H223495   1.773   2.933   1.157  0.8419  0.0813  0.4402
  646TIP3   OH223496   5.884   4.627   7.995  0.1895 -0.0904  0.0164
  646TIP3    H123497   5.896   4.628   7.900 -0.1760 -0.7694 -0.0392
  646TIP3    H223498   5.795   4.660   8.008  0.0741 -0.4299  0.0942
  647TIP3   OH223499   0.669   1.517   0.432 -0.0588 -0.4387 -0.2862
  647TIP3    H123500   0.717   1.443   0.395  0.7441  0.5889 -1.3512
  647TIP3    H223501   0.704   1.594   0.387 -0.7627  0.6172  0.9049
  648TIP3   OH223502   6.516   4.943   0.428 -0.1126 -0.2506  0.1843
  648TIP3    H123503   6.579   4.992   0.375  0.3324  0.7645  1.5859
  648TIP3    H223504   6.568   4.875   0.471 -0.3691 -0.7170 -0.2327
  649TIP3   OH223505   2.547   2.125   7.082  0.0514 -0.1175  0.7938
  649TIP3    H123506   2.555   2.030   7.069  1.5267  0.0912 -0.0834
  649TIP3    H223507   2.637   2.153   7.102 -0.2872  1.1622  0.5661
  650TIP3   OH223508   2.156   4.689   9.019 -0.4784 -0.4426  0.0368
  650TIP3    H123509   2.248   4.661   9.017  0.2267  1.6048  1.2744
  650TIP3    H223510   2.109   4.612   9.050  1.0353 -1.0637  0.9016
  651TIP3   OH223511   2.943   6.052   6.918  0.3839 -0.0987  0.1230
  651TIP3    H123512   2.992   6.121   6.873  0.5260 -1.2743 -1.5817
  651TIP3    H223513   3.007   5.983   6.933 -0.1112 -0.4949  0.4581
  652TIP3   OH223514   3.476   4.775   1.914  0.2792  0.2841 -0.1130
  652TIP3    H123515   3.485   4.684   1.940 -0.2884  0.4237  0.5953
  652TIP3    H223516   3.388   4.781   1.876 -0.0334  0.7096  0.6455
  653TIP3   OH223517   4.958   6.103   8.004 -0.4416  0.5060 -0.4785
  653TIP3    H123518   4.884   6.144   7.959 -0.3435  0.5105 -0.6359
  653TIP3    H223519   4.959   6.144   8.090  0.6503  2.0470 -1.1727
  654TIP3   OH223520   2.060   2.814   8.063  0.0159  0.5421 -0.0760
  654TIP3    H123521   2.112   2.769   8.130  0.5790  1.0668 -0.1500
  654TIP3    H223522   1.979   2.764   8.058  0.8299 -0.8094 -0.5185
  655TIP3   OH223523   5.992   0.616   8.818  0.1107  0.4223  0.1400
  655TIP3    H123524   6.017   0.652   8.733  1.1264  0.9435  0.6444
  655TIP3    H223525   5.978   0.523   8.801  3.6391 -0.2229 -0.0121
  656TIP3   OH223526   2.941   3.133   0.069 -0.2249 -0.3876 -0.3658
  656TIP3    H123527   3.001   3.205   0.050  1.1615 -1.8618 -1.9476
  656TIP3    H223528   2.962   3.107   0.159  0.0085  0.4766 -0.1629
  657TIP3   OH223529   2.289   2.650   7.146 -0.3583 -0.0269 -0.4816
  657TIP3    H123530   2.248   2.620   7.064 -0.1261 -0.4094 -0.4606
  657TIP3    H223531   2.350   2.718   7.118 -0.1733 -0.2603 -0.6409
  658TIP3   OH223532   4.987   5.344   1.804 -0.0784  0.2286  0.2152
  658TIP3    H123533   5.050   5.324   1.734  1.2343  1.1830  1.0675
  658TIP3    H223534   4.903   5.348   1.760  0.3769 -1.5143 -0.9075
  659TIP3   OH223535   1.603   2.272   8.198 -0.3530  0.0764 -0.6029
  659TIP3    H123536   1.611   2.177   8.188 -0.1789  0.2696 -2.7656
  659TIP3    H223537   1.687   2.300   8.235 -0.6995 -0.6574  0.8278
  660TIP3   OH223538   5.178   4.679   9.212 -0.3424  0.6904  0.1383
  660TIP3    H123539   5.255   4.693   9.156 -0.3904  0.0086 -0.1067
  660TIP3    H223540   5.162   4.585   9.207  0.2040  0.4504  2.0340
  661TIP3   OH223541   3.708   4.660   2.699  0.0473  0.4493  0.1998
  661TIP3    H123542   3.720   4.727   2.632  1.7537  0.2169  0.2272
  661TIP3    H223543   3.753   4.695   2.776 -0.1921 -0.1510  0.6198
  662TIP3   OH223544   5.409   3.441   9.429  0.5769 -0.2086  0.2041
  662TIP3    H123545   5.425   3.491   9.509  0.4339 -1.8693  1.3040
  662TIP3    H223546   5.315   3.427   9.428  0.7780 -1.7349  0.7256
  663TIP3   OH223547   3.794   0.150   1.698  0.1304 -0.2782 -0.2146
  663TIP3    H123548   3.877   0.114   1.731  0.0512 -0.2700 -0.0055
  663TIP3    H223549   3.803   0.245   1.710 -0.1326 -0.3182  0.3328
  664TIP3   OH223550   2.291   5.866   2.086 -0.2071  0.1160 -0.2642
  664TIP3    H123551   2.341   5.854   2.167  0.6453 -2.0514 -1.0117
  664TIP3    H223552   2.355   5.851   2.016 -1.6384 -1.8483 -1.2663
  665TIP3   OH223553   1.357   1.331   8.765 -0.0279 -0.2065  0.3022
  665TIP3    H123554   1.318   1.246   8.743  1.1752 -0.7146  0.0651
  665TIP3    H223555   1.327   1.390   8.696 -2.1701 -0.0096  1.3190
  666TIP3   OH223556   0.624   4.081   8.540  0.3962  0.0860 -0.0689
  666TIP3    H123557   0.563   4.155   8.535 -0.0994 -0.3632 -0.9298
  666TIP3    H223558   0.661   4.074   8.452  1.0140 -0.2264  0.2060
  667TIP3   OH223559   0.007   2.577   1.382  0.8676 -0.0390 -0.2971
  667TIP3    H123560   0.018   2.665   1.346  0.8108  0.7105  1.4139
  667TIP3    H223561   0.096   2.548   1.403  0.7782  0.3553  0.7307
  668TIP3   OH223562   3.929   2.979   0.236 -0.2329 -0.3531 -0.5357
  668TIP3    H123563   3.947   2.967   0.329 -1.8835  0.5997 -0.0481
  668TIP3    H223564   4.013   3.009   0.199 -0.6017  4.2947  1.6538
  669TIP3   OH223565   3.319   0.944   7.489  0.5414 -0.2274  0.6548
  669TIP3    H123566   3.370   0.870   7.457  1.7741  1.4076 -1.5339
  669TIP3    H223567   3.381   0.993   7.544  0.6164  0.5267 -0.0809
  670TIP3   OH223568   4.630   0.228   1.339 -0.2303  0.2208 -0.5848
  670TIP3    H123569   4.606   0.289   1.409 -1.3005 -1.4879  0.6145
  670TIP3    H223570   4.548   0.214   1.291 -0.3821 -1.3968  0.0962
  671TIP3   OH223571   5.684   6.204   0.773 -0.5828 -0.6370  0.0786
  671TIP3    H123572   5.700   6.125   0.721  2.4868 -1.1995  1.6904
  671TIP3    H223573   5.687   6.276   0.710 -0.4309 -1.5467 -0.9748
  672TIP3   OH223574   5.736   0.012   0.359 -0.3268 -0.3778 -0.2413
  672TIP3    H123575   5.672   0.080   0.340 -0.1251 -0.0615  0.2039
  672TIP3    H223576   5.820   0.057   0.360  0.1000 -1.0132 -2.1761
  673TIP3   OH223577   1.552   4.098   1.252 -0.0955 -0.2949  0.4122
  673TIP3    H123578   1.608   4.032   1.211  0.7673  0.6833 -0.0243
  673TIP3    H223579   1.475   4.049   1.282 -0.2871 -1.2079 -1.4521
  674TIP3   OH223580   2.486   3.916   1.416  0.2863  0.7978  0.7492
  674TIP3    H123581   2.437   3.998   1.410  1.1729  1.2140 -3.8528
  674TIP3    H223582   2.422   3.847   1.395  0.0288  0.4360  2.5413
  675TIP3   OH223583   0.946   1.517   1.465  0.4832  0.4006  0.2551
  675TIP3    H123584   0.994   1.598   1.482 -0.2365  0.5505  1.7409
  675TIP3    H223585   0.930   1.480   1.551 -0.4748 -0.5785 -0.3139
  676TIP3   OH223586   2.905   2.112   1.713  0.2834  0.3820 -0.1241
  676TIP3    H123587   2.995   2.144   1.715 -0.0545  1.3404  0.4328
  676TIP3    H223588   2.862   2.158   1.785 -0.0267 -1.9814  1.3149
  677TIP3   OH223589   3.776   2.543   8.566  0.3614 -0.2356  0.3044
  677TIP3    H123590   3.730   2.468   8.603 -1.4418  0.0301 -1.2603
  677TIP3    H223591   3.814   2.510   8.485 -0.4014  0.4903 -0.3707
  678TIP3   OH223592   5.204   0.795   9.308  0.1975  0.1755  0.5235
  678TIP3    H123593   5.243   0.724   9.360 -0.7472 -2.6486 -2.3223
  678TIP3    H223594   5.278   0.850   9.282  0.8490  0.8750  3.4841
  679TIP3   OH223595   6.034   0.990   7.288  0.5181  0.1046 -0.3828
  679TIP3    H123596   6.026   1.045   7.210  1.1636 -0.7936 -1.1041
  679TIP3    H223597   6.109   0.934   7.270 -0.1530 -1.0557  0.2990
  680TIP3   OH223598   2.231   2.002   7.225  0.2275  1.0075  0.0385
  680TIP3    H123599   2.318   1.973   7.251  0.1708 -0.1003 -0.9147
  680TIP3    H223600   2.229   1.992   7.130 -1.0863  0.5502  0.0845
  681TIP3   OH223601   0.443   3.721   2.483  0.0192 -0.1880  0.0312
  681TIP3    H123602   0.405   3.807   2.467  0.1259  0.1145  1.2926
  681TIP3    H223603   0.511   3.737   2.548  1.6665 -0.8761 -1.4333
  682TIP3   OH223604   6.108   2.675   8.602  0.0757 -0.2613  0.1397
  682TIP3    H123605   6.043   2.656   8.536 -0.6204  0.5796  0.5651
  682TIP3    H223606   6.191   2.680   8.554 -0.4898  0.8415 -0.7506
  683TIP3   OH223607   5.951   1.833   2.620  0.2626 -0.2655 -0.3032
  683TIP3    H123608   5.993   1.799   2.699 -2.8855 -2.2691  0.7132
  683TIP3    H223609   5.934   1.755   2.567 -0.6366  0.6512 -1.4246
  684TIP3   OH223610   3.480   0.565   7.878  0.1875 -0.2776  0.6295
  684TIP3    H123611   3.431   0.641   7.911  0.4398  0.1166  0.1186
  684TIP3    H223612   3.479   0.576   7.783 -0.1846 -1.1767  0.5149
  685TIP3   OH223613   5.374   4.382   1.271  0.2113  0.4469 -0.0463
  685TIP3    H123614   5.358   4.354   1.361  1.5268 -1.3287 -0.2894
  685TIP3    H223615   5.464   4.415   1.272 -0.5319  2.6020 -0.2739
  686TIP3   OH223616   4.822   5.146   0.001 -0.4104  0.0745 -0.0209
  686TIP3    H123617   4.735   5.163  -0.034 -0.0337  1.9265 -0.1967
  686TIP3    H223618   4.808   5.131   0.094 -0.8326  1.6039  0.1886
  687TIP3   OH223619   4.187   5.803   1.556  0.5116 -0.2501 -0.4282
  687TIP3    H123620   4.185   5.868   1.486  0.7350  0.2604  0.0254
  687TIP3    H223621   4.254   5.740   1.530  0.5430 -0.1014 -0.7037
  688TIP3   OH223622   0.790   2.181   0.957 -0.0054  0.0062 -0.6918
  688TIP3    H123623   0.744   2.114   0.907 -1.5126 -1.1274  2.0201
  688TIP3    H223624   0.771   2.263   0.911 -1.8945 -0.8655 -1.5599
  689TIP3   OH223625   1.340   3.213   6.688  0.2503  0.1254  0.0148
  689TIP3    H123626   1.255   3.187   6.654 -0.3031  1.7984  0.0280
  689TIP3    H223627   1.320   3.273   6.760  1.4391  0.2118  0.2985
  690TIP3   OH223628   2.691   2.232   9.455 -0.0086 -0.7876  0.3668
  690TIP3    H123629   2.724   2.210   9.367  0.2928  1.7825 -0.2431
  690TIP3    H223630   2.645   2.315   9.443  1.2536  0.3704  2.8578
  691TIP3   OH223631   4.033   5.811   0.109 -0.0293  0.0001  0.5063
  691TIP3    H123632   4.064   5.731   0.151  0.8892 -0.2751 -0.6555
  691TIP3    H223633   4.018   5.872   0.181  1.4973 -0.4545  1.2337
  692TIP3   OH223634   1.904   5.038   9.181  0.4301  0.0578 -0.1194
  692TIP3    H123635   1.879   5.061   9.270  1.8931 -0.3341  0.4203
  692TIP3    H223636   1.932   5.121   9.142  2.8305 -0.2298  0.8513
  693TIP3   OH223637   4.890   4.917   9.372 -0.2947  0.4455 -0.4491
  693TIP3    H123638   4.970   4.944   9.327 -1.3443  2.2752 -1.3038
  693TIP3    H223639   4.824   4.911   9.304 -1.6382  2.1291  0.6125
  694TIP3   OH223640   2.620   5.176   1.783  0.9193 -0.3623  0.2017
  694TIP3    H123641   2.588   5.087   1.764  0.8864 -0.2470 -0.2965
  694TIP3    H223642   2.582   5.197   1.868  1.3727 -1.0382  0.5825
  695TIP3   OH223643   0.734   5.669   2.350 -0.2880 -0.1553  0.0484
  695TIP3    H123644   0.646   5.636   2.332  0.1498 -1.3428 -0.0658
  695TIP3    H223645   0.780   5.593   2.388  0.9097  0.1952 -0.6434
  696TIP3   OH223646   2.721   0.447   7.186  0.3496 -0.2540  0.3387
  696TIP3    H123647   2.813   0.423   7.190  0.5028  0.0966 -0.6562
  696TIP3    H223648   2.717   0.516   7.120 -0.4482  0.6462  1.2933
  697TIP3   OH223649   1.897   1.074   0.873  0.2766  0.1786 -0.4699
  697TIP3    H123650   1.949   1.090   0.795 -0.2459  2.3481 -0.4496
  697TIP3    H223651   1.946   1.116   0.944 -0.2495  0.0390 -0.0077
  698TIP3   OH223652   0.803   3.173   9.314  0.9493  0.5266  0.0926
  698TIP3    H123653   0.846   3.181   9.228  0.5048 -0.2660 -0.2094
  698TIP3    H223654   0.826   3.254   9.359 -1.9232  2.8055 -2.1771
  699TIP3   OH223655   0.346   1.821   7.194  0.4856  0.2944  0.2671
  699TIP3    H123656   0.411   1.869   7.142 -1.4743 -0.9126 -3.7030
  699TIP3    H223657   0.377   1.730   7.191  1.1189  0.3748  2.6880
  700TIP3   OH223658   5.884   5.667   9.353 -0.5809 -0.1551 -0.6072
  700TIP3    H123659   5.890   5.727   9.427 -0.5635 -0.0650 -0.6826
  700TIP3    H223660   5.910   5.582   9.390 -0.5861 -0.1134 -0.5066
  701TIP3   OH223661   4.488   2.769   9.472  0.3957  0.1064 -0.2632
  701TIP3    H123662   4.426   2.836   9.444  1.1458  0.3080 -1.5296
  701TIP3    H223663   4.460   2.690   9.425  1.4810  0.3674 -1.3924
  702TIP3   OH223664   4.166   3.303   7.431  0.2611 -0.0543 -0.0937
  702TIP3    H123665   4.123   3.342   7.355 -0.4220 -0.0198  0.3001
  702TIP3    H223666   4.212   3.375   7.473 -1.9281  0.6366  1.2806
  703TIP3   OH223667   2.559   2.913   9.184 -0.6701 -0.9254 -0.2810
  703TIP3    H123668   2.572   2.880   9.273  1.5423 -0.9115 -0.5427
  703TIP3    H223669   2.535   2.835   9.133 -1.4302 -1.0238  0.2106
  704TIP3   OH223670   0.075   3.304   1.216 -0.1319 -0.4229 -0.2224
  704TIP3    H123671   0.102   3.221   1.176  0.7145  0.0462 -0.6525
  704TIP3    H223672   0.148   3.364   1.200 -0.6567  0.3672  0.2289
  705TIP3   OH223673   4.095   2.777   1.420 -0.3594  0.6646  0.2675
  705TIP3    H123674   4.109   2.855   1.474  0.2349  0.7191  0.0459
  705TIP3    H223675   4.172   2.723   1.436 -0.7840  0.1027  0.4485
  706TIP3   OH223676   4.264   4.969   1.135 -0.6570  0.4125  0.2123
  706TIP3    H123677   4.185   4.917   1.120  0.8002 -2.0459  0.5818
  706TIP3    H223678   4.313   4.962   1.052  0.3711 -0.3301  0.8645
  707TIP3   OH223679   2.399   0.056   2.214  0.1050 -0.1886  0.0498
  707TIP3    H123680   2.454   0.027   2.287 -0.8931  0.3190  1.0591
  707TIP3    H223681   2.416  -0.006   2.144 -0.6468 -2.1694  1.5172
  708TIP3   OH223682   5.379   2.210   7.415  0.2352  0.3277  0.1712
  708TIP3    H123683   5.385   2.187   7.323 -2.0197  0.1648  0.0319
  708TIP3    H223684   5.409   2.132   7.462 -2.0076 -0.9259 -0.3873
  709TIP3   OH223685   3.841   1.742   1.475  0.2581  0.1142 -0.4295
  709TIP3    H123686   3.920   1.762   1.425  1.4197  2.2389  2.0271
  709TIP3    H223687   3.864   1.664   1.525  0.3942  0.0736 -0.5526
  710TIP3   OH223688   2.337   3.517   9.266  0.3822  0.1674 -0.2733
  710TIP3    H123689   2.276   3.460   9.219  0.7554 -0.2615 -0.2420
  710TIP3    H223690   2.308   3.514   9.357 -0.7318  1.4981 -0.5492
  711TIP3   OH223691   0.540   5.420   8.416  0.0109 -0.3437 -0.1195
  711TIP3    H123692   0.567   5.493   8.360  3.4836  0.4459  2.2583
  711TIP3    H223693   0.535   5.345   8.357  0.3701  1.0217 -1.9841
  712TIP3   OH223694   3.292   5.020   7.846  0.2590 -0.6095  0.3219
  712TIP3    H123695   3.221   4.986   7.901  1.2260 -0.8591  1.4616
  712TIP3    H223696   3.371   5.013   7.901  0.8288  1.7213 -0.0699
  713TIP3   OH223697   4.028   5.949   8.607 -0.5806  0.0110  0.7574
  713TIP3    H123698   3.982   5.869   8.579 -0.0607  0.1616 -0.6198
  713TIP3    H223699   4.039   5.999   8.526 -0.7281  1.4011  1.5725
  714TIP3   OH223700   1.167   1.329   8.018  0.0349  0.1963  0.6018
  714TIP3    H123701   1.235   1.268   8.045 -0.4636 -1.0903 -0.8789
  714TIP3    H223702   1.092   1.308   8.074 -0.3292 -1.0435 -0.2801
  715TIP3   OH223703   0.823   0.727   2.209 -0.5432  0.0461  0.5193
  715TIP3    H123704   0.916   0.705   2.213 -0.6290 -0.1380  1.9488
  715TIP3    H223705   0.787   0.670   2.141  0.4552  0.4053 -0.3261
  716TIP3   OH223706   5.998   5.599   1.252  0.2049  0.3359 -0.3156
  716TIP3    H123707   5.976   5.507   1.261  1.0496  0.2762  1.9175
  716TIP3    H223708   5.922   5.645   1.289  1.1882  0.3299  1.9182
  717TIP3   OH223709   6.151   3.262   1.614 -0.3946  0.5756 -0.0372
  717TIP3    H123710   6.189   3.284   1.698 -0.0955  0.1139 -0.0431
  717TIP3    H223711   6.058   3.252   1.631 -0.3516  0.6064  0.2120
  718TIP3   OH223712   5.518   2.873   7.396 -0.2989  0.3330 -0.2325
  718TIP3    H123713   5.573   2.795   7.410 -0.9233 -0.3949 -1.6625
  718TIP3    H223714   5.580   2.946   7.393  0.4147 -0.2497 -0.0850
  719TIP3   OH223715   2.354   0.038   7.835  0.1989  0.2737  0.1774
  719TIP3    H123716   2.355   0.009   7.926 -0.9891 -0.5263 -0.0541
  719TIP3    H223717   2.419   0.109   7.833  2.0326 -1.2866  1.0858
  720TIP3   OH223718   2.005   2.214   9.094  0.1528  0.4068 -0.1571
  720TIP3    H123719   2.034   2.293   9.139 -1.4245  1.2281 -0.4950
  720TIP3    H223720   2.068   2.201   9.023  2.3116 -0.5606  1.8239
  721TIP3   OH223721   4.358   0.306   2.748 -0.0685 -0.0603  0.2705
  721TIP3    H123722   4.450   0.328   2.759 -0.2067  0.6836 -0.0286
  721TIP3    H223723   4.356   0.246   2.673  0.2559 -0.7276  0.7867
  722TIP3   OH223724   5.909   5.943   7.371 -0.4824 -0.3998 -0.3254
  722TIP3    H123725   5.815   5.927   7.364 -0.7862 -0.1342  2.1597
  722TIP3    H223726   5.919   6.035   7.346 -1.0553 -0.1349  0.3764
  723TIP3   OH223727   1.572   6.095   9.277  0.3188  0.0168  0.0352
  723TIP3    H123728   1.494   6.075   9.328 -0.6834 -1.0994 -1.8467
  723TIP3    H223729   1.628   6.018   9.288  0.6156  0.2761  0.3667
  724TIP3   OH223730   0.990   2.370   7.378  0.0742 -0.3972 -0.4069
  724TIP3    H123731   0.910   2.363   7.326  1.0415 -1.0133 -1.8925
  724TIP3    H223732   0.974   2.315   7.454 -0.7208 -0.9705 -0.9735
  725TIP3   OH223733   4.134   1.853   6.718 -0.5567 -0.3673  0.4556
  725TIP3    H123734   4.204   1.911   6.747 -1.6221  0.6488  1.0075
  725TIP3    H223735   4.179   1.788   6.663  0.8991 -0.0845  1.2754
  726TIP3   OH223736   4.187   2.236   9.497 -0.1080  0.2578 -0.5351
  726TIP3    H123737   4.182   2.267   9.407  0.4894  1.6409 -0.1258
  726TIP3    H223738   4.280   2.220   9.512 -0.0373  1.2795  0.2081
  727TIP3   OH223739   3.084   6.490   9.025  0.7352 -0.6851  0.0064
  727TIP3    H123740   3.000   6.452   8.999 -0.2630  0.4716  1.3969
  727TIP3    H223741   3.144   6.466   8.954 -0.9327 -0.8699 -1.4161
  728TIP3   OH223742   1.775   2.302   6.910 -0.0250 -0.0955 -0.1625
  728TIP3    H123743   1.815   2.267   6.830  0.8369  0.1376  0.1541
  728TIP3    H223744   1.696   2.250   6.921  1.0657 -1.7910  0.1380
  729TIP3   OH223745   3.960   4.171   0.318  0.4300  0.5246 -0.4668
  729TIP3    H123746   4.015   4.180   0.240 -0.5369  0.0023 -1.2309
  729TIP3    H223747   3.871   4.163   0.283  0.0259 -0.1005  0.6788
  730TIP3   OH223748   2.672   5.990   8.147  0.1360 -0.0105  0.1513
  730TIP3    H123749   2.676   5.895   8.142  1.9456  0.0250  0.3370
  730TIP3    H223750   2.579   6.011   8.138 -0.2759 -1.7791  0.0347
  731TIP3   OH223751   1.224   2.537   1.598  0.2703 -0.2373  0.7127
  731TIP3    H123752   1.279   2.609   1.565  0.4142  0.6394  2.7306
  731TIP3    H223753   1.280   2.460   1.591  1.5386  0.5157  2.0149
  732TIP3   OH223754   0.895   2.399   0.043  0.2066 -0.1178  0.7269
  732TIP3    H123755   0.898   2.303   0.039  3.9027 -0.1139  0.5707
  732TIP3    H223756   0.856   2.418   0.128 -2.7342 -1.6027 -0.1244
  733TIP3   OH223757   4.174   5.845   7.522 -0.5491  0.4334 -0.9341
  733TIP3    H123758   4.175   5.941   7.516 -0.4355  0.4235 -1.0663
  733TIP3    H223759   4.130   5.816   7.443  0.6583  0.3209 -1.5820
  734TIP3   OH223760   4.276   1.682   7.960  0.4071 -0.3294  0.1704
  734TIP3    H123761   4.326   1.732   7.896  0.5104  0.2237  0.6672
  734TIP3    H223762   4.343   1.641   8.015  0.3184 -0.4892  0.1583
  735TIP3   OH223763   3.162   2.550   9.102 -0.0047 -0.6660  0.0298
  735TIP3    H123764   3.111   2.630   9.089  2.0250  0.3651 -2.5502
  735TIP3    H223765   3.102   2.479   9.075 -0.5514  0.3842 -1.7185
  736TIP3   OH223766   2.974   4.483   2.456  0.3655  0.0594 -0.6356
  736TIP3    H123767   3.010   4.405   2.415 -1.0755 -1.6557  1.1376
  736TIP3    H223768   2.936   4.451   2.539 -0.9093  2.5112 -0.1745
  737TIP3   OH223769   4.467   0.740   8.199  0.5231  0.5174 -0.1394
  737TIP3    H123770   4.561   0.748   8.188  0.8308 -0.0655  1.6847
  737TIP3    H223771   4.432   0.738   8.110  1.8922  4.1298 -0.9375
  738TIP3   OH223772   0.130   0.810   2.226 -0.0205 -0.0836 -0.1044
  738TIP3    H123773   0.112   0.741   2.290 -0.2031  0.9330  0.9718
  738TIP3    H223774   0.091   0.888   2.264 -0.8363  0.4050 -1.8396
  739TIP3   OH223775   0.368   4.682   7.635 -0.0632  0.5393 -0.1325
  739TIP3    H123776   0.346   4.742   7.706 -0.5125  3.7995 -2.7709
  739TIP3    H223777   0.463   4.693   7.624  0.2482 -0.9933  0.7354
  740TIP3   OH223778   2.161   6.355   7.971  0.1518 -0.2481  0.0494
  740TIP3    H123779   2.218   6.323   7.900 -0.3845  1.2972 -1.1421
  740TIP3    H223780   2.218   6.407   8.026  0.1618  0.3033 -0.4684
  741TIP3   OH223781   5.030   6.517   1.412 -0.2520 -0.0253  0.5181
  741TIP3    H123782   5.046   6.427   1.440  2.7163 -0.5097 -2.0886
  741TIP3    H223783   5.115   6.560   1.419 -1.2435  2.1550  0.1847
  742TIP3   OH223784   3.082   1.377   8.978  0.0796 -0.1356  0.0997
  742TIP3    H123785   3.135   1.303   8.945  0.1339 -0.8735  1.7709
  742TIP3    H223786   3.147   1.443   9.004  0.0498  0.2439 -0.7418
  743TIP3   OH223787   1.250   4.544   1.660 -0.1884 -0.8471 -0.3520
  743TIP3    H123788   1.335   4.525   1.700  0.0859  0.1958 -0.4092
  743TIP3    H223789   1.189   4.549   1.733  0.0973 -0.0763 -0.1593
  744TIP3   OH223790   4.891   3.796   7.518  0.2428 -0.2479 -0.2529
  744TIP3    H123791   4.967   3.853   7.528  0.7441 -1.0336  0.5761
  744TIP3    H223792   4.818   3.855   7.502  0.9383  0.5482 -0.5229
  745TIP3   OH223793   2.867   3.378   0.417  0.0234  0.2910  0.3956
  745TIP3    H123794   2.903   3.307   0.365 -2.4611  0.1033 -1.2256
  745TIP3    H223795   2.815   3.334   0.484  1.2132  0.5894  1.5637
  746TIP3   OH223796   6.343   1.948   8.855  0.2400 -0.6364 -0.2070
  746TIP3    H123797   6.303   1.914   8.935  1.1822 -1.4574 -0.0723
  746TIP3    H223798   6.299   1.901   8.784 -1.6248  1.1134 -0.3077
  747TIP3   OH223799   4.157   1.363   1.814 -0.1681  0.0876  0.3114
  747TIP3    H123800   4.244   1.399   1.800 -0.3154 -0.1717 -1.4229
  747TIP3    H223801   4.172   1.278   1.856  0.4421 -0.1551 -0.3858
  748TIP3   OH223802   1.135   5.956   0.607 -0.4578 -0.0160 -0.2991
  748TIP3    H123803   1.074   5.903   0.657 -2.8745  1.7097 -1.1924
  748TIP3    H223804   1.122   5.929   0.516  1.6316 -0.9911 -0.3626
  749TIP3   OH223805   0.143   6.045   1.682 -0.0854 -0.3328  0.4886
  749TIP3    H123806   0.068   6.090   1.645 -0.1205 -0.5138  0.3363
  749TIP3    H223807   0.105   5.972   1.731 -0.0892  0.3779  1.5701
  750TIP3   OH223808   5.684   1.263   7.877  0.7981 -0.7832  0.3768
  750TIP3    H123809   5.744   1.323   7.833  0.9988 -0.3883  1.1734
  750TIP3    H223810   5.741   1.209   7.933  0.6959 -2.1238 -0.7573
  751TIP3   OH223811   4.364   4.520   7.910 -0.7194  0.1838 -0.1533
  751TIP3    H123812   4.427   4.468   7.860 -0.8838 -0.3268  0.1607
  751TIP3    H223813   4.305   4.456   7.949  0.6315  0.3653  2.4010
  752TIP3   OH223814   3.434   3.987   7.652  0.0946 -0.3499  0.2786
  752TIP3    H123815   3.499   4.034   7.600  0.1995 -0.7342  0.0538
  752TIP3    H223816   3.450   4.014   7.742 -1.4993  2.0557 -0.0570
  753TIP3   OH223817   1.262   0.414   1.321 -0.2876 -0.0488 -0.3676
  753TIP3    H123818   1.298   0.411   1.409 -0.0086  2.6336 -0.3187
  753TIP3    H223819   1.331   0.378   1.265 -0.1075 -0.8926  0.3789
  754TIP3   OH223820   6.506   2.425   2.109 -0.3911 -0.1960 -0.2177
  754TIP3    H123821   6.525   2.442   2.202 -1.0420  1.2494 -0.3189
  754TIP3    H223822   6.593   2.417   2.068 -0.0921 -1.9209  0.6575
  755TIP3   OH223823   2.539   0.357   8.744 -0.1728  0.0171 -0.2563
  755TIP3    H123824   2.522   0.438   8.793  0.8728 -0.3425  0.7552
  755TIP3    H223825   2.603   0.310   8.798  0.2232 -0.8822 -1.4785
  756TIP3   OH223826   0.562   5.849   9.168  0.0757 -0.2985  0.0690
  756TIP3    H123827   0.547   5.928   9.115 -2.9724  0.4151  1.7588
  756TIP3    H223828   0.598   5.882   9.250 -0.9460 -0.6513  0.6797
  757TIP3   OH223829   0.151   1.656   9.352  0.4029  0.2821  0.1513
  757TIP3    H123830   0.136   1.562   9.359  2.0880  0.0074  0.5418
  757TIP3    H223831   0.105   1.683   9.273  1.6437 -1.2919 -1.1751
  758TIP3   OH223832   0.578   6.319   0.082 -0.3608 -0.2474  0.1299
  758TIP3    H123833   0.509   6.300   0.146  0.3877 -1.0555  0.7167
  758TIP3    H223834   0.574   6.246   0.020  0.2009 -0.4890  0.3734
  759TIP3   OH223835   2.881   2.951   0.597  1.0521  0.1649 -0.2672
  759TIP3    H123836   2.944   2.880   0.609  0.0088 -0.9710 -1.3350
  759TIP3    H223837   2.817   2.917   0.535 -1.3325  0.8224  1.6762
  760TIP3   OH223838   3.222   1.800   7.232  0.4729  0.6160 -0.0330
  760TIP3    H123839   3.173   1.766   7.306  0.6217  0.7654  0.1353
  760TIP3    H223840   3.313   1.802   7.262  0.6039  0.2273 -0.3808
  761TIP3   OH223841   2.233   4.812   3.214 -0.3701 -0.3736  0.1326
  761TIP3    H123842   2.278   4.731   3.188 -0.6602 -0.9613  1.3707
  761TIP3    H223843   2.140   4.791   3.206 -0.4453 -0.0384  0.1201
  762TIP3   OH223844   3.134   5.814   7.359  0.1655 -0.4314  0.7068
  762TIP3    H123845   3.191   5.891   7.366  0.3579 -0.5621  0.5767
  762TIP3    H223846   3.182   5.754   7.302 -0.3155 -0.3516  0.2192
  763TIP3   OH223847   2.850   1.356   9.114 -0.5334 -0.6779 -0.2726
  763TIP3    H123848   2.930   1.384   9.067 -0.6861  0.5817  0.1887
  763TIP3    H223849   2.840   1.264   9.090  0.2815 -0.4868 -1.4609
  764TIP3   OH223850   2.061   6.175   1.750  0.2196  0.0919  0.1539
  764TIP3    H123851   1.992   6.241   1.756 -0.3200 -0.4337 -0.1501
  764TIP3    H223852   2.028   6.102   1.802  0.8832  0.1126  0.6229
  765TIP3   OH223853   1.262   2.591   8.570  0.0085  0.5373 -0.0587
  765TIP3    H123854   1.354   2.616   8.582  0.1354 -0.1614  0.4803
  765TIP3    H223855   1.218   2.673   8.548  1.0405  0.6087 -2.0828
  766TIP3   OH223856   0.521   5.060   9.265  0.2972 -0.5780 -0.5195
  766TIP3    H123857   0.563   5.091   9.346  0.6039 -2.4140  0.0604
  766TIP3    H223858   0.435   5.029   9.292  0.4852 -1.4111 -0.8515
  767TIP3   OH223859   0.636   2.567   1.563  0.1967  0.4192  0.3977
  767TIP3    H123860   0.709   2.596   1.618  0.6973 -0.3861  0.1669
  767TIP3    H223861   0.675   2.544   1.479 -0.3951  0.4822  0.0972
  768TIP3   OH223862   5.577   3.897   6.540 -0.6576 -0.5243 -0.2725
  768TIP3    H123863   5.493   3.893   6.585 -0.6843  2.9947  0.2763
  768TIP3    H223864   5.637   3.936   6.603  1.1069 -1.7588 -1.0876
  769TIP3   OH223865   4.497   3.877   8.454  0.1888 -0.3715  0.3699
  769TIP3    H123866   4.450   3.943   8.403 -0.1085 -2.3001 -2.0293
  769TIP3    H223867   4.440   3.858   8.528 -0.8873  0.2745 -0.2620
  770TIP3   OH223868   5.674   0.202   9.342 -0.2454  0.1012  0.0448
  770TIP3    H123869   5.756   0.190   9.388 -0.1339 -1.0385 -0.4153
  770TIP3    H223870   5.627   0.120   9.355 -1.7277  1.0632  1.0776
  771TIP3   OH223871   4.834   1.760   1.298  0.2558  0.6053  0.7450
  771TIP3    H123872   4.888   1.739   1.222 -1.0798  1.8336 -0.5869
  771TIP3    H223873   4.830   1.856   1.299 -3.2809  0.5859 -0.2582
  772TIP3   OH223874   5.644   1.919   8.666  0.7116  0.1450  0.3764
  772TIP3    H123875   5.582   1.991   8.671  0.5490 -0.0327  1.0755
  772TIP3    H223876   5.684   1.927   8.580 -0.5224  0.0671 -0.2161
  773TIP3   OH223877   5.252   0.014   2.146  0.7061 -0.7594 -0.2295
  773TIP3    H123878   5.221   0.101   2.173 -0.7606 -1.7895  1.6149
  773TIP3    H223879   5.346   0.026   2.131  0.8337  0.8420  1.4681
  774TIP3   OH223880   2.999   0.991   7.980 -0.2949  0.2852  0.2362
  774TIP3    H123881   3.033   1.001   7.891  0.4627  0.5733  0.5509
  774TIP3    H223882   3.074   0.961   8.031 -1.1646 -1.7348  0.4272
  775TIP3   OH223883   4.987   3.714   0.685  0.6812  0.2543 -0.4112
  775TIP3    H123884   4.954   3.690   0.771  0.2355 -2.2364 -1.1989
  775TIP3    H223885   4.932   3.788   0.658 -0.5854 -0.2985  0.5498
  776TIP3   OH223886   5.848   0.135   8.839 -0.1271  0.0767 -0.0588
  776TIP3    H123887   5.852   0.041   8.823  1.9087 -0.0098  0.7257
  776TIP3    H223888   5.764   0.148   8.884 -0.7270 -1.2469 -0.7394
  777TIP3   OH223889   5.983   2.954   6.662  0.2139  0.3207 -0.4693
  777TIP3    H123890   5.958   3.021   6.598 -1.3512  0.0315 -0.1978
  777TIP3    H223891   5.942   2.874   6.630 -0.7841  0.2108  0.9994
  778TIP3   OH223892   2.129   4.773   2.592  0.2729  0.4929  0.2107
  778TIP3    H123893   2.094   4.687   2.613 -2.4363  0.9722 -1.8470
  778TIP3    H223894   2.214   4.755   2.551 -0.8150 -1.3420 -1.3961
  779TIP3   OH223895   0.595   6.508   9.451  0.7628 -0.2360  0.0878
  779TIP3    H123896   0.560   6.477   9.535 -1.4572 -2.3238 -1.4671
  779TIP3    H223897   0.664   6.570   9.475  2.3323 -2.9551  3.5051
  780TIP3   OH223898   3.877   0.642   9.005  1.0513  0.6667 -0.7547
  780TIP3    H123899   3.934   0.715   8.980  1.4362  0.4302 -0.5772
  780TIP3    H223900   3.935   0.581   9.051  0.7287  0.2534 -0.8946
  781TIP3   OH223901   1.511   1.253   9.321  0.0640  0.6176  0.6708
  781TIP3    H123902   1.577   1.282   9.258  0.9970 -0.9708  0.8532
  781TIP3    H223903   1.427   1.274   9.280  0.5716 -1.7845 -1.9419
  782TIP3   OH223904   4.794   2.551   7.371 -0.4964  0.0628 -0.2320
  782TIP3    H123905   4.829   2.600   7.445 -0.2139 -1.1316  0.4553
  782TIP3    H223906   4.753   2.617   7.315 -0.0998  1.0684  0.6383
  783TIP3   OH223907   1.310   1.464   8.387  0.1619 -0.2760  0.2370
  783TIP3    H123908   1.347   1.384   8.425 -1.8731 -1.1095  0.6218
  783TIP3    H223909   1.260   1.503   8.459 -0.5209  0.2432 -0.5020
  784TIP3   OH223910   0.144   2.485   0.560  0.3085 -0.2806 -0.1396
  784TIP3    H123911   0.131   2.390   0.567 -0.8929 -0.1256 -0.1159
  784TIP3    H223912   0.188   2.496   0.475 -0.2142 -0.8034 -0.4909
  785TIP3   OH223913   2.703   1.710   8.629 -0.0050 -0.8447  0.0625
  785TIP3    H123914   2.741   1.797   8.642 -0.4012 -0.6706  0.0597
  785TIP3    H223915   2.635   1.723   8.563 -1.4412 -0.7610  1.4908
  786TIP3   OH223916   3.922   4.023   0.070  0.7297  0.5680  0.7570
  786TIP3    H123917   3.947   4.115   0.068 -2.5225  1.5907 -1.7441
  786TIP3    H223918   3.959   3.986  -0.010  0.8777  0.0680  1.0560
  787TIP3   OH223919   4.322   6.034   1.395  0.3476 -0.6426  0.0770
  787TIP3    H123920   4.402   6.079   1.368  0.7309 -0.6094  1.2031
  787TIP3    H223921   4.255   6.063   1.332  0.6029  1.4305  0.6658
  788TIP3   OH223922   2.734   4.440   1.587 -0.3174 -0.0354 -0.0932
  788TIP3    H123923   2.815   4.456   1.537 -0.1367  0.7008  0.4232
  788TIP3    H223924   2.752   4.360   1.636  0.1543  0.1997  0.1259
  789TIP3   OH223925   6.058   0.679   8.565  0.5726 -0.5848  0.2783
  789TIP3    H123926   6.123   0.739   8.529  0.2743 -0.9747 -0.9277
  789TIP3    H223927   6.066   0.600   8.512 -1.4150 -0.3763 -0.4231
  790TIP3   OH223928   4.382   3.575   8.480 -0.3090  0.0401 -0.2795
  790TIP3    H123929   4.315   3.638   8.504 -0.6363  0.1900 -1.5349
  790TIP3    H223930   4.449   3.626   8.435 -0.6732 -0.4994 -1.4948
  791TIP3   OH223931   3.424   3.563   0.023  0.2208  0.0789 -0.6006
  791TIP3    H123932   3.380   3.534   0.103  2.4996 -1.7598  0.1124
  791TIP3    H223933   3.378   3.516  -0.047 -0.2319 -0.2388 -0.1023
  792TIP3   OH223934   4.891   4.242   1.672  0.3593 -0.1243  0.2297
  792TIP3    H123935   4.805   4.215   1.638  0.6011  0.2962 -0.7450
  792TIP3    H223936   4.918   4.170   1.728 -0.2900 -0.6157 -0.0715
  793TIP3   OH223937   2.963   4.900   9.252 -0.1859 -0.2408  0.7806
  793TIP3    H123938   3.029   4.966   9.234 -0.2655 -1.1128 -3.9612
  793TIP3    H223939   3.008   4.817   9.239 -1.4475 -0.9538  0.7720
  794TIP3   OH223940   2.474   0.602   7.031  0.0173  0.1481  0.2108
  794TIP3    H123941   2.563   0.636   7.044 -0.1186  0.8079 -0.5381
  794TIP3    H223942   2.487   0.513   6.999  0.4172  0.4113 -0.3692
  795TIP3   OH223943   4.391   5.578   0.171  0.3373  0.2234  0.1810
  795TIP3    H123944   4.322   5.544   0.113 -0.6044  1.3712  0.5839
  795TIP3    H223945   4.437   5.643   0.117 -0.6521  1.4208  0.7371
  796TIP3   OH223946   3.867   2.136   7.563  0.0863  0.0594 -0.2133
  796TIP3    H123947   3.910   2.116   7.480  0.8660 -2.4200  0.6967
  796TIP3    H223948   3.938   2.143   7.626 -0.5893  0.3990  0.5221
  797TIP3   OH223949   0.123   3.923   0.627 -0.2376  0.3516 -0.2611
  797TIP3    H123950   0.110   3.899   0.719 -1.4338 -0.2480 -0.5576
  797TIP3    H223951   0.036   3.949   0.597  0.3121  1.4034 -1.0025
  798TIP3   OH223952   0.695   1.973   0.826 -0.2598  0.8128 -0.1257
  798TIP3    H123953   0.718   1.886   0.793 -1.8489  0.5398 -0.5960
  798TIP3    H223954   0.636   1.956   0.899 -3.6387  1.4053 -2.4783
  799TIP3   OH223955   1.896   4.864   1.671 -0.2524 -0.4178  0.0933
  799TIP3    H123956   1.839   4.787   1.673 -1.4144  0.4312  0.5585
  799TIP3    H223957   1.886   4.899   1.583 -0.1204 -0.5056  0.0432
  800TIP3   OH223958   0.447   0.680   7.201 -0.5847  0.6380  0.1176
  800TIP3    H123959   0.517   0.722   7.250 -1.1640  1.7206  0.0658
  800TIP3    H223960   0.407   0.752   7.151 -1.6678  0.0404  0.0962
  801TIP3   OH223961   2.067   0.776   0.879 -0.5570  0.2939  0.0852
  801TIP3    H123962   2.048   0.684   0.896 -2.4117  0.4262 -0.9688
  801TIP3    H223963   2.149   0.775   0.830 -0.1304 -0.7184  0.7770
  802TIP3   OH223964   5.098   3.196   7.681  0.2247 -0.9200 -0.1223
  802TIP3    H123965   5.082   3.188   7.587  1.6068 -0.9257 -0.3796
  802TIP3    H223966   5.156   3.123   7.702 -1.7232 -2.1921  1.1801
  803TIP3   OH223967   2.595   3.595   0.939  0.4096  0.4469  0.6295
  803TIP3    H123968   2.523   3.655   0.917 -0.2172 -0.0990  1.1681
  803TIP3    H223969   2.626   3.625   1.024  0.1643  0.0692  0.8522
  804TIP3   OH223970   6.184   5.007   8.653  0.1812  0.4014  0.6145
  804TIP3    H123971   6.181   5.034   8.561  0.8503  1.3460  0.8661
  804TIP3    H223972   6.273   5.025   8.682  0.4209 -1.2728  1.0611
  805TIP3   OH223973   4.736   1.985   1.143 -0.0738 -0.4696  0.3023
  805TIP3    H123974   4.701   2.023   1.062 -0.7925 -2.1507 -0.2202
  805TIP3    H223975   4.715   2.049   1.211 -2.7741 -0.6498 -0.2445
  806TIP3   OH223976   3.714   1.473   1.215  0.3076 -1.0692 -0.5654
  806TIP3    H123977   3.643   1.516   1.262 -0.4198 -1.4286 -1.3059
  806TIP3    H223978   3.775   1.445   1.284 -0.8210 -1.7649  0.1910
  807TIP3   OH223979   2.584   5.569   7.895  0.1279  0.3558  0.0348
  807TIP3    H123980   2.556   5.657   7.870 -1.3683 -0.0210  0.2887
  807TIP3    H223981   2.563   5.515   7.819 -0.4487 -0.0511  0.4768
  808TIP3   OH223982   1.639   1.694   1.583  0.6203 -0.1041  0.5171
  808TIP3    H123983   1.659   1.636   1.655 -0.6443  0.6892  1.5487
  808TIP3    H223984   1.657   1.782   1.617  0.8419  0.2274 -0.4219
  809TIP3   OH223985   4.372   1.011   7.492  0.3881 -0.2198  0.0857
  809TIP3    H123986   4.425   0.971   7.423  1.2644  1.7046 -0.4405
  809TIP3    H223987   4.434   1.067   7.539 -0.7388  0.4451  0.8128
  810TIP3   OH223988   5.344   0.777   0.594 -0.4353 -0.4053  0.3501
  810TIP3    H123989   5.270   0.834   0.616 -0.5476 -0.7795  0.9471
  810TIP3    H223990   5.386   0.757   0.678  0.2901 -0.2725  0.0248
  811TIP3   OH223991   3.855   1.583   0.446  0.1300 -0.0329  0.1521
  811TIP3    H123992   3.807   1.554   0.369  0.5266 -0.2666 -0.0093
  811TIP3    H223993   3.910   1.654   0.416 -0.4324  0.5364  0.4330
  812TIP3   OH223994   5.109   0.427   1.376 -0.7818 -0.3636 -0.6673
  812TIP3    H123995   5.106   0.495   1.443 -0.2625 -0.0097 -0.9953
  812TIP3    H223996   5.048   0.457   1.309 -0.7280 -0.3347 -0.7038
  813TIP3   OH223997   5.709   1.637   1.148 -0.2116 -0.2099  0.1274
  813TIP3    H123998   5.768   1.640   1.072 -0.0693  1.6428  0.2521
  813TIP3    H223999   5.762   1.672   1.220 -0.6670 -1.0043  0.8559
  814TIP3   OH224000   3.175   4.120   7.820 -0.5679 -0.0374 -0.1824
  814TIP3    H124001   3.212   4.149   7.737 -1.5936  1.9261 -0.0172
  814TIP3    H224002   3.184   4.195   7.879 -2.8368 -0.1828  0.4698
  815TIP3   OH224003   4.913   1.625   1.543  0.6203 -0.2099  0.5580
  815TIP3    H124004   4.878   1.655   1.459 -1.6175  1.6110  2.0248
  815TIP3    H224005   4.839   1.582   1.586  1.5462 -0.6114  1.8280
  816TIP3   OH224006   2.589   5.483   1.119 -0.3652  0.3369 -0.4506
  816TIP3    H124007   2.637   5.454   1.196 -0.4190  0.9342 -0.1870
  816TIP3    H224008   2.657   5.508   1.056 -0.2983  2.0183  0.2388
  817TIP3   OH224009   2.775   0.233   1.172 -0.7292 -0.0077  0.9954
  817TIP3    H124010   2.705   0.279   1.124  0.8372  0.9461 -0.5128
  817TIP3    H224011   2.817   0.302   1.224  2.0003  0.5912 -1.7078
  818TIP3   OH224012   5.269   4.931   8.564  0.5609  0.4752 -0.3870
  818TIP3    H124013   5.314   4.898   8.487  0.4917  1.3635 -0.8221
  818TIP3    H224014   5.176   4.922   8.545  0.4399 -2.8761  1.1587
  819TIP3   OH224015   0.106   1.805   9.102 -0.6974  0.3995 -0.4515
  819TIP3    H124016   0.142   1.875   9.047  1.6825  0.2084  0.7650
  819TIP3    H224017   0.093   1.732   9.042  0.8575  0.5323 -0.9979
  820TIP3   OH224018   3.645   3.604   7.869 -0.2294 -0.1069  0.0131
  820TIP3    H124019   3.609   3.643   7.790 -0.1453  0.0968  0.0753
  820TIP3    H224020   3.648   3.510   7.850  1.5356  0.0938 -0.9585
  821TIP3   OH224021   0.240   3.758   1.418 -0.1184 -0.3507  0.9633
  821TIP3    H124022   0.190   3.825   1.464  2.1815  2.3468 -0.2235
  821TIP3    H224023   0.303   3.725   1.482 -0.2040 -0.2363  1.1052
  822TIP3   OH224024   1.615   1.949   1.719  0.2411 -0.2477  0.4918
  822TIP3    H124025   1.577   1.984   1.799  0.5596  0.8957  0.1630
  822TIP3    H224026   1.622   2.024   1.660 -2.2605 -1.4740 -1.5572
  823TIP3   OH224027   4.617   5.294   2.022 -0.1993 -0.4069 -0.6171
  823TIP3    H124028   4.587   5.382   2.048 -0.1460 -1.0021  1.7022
  823TIP3    H224029   4.639   5.251   2.105 -1.8712 -3.2525 -1.5181
  824TIP3   OH224030   0.577   0.714   8.098 -0.0403  0.1023  0.2321
  824TIP3    H124031   0.664   0.737   8.067 -0.3252 -0.9007 -1.4058
  824TIP3    H224032   0.586   0.707   8.193  1.8017 -0.5383  0.0363
  825TIP3   OH224033   0.392   0.195   0.064 -0.7107  0.2428 -0.3144
  825TIP3    H124034   0.463   0.157   0.115 -2.1500 -2.4852 -0.1681
  825TIP3    H224035   0.425   0.195  -0.026 -0.3878 -0.7085 -0.2059
  826TIP3   OH224036   5.591   0.700   1.413  0.0205 -0.3607 -0.3710
  826TIP3    H124037   5.597   0.711   1.318 -1.4809 -2.7842 -0.8619
  826TIP3    H224038   5.533   0.624   1.424 -2.1583  1.4945  2.5486
  827TIP3   OH224039   2.080   6.385   3.014  0.1730  0.1301 -0.2329
  827TIP3    H124040   2.004   6.375   3.071  0.3962  3.2894  0.7620
  827TIP3    H224041   2.141   6.317   3.043 -0.9244 -0.2907  1.1926
  828TIP3   OH224042   3.299   1.950   1.444 -0.0715 -0.2195 -0.4349
  828TIP3    H124043   3.297   1.980   1.535  0.1929 -0.1166 -0.4636
  828TIP3    H224044   3.310   1.855   1.450  0.4737 -0.1559 -0.3671
  829TIP3   OH224045   0.908   6.243   0.581 -0.1094 -0.2945  0.4273
  829TIP3    H124046   0.951   6.289   0.509 -2.1028 -0.3704 -0.8852
  829TIP3    H224047   0.818   6.275   0.580 -0.3572 -0.7565  2.5241
  830TIP3   OH224048   0.865   3.420   7.834  0.5318 -0.0682 -0.4962
  830TIP3    H124049   0.894   3.509   7.812  1.6986 -0.1702  0.4928
  830TIP3    H224050   0.809   3.432   7.911  1.9799 -0.2922  0.6402
  831TIP3   OH224051   3.590   4.367   2.427 -0.0259  0.3229 -0.6676
  831TIP3    H124052   3.596   4.288   2.479 -0.0506  0.6653 -0.1420
  831TIP3    H224053   3.554   4.433   2.486 -1.4773  0.3462 -1.5140
  832TIP3   OH224054   1.621   1.141   8.028 -0.0001 -0.2240 -0.7647
  832TIP3    H124055   1.528   1.120   8.039  0.0031  0.5901  1.2192
  832TIP3    H224056   1.622   1.234   8.008  0.3243 -0.6418 -2.9064
  833TIP3   OH224057   3.760   4.279   1.308  0.7473 -0.0876  0.7419
  833TIP3    H124058   3.690   4.275   1.243  0.6880 -0.6018  0.8388
  833TIP3    H224059   3.817   4.350   1.277  0.8455 -0.4780  0.0019
  834TIP3   OH224060   1.711   0.586   0.547 -0.1588 -0.5742 -0.0358
  834TIP3    H124061   1.624   0.559   0.517 -0.8433 -3.2467  3.5154
  834TIP3    H224062   1.764   0.506   0.542  1.2899  0.3197  0.3582
  835TIP3   OH224063   0.888   5.283   8.907 -0.4098 -0.5516 -0.1378
  835TIP3    H124064   0.894   5.214   8.842 -3.5953  1.1882 -2.5700
  835TIP3    H224065   0.836   5.246   8.978 -2.3090 -0.7262 -1.5316
  836TIP3   OH224066   2.961   4.733   0.787 -0.8294 -0.3068 -0.5055
  836TIP3    H124067   2.991   4.818   0.817  1.6853 -1.1009 -0.5775
  836TIP3    H224068   2.944   4.683   0.867 -1.2742 -0.0986 -0.4656
  837TIP3   OH224069   5.606   2.654   8.586 -0.0010  0.1618  0.2767
  837TIP3    H124070   5.561   2.692   8.511  1.3031 -1.3370 -1.3433
  837TIP3    H224071   5.599   2.560   8.574  1.5589 -0.1164  1.1913
  838TIP3   OH224072   3.498   1.338   8.173 -0.3517 -0.1557 -0.0752
  838TIP3    H124073   3.500   1.407   8.108  0.1799  0.5212  0.6441
  838TIP3    H224074   3.528   1.379   8.254  1.2432 -1.5174  0.0799
  839TIP3   OH224075   5.370   2.704   7.195 -0.3507  0.0444 -0.7985
  839TIP3    H124076   5.430   2.727   7.266 -1.4034 -1.6730  0.7396
  839TIP3    H224077   5.308   2.777   7.192 -1.7963 -0.9362  1.8474
  840TIP3   OH224078   0.735   2.703   7.020 -0.3567 -0.4013  0.2954
  840TIP3    H124079   0.684   2.726   6.942  2.8705  0.6241 -1.7110
  840TIP3    H224080   0.758   2.611   7.007 -0.4863 -0.4537  0.4409
  841TIP3   OH224081   2.818   6.005   1.316 -0.0269 -0.3880 -0.1589
  841TIP3    H124082   2.875   6.071   1.356  0.0447  0.5878 -1.7723
  841TIP3    H224083   2.755   5.983   1.384  1.5432 -0.6251  1.2957
  842TIP3   OH224084   2.512   5.709   2.206 -0.0301 -0.2848  0.3127
  842TIP3    H124085   2.482   5.626   2.244  0.0589  0.1272  1.3328
  842TIP3    H224086   2.549   5.757   2.280  0.6646  0.3357 -0.4166
  843TIP3   OH224087   5.188   6.214   0.268 -0.3224  0.1832  0.6884
  843TIP3    H124088   5.210   6.191   0.359  0.6169 -0.7811  0.2406
  843TIP3    H224089   5.242   6.291   0.250  1.3016 -1.0081  0.2306
  844TIP3   OH224090   6.303   1.737   9.433  0.2742  0.5944 -0.1534
  844TIP3    H124091   6.286   1.828   9.409 -0.6627  0.6633  0.7254
  844TIP3    H224092   6.366   1.743   9.505  2.6273  0.4077 -2.0643
  845TIP3   OH224093   0.952   0.747   1.664  0.2088  0.2248 -0.2012
  845TIP3    H124094   0.901   0.692   1.604  2.5761 -2.6885  0.2367
  845TIP3    H224095   1.015   0.792   1.607  0.2398  0.1347 -0.2382
  846TIP3   OH224096   4.008   1.460   9.087 -0.2446  0.0332  0.2607
  846TIP3    H124097   4.042   1.505   9.010  0.2551 -0.7593 -0.0017
  846TIP3    H224098   3.917   1.439   9.066 -0.5851  1.2060  0.5245
  847TIP3   OH224099   1.534   2.443   9.553 -0.0292 -0.0306  0.0655
  847TIP3    H124100   1.507   2.401   9.635  0.3282 -0.2758  0.0560
  847TIP3    H224101   1.453   2.453   9.504 -0.3803  0.8821  0.8000
  848TIP3   OH224102   4.061   2.407   6.789  0.3171  0.0290  0.5836
  848TIP3    H124103   4.028   2.408   6.699  0.6881 -0.2907  0.4392
  848TIP3    H224104   4.141   2.353   6.785 -0.1008 -0.6650  1.2528
  849TIP3   OH224105   2.629   1.922   7.452 -0.5680  0.0543 -0.0968
  849TIP3    H124106   2.569   1.882   7.389  1.0817 -0.3777 -1.4481
  849TIP3    H224107   2.602   1.885   7.537 -1.8490 -0.5287 -0.7253
  850TIP3   OH224108   3.153   2.845   0.500  0.1659 -0.3700  0.4742
  850TIP3    H124109   3.087   2.777   0.512 -0.6778  0.2447 -0.4905
  850TIP3    H224110   3.228   2.799   0.461 -0.1846 -0.8442  0.3511
  851TIP3   OH224111   0.577   3.112   8.632  0.1478 -0.2011  0.1830
  851TIP3    H124112   0.532   3.098   8.549  0.4536  0.6160 -0.1248
  851TIP3    H224113   0.670   3.101   8.612  0.1502 -1.5659  0.7534
  852TIP3   OH224114   5.555   1.025   0.691 -0.3991 -0.2885  0.5075
  852TIP3    H124115   5.543   1.065   0.605 -0.1137  0.3763  0.7755
  852TIP3    H224116   5.582   0.935   0.671 -0.7578 -0.2705 -0.0934
  853TIP3   OH224117   5.665   1.767   1.440 -0.3648 -0.6381  0.2133
  853TIP3    H124118   5.625   1.686   1.409 -1.3044 -0.2772  0.4572
  853TIP3    H224119   5.745   1.738   1.485 -0.6562 -1.4235  0.2393
  854TIP3   OH224120   1.535   6.312   1.576 -0.0347 -0.9904  0.2058
  854TIP3    H124121   1.508   6.221   1.565 -0.5768 -0.6709 -1.4989
  854TIP3    H224122   1.627   6.313   1.552 -0.1883 -1.0094 -0.4192
  855TIP3   OH224123   1.797   3.404   7.651 -0.4985  0.0575 -0.0416
  855TIP3    H124124   1.776   3.497   7.641 -2.7962 -0.1363  1.9819
  855TIP3    H224125   1.711   3.361   7.658  0.4869 -2.3174 -1.4052
  856TIP3   OH224126   4.088   6.442   0.857  0.2368  0.2188  0.0472
  856TIP3    H124127   4.074   6.368   0.798  3.5763 -0.1290 -0.5436
  856TIP3    H224128   4.109   6.515   0.800  3.1674 -0.0291  0.6403
  857TIP3   OH224129   0.593   2.886   7.221  0.8003  0.4139 -0.5626
  857TIP3    H124130   0.525   2.923   7.277  1.0937  1.0403 -0.6093
  857TIP3    H224131   0.550   2.876   7.136 -0.7117 -3.6761  0.4430
  858TIP3   OH224132   4.346   5.030   0.530 -0.5372  0.5184  0.8178
  858TIP3    H124133   4.288   5.101   0.503  0.9382  1.1580 -0.8146
  858TIP3    H224134   4.406   5.071   0.593  0.2924  0.7374 -0.0985
  859TIP3   OH224135   5.443   3.636   0.010  0.3331 -0.3532  0.1795
  859TIP3    H124136   5.474   3.726  -0.002 -1.3679  0.1450 -0.8662
  859TIP3    H224137   5.458   3.618   0.103  2.1422  0.4216  0.0733
  860TIP3   OH224138   5.559   3.610   7.402  0.4328  0.0808  0.3046
  860TIP3    H124139   5.593   3.600   7.313  0.9258 -0.1651  0.5172
  860TIP3    H224140   5.583   3.699   7.427  1.8243 -0.3982  0.8129
  861TIP3   OH224141   3.697   3.192   1.447  0.1100 -0.1348  0.5418
  861TIP3    H124142   3.602   3.190   1.438 -0.0074  1.7367  0.8152
  861TIP3    H224143   3.715   3.275   1.491  1.9796  0.2651 -0.8248
  862TIP3   OH224144   0.455   6.084   9.019 -0.0158  0.0293  0.5227
  862TIP3    H124145   0.400   6.112   8.945  1.4697 -1.5775 -1.3304
  862TIP3    H224146   0.525   6.149   9.023  0.5519 -0.4990 -0.3266
  863TIP3   OH224147   0.122   2.213   9.082 -0.4570 -0.0564 -0.2025
  863TIP3    H124148   0.113   2.176   8.994  0.0926  0.6320 -0.5646
  863TIP3    H224149   0.032   2.226   9.112 -0.6602 -1.5323 -0.1108
  864TIP3   OH224150   3.158   0.633   8.141  0.1513  0.0042  0.4053
  864TIP3    H124151   3.077   0.642   8.191  0.0150  0.3687  0.1205
  864TIP3    H224152   3.223   0.606   8.206  0.4075  2.2106  1.1749
  865TIP3   OH224153   4.862   1.442   0.144 -0.7947 -0.1549 -0.8657
  865TIP3    H124154   4.923   1.513   0.125 -0.6121  0.3342  1.2910
  865TIP3    H224155   4.816   1.470   0.223  0.2881 -3.0000  0.9304
  866TIP3   OH224156   5.437   5.279   8.580 -0.3843  0.0569  0.3437
  866TIP3    H124157   5.384   5.357   8.564  0.0090  0.5655  1.4301
  866TIP3    H224158   5.473   5.291   8.668  0.8637 -0.6628 -0.0350
  867TIP3   OH224159   3.427   0.838   0.800 -0.4104  0.0615  0.4482
  867TIP3    H124160   3.519   0.862   0.796 -0.4661  0.4076  1.0389
  867TIP3    H224161   3.415   0.775   0.729  0.4799 -0.6866  0.9386
  868TIP3   OH224162   4.744   4.185   7.169  0.0112  0.2455  0.5861
  868TIP3    H124163   4.754   4.090   7.167  0.1859  0.2216  2.0532
  868TIP3    H224164   4.688   4.204   7.094 -0.3291 -1.0541  0.4850
  869TIP3   OH224165   6.400   6.425   7.772 -0.1606 -1.0145 -0.3535
  869TIP3    H124166   6.314   6.397   7.806  0.1071 -2.6274 -0.9295
  869TIP3    H224167   6.380   6.502   7.718 -1.1179 -0.8494  0.2017
  870TIP3   OH224168   4.656   0.625   9.092 -0.9932  0.0226 -0.8770
  870TIP3    H124169   4.628   0.658   9.177 -1.5127 -0.3044 -0.9189
  870TIP3    H224170   4.714   0.693   9.058 -0.5829  0.0432 -0.1574
  871TIP3   OH224171   6.427   3.521   9.508 -0.2362  0.9343  0.2996
  871TIP3    H124172   6.355   3.466   9.538 -0.9224  2.2083  1.0420
  871TIP3    H224173   6.449   3.577   9.582  0.1219  1.9971 -0.5719
  872TIP3   OH224174   3.011   2.573   0.941 -0.1554 -0.3804 -0.0389
  872TIP3    H124175   2.917   2.589   0.931 -0.0984 -0.8292 -1.4478
  872TIP3    H224176   3.039   2.636   1.007 -0.9649  1.5318 -1.4186
  873TIP3   OH224177   6.463   1.471   0.724 -0.1849 -0.1480 -0.7523
  873TIP3    H124178   6.478   1.500   0.814 -0.3479 -0.6372 -0.5636
  873TIP3    H224179   6.368   1.473   0.713 -0.2369 -1.0418 -0.5773
  874TIP3   OH224180   4.843   2.818   8.175 -0.3613 -0.2650  0.3486
  874TIP3    H124181   4.836   2.811   8.080  0.5858 -2.2229  0.3707
  874TIP3    H224182   4.754   2.836   8.205 -1.2032 -2.3026 -0.7572
  875TIP3   OH224183   5.932   4.313   8.598 -0.2744 -0.0897 -0.6636
  875TIP3    H124184   5.914   4.380   8.664 -0.5745 -0.7580 -0.0592
  875TIP3    H224185   5.966   4.238   8.647  1.0299 -0.0347 -1.4435
  876TIP3   OH224186   1.898   3.603   8.646 -0.4526 -0.2547 -0.0589
  876TIP3    H124187   1.840   3.668   8.607  1.5104  0.3461 -2.2270
  876TIP3    H224188   1.971   3.597   8.584  1.2846 -1.7167  2.0085
  877TIP3   OH224189   2.100   3.295   9.313 -1.0591  0.1606 -0.6308
  877TIP3    H124190   2.183   3.253   9.336 -0.7009  1.3636  0.3679
  877TIP3    H224191   2.118   3.340   9.230 -0.5279  0.9063 -0.1198
  878TIP3   OH224192   6.032   2.589   9.258 -0.4249 -0.5787  0.0226
  878TIP3    H124193   6.030   2.603   9.163  1.3680 -0.4271 -0.0218
  878TIP3    H224194   6.031   2.678   9.295 -3.2305 -0.6242  0.2792
  879TIP3   OH224195   2.194   0.413   8.464  0.1103 -0.1082 -0.7513
  879TIP3    H124196   2.140   0.418   8.543  0.6357  3.6594 -0.4280
  879TIP3    H224197   2.145   0.463   8.399  1.1800 -0.4021 -1.8142
  880TIP3   OH224198   4.610   2.714   0.894  0.4334 -0.4203  0.0659
  880TIP3    H124199   4.531   2.660   0.893  0.1929 -0.1234  1.1740
  880TIP3    H224200   4.578   2.804   0.883  0.7692 -0.4289 -1.0681
  881TIP3   OH224201   1.296   1.950   7.958  0.2910 -0.1972  0.2103
  881TIP3    H124202   1.298   1.967   8.052 -2.3709  1.1738  0.1332
  881TIP3    H224203   1.288   2.037   7.919  0.7472 -0.7946 -1.2637
  882TIP3   OH224204   4.161   0.900   1.104 -0.5329 -0.0315 -0.1848
  882TIP3    H124205   4.237   0.900   1.046 -1.0128  1.1952 -0.8281
  882TIP3    H224206   4.197   0.874   1.189  0.3331 -0.9474 -0.7965
  883TIP3   OH224207   5.090   1.614   0.096  0.1318  0.5476 -0.5159
  883TIP3    H124208   5.060   1.697   0.058  0.3062  0.1350 -1.5690
  883TIP3    H224209   5.184   1.626   0.106  0.6263 -0.5006 -3.2742
  884TIP3   OH224210   4.459   5.468   2.505  1.1884 -0.4531 -0.0072
  884TIP3    H124211   4.510   5.498   2.430  0.6288  1.0461  0.1705
  884TIP3    H224212   4.501   5.509   2.580  0.2488  0.1006  0.2273
  885TIP3   OH224213   3.855   5.021   9.023  0.2815 -0.7420  0.1612
  885TIP3    H124214   3.812   5.069   8.952 -1.1909 -0.1727  1.3681
  885TIP3    H224215   3.947   5.018   8.998  0.0062  0.5355 -1.1542
  886TIP3   OH224216   0.865   3.725   9.192 -0.1340  0.2409  1.4639
  886TIP3    H124217   0.882   3.795   9.128 -1.1744 -0.3900  0.4570
  886TIP3    H224218   0.828   3.770   9.268  1.4737  1.0493  1.8126
  887TIP3   OH224219   5.149   2.223   2.071  0.0991 -0.1986  0.0214
  887TIP3    H124220   5.208   2.149   2.054  0.4167  0.2021 -0.6773
  887TIP3    H224221   5.187   2.267   2.147  1.1841  0.5195 -0.9049
  888TIP3   OH224222   4.263   1.499   1.405 -0.0856 -0.4315 -0.4890
  888TIP3    H124223   4.179   1.542   1.394  0.5254  0.4209 -2.2603
  888TIP3    H224224   4.311   1.554   1.467 -0.8544 -1.0209  0.6663
  889TIP3   OH224225   2.221   0.987   1.717 -0.6528 -0.5931 -0.5921
  889TIP3    H124226   2.214   0.893   1.699 -0.3345 -0.8212  0.3959
  889TIP3    H224227   2.151   1.027   1.666 -1.7934 -1.5420  0.1775
  890TIP3   OH224228   0.599   6.057   7.836  0.7450 -0.5806  0.4354
  890TIP3    H124229   0.667   6.124   7.831  1.1254 -0.7347  2.4929
  890TIP3    H224230   0.621   6.007   7.915 -0.0954 -2.5107 -0.4928
  891TIP3   OH224231   4.294   3.800   1.271  0.1528  0.2844 -0.7546
  891TIP3    H124232   4.317   3.840   1.355  1.1839  1.2001 -1.4333
  891TIP3    H224233   4.331   3.712   1.275  0.3966  0.4050 -0.3345
  892TIP3   OH224234   3.567   2.787   8.691 -0.4250  0.6958 -0.1966
  892TIP3    H124235   3.551   2.848   8.764 -0.6680  0.3651  0.0304
  892TIP3    H224236   3.496   2.723   8.698 -0.7235  0.9267 -1.0058
  893TIP3   OH224237   4.193   3.328   8.434  0.0273  0.1273  0.3484
  893TIP3    H124238   4.226   3.330   8.344  0.4030  1.7573  0.4916
  893TIP3    H224239   4.250   3.388   8.482  0.7887 -1.8308  2.0398
  894TIP3   OH224240   4.115   4.984   9.329 -0.3536 -0.0823 -0.0928
  894TIP3    H124241   4.103   4.923   9.256 -3.0032 -0.0950  0.2645
  894TIP3    H224242   4.169   5.054   9.292 -0.4855 -0.7524 -1.6615
  895TIP3   OH224243   5.959   0.360   9.311  0.3282  0.1470  0.1597
  895TIP3    H124244   5.881   0.416   9.313 -0.3907 -0.7507  3.1569
  895TIP3    H224245   5.968   0.328   9.401  4.3432  0.3950  0.0455
  896TIP3   OH224246   5.195   6.500   7.608 -0.4752  0.7987 -0.0290
  896TIP3    H124247   5.171   6.467   7.521  1.9514 -0.5617 -0.2684
  896TIP3    H224248   5.265   6.562   7.591 -0.4760  1.0694  0.9389
  897TIP3   OH224249   3.930   2.392   7.888 -0.8413 -0.1093 -0.1912
  897TIP3    H124250   3.838   2.369   7.895 -1.4233  1.8284 -0.9142
  897TIP3    H224251   3.972   2.313   7.852 -1.9659 -1.4160  1.2020
  898TIP3   OH224252   6.152   5.738   0.896  0.0500 -0.1716  0.2751
  898TIP3    H124253   6.068   5.697   0.916 -0.5953  0.8563 -0.2524
  898TIP3    H224254   6.138   5.831   0.914  1.2484 -0.0607  0.7124
  899TIP3   OH224255   3.152   0.261   6.908 -0.0229 -0.2774  0.9080
  899TIP3    H124256   3.193   0.342   6.937 -0.1780  0.2979 -0.3838
  899TIP3    H224257   3.139   0.273   6.814 -1.6445 -1.1124  0.9823
  900TIP3   OH224258   1.412   2.901   7.620  0.4111 -0.0440  0.4889
  900TIP3    H124259   1.431   2.969   7.685 -0.4669 -0.4009  1.1435
  900TIP3    H224260   1.497   2.866   7.596  0.9534  1.7581 -0.3890
  901TIP3   OH224261   5.966   0.150   0.344 -0.5909 -0.3343  0.4200
  901TIP3    H124262   5.977   0.182   0.433  0.9192 -0.1737  0.1990
  901TIP3    H224263   6.048   0.171   0.300 -1.9176  1.2058 -1.5192
  902TIP3   OH224264   3.225   1.311   6.666  0.3317  0.1956  0.3861
  902TIP3    H124265   3.268   1.397   6.674 -1.9360  1.5141 -0.5707
  902TIP3    H224266   3.197   1.307   6.574  2.2025 -2.5574 -0.1948
  903TIP3   OH224267   0.811   2.177   8.866  0.0069  0.3877 -0.0548
  903TIP3    H124268   0.860   2.259   8.859  0.7979  0.2361  2.5517
  903TIP3    H224269   0.810   2.157   8.960  0.0892 -2.7333 -0.5835
  904TIP3   OH224270   5.458   0.873   8.588 -0.0435 -0.7225  0.2271
  904TIP3    H124271   5.484   0.920   8.667  1.9950 -1.5678  0.1211
  904TIP3    H224272   5.382   0.821   8.615  0.2807 -0.5739  1.4851
  905TIP3   OH224273   0.365   5.701   8.849  0.0123  0.3725  0.7079
  905TIP3    H124274   0.316   5.646   8.910  0.1592 -1.1187 -0.4584
  905TIP3    H224275   0.370   5.649   8.769 -0.2169  2.2932 -0.6065
  906TIP3   OH224276   3.981   5.451   9.023 -0.4881  0.4892 -0.2572
  906TIP3    H124277   3.993   5.444   9.118 -0.8351 -1.5194 -0.3162
  906TIP3    H224278   4.049   5.395   8.986 -0.4606  1.1287 -1.2014
  907TIP3   OH224279   1.146   4.399   8.772 -0.4917  0.0690  0.5739
  907TIP3    H124280   1.114   4.309   8.777 -0.9481  0.2394  0.8180
  907TIP3    H224281   1.067   4.452   8.773 -0.2002  0.5035  1.1887
  908TIP3   OH224282   2.220   4.454   0.161 -0.3906  0.6248  0.3543
  908TIP3    H124283   2.205   4.519   0.092  1.3595 -0.7067 -1.3819
  908TIP3    H224284   2.133   4.419   0.180 -0.8795  0.8199 -1.3886
  909TIP3   OH224285   4.984   0.792   8.801 -0.3320 -0.3302 -0.0041
  909TIP3    H124286   4.905   0.814   8.850 -0.3563  0.3808 -0.3599
  909TIP3    H224287   4.951   0.761   8.716 -0.2673 -1.0079  0.2143
  910TIP3   OH224288   2.562   2.295   9.056 -0.4229  0.3736  0.4732
  910TIP3    H124289   2.569   2.207   9.019 -1.8201 -0.0826  1.2559
  910TIP3    H224290   2.516   2.345   8.989 -1.3381  0.0069  0.8157
  911TIP3   OH224291   0.289   0.281   1.017  0.3024 -0.2678 -0.0107
  911TIP3    H124292   0.308   0.229   0.939  0.1833 -1.7346  0.9010
  911TIP3    H224293   0.208   0.327   0.996 -1.0488 -2.4699  0.0622
  912TIP3   OH224294   0.476   2.070   1.866  0.6788 -0.2220  0.2409
  912TIP3    H124295   0.461   2.082   1.959 -1.8594  2.2682 -0.3439
  912TIP3    H224296   0.482   1.975   1.854 -0.8101 -0.7187  2.6927
  913TIP3   OH224297   6.230   2.720   7.468 -0.2108 -0.1409 -0.0984
  913TIP3    H124298   6.317   2.707   7.507  0.3974 -2.3089 -1.9518
  913TIP3    H224299   6.247   2.732   7.375 -1.7676  2.5469 -0.1426
  914TIP3   OH224300   5.083   4.067   6.542 -0.7085  0.0397  0.0101
  914TIP3    H124301   4.995   4.062   6.580 -1.7020  1.2544 -1.9527
  914TIP3    H224302   5.114   4.154   6.564 -0.4948  0.0558 -0.3476
  915TIP3   OH224303   3.232   5.030   0.189 -0.0726  0.0588 -0.2185
  915TIP3    H124304   3.259   4.978   0.113 -2.1081 -0.5370 -0.6113
  915TIP3    H224305   3.256   5.119   0.167 -0.4146 -0.1402 -1.4839
  916TIP3   OH224306   4.634   3.778   0.111  0.2198 -0.0026  0.2035
  916TIP3    H124307   4.560   3.719   0.124  1.0653 -0.6694  2.4473
  916TIP3    H224308   4.603   3.863   0.142 -0.3836  0.3358 -1.2509
  917TIP3   OH224309   6.411   3.888   7.332 -0.3776  0.5844 -0.0271
  917TIP3    H124310   6.496   3.929   7.349 -1.3668  2.3082  1.1009
  917TIP3    H224311   6.420   3.849   7.245  1.0971  2.0311 -0.5814
  918TIP3   OH224312   5.858   0.448   0.554  0.3411 -0.1896  0.6888
  918TIP3    H124313   5.912   0.420   0.628  1.4330  1.6312  0.6471
  918TIP3    H224314   5.776   0.478   0.594  0.0156 -1.3350  0.9158
  919TIP3   OH224315   0.606   6.490   0.825  0.2791  0.0008 -0.2962
  919TIP3    H124316   0.616   6.522   0.914 -1.3323 -0.5656  0.1055
  919TIP3    H224317   0.643   6.560   0.770  2.3058 -0.1164  0.8158
  920TIP3   OH224318   3.327   1.182   8.910  0.8454  0.2884  0.0722
  920TIP3    H124319   3.405   1.233   8.888  1.1433 -0.6846 -1.2167
  920TIP3    H224320   3.335   1.166   9.004  1.2788  1.6908  0.3027
  921TIP3   OH224321   5.598   4.116   7.064  0.0414 -0.1078  0.0877
  921TIP3    H124322   5.579   4.144   6.974  0.1221 -1.5650 -0.4027
  921TIP3    H224323   5.659   4.183   7.097 -0.4115  0.7461 -0.7364
  922TIP3   OH224324   0.450   2.109   9.242  0.0379 -0.3674 -0.2094
  922TIP3    H124325   0.391   2.035   9.229 -1.3008  0.4034  1.1475
  922TIP3    H224326   0.401   2.185   9.210  0.4710  0.2290  0.5093
  923TIP3   OH224327   3.007   2.792   9.074  0.3180  0.4158  1.0640
  923TIP3    H124328   3.038   2.879   9.049  2.3934  0.2940  2.8275
  923TIP3    H224329   2.971   2.755   8.994  2.1984  1.7574 -0.5008
  924TIP3   OH224330   2.182   4.826   0.751 -0.4155 -0.3961  0.3213
  924TIP3    H124331   2.174   4.849   0.843  0.9210 -2.7361  1.1100
  924TIP3    H224332   2.276   4.833   0.732 -0.8251  1.4820 -1.3234
  925TIP3   OH224333   2.889   0.065   2.558 -0.3167  0.0256 -0.5721
  925TIP3    H124334   2.829  -0.010   2.550 -1.5554  0.6998  1.6480
  925TIP3    H224335   2.956   0.048   2.492 -0.9910 -2.6302 -0.7044
  926TIP3   OH224336   2.344   0.245   7.427 -0.1907 -0.2146  0.3309
  926TIP3    H124337   2.370   0.297   7.351 -0.1827 -0.0614  0.4381
  926TIP3    H224338   2.425   0.202   7.455  0.0513  0.6242  0.9453
  927TIP3   OH224339   2.892   5.510   1.072 -0.0749 -0.6413 -0.5289
  927TIP3    H124340   2.899   5.503   1.167 -1.1133 -2.3040 -0.5371
  927TIP3    H224341   2.895   5.604   1.054 -2.1411 -0.1398  1.3716
  928TIP3   OH224342   1.294   2.101   7.369  0.1001 -0.4247  0.2500
  928TIP3    H124343   1.211   2.066   7.402 -0.9429  0.3774 -1.3981
  928TIP3    H224344   1.332   2.029   7.318 -1.1039  0.1212 -1.5169
  929TIP3   OH224345   4.010   4.307   1.615 -0.5681  0.1621  0.2983
  929TIP3    H124346   4.028   4.357   1.694 -2.3441  1.4637 -0.0754
  929TIP3    H224347   4.070   4.343   1.549  0.6031 -0.6310  0.8880
  930TIP3   OH224348   1.438   3.109   9.357  0.0714  0.2544  0.1331
  930TIP3    H124349   1.414   3.037   9.415 -3.9642  1.3567  0.1428
  930TIP3    H224350   1.465   3.180   9.416 -2.8182  0.9617  0.7431
  931TIP3   OH224351   3.803   5.069   0.546  0.3213 -0.1091 -0.1994
  931TIP3    H124352   3.754   4.994   0.512 -0.1317  0.4457 -0.8004
  931TIP3    H224353   3.742   5.115   0.603  0.7518 -0.4559  0.5566
  932TIP3   OH224354   1.929   5.852   1.679 -0.5125  0.0791 -0.2307
  932TIP3    H124355   1.879   5.779   1.716 -0.7236 -0.6697 -1.9106
  932TIP3    H224356   1.917   5.923   1.742 -1.1683 -1.0074  0.9212
  933TIP3   OH224357   3.072   2.841   8.282  0.1732  0.1219 -0.3380
  933TIP3    H124358   3.140   2.907   8.270  0.0915  0.3750  0.5286
  933TIP3    H224359   3.057   2.806   8.194  1.9793 -0.5089 -0.4493
  934TIP3   OH224360   5.663   4.853   0.625  0.1233  0.2022 -0.2395
  934TIP3    H124361   5.752   4.835   0.654  0.6409 -0.4526 -2.1017
  934TIP3    H224362   5.616   4.878   0.705  2.0338  0.8785  0.7226
  935TIP3   OH224363   4.432   2.921   8.944 -0.7224  0.6449  0.4847
  935TIP3    H124364   4.361   2.927   9.008 -0.9882  2.3977  0.0592
  935TIP3    H224365   4.512   2.937   8.996 -0.5578 -1.5561  1.0063
  936TIP3   OH224366   2.451   2.284   7.957 -0.2852 -0.6689 -0.3758
  936TIP3    H124367   2.382   2.345   7.930  0.5907  0.2570 -0.5828
  936TIP3    H224368   2.451   2.217   7.888 -0.2632 -0.0894 -0.9509
  937TIP3   OH224369   0.128   0.275   8.414  0.1872 -0.3290  0.1351
  937TIP3    H124370   0.156   0.241   8.329 -0.3992 -0.8168  0.1277
  937TIP3    H224371   0.055   0.334   8.393  1.9880  2.0130  0.0162
  938TIP3   OH224372   5.699   2.084   1.615  0.0625 -0.2111 -0.4010
  938TIP3    H124373   5.773   2.041   1.573  2.4998  1.7162  1.5861
  938TIP3    H224374   5.726   2.093   1.706 -2.4916  0.9570  0.3181
  939TIP3   OH224375   2.922   0.070   6.752  0.1713  0.6355  0.5782
  939TIP3    H124376   2.854   0.133   6.774  1.0644  1.0814  2.2468
  939TIP3    H224377   2.907  -0.005   6.809 -2.0615 -1.6952 -2.7031
  940TIP3   OH224378   0.015   2.351   1.628 -0.1717  0.6091 -0.2540
  940TIP3    H124379   0.104   2.339   1.659 -0.4453  0.7951  0.6239
  940TIP3    H224380  -0.025   2.264   1.633  0.4298  0.1591 -2.2460
  941TIP3   OH224381   0.151   4.473   8.717  0.0829  0.2380  0.3847
  941TIP3    H124382   0.057   4.488   8.712 -0.0025 -0.5752 -0.9417
  941TIP3    H224383   0.172   4.480   8.810 -1.3174  0.1838  0.7214
  942TIP3   OH224384   2.946   0.617   2.054  0.1455  0.2602  0.4662
  942TIP3    H124385   2.952   0.522   2.056  1.2765  0.2706 -0.6176
  942TIP3    H224386   3.009   0.646   2.121  2.2756  0.2238 -1.3876
  943TIP3   OH224387   3.021   5.454   0.693 -0.1767  0.0438 -0.0946
  943TIP3    H124388   2.959   5.525   0.673 -2.2095 -1.8468 -0.9565
  943TIP3    H224389   2.981   5.407   0.765  0.1213 -1.3733 -0.8254
  944TIP3   OH224390   3.759   4.273   8.210  0.3676  0.3833  0.5265
  944TIP3    H124391   3.723   4.248   8.125  2.2007  1.5979 -0.6894
  944TIP3    H224392   3.758   4.192   8.261 -0.2991 -0.4922 -0.8288
  945TIP3   OH224393   4.678   2.339   7.546  0.7234  0.3916 -0.0224
  945TIP3    H124394   4.747   2.376   7.491  0.9821  0.0259  0.0469
  945TIP3    H224395   4.670   2.400   7.619  1.9201 -0.2360  0.6641
  946TIP3   OH224396   3.866   4.542   0.502  0.1760  0.6652  0.6914
  946TIP3    H124397   3.773   4.563   0.497  0.3173  1.3028  0.6603
  946TIP3    H224398   3.875   4.460   0.454 -0.5052  0.1494  1.4109
  947TIP3   OH224399   4.357   3.439   1.274 -0.6829  0.3117 -0.3424
  947TIP3    H124400   4.267   3.448   1.241 -1.0929 -2.6318 -0.3142
  947TIP3    H224401   4.398   3.376   1.213  0.2635 -1.0011  1.5516
  948TIP3   OH224402   1.652   5.775   0.755  0.1035 -0.5341 -0.6546
  948TIP3    H124403   1.557   5.786   0.747  0.2498  1.0119 -0.4890
  948TIP3    H224404   1.687   5.864   0.754  1.3859 -0.9569  1.4377
  949TIP3   OH224405   1.620   2.119   0.948  0.2445  0.5703 -0.3404
  949TIP3    H124406   1.562   2.171   1.003  0.1918 -1.7812  2.0366
  949TIP3    H224407   1.685   2.181   0.916 -0.7065  2.3516  1.0490
  950TIP3   OH224408   2.837   3.406   0.937  0.0298 -0.2460 -0.4196
  950TIP3    H124409   2.755   3.446   0.968  0.7351  0.3235  0.7771
  950TIP3    H224410   2.888   3.479   0.904  0.5375 -0.4225 -0.0379
  951TIP3   OH224411   5.267   2.948   2.223  0.4765 -0.2433  0.4109
  951TIP3    H124412   5.337   2.946   2.158  0.5597 -1.3199  0.5178
  951TIP3    H224413   5.303   2.998   2.297  0.0223  1.9113 -0.7265
  952TIP3   OH224414   3.992   4.542   0.742  0.0762  0.0642  0.3256
  952TIP3    H124415   3.922   4.507   0.797  0.0396 -2.4128 -1.1143
  952TIP3    H224416   3.952   4.549   0.655  1.1159  0.3444 -0.1422
  953TIP3   OH224417   5.202   0.001   9.562 -0.3850  0.4008  0.3016
  953TIP3    H124418   5.135  -0.061   9.590  1.4296 -0.4764  3.0858
  953TIP3    H224419   5.178   0.083   9.605 -0.6348  0.5717 -0.1609
  954TIP3   OH224420   0.880   3.313   8.274  0.3229 -0.0078 -0.3570
  954TIP3    H124421   0.818   3.256   8.319  0.0919  0.9881  0.6242
  954TIP3    H224422   0.903   3.266   8.194 -1.1813 -0.6896 -0.4033
  955TIP3   OH224423   6.295   6.213   0.367 -0.2809  0.0695 -0.3766
  955TIP3    H124424   6.273   6.305   0.384  0.2114  0.1067  0.0740
  955TIP3    H224425   6.260   6.166   0.442  0.3703  0.0172 -0.1026
  956TIP3   OH224426   1.403   5.232   9.100 -0.2647 -1.0716 -0.0462
  956TIP3    H124427   1.406   5.149   9.146 -0.9520 -0.1062  1.8383
  956TIP3    H224428   1.397   5.298   9.169 -0.6008  0.4982 -1.4999
  957TIP3   OH224429   2.943   6.373   0.830  0.0471  0.1075  0.1982
  957TIP3    H124430   2.983   6.415   0.907  0.2529  0.5014 -0.1195
  957TIP3    H224431   2.935   6.281   0.855  0.5620  0.1388  0.5132
  958TIP3   OH224432   4.336   2.931   7.178 -0.2077  0.2289 -0.1175
  958TIP3    H124433   4.327   2.950   7.271  3.1046 -0.1009  0.4062
  958TIP3    H224434   4.274   2.989   7.135 -1.7523  0.4720  2.2481
  959TIP3   OH224435   1.759   0.576   8.492 -0.4624  0.3031  0.1365
  959TIP3    H124436   1.806   0.637   8.435 -0.9466  0.2716 -0.3022
  959TIP3    H224437   1.683   0.549   8.440  0.7310 -2.1900 -0.4734
  960TIP3   OH224438   1.897   3.415   7.918  0.2353  0.2194 -0.6508
  960TIP3    H124439   1.871   3.413   7.826 -2.8395 -1.4884  0.1334
  960TIP3    H224440   1.890   3.507   7.942 -3.4020  0.2257 -1.1185
  961TIP3   OH224441   3.307   2.175   6.515  0.3676  0.0506  0.2942
  961TIP3    H124442   3.366   2.241   6.552  1.1293 -0.5906  0.2571
  961TIP3    H224443   3.365   2.103   6.491 -0.3203 -0.1805 -0.6966
  962TIP3   OH224444   0.489   0.858   9.079 -0.0976 -0.2660  0.8654
  962TIP3    H124445   0.397   0.847   9.056  0.1226 -1.4833  0.5426
  962TIP3    H224446   0.487   0.880   9.173 -0.7225  0.1012  0.7779
  963TIP3   OH224447   3.686   0.513   1.222 -0.0189 -0.2268  0.1385
  963TIP3    H124448   3.731   0.595   1.240 -0.6860 -0.2038  1.9345
  963TIP3    H224449   3.755   0.446   1.225 -0.0595 -0.3018  3.7097
  964TIP3   OH224450   0.258   4.808   0.404  1.2068  0.1675  0.2812
  964TIP3    H124451   0.302   4.853   0.333  2.0645  0.4032  0.9467
  964TIP3    H224452   0.315   4.734   0.426 -0.0296 -1.1200 -0.6012
  965TIP3   OH224453   3.008   3.108   0.355 -0.1961  0.4308  0.4808
  965TIP3    H124454   3.073   3.171   0.385  2.9517 -2.2490 -0.0746
  965TIP3    H224455   2.979   3.063   0.435  0.8176 -0.2121  0.5062
  966TIP3   OH224456   4.705   4.652   0.406 -0.1785  0.2026  0.0890
  966TIP3    H124457   4.714   4.578   0.346  0.9895  0.2337  0.1977
  966TIP3    H224458   4.763   4.629   0.479 -1.3485  0.2982  1.0744
  967TIP3   OH224459   3.482   0.256   2.694 -0.5303 -0.6731  0.2202
  967TIP3    H124460   3.452   0.335   2.649 -0.1980 -0.2462  0.7338
  967TIP3    H224461   3.561   0.284   2.742 -0.1914 -1.4093  0.0971
  968TIP3   OH224462   2.221   4.659   1.618  0.1782 -0.2816 -0.1341
  968TIP3    H124463   2.226   4.606   1.538  0.2451  0.4561 -0.6276
  968TIP3    H224464   2.307   4.651   1.658  0.3722 -0.0941 -0.5065
  969TIP3   OH224465   5.906   6.188   8.615 -0.4919  0.4647 -0.5770
  969TIP3    H124466   5.998   6.173   8.594 -0.3630 -0.4330  0.5354
  969TIP3    H224467   5.858   6.122   8.565 -0.5425  0.9294 -1.1531
  970TIP3   OH224468   1.370   6.160   8.856  0.0902 -0.6536 -0.7722
  970TIP3    H124469   1.462   6.183   8.846  0.9399 -2.9652  0.8060
  970TIP3    H224470   1.355   6.089   8.793  0.2082 -2.1121  0.7491
  971TIP3   OH224471   6.291   1.172   8.948 -0.5252 -0.2991 -0.2825
  971TIP3    H124472   6.273   1.188   9.041 -3.0976 -0.4341 -0.6797
  971TIP3    H224473   6.327   1.084   8.945  0.3679  0.0165  0.6450
  972TIP3   OH224474   5.219   1.216   1.039 -0.0669 -0.7472 -0.1111
  972TIP3    H124475   5.220   1.284   1.105 -1.5904 -1.4881  0.7182
  972TIP3    H224476   5.216   1.263   0.956 -1.2434  0.2089  0.4451
  973TIP3   OH224477   2.574   2.304   6.754  0.6617  0.0056  0.4367
  973TIP3    H124478   2.544   2.251   6.680 -0.2966 -3.8056  3.2491
  973TIP3    H224479   2.522   2.384   6.748 -0.3532 -0.7325 -2.2406
  974TIP3   OH224480   3.702   2.457   9.123  0.4850  0.4106 -0.1619
  974TIP3    H124481   3.729   2.495   9.206 -1.0746 -0.3989  0.7528
  974TIP3    H224482   3.624   2.407   9.143  0.5421 -0.5024 -1.9702
  975TIP3   OH224483   4.456   1.882   9.278  0.0986 -0.1157 -0.3800
  975TIP3    H124484   4.545   1.876   9.244  0.3585  1.0322  0.0545
  975TIP3    H224485   4.413   1.946   9.221 -0.5883 -0.9788 -0.8552
  976TIP3   OH224486   2.208   2.587   7.474  0.0835 -0.2973  0.5018
  976TIP3    H124487   2.143   2.618   7.411 -0.3487 -0.0213  1.0840
  976TIP3    H224488   2.158   2.561   7.551  0.7168  0.8621  1.3388
  977TIP3   OH224489   1.873   5.978   7.972  0.4168  0.2268 -0.0551
  977TIP3    H124490   1.951   6.002   8.022  0.2249 -1.1583  0.9740
  977TIP3    H224491   1.843   5.897   8.013 -1.9384  1.0515 -0.0336
  978TIP3   OH224492   6.131   2.277   0.738  0.8237 -0.0933  0.2785
  978TIP3    H124493   6.082   2.315   0.811 -2.9414  0.1818 -2.1854
  978TIP3    H224494   6.181   2.350   0.702 -0.4469  0.7472  0.1797
  979TIP3   OH224495   5.323   3.098   1.079  0.5341  0.0938  0.5505
  979TIP3    H124496   5.286   3.073   1.163  1.8524 -1.5180  0.7009
  979TIP3    H224497   5.252   3.084   1.016  0.2223 -0.8905  1.1016
  980TIP3   OH224498   3.663   0.100   0.606  0.5365  0.1482 -0.0432
  980TIP3    H124499   3.747   0.143   0.622 -0.2570  1.1021  1.8491
  980TIP3    H224500   3.641   0.057   0.688  0.0363 -1.7392 -1.0939
  981TIP3   OH224501   0.970   2.640   9.070 -0.0802 -0.5262  0.6061
  981TIP3    H124502   0.897   2.684   9.027  0.4933 -0.8585 -0.7833
  981TIP3    H224503   0.933   2.603   9.149 -0.5117  2.7584  2.1184
  982TIP3   OH224504   0.544   1.079   8.629 -0.4667 -0.5904 -0.4339
  982TIP3    H124505   0.529   1.025   8.552 -1.5499  0.0613 -0.7042
  982TIP3    H224506   0.457   1.110   8.654  0.2614  3.1003 -1.8049
  983TIP3   OH224507   0.531   1.380   1.886  0.3303  0.3016 -0.1753
  983TIP3    H124508   0.569   1.300   1.849  1.8802  1.8295 -2.0923
  983TIP3    H224509   0.450   1.393   1.837  0.1642  0.0452  0.0211
  984TIP3   OH224510   2.438   6.198   1.323  0.1808 -0.2687  0.0304
  984TIP3    H124511   2.499   6.124   1.331  0.1943 -0.4059 -1.2103
  984TIP3    H224512   2.388   6.180   1.244 -1.0183  0.1974  0.6497
  985TIP3   OH224513   0.219   2.399   1.977  0.1658  0.5258  0.5967
  985TIP3    H124514   0.256   2.477   2.018  0.2578  1.2904 -0.8852
  985TIP3    H224515   0.284   2.371   1.913  0.7540 -1.6094  2.0243
  986TIP3   OH224516   5.858   0.529   7.956 -0.0457  0.3818 -0.0252
  986TIP3    H124517   5.806   0.608   7.942  0.1435  0.5178  0.0391
  986TIP3    H224518   5.922   0.530   7.885  0.4593  0.6977  0.4291
  987TIP3   OH224519   4.771   0.733   8.328 -0.3169 -0.2926 -0.6094
  987TIP3    H124520   4.735   0.746   8.241 -1.6953 -0.6265 -0.1140
  987TIP3    H224521   4.848   0.678   8.313  0.8942  1.6218 -1.8342
  988TIP3   OH224522   5.387   0.282   0.409  0.2825  0.4415  0.3575
  988TIP3    H124523   5.479   0.310   0.412  0.3205  0.4424 -0.7076
  988TIP3    H224524   5.341   0.344   0.465  1.1021 -0.2635  1.8784
  989TIP3   OH224525   2.597   1.782   0.167 -0.2009  0.1704 -0.4610
  989TIP3    H124526   2.598   1.833   0.248  2.3147  0.2101 -0.4473
  989TIP3    H224527   2.595   1.691   0.195 -0.0382  0.1963 -0.3664
  990TIP3   OH224528   5.800   5.958   8.295  0.7951  0.5580  0.5907
  990TIP3    H124529   5.742   6.009   8.352  1.9211  2.6321 -0.0024
  990TIP3    H224530   5.757   5.960   8.209 -0.1121 -1.2072  0.9679
  991TIP3   OH224531   2.743   4.251   0.718 -0.2627 -0.1561  0.2401
  991TIP3    H124532   2.785   4.316   0.663  3.8563 -2.9962 -0.4146
  991TIP3    H224533   2.667   4.222   0.667  0.1265  1.3034 -1.2565
  992TIP3   OH224534   0.989   4.771   1.359 -0.2861  0.3613 -0.2428
  992TIP3    H124535   0.998   4.819   1.441 -0.1569 -2.2223  1.3563
  992TIP3    H224536   1.008   4.680   1.382 -1.8794 -0.7300 -2.8009
  993TIP3   OH224537   1.241   1.713   7.858  0.5271  0.5371  0.7870
  993TIP3    H124538   1.253   1.806   7.877  0.5471  0.6511  0.2135
  993TIP3    H224539   1.227   1.709   7.764  0.6193 -0.0528  0.7957
  994TIP3   OH224540   4.263   0.784   1.350  0.7807  0.2155  0.2430
  994TIP3    H124541   4.207   0.804   1.426  2.3212 -0.4619  1.6140
  994TIP3    H224542   4.351   0.775   1.387  1.2757 -2.1784 -1.2930
  995TIP3   OH224543   2.137   4.917   8.852 -0.0834 -0.3209 -0.6081
  995TIP3    H124544   2.135   4.827   8.886 -0.2967  0.2939  1.0915
  995TIP3    H224545   2.049   4.933   8.820 -1.0109  0.3018  2.0188
  996TIP3   OH224546   3.363   3.410   7.763  0.0263 -0.0069  0.5293
  996TIP3    H124547   3.335   3.391   7.674  2.1812 -0.2299 -0.1568
  996TIP3    H224548   3.304   3.479   7.793 -0.1634  0.7230 -1.3959
  997TIP3   OH224549   1.509   6.527   7.706 -0.0496  0.2684  0.3136
  997TIP3    H124550   1.462   6.445   7.692  0.3812  0.0611  0.0338
  997TIP3    H224551   1.569   6.533   7.632  1.7689 -0.4889  1.6326
  998TIP3   OH224552   3.630   4.045   8.904 -0.1017 -1.1019 -0.1066
  998TIP3    H124553   3.536   4.060   8.916  0.2707  2.0905 -0.3133
  998TIP3    H224554   3.667   4.049   8.992  0.0068 -0.7377 -0.1663
  999TIP3   OH224555   0.304   3.026   8.627 -0.1833 -0.0369  0.3115
  999TIP3    H124556   0.218   3.031   8.669  0.3313 -1.4739  1.6681
  999TIP3    H224557   0.350   3.105   8.655 -1.3287  1.2136 -1.1763
 1000TIP3   OH224558   3.030   1.216   2.154 -0.2248  0.4948  0.0490
 1000TIP3    H124559   3.100   1.151   2.157 -0.5532 -0.1834 -3.1670
 1000TIP3    H224560   2.949   1.165   2.149 -0.5496  1.1010 -1.5527
 1001TIP3   OH224561   0.167   1.569   7.441  0.5112  0.3300  0.4410
 1001TIP3    H124562   0.245   1.521   7.412  1.1627  0.3454  2.0734
 1001TIP3    H224563   0.174   1.654   7.397 -0.1992 -0.6927 -1.7866
 1002TIP3   OH224564   5.533   4.895   7.880  0.3989 -0.6156 -1.0011
 1002TIP3    H124565   5.593   4.950   7.830  1.2949 -0.3170  0.3550
 1002TIP3    H224566   5.487   4.843   7.814  2.4464 -1.1721 -2.0519
 1003TIP3   OH224567   5.397   2.526   6.806 -0.3128 -0.0564  0.2513
 1003TIP3    H124568   5.430   2.474   6.879 -1.8472 -1.5901 -0.1036
 1003TIP3    H224569   5.327   2.474   6.768 -2.7532  2.7693  0.5610
 1004TIP3   OH224570   2.159   0.760   9.477  0.1467  0.0450  0.1327
 1004TIP3    H124571   2.225   0.744   9.410 -0.4702  2.4089 -1.1279
 1004TIP3    H224572   2.165   0.853   9.496 -1.7646  0.0155  1.1545
 1005TIP3   OH224573   3.477   1.210   1.736 -0.6474  0.3537 -0.5257
 1005TIP3    H124574   3.504   1.289   1.688 -0.4789  0.0342 -0.9676
 1005TIP3    H224575   3.463   1.145   1.668 -1.9737  0.3292 -0.2584
 1006TIP3   OH224576   2.677   0.626   1.980  0.0413  0.0513 -0.1384
 1006TIP3    H124577   2.641   0.713   2.000 -0.0377  0.3337 -1.4292
 1006TIP3    H224578   2.771   0.636   1.995  0.0865  0.4864 -0.6688
 1007TIP3   OH224579   4.489   4.686   2.567 -0.4338  0.0857 -0.0620
 1007TIP3    H124580   4.408   4.732   2.542  0.1833  0.8905 -0.6130
 1007TIP3    H224581   4.460   4.620   2.630 -1.7182 -0.5794 -1.3086
 1008TIP3   OH224582   0.447   2.422   0.459  0.1525  0.3837  0.6907
 1008TIP3    H124583   0.488   2.508   0.452 -0.5891  0.6299 -0.8357
 1008TIP3    H224584   0.436   2.409   0.553  0.7818  1.7043  0.9728
 1009TIP3   OH224585   5.827   5.123   7.937 -0.4368  0.0210 -0.3307
 1009TIP3    H124586   5.767   5.193   7.912  0.3449  0.7549 -0.1979
 1009TIP3    H224587   5.786   5.082   8.013 -0.6820  0.6455 -0.1177
 1010TIP3   OH224588   3.475   1.081   0.435  0.7072 -0.6554 -0.5073
 1010TIP3    H124589   3.504   0.992   0.416  0.5101 -0.6839 -0.6766
 1010TIP3    H224590   3.431   1.074   0.520 -0.6893 -1.0241 -1.2367
 1011TIP3   OH224591   5.118   0.224   0.631 -0.0787 -0.5700 -0.2998
 1011TIP3    H124592   5.045   0.181   0.676 -1.0856 -0.2446 -1.5738
 1011TIP3    H224593   5.110   0.197   0.540  0.3789  0.8205 -0.7803
 1012TIP3   OH224594   2.427   5.789   9.562 -0.0809 -0.3028  0.6722
 1012TIP3    H124595   2.512   5.761   9.594  0.5902  0.4472 -0.3706
 1012TIP3    H224596   2.368   5.781   9.637  0.9076 -0.8105  1.4084
 1013TIP3   OH224597   5.037   2.668   0.765  0.1528  0.1903 -0.0832
 1013TIP3    H124598   4.992   2.745   0.797 -1.7786 -0.9623  0.1362
 1013TIP3    H224599   5.081   2.632   0.842  1.8543  1.5218 -0.3733
 1014TIP3   OH224600   0.441   2.583   1.761 -0.1951 -0.5410  0.4469
 1014TIP3    H124601   0.382   2.655   1.742  0.9784  0.8941  1.8729
 1014TIP3    H224602   0.500   2.580   1.686 -1.2726 -1.1546 -0.3973
 1015TIP3   OH224603   2.931   2.782   7.507 -0.2866 -0.2648  0.3013
 1015TIP3    H124604   2.836   2.766   7.507 -0.2175 -0.7766 -0.8809
 1015TIP3    H224605   2.938   2.877   7.504 -0.7500 -0.1975  0.9768
 1016TIP3   OH224606   3.802   6.190   8.620  0.4496  0.1674  0.0715
 1016TIP3    H124607   3.727   6.167   8.565  0.5863  1.2426 -0.6065
 1016TIP3    H224608   3.824   6.109   8.665 -0.7641 -0.3109 -0.1385
 1017TIP3   OH224609   0.060   2.567   6.822  0.4487  0.1891 -0.1784
 1017TIP3    H124610   0.072   2.660   6.843 -3.1948  0.8132 -0.2365
 1017TIP3    H224611  -0.024   2.564   6.776  0.2106 -3.2285  0.2764
 1018TIP3   OH224612   0.744   2.397   3.087  0.4363  0.1312 -0.1460
 1018TIP3    H124613   0.831   2.435   3.085  0.5115 -0.0684 -0.9246
 1018TIP3    H224614   0.757   2.309   3.123  0.2076  0.9222  2.0358
 1019TIP3   OH224615   1.255   1.487   1.830  0.6350  0.5190  0.3889
 1019TIP3    H124616   1.335   1.460   1.785  1.4530  1.2868  1.3240
 1019TIP3    H224617   1.201   1.408   1.833  1.0312  0.1729 -0.9143
 1020TIP3   OH224618   1.370   1.824   0.548 -0.1929  0.0718  0.6191
 1020TIP3    H124619   1.452   1.814   0.500 -0.8634  1.6921 -0.9425
 1020TIP3    H224620   1.371   1.752   0.612  3.0638  0.8349  1.6075
 1021TIP3   OH224621   2.880   1.228   0.677  0.1980 -0.3155 -0.4805
 1021TIP3    H124622   2.949   1.261   0.734 -1.0364 -2.5014  2.5052
 1021TIP3    H224623   2.927   1.174   0.613  1.3902 -1.1218  0.9967
 1022TIP3   OH224624   5.408   1.966   0.390  0.0653  0.2073 -0.4782
 1022TIP3    H124625   5.470   1.916   0.338 -0.7162 -0.9906 -0.2888
 1022TIP3    H224626   5.453   1.981   0.474  0.0851 -0.6926 -0.3224
 1023TIP3   OH224627   0.601   0.632   8.350 -0.6434  0.0705 -0.1884
 1023TIP3    H124628   0.520   0.581   8.350 -0.2771 -0.5419  0.7164
 1023TIP3    H224629   0.655   0.592   8.418 -0.1941  1.4443  0.3091
 1024TIP3   OH224630   4.851   3.872   2.755 -0.1882  0.8183 -0.2286
 1024TIP3    H124631   4.772   3.830   2.789 -0.1343  0.5681 -0.4138
 1024TIP3    H224632   4.830   3.894   2.665  0.3969 -0.4004 -0.6767
 1025TIP3   OH224633   3.708   1.289   1.863 -0.2955 -0.5247  0.0040
 1025TIP3    H124634   3.646   1.225   1.828 -2.4798  0.8037  1.2019
 1025TIP3    H224635   3.653   1.361   1.895  1.9431  1.1975  0.2639
 1026TIP3   OH224636   3.381   3.673   6.961  0.2733 -0.1177 -0.5208
 1026TIP3    H124637   3.405   3.627   6.880 -2.7057 -1.4494 -0.7703
 1026TIP3    H224638   3.327   3.610   7.009 -0.7455  1.8096  0.9793
 1027TIP3   OH224639   5.151   5.142   7.868 -0.2406  0.0332 -0.4770
 1027TIP3    H124640   5.135   5.225   7.823 -0.0781  0.0459 -0.5146
 1027TIP3    H224641   5.197   5.166   7.948 -0.3627 -0.0047 -0.3971
 1028TIP3   OH224642   2.582   3.141   0.218 -0.1293 -0.3479 -0.4138
 1028TIP3    H124643   2.564   3.169   0.128  0.5010 -2.3148 -1.2110
 1028TIP3    H224644   2.624   3.055   0.208 -0.2691 -0.7179  1.7746
 1029TIP3   OH224645   2.257   4.688   9.291 -0.0460 -0.0396 -0.5586
 1029TIP3    H124646   2.309   4.761   9.327  1.2113  0.1317 -2.5680
 1029TIP3    H224647   2.232   4.717   9.204 -0.6720 -1.5024 -0.8931
 1030TIP3   OH224648   5.066   5.516   0.903  0.1121 -0.4137 -0.0856
 1030TIP3    H124649   5.042   5.444   0.961 -0.2544  0.0337  0.3256
 1030TIP3    H224650   5.005   5.586   0.925  1.0890  0.3751  0.2093
 1031TIP3   OH224651   2.605   6.139   8.478 -0.3199 -0.2835  0.0877
 1031TIP3    H124652   2.565   6.226   8.483 -0.0537 -0.2559  2.9094
 1031TIP3    H224653   2.549   6.083   8.532  0.1540 -1.6227 -0.7535
 1032TIP3   OH224654   5.363   2.336   1.779 -0.1911 -0.0700  0.0456
 1032TIP3    H124655   5.298   2.266   1.766  1.9195 -1.9252 -1.2097
 1032TIP3    H224656   5.437   2.292   1.821  0.5918  1.7919  0.6787
 1033TIP3   OH224657   1.515   0.659   2.311  0.7373 -0.3022  0.0682
 1033TIP3    H124658   1.557   0.694   2.390  1.2314  0.9409 -0.7065
 1033TIP3    H224659   1.528   0.564   2.317 -0.1684 -0.3646  1.9860
 1034TIP3   OH224660   0.812   3.786   8.867  0.1148 -0.8434  0.1556
 1034TIP3    H124661   0.779   3.817   8.783  0.9281 -0.0383  0.1128
 1034TIP3    H224662   0.861   3.707   8.846  0.5579 -0.4876 -0.1803
 1035TIP3   OH224663   2.017   0.706   8.740 -0.0132 -0.3151 -0.3887
 1035TIP3    H124664   2.042   0.768   8.671  0.2847  0.4516  0.4070
 1035TIP3    H224665   2.030   0.753   8.822  0.7250 -1.5969  0.2598
 1036TIP3   OH224666   2.278   3.730   1.344 -0.0350  0.2131  0.0893
 1036TIP3    H124667   2.252   3.747   1.254 -0.1837  2.3115  0.4649
 1036TIP3    H224668   2.201   3.691   1.385 -0.8216  1.5000 -0.1182
 1037TIP3   OH224669   2.312   4.481   0.451  0.5087  0.3936  0.0744
 1037TIP3    H124670   2.277   4.469   0.362  1.4659 -0.4854 -0.2042
 1037TIP3    H224671   2.271   4.561   0.482  0.0505  0.6430 -1.1145
 1038TIP3   OH224672   0.973   0.258   8.313 -0.3026 -0.4820 -0.3507
 1038TIP3    H124673   0.957   0.324   8.381 -2.4414  1.6700 -2.7319
 1038TIP3    H224674   1.069   0.248   8.313 -0.1259  0.3536  2.0666
 1039TIP3   OH224675   0.684   5.746   7.356 -0.7899 -0.6965  0.2874
 1039TIP3    H124676   0.690   5.663   7.403 -0.9133 -0.1637  1.2861
 1039TIP3    H224677   0.768   5.753   7.310 -0.1037 -0.6490  1.4839
 1040TIP3   OH224678   6.132   2.181   8.422  0.1018 -0.3653  0.1382
 1040TIP3    H124679   6.058   2.181   8.361 -0.7024  2.2026  1.0101
 1040TIP3    H224680   6.092   2.169   8.508  1.2978 -4.9724  0.3190
 1041TIP3   OH224681   0.470   5.514   1.934 -0.1268 -0.2594 -0.1131
 1041TIP3    H124682   0.502   5.481   2.018 -2.9068  2.3931  2.2413
 1041TIP3    H224683   0.415   5.444   1.900 -0.6237 -0.6522  1.3954
 1042TIP3   OH224684   0.815   1.175   8.617 -0.3478 -0.1766  0.1581
 1042TIP3    H124685   0.738   1.119   8.624  0.3579 -1.2438 -0.3674
 1042TIP3    H224686   0.784   1.253   8.571 -1.0965 -0.6200 -0.1023
 1043TIP3   OH224687   0.032   2.437   1.077 -0.2804  0.2650 -0.1275
 1043TIP3    H124688  -0.053   2.482   1.082 -1.0047 -0.8174 -1.6563
 1043TIP3    H224689   0.033   2.379   1.154 -0.5490  0.8999  0.3601
 1044TIP3   OH224690   4.412   1.669   2.115 -0.4050  0.4695  0.1963
 1044TIP3    H124691   4.323   1.692   2.141 -0.7047  1.6791 -1.6320
 1044TIP3    H224692   4.457   1.753   2.107  0.5545 -0.0497 -0.0584
 1045TIP3   OH224693   3.690   2.279   7.862  0.0290 -0.0485  0.2301
 1045TIP3    H124694   3.689   2.185   7.843 -1.7497 -0.3055  1.3519
 1045TIP3    H224695   3.685   2.321   7.776  0.6645 -0.9798 -0.2756
 1046TIP3   OH224696   3.264   4.362   7.939  0.3145 -0.1819 -0.0528
 1046TIP3    H124697   3.250   4.394   7.850  2.1619  1.1657  0.0850
 1046TIP3    H224698   3.201   4.410   7.992  1.3310  1.4295 -0.2259
 1047TIP3   OH224699   4.512   3.479   8.032 -0.3423 -1.0063 -0.6109
 1047TIP3    H124700   4.500   3.384   8.027  0.1545 -1.2254  1.4993
 1047TIP3    H224701   4.423   3.513   8.045 -0.7154 -1.0013 -2.7981
 1048TIP3   OH224702   5.509   5.504   2.032  0.1527 -0.4333  0.1959
 1048TIP3    H124703   5.432   5.549   2.067  1.5375  0.6492  2.0639
 1048TIP3    H224704   5.522   5.541   1.945  0.2037  1.5525  0.9936
 1049TIP3   OH224705   4.106   2.834   9.406  0.5247 -0.6418  1.1190
 1049TIP3    H124706   4.135   2.747   9.435  0.3831 -1.3277 -0.6707
 1049TIP3    H224707   4.076   2.820   9.316 -0.3490  1.1033  1.1139
 1050TIP3   OH224708   2.252   3.093   7.955  0.4899 -0.0940 -0.1047
 1050TIP3    H124709   2.166   3.114   7.991 -0.4405 -2.5448 -0.7347
 1050TIP3    H224710   2.301   3.057   8.029  0.0704 -1.0439 -0.2674
 1051TIP3   OH224711   2.566   2.553   6.990  0.2106  0.5565 -0.0316
 1051TIP3    H124712   2.644   2.515   7.030  0.6388  1.1400 -0.3056
 1051TIP3    H224713   2.600   2.612   6.923 -0.4872 -0.1434 -1.0259
 1052TIP3   OH224714   1.438   4.612   9.312 -0.0282 -0.2040  0.3973
 1052TIP3    H124715   1.504   4.543   9.314  0.8142  0.5801  2.2376
 1052TIP3    H224716   1.487   4.693   9.325 -1.0568  0.7256 -1.1581
 1053TIP3   OH224717   1.574   2.921   2.200  0.3453  0.0783  0.6208
 1053TIP3    H124718   1.508   2.877   2.254  0.3245  0.7189  1.1313
 1053TIP3    H224719   1.657   2.881   2.227  0.3767  0.6455  1.4002
 1054TIP3   OH224720   4.686   3.562   2.579 -0.1312  0.3351 -0.5345
 1054TIP3    H124721   4.778   3.587   2.584  0.2898 -1.1412 -0.4653
 1054TIP3    H224722   4.653   3.574   2.668  0.9061 -2.3273  0.2892
 1055TIP3   OH224723   0.034   1.474   0.468 -0.9499 -0.6528 -0.4668
 1055TIP3    H124724   0.012   1.459   0.560  0.1732 -0.1698 -0.1051
 1055TIP3    H224725   0.016   1.567   0.454 -2.0990 -0.9401 -1.0369
 1056TIP3   OH224726   4.143   4.794   9.110  0.5282  0.9835 -0.3581
 1056TIP3    H124727   4.219   4.753   9.150 -0.2559  0.4086  0.5984
 1056TIP3    H224728   4.173   4.824   9.024  1.6719  0.2796 -0.2156
 1057TIP3   OH224729   1.640   6.223   8.785  0.4443 -0.3806  0.0521
 1057TIP3    H124730   1.731   6.246   8.800 -0.0387  2.0072 -0.2987
 1057TIP3    H224731   1.614   6.275   8.709 -1.7508  0.6656  1.4119
 1058TIP3   OH224732   0.138   0.233   2.821 -0.5694  0.2586 -0.0154
 1058TIP3    H124733   0.167   0.298   2.886  0.2173 -0.2501  0.1542
 1058TIP3    H224734   0.060   0.272   2.782 -0.6653  0.8799  0.7621
 1059TIP3   OH224735   6.222   3.766   1.753  0.0309  0.0699  0.2584
 1059TIP3    H124736   6.189   3.796   1.668 -0.4511  0.5179  0.6080
 1059TIP3    H224737   6.301   3.715   1.730 -0.2347 -0.0310 -0.4763
 1060TIP3   OH224738   3.106   2.439   8.720 -0.0759  0.1280 -0.2937
 1060TIP3    H124739   3.192   2.406   8.693 -0.1144  0.9354 -1.4752
 1060TIP3    H224740   3.089   2.396   8.804  1.1118 -0.6700 -0.4386
 1061TIP3   OH224741   4.294   1.700   6.561  0.1834  0.3553 -0.2029
 1061TIP3    H124742   4.291   1.609   6.533  2.1359  0.4081 -0.6919
 1061TIP3    H224743   4.357   1.742   6.502  1.2578  1.4085  1.5892
 1062TIP3   OH224744   5.847   2.805   8.665 -0.0821 -0.2861  0.1230
 1062TIP3    H124745   5.893   2.724   8.687 -1.7734 -1.6766 -1.0557
 1062TIP3    H224746   5.756   2.777   8.651 -0.9859  2.0500  0.8625
 1063TIP3   OH224747   4.497   2.296   9.146  0.6744  0.1641  0.3774
 1063TIP3    H124748   4.523   2.270   9.058  0.1446  0.7052  0.0467
 1063TIP3    H224749   4.569   2.269   9.202  0.4342 -1.4110 -0.0167
 1064TIP3   OH224750   3.422   1.425   2.660 -0.1898  0.5447 -0.0162
 1064TIP3    H124751   3.400   1.332   2.672 -1.0825  0.4709 -1.8679
 1064TIP3    H224752   3.506   1.424   2.614  0.1705  0.6912  0.6239
 1065TIP3   OH224753   3.955   2.859   7.217  0.0997 -0.0100 -0.1864
 1065TIP3    H124754   3.897   2.875   7.143 -1.5168 -0.1674  0.9849
 1065TIP3    H224755   3.993   2.945   7.237 -1.2658  0.5251  0.2288
 1066TIP3   OH224756   4.808   4.637   8.239  0.0004 -0.0426  0.2678
 1066TIP3    H124757   4.867   4.711   8.229 -0.9327  0.6174 -0.5650
 1066TIP3    H224758   4.755   4.637   8.159  1.3353 -2.8649 -0.7382
 1067TIP3   OH224759   1.010   5.113   9.588  0.7335 -0.2161  0.0790
 1067TIP3    H124760   0.983   5.204   9.573 -1.7406 -0.5749  1.8153
 1067TIP3    H224761   1.000   5.100   9.682  3.1185 -1.7358  0.2009
 1068TIP3   OH224762   3.803   4.513   0.197  0.4277  0.3935  0.7780
 1068TIP3    H124763   3.777   4.587   0.141  0.7368 -1.1129 -1.4938
 1068TIP3    H224764   3.898   4.520   0.203  0.4891  0.0308  0.2993
 1069TIP3   OH224765   3.646   0.350   2.356  0.6000  0.1643 -0.0791
 1069TIP3    H124766   3.709   0.417   2.384 -0.5254 -0.0650  3.4283
 1069TIP3    H224767   3.566   0.400   2.337  0.6672  0.0922 -0.5512
 1070TIP3   OH224768   0.432   5.817   0.408  0.2829  0.1896 -0.0512
 1070TIP3    H124769   0.471   5.816   0.321  1.1590  0.7210  0.3266
 1070TIP3    H224770   0.369   5.889   0.406  0.5945  0.4589 -0.1144
 1071TIP3   OH224771   4.387   4.131   8.340  0.5322  0.6645  0.1344
 1071TIP3    H124772   4.402   4.090   8.254  2.1932 -3.3488  2.0514
 1071TIP3    H224773   4.474   4.157   8.370  0.2418  0.3262  1.3077
 1072TIP3   OH224774   3.284   3.073   1.055 -0.1622  0.0365  0.3951
 1072TIP3    H124775   3.374   3.089   1.028  0.1186 -0.3138  1.0947
 1072TIP3    H224776   3.242   3.031   0.980 -0.3420  2.0641 -0.7337
 1073TIP3   OH224777   1.658   2.679   9.012  0.6316 -0.4959  0.4074
 1073TIP3    H124778   1.735   2.736   9.007 -0.0445  0.3147 -1.9534
 1073TIP3    H224779   1.662   2.626   8.933 -0.9029 -0.8898  0.5701
 1074TIP3   OH224780   1.611   0.331   1.548 -0.8021  0.1579 -0.0882
 1074TIP3    H124781   1.627   0.304   1.458  0.0082 -0.7333  0.2958
 1074TIP3    H224782   1.680   0.395   1.567  2.2492 -3.1355  1.3294
 1075TIP3   OH224783   0.952   5.782   0.752  0.5223  0.1823  0.3653
 1075TIP3    H124784   0.917   5.726   0.683  0.0688  1.1555 -0.2210
 1075TIP3    H224785   0.884   5.848   0.767  0.9210  0.4155  1.2320
 1076TIP3   OH224786   2.519   3.338   0.758  0.2801  0.3048  0.7565
 1076TIP3    H124787   2.498   3.315   0.848  0.7346 -1.0951  0.5308
 1076TIP3    H224788   2.502   3.432   0.752 -0.9026  0.1877  1.9633
 1077TIP3   OH224789   0.152   1.185   2.084 -0.1759 -0.1757 -0.1211
 1077TIP3    H124790   0.154   1.280   2.073 -0.4595  0.0279  1.3218
 1077TIP3    H224791   0.106   1.172   2.167  0.7399 -1.5227  0.2127
 1078TIP3   OH224792   4.540   2.676   8.918  0.2687  0.4205  0.1917
 1078TIP3    H124793   4.482   2.610   8.956  2.1814  0.4990  3.6742
 1078TIP3    H224794   4.504   2.759   8.948  0.8914  0.5857  0.5060
 1079TIP3   OH224795   3.041   4.582   9.483 -0.4236 -0.6223 -0.0027
 1079TIP3    H124796   2.952   4.551   9.501 -1.9307  3.7952  1.6551
 1079TIP3    H224797   3.086   4.575   9.567 -0.3056  0.1322  0.0042
 1080TIP3   OH224798   2.237   3.282   2.706 -0.4517 -0.4031  0.3173
 1080TIP3    H124799   2.192   3.258   2.625 -1.0958  0.5952  0.3674
 1080TIP3    H224800   2.173   3.265   2.775 -0.9280  1.3802  0.3557
 1081TIP3   OH224801   1.973   2.007   0.353 -0.4355  0.6474 -0.2998
 1081TIP3    H124802   1.883   1.990   0.325 -0.2205  0.4488 -0.8779
 1081TIP3    H224803   2.021   2.022   0.272  0.3348 -0.5999 -0.0957
 1082TIP3   OH224804   3.901   6.301   2.929  0.4243 -0.6119 -0.1526
 1082TIP3    H124805   3.952   6.222   2.941 -0.2739 -0.9996  0.3206
 1082TIP3    H224806   3.946   6.367   2.982  0.7136 -0.8240 -0.1345
 1083TIP3   OH224807   4.149   6.352   2.018 -0.3640 -0.0961 -0.0001
 1083TIP3    H124808   4.068   6.317   2.057 -1.6348  1.2666 -1.2823
 1083TIP3    H224809   4.162   6.437   2.060 -1.3939  1.1017 -1.9150
 1084TIP3   OH224810   0.502   5.316   9.546 -0.7170  0.1667 -0.3437
 1084TIP3    H124811   0.424   5.260   9.545 -0.7780  0.1073  2.0041
 1084TIP3    H224812   0.494   5.366   9.627  0.5039  1.9248 -1.2485
 1085TIP3   OH224813   1.674   5.112   8.599  0.0381 -0.7054  0.2804
 1085TIP3    H124814   1.590   5.130   8.557  0.3004  0.8200  0.3388
 1085TIP3    H224815   1.708   5.199   8.623  2.2088 -1.1676 -0.8672
 1086TIP3   OH224816   3.545   1.916   5.948  0.1277 -0.2141  0.4722
 1086TIP3    H124817   3.581   2.004   5.959  0.6574 -0.4022  0.2915
 1086TIP3    H224818   3.495   1.900   6.027 -2.3909  1.3670 -0.6727
 1087TIP3   OH224819   4.602   2.549   7.046  0.2206 -0.0551 -0.4988
 1087TIP3    H124820   4.644   2.634   7.061 -0.6367  0.1102  1.2004
 1087TIP3    H224821   4.673   2.491   7.020  1.1517  0.7282  0.2245
 1088TIP3   OH224822   5.146   1.797   7.498 -0.0770  0.1780  0.5433
 1088TIP3    H124823   5.169   1.870   7.556 -0.0389  0.2405  0.4481
 1088TIP3    H224824   5.195   1.723   7.533  2.8827  0.9857 -1.5845
 1089TIP3   OH224825   0.997   6.421   9.060 -0.3088 -0.2174  0.5825
 1089TIP3    H124826   0.919   6.435   9.007  0.0704  1.7719  0.4751
 1089TIP3    H224827   0.965   6.412   9.149 -0.7941 -1.6633  0.3029
 1090TIP3   OH224828   2.521   6.210   2.483  0.2721 -0.6558  0.1524
 1090TIP3    H124829   2.509   6.305   2.488  0.3249 -0.6359 -0.0833
 1090TIP3    H224830   2.610   6.195   2.516 -0.1188 -0.7285  1.1908
 1091TIP3   OH224831   5.606   5.667   7.381  0.1148 -0.2358  0.0305
 1091TIP3    H124832   5.627   5.755   7.352 -1.2509 -0.6442 -2.5276
 1091TIP3    H224833   5.601   5.616   7.301 -1.2827 -2.1496  1.2364
 1092TIP3   OH224834   0.482   1.740   0.476 -0.2250  0.3702 -0.0712
 1092TIP3    H124835   0.393   1.709   0.456 -0.7894  1.6791  0.3063
 1092TIP3    H224836   0.529   1.661   0.502 -1.4645 -0.2618  0.3595
 1093TIP3   OH224837   2.805   6.509   9.275  0.3475  0.0071  0.1648
 1093TIP3    H124838   2.728   6.533   9.224  1.4902  2.2620 -0.6080
 1093TIP3    H224839   2.798   6.414   9.286 -2.7375  0.1878  0.5202
 1094TIP3   OH224840   5.827   3.994   2.257  0.4085 -0.0702 -0.1672
 1094TIP3    H124841   5.811   3.939   2.334 -0.3898 -1.5966 -1.3809
 1094TIP3    H224842   5.786   4.078   2.279  0.0083 -0.5475  0.9927
 1095TIP3   OH224843   5.546   4.071   7.761 -0.3580  0.7098  0.9724
 1095TIP3    H124844   5.577   3.982   7.746  0.2981  0.7202  2.1226
 1095TIP3    H224845   5.581   4.094   7.847 -0.9579  1.8891  0.9196
 1096TIP3   OH224846   5.361   0.180   7.891 -0.1245 -0.4919  0.4382
 1096TIP3    H124847   5.295   0.239   7.856 -0.2680 -1.2335 -0.5991
 1096TIP3    H224848   5.354   0.189   7.986 -1.5759 -0.4167  0.3424
 1097TIP3   OH224849   2.621   1.551   0.338  0.2498  0.2769 -0.4110
 1097TIP3    H124850   2.709   1.514   0.337  0.3408  0.4003  1.1890
 1097TIP3    H224851   2.563   1.475   0.335  0.4373  0.0371  1.2088
 1098TIP3   OH224852   6.293   0.341   9.393  0.2730 -0.0328 -0.0829
 1098TIP3    H124853   6.231   0.349   9.465  0.2864 -0.8645  0.0398
 1098TIP3    H224854   6.249   0.381   9.318 -0.9907 -1.7142 -0.3204
 1099TIP3   OH224855   0.717   1.849   7.843  0.6007 -0.3756 -0.1906
 1099TIP3    H124856   0.773   1.862   7.766 -0.0178  1.0326 -0.4421
 1099TIP3    H224857   0.632   1.884   7.816  0.1032 -0.7948  0.8023
 1100TIP3   OH224858   4.357   1.380   8.627 -0.0430  0.2540  0.3641
 1100TIP3    H124859   4.301   1.420   8.561 -0.5006 -0.6752  0.1751
 1100TIP3    H224860   4.335   1.287   8.624 -0.3369  0.2331  2.0512
 1101TIP3   OH224861   2.672   6.468   8.584  0.1176  1.0109 -0.1860
 1101TIP3    H124862   2.596   6.504   8.538 -0.2316  0.8553  0.2610
 1101TIP3    H224863   2.640   6.450   8.672  0.2909 -0.3306 -0.3724
 1102TIP3   OH224864   0.565   1.563   9.575 -0.4046  0.4836 -0.2399
 1102TIP3    H124865   0.487   1.526   9.617 -1.2821  1.0667 -1.2806
 1102TIP3    H224866   0.551   1.549   9.482  1.9469 -1.6355 -0.3601
 1103TIP3   OH224867   5.838   1.416   7.717  0.2299  0.2094 -0.0742
 1103TIP3    H124868   5.829   1.511   7.718 -3.0386  0.0816  2.6681
 1103TIP3    H224869   5.931   1.400   7.730  0.8103  3.0512 -0.1702
 1104TIP3   OH224870   1.815   1.280   0.215 -0.3403  0.5135  0.0830
 1104TIP3    H124871   1.751   1.212   0.236 -1.3759  1.9419  1.7886
 1104TIP3    H224872   1.768   1.362   0.224  1.0794  1.5343 -1.2267
 1105TIP3   OH224873   4.701   0.157   8.317  0.2955  0.2878  0.2469
 1105TIP3    H124874   4.735   0.141   8.405 -0.5495 -1.4432  0.3056
 1105TIP3    H224875   4.648   0.236   8.326  2.2680  1.6220  0.6784
 1106TIP3   OH224876   3.140   0.060   8.500 -0.1682  0.0303  0.6111
 1106TIP3    H124877   3.201   0.088   8.569 -0.8724 -0.7924  1.6021
 1106TIP3    H224878   3.112  -0.027   8.527  0.8434 -1.0480 -1.6493
 1107TIP3   OH224879   3.544   3.104   0.998  0.2392 -0.2393 -0.2086
 1107TIP3    H124880   3.548   3.163   0.922 -0.8081 -0.9052 -0.8032
 1107TIP3    H224881   3.631   3.064   1.001 -0.2591 -1.6586 -2.2856
 1108TIP3   OH224882   6.507   4.801   8.887  0.1718  0.7972 -0.2225
 1108TIP3    H124883   6.443   4.768   8.824  1.3536 -1.4995 -0.3025
 1108TIP3    H224884   6.472   4.777   8.973  0.4447  0.4230 -0.2146
 1109TIP3   OH224885   2.910   4.617   9.086  0.2229 -0.4685  0.7942
 1109TIP3    H124886   2.895   4.597   9.178  0.7503  2.0121  1.4955
 1109TIP3    H224887   2.845   4.685   9.065  1.9642  1.0955  0.2204
 1110TIP3   OH224888   4.579   2.996   8.618 -0.2052 -0.3679 -0.2076
 1110TIP3    H124889   4.492   2.959   8.635 -0.6188  1.3386  1.7701
 1110TIP3    H224890   4.640   2.932   8.656 -0.6349 -1.0324 -0.6132
 1111TIP3   OH224891   2.268   0.226   1.257  0.2964 -0.4237  0.2912
 1111TIP3    H124892   2.292   0.139   1.225 -1.2145 -0.7807  0.0911
 1111TIP3    H224893   2.340   0.250   1.315  0.3585 -2.1515  0.9923
 1112TIP3   OH224894   0.956   5.445   1.211 -0.4907 -0.2841 -0.7678
 1112TIP3    H124895   0.871   5.405   1.228 -1.2518  1.4534 -0.2035
 1112TIP3    H224896   0.938   5.539   1.210  1.1985  0.0658 -2.0256
 1113TIP3   OH224897   2.404   5.894   8.641  0.3772  0.2623 -0.0556
 1113TIP3    H124898   2.351   5.955   8.591  1.6715  2.2941  0.9201
 1113TIP3    H224899   2.476   5.871   8.581 -0.5344 -1.0599 -0.7188
 1114TIP3   OH224900   5.958   2.793   0.063 -0.0102 -0.3519 -0.3080
 1114TIP3    H124901   5.950   2.744   0.145  2.4165 -0.2894  0.0638
 1114TIP3    H224902   6.022   2.743   0.012 -0.2128  0.5199 -1.4551
 1115TIP3   OH224903   1.299   0.109   2.855  0.4252  0.2727  0.5250
 1115TIP3    H124904   1.349   0.029   2.837 -1.2854 -0.1981 -2.8785
 1115TIP3    H224905   1.315   0.164   2.779 -0.7388  1.9886  1.4695
 1116TIP3   OH224906   5.704   2.854   9.577 -0.0074 -0.3608 -0.1434
 1116TIP3    H124907   5.781   2.814   9.618  0.7180  0.5651 -0.5782
 1116TIP3    H224908   5.738   2.896   9.498 -1.0002 -0.1157 -0.4537
 1117TIP3   OH224909   6.092   6.073   7.565 -0.0178 -0.2618 -0.1299
 1117TIP3    H124910   6.095   6.155   7.514  4.8217 -0.7241 -1.0578
 1117TIP3    H224911   6.064   6.007   7.502 -0.4605  0.1013 -0.3288
 1118TIP3   OH224912   2.864   6.058   1.995  0.2140 -0.2685  0.0374
 1118TIP3    H124913   2.902   6.140   2.027 -0.3764  0.8416 -1.9216
 1118TIP3    H224914   2.798   6.035   2.060 -0.6223  1.6380 -0.0575
 1119TIP3   OH224915   3.993   0.995   7.109 -0.2216  0.1142  0.6165
 1119TIP3    H124916   4.034   0.925   7.058 -0.0843  0.2227  0.5769
 1119TIP3    H224917   3.975   0.956   7.194  1.9900  0.6921  1.4102
 1120TIP3   OH224918   4.403   3.653   0.136  0.0991 -0.0501 -0.1645
 1120TIP3    H124919   4.348   3.593   0.186 -0.5830  1.1769  0.6257
 1120TIP3    H224920   4.381   3.740   0.171  2.3858  0.5106  0.0192
 1121TIP3   OH224921   2.393   0.217   9.366 -0.2150  0.8818 -0.0631
 1121TIP3    H124922   2.396   0.173   9.281 -1.5221  0.8874 -0.1387
 1121TIP3    H224923   2.439   0.300   9.352  0.8961  0.2419 -0.3429
 1122TIP3   OH224924   4.936   3.074   1.110 -0.4126  0.1299 -0.0218
 1122TIP3    H124925   4.973   3.128   1.040  0.7097  0.1949  0.6080
 1122TIP3    H224926   5.002   3.007   1.126 -0.5141  0.2885  1.1657
 1123TIP3   OH224927   0.612   3.886   9.027 -0.2377 -0.4415 -0.1390
 1123TIP3    H124928   0.665   3.958   9.061 -1.1899  0.1093  0.2257
 1123TIP3    H224929   0.675   3.826   8.988  0.7260 -0.1867  0.9664
 1124TIP3   OH224930   4.197   5.052   7.737 -0.5441  0.5583 -0.0784
 1124TIP3    H124931   4.168   4.963   7.756 -0.4747  0.3423 -0.9340
 1124TIP3    H224932   4.163   5.105   7.809 -1.4401 -0.0040 -0.0793
 1125TIP3   OH224933   0.614   5.794   0.159  0.1137 -0.4812  0.1250
 1125TIP3    H124934   0.637   5.701   0.163  0.5462 -0.4172 -0.5968
 1125TIP3    H224935   0.577   5.805   0.072  0.4246  0.0979  0.0636
 1126TIP3   OH224936   5.413   4.443   0.300 -0.1632  0.1842 -0.0602
 1126TIP3    H124937   5.359   4.442   0.379  0.5739  0.6777  0.4590
 1126TIP3    H224938   5.443   4.353   0.290 -2.1506 -0.4122 -1.1213
 1127TIP3   OH224939   5.665   0.663   8.453  0.2146  0.0502  0.1031
 1127TIP3    H124940   5.751   0.636   8.485 -0.0927  0.0416  0.9298
 1127TIP3    H224941   5.633   0.725   8.518  0.9928  2.6990 -1.8336
 1128TIP3   OH224942   1.812   2.267   0.840  0.0830  0.5230 -0.6395
 1128TIP3    H124943   1.897   2.311   0.829  0.5734 -0.5046 -1.1974
 1128TIP3    H224944   1.803   2.215   0.760 -1.3441  1.0452 -0.8307
 1129TIP3   OH224945   4.111   4.814   2.195  0.1056  0.0010  0.0929
 1129TIP3    H124946   4.132   4.777   2.109  2.2043  0.5850  0.2972
 1129TIP3    H224947   4.087   4.905   2.176 -0.2861 -0.1059  0.0598
 1130TIP3   OH224948   0.026   4.385   8.272 -0.0292  0.4789  0.3210
 1130TIP3    H124949   0.119   4.401   8.252  0.4314 -1.1089  1.0123
 1130TIP3    H224950  -0.001   4.462   8.322  0.8984  0.9895  0.0714
 1131TIP3   OH224951   0.667   0.820   1.738 -0.5998 -0.4319 -0.1576
 1131TIP3    H124952   0.707   0.769   1.667 -1.3225  0.7575 -1.4619
 1131TIP3    H224953   0.741   0.859   1.784 -0.1745  0.3221 -1.4464
 1132TIP3   OH224954   1.672   1.464   1.756 -0.1813  0.7581  0.1784
 1132TIP3    H124955   1.626   1.445   1.838 -0.7495  1.3928  0.0173
 1132TIP3    H224956   1.764   1.445   1.775  0.1138  3.3302  1.7840
 1133TIP3   OH224957   0.921   3.877   1.960  0.2692  0.2638 -0.7121
 1133TIP3    H124958   0.994   3.911   1.909  1.7452  0.2173  1.2834
 1133TIP3    H224959   0.929   3.919   2.045  0.6153 -2.9745  1.0025
 1134TIP3   OH224960   5.009   2.236   0.155 -0.4167  0.2217 -0.6680
 1134TIP3    H124961   5.087   2.188   0.185 -0.2117  0.3883 -0.9350
 1134TIP3    H224962   4.985   2.290   0.230  0.4784  1.1166 -1.0037
 1135TIP3   OH224963   1.698   3.615   1.400 -0.6992 -0.3092  0.6456
 1135TIP3    H124964   1.612   3.583   1.373  0.4218 -0.2241 -3.7890
 1135TIP3    H224965   1.680   3.701   1.438 -2.5314  0.5388 -1.8449
 1136TIP3   OH224966   2.765   4.336   8.326  0.0827  0.1341  0.0583
 1136TIP3    H124967   2.755   4.305   8.236 -1.6439  0.1930  0.1991
 1136TIP3    H224968   2.847   4.296   8.355  0.5529 -0.0863 -1.4493
 1137TIP3   OH224969   6.011   0.289   2.055  0.1299  0.0412  0.2616
 1137TIP3    H124970   6.106   0.296   2.057  0.2088 -0.7260 -0.4613
 1137TIP3    H224971   5.987   0.309   1.965 -0.1687 -2.1263 -0.1959
 1138TIP3   OH224972   4.453   1.155   7.070  0.3204  0.0366  0.0175
 1138TIP3    H124973   4.439   1.203   7.151 -0.3824 -2.5543  1.5404
 1138TIP3    H224974   4.366   1.130   7.040  0.6695 -3.2088  1.2634
 1139TIP3   OH224975   4.186   1.782   9.150 -0.3340 -0.5972 -0.1895
 1139TIP3    H124976   4.174   1.851   9.214 -0.0346 -0.8030  0.0937
 1139TIP3    H224977   4.123   1.714   9.175 -1.6774  0.1690 -1.3373
 1140TIP3   OH224978   3.967   6.504   7.928  0.2304  0.7318  0.6519
 1140TIP3    H124979   3.939   6.535   7.842 -0.9722  0.6940  1.0164
 1140TIP3    H224980   4.052   6.462   7.911 -0.1098  0.4762 -0.5706
 1141TIP3   OH224981   2.088   2.794   6.582 -0.2063 -0.4342 -0.2576
 1141TIP3    H124982   2.139   2.717   6.557  1.7442  0.7570 -0.1952
 1141TIP3    H224983   2.059   2.776   6.671 -0.8411 -1.6004 -0.6876
 1142TIP3   OH224984   1.207   3.780   1.325 -0.7340 -0.7280 -0.6637
 1142TIP3    H124985   1.240   3.690   1.321  0.7892 -0.2250 -0.2282
 1142TIP3    H224986   1.239   3.821   1.244 -0.3521 -0.2507 -0.2769
 1143TIP3   OH224987   4.272   6.014   9.100  0.6352 -0.0921  0.4400
 1143TIP3    H124988   4.239   5.927   9.123 -0.8815  0.4392  0.3699
 1143TIP3    H224989   4.199   6.057   9.056  0.0546  2.4878  3.5870
 1144TIP3   OH224990   2.046   4.768   8.542  0.0936 -0.6056 -0.3671
 1144TIP3    H124991   2.134   4.762   8.506 -0.3717 -0.0069 -1.6704
 1144TIP3    H224992   2.043   4.854   8.584  0.4824 -1.1040  0.7086
 1145TIP3   OH224993   0.141   6.298   3.336  0.4453 -0.6395 -0.2351
 1145TIP3    H124994   0.119   6.283   3.244  3.4242  0.7597 -1.2922
 1145TIP3    H224995   0.231   6.265   3.345  0.4925 -0.0436  1.9863
 1146TIP3   OH224996   4.551   1.240   7.343  0.0924 -1.0445  0.1972
 1146TIP3    H124997   4.517   1.196   7.421 -0.9666 -1.8812 -0.7059
 1146TIP3    H224998   4.624   1.184   7.314  1.4921  0.0668  1.3985
 1147TIP3   OH224999   4.617   0.484   8.051 -0.2737 -0.2044  0.2233
 1147TIP3    H125000   4.625   0.541   7.975 -1.9339 -0.5958 -0.2848
 1147TIP3    H225001   4.534   0.437   8.038  0.5955 -2.0945  1.0605
 1148TIP3   OH225002   1.723   5.132   1.730 -0.3016  0.4043 -0.3161
 1148TIP3    H125003   1.636   5.163   1.754 -0.7317 -1.7126  1.1033
 1148TIP3    H225004   1.711   5.084   1.649  0.1143  2.4736 -1.6963
 1149TIP3   OH225005   1.789   0.208   1.362 -0.1817 -0.2078 -0.6441
 1149TIP3    H125006   1.848   0.283   1.370  2.6196 -1.9818 -2.4879
 1149TIP3    H225007   1.744   0.222   1.279 -1.1706  0.3491 -0.0284
 1150TIP3   OH225008   0.218   0.729   8.937 -0.2552 -0.0919  0.3507
 1150TIP3    H125009   0.278   0.661   8.908 -0.7804 -0.6345  0.5082
 1150TIP3    H225010   0.187   0.770   8.856  1.2100  0.9918  0.3038
 1151TIP3   OH225011   3.219   1.042   7.820 -0.4117  0.5736  0.2299
 1151TIP3    H125012   3.209   1.117   7.761 -0.3951 -1.1612 -2.1110
 1151TIP3    H225013   3.309   1.047   7.851 -0.3045  1.3105 -0.1820
 1152TIP3   OH225014   4.745   6.014   2.532  0.8925  0.2097  0.1170
 1152TIP3    H125015   4.712   6.075   2.598  1.1142 -0.7245  1.1071
 1152TIP3    H225016   4.840   6.018   2.540  0.9129 -0.1611  0.0858
 1153TIP3   OH225017   1.576   1.860   1.011  0.6276 -0.5697 -0.0990
 1153TIP3    H125018   1.542   1.867   1.101  0.7741 -0.7538 -0.0267
 1153TIP3    H225019   1.586   1.950   0.982 -1.3680 -0.4795 -0.6770
 1154TIP3   OH225020   3.461   0.314   1.439  0.0658  0.2010 -0.6289
 1154TIP3    H125021   3.499   0.388   1.486 -0.5274  0.7174 -0.9461
 1154TIP3    H225022   3.395   0.279   1.499 -0.0826  0.3192 -0.7204
 1155TIP3   OH225023   1.292   4.685   1.387  0.1861  0.4360 -0.1279
 1155TIP3    H125024   1.269   4.778   1.394 -2.7167 -0.2552  0.8227
 1155TIP3    H225025   1.255   4.645   1.466  3.7045 -1.1942  0.8920
 1156TIP3   OH225026   6.313   1.751   1.309 -0.3369  0.7875 -0.1572
 1156TIP3    H125027   6.232   1.759   1.359  0.2838  3.9997  0.5721
 1156TIP3    H225028   6.285   1.757   1.217 -1.1567 -1.6482 -0.1313
 1157TIP3   OH225029   1.458   1.042   2.066 -0.2127  0.5414  0.2824
 1157TIP3    H125030   1.468   1.137   2.058 -1.1442  0.7182  0.9362
 1157TIP3    H225031   1.547   1.009   2.078  0.3809  1.0525 -2.2966
 1158TIP3   OH225032   5.965   0.099   1.079  0.9872  0.0107 -0.2039
 1158TIP3    H125033   5.930   0.171   1.026  0.3459 -0.9415 -1.1146
 1158TIP3    H225034   5.893   0.036   1.084  1.3179 -0.3047  1.1194
 1159TIP3   OH225035   1.308   2.962   1.295 -0.0702  0.5804 -0.0329
 1159TIP3    H125036   1.252   3.028   1.255  0.0806  0.3326 -0.6698
 1159TIP3    H225037   1.397   2.991   1.275 -0.0033  0.1831 -0.3408
 1160TIP3   OH225038   1.591   4.401   8.878 -0.2737  0.0976  0.8001
 1160TIP3    H125039   1.512   4.348   8.864 -1.0998  1.0855  1.5528
 1160TIP3    H225040   1.560   4.492   8.876  0.6302  0.4737  2.2826
 1161TIP3   OH225041   0.060   2.066   8.863  0.0488  0.0502 -0.2482
 1161TIP3    H125042  -0.025   2.023   8.871  0.1478 -0.3577 -1.2163
 1161TIP3    H225043   0.063   2.095   8.771  1.0174 -0.0980 -0.2717
 1162TIP3   OH225044   0.489   4.208   8.061  0.0162 -0.2414 -0.4543
 1162TIP3    H125045   0.396   4.188   8.075  0.0586 -0.0025  0.2318
 1162TIP3    H225046   0.502   4.198   7.967 -0.9203  0.6170 -0.6982
 1163TIP3   OH225047   6.382   4.155   1.103  0.3797  0.1512 -0.0361
 1163TIP3    H125048   6.357   4.176   1.014 -0.0804  0.2532  0.1146
 1163TIP3    H225049   6.478   4.145   1.100  0.3130 -0.3826 -0.6459
 1164TIP3   OH225050   1.304   0.221   9.279  0.1203  0.2116 -0.1845
 1164TIP3    H125051   1.222   0.201   9.233  0.7423  1.9176 -2.1718
 1164TIP3    H225052   1.373   0.184   9.224  0.7651 -0.3088  0.9373
 1165TIP3   OH225053   3.246   3.336   0.667  0.2450  0.2389 -0.4516
 1165TIP3    H125054   3.175   3.327   0.731  1.5229  0.6468  1.0712
 1165TIP3    H225055   3.251   3.249   0.626 -1.0469  0.1719 -0.5179
 1166TIP3   OH225056   4.491   3.302   1.081 -0.1025  0.0352  0.4652
 1166TIP3    H125057   4.415   3.247   1.100  0.9464 -1.3926  0.6998
 1166TIP3    H225058   4.555   3.242   1.043  0.8585  1.2406  0.1004
 1167TIP3   OH225059   0.747   4.542   1.315 -0.3548 -0.3412 -0.2499
 1167TIP3    H125060   0.750   4.562   1.222 -0.9262 -1.8058 -0.6075
 1167TIP3    H225061   0.834   4.509   1.335 -0.4711 -0.7664 -0.4438
 1168TIP3   OH225062   2.876   1.093   9.110 -0.2884  0.6831  0.7194
 1168TIP3    H125063   2.869   1.024   9.177 -0.8307  0.4016  0.3806
 1168TIP3    H225064   2.946   1.063   9.053 -1.2669 -0.1619 -0.0687
 1169TIP3   OH225065   3.134   5.083   9.138  0.2149  0.0561 -0.0443
 1169TIP3    H125066   3.174   5.150   9.195 -0.6086  0.8938 -0.4224
 1169TIP3    H225067   3.204   5.058   9.078  0.5793  0.4685  0.1983
 1170TIP3   OH225068   3.995   6.402   1.626 -0.5526  0.4942  0.0194
 1170TIP3    H125069   4.059   6.400   1.555 -1.0363 -0.7778 -0.3988
 1170TIP3    H225070   4.020   6.331   1.685 -0.2847  1.3963  1.0305
 1171TIP3   OH225071   1.048   2.493   8.274 -0.2645 -0.3999  0.2775
 1171TIP3    H125072   0.999   2.461   8.350 -0.9619 -2.3462 -0.9535
 1171TIP3    H225073   1.010   2.448   8.199  1.0788  0.7290 -1.1477
 1172TIP3   OH225074   2.357   4.890   1.276  0.1912 -0.3012 -0.3611
 1172TIP3    H125075   2.336   4.983   1.274  0.4556 -0.2465 -0.8865
 1172TIP3    H225076   2.452   4.887   1.264  0.1865 -0.6355 -0.3250
 1173TIP3   OH225077   0.953   1.311   8.879 -0.2948  0.0563 -0.0799
 1173TIP3    H125078   0.931   1.288   8.789  2.7316  1.1653 -1.2386
 1173TIP3    H225079   1.024   1.251   8.902 -0.3610  0.4443  1.1916
 1174TIP3   OH225080   0.070   0.500   0.459 -0.2725  0.4219  0.0823
 1174TIP3    H125081   0.109   0.457   0.383 -0.5573  1.1894 -0.5077
 1174TIP3    H225082  -0.020   0.520   0.432 -1.2281 -1.5804  1.5167
 1175TIP3   OH225083   4.675   5.121   0.273  0.1515  0.2816 -0.1340
 1175TIP3    H125084   4.593   5.074   0.283  0.0863  0.5299  0.5376
 1175TIP3    H225085   4.650   5.208   0.241  0.2170  0.0827 -0.7222
 1176TIP3   OH225086   2.483   5.123   0.298  0.2502  0.2829  0.1880
 1176TIP3    H125087   2.437   5.064   0.239  0.4630  0.6780 -0.3861
 1176TIP3    H225088   2.500   5.201   0.245 -0.5556  1.1145  1.0954
 1177TIP3   OH225089   0.155   4.815   6.993  0.0794  0.1849 -0.0809
 1177TIP3    H125090   0.104   4.746   6.949  0.8322 -0.2164 -0.3469
 1177TIP3    H225091   0.231   4.769   7.029 -0.7450  0.4040  2.1016
 1178TIP3   OH225092   5.860   0.954   7.854 -0.7583 -0.5331  0.6636
 1178TIP3    H125093   5.802   0.946   7.778  0.5089  0.0647 -0.4029
 1178TIP3    H225094   5.895   0.866   7.867 -2.0118 -0.9471  1.4415
 1179TIP3   OH225095   2.347   1.612   7.933  0.2860  0.1009 -0.0236
 1179TIP3    H125096   2.298   1.534   7.909 -0.8008  0.7932 -0.1207
 1179TIP3    H225097   2.429   1.579   7.969  0.5749 -1.0300 -1.6403
 1180TIP3   OH225098   5.902   5.759   1.763 -0.3613 -0.3854 -0.4130
 1180TIP3    H125099   5.912   5.853   1.747  1.1646  0.0353  2.2678
 1180TIP3    H225100   5.957   5.717   1.697  1.9672  0.8826  0.5930
 1181TIP3   OH225101   4.463   0.522   0.501 -0.0513  0.1044  0.1064
 1181TIP3    H125102   4.398   0.521   0.431 -0.3458 -1.3370  0.3730
 1181TIP3    H225103   4.421   0.571   0.572 -0.2391  0.4718 -0.2512
 1182TIP3   OH225104   2.440   3.081   1.708 -0.2017  0.6603 -0.0723
 1182TIP3    H125105   2.426   3.127   1.791  0.3115  0.7647 -0.0403
 1182TIP3    H225106   2.354   3.082   1.665 -0.1779  1.7155 -0.1092
 1183TIP3   OH225107   1.416   3.049   8.370 -0.0805  0.3024 -0.2543
 1183TIP3    H125108   1.479   3.052   8.298 -0.0395  1.2980 -0.1872
 1183TIP3    H225109   1.331   3.049   8.327 -0.0537  0.5972 -0.3066
 1184TIP3   OH225110   1.595   4.418   7.624  0.0387 -0.1528 -1.0015
 1184TIP3    H125111   1.508   4.452   7.603  1.0999  2.4540 -1.4705
 1184TIP3    H225112   1.624   4.471   7.699  0.7736 -1.8147 -0.0536
 1185TIP3   OH225113   3.196   0.382   8.018 -0.3335  0.2719 -0.3936
 1185TIP3    H125114   3.170   0.473   8.031  1.3914  0.7485  0.0466
 1185TIP3    H225115   3.218   0.376   7.925  3.9563  1.6687  0.3081
 1186TIP3   OH225116   3.267   2.638   7.730 -0.1347  0.1581  0.2484
 1186TIP3    H125117   3.314   2.654   7.812 -1.3397  0.0779  0.9884
 1186TIP3    H225118   3.322   2.577   7.681 -0.1237 -1.0305  1.6884
 1187TIP3   OH225119   3.920   5.167   2.191  0.1560  0.0454  0.2497
 1187TIP3    H125120   3.873   5.121   2.259 -0.5943  0.2261 -0.1338
 1187TIP3    H225121   3.940   5.253   2.229 -0.4170  0.2108  0.1823
 1188TIP3   OH225122   1.609   1.997   8.872 -0.2181  0.3337  0.1384
 1188TIP3    H125123   1.643   2.039   8.952 -0.4863 -0.7244  0.8280
 1188TIP3    H225124   1.637   2.056   8.801  1.1629  0.6331  0.8772
 1189TIP3   OH225125   2.938   4.546   8.642 -0.1071 -0.3094  0.4420
 1189TIP3    H125126   2.991   4.625   8.648  0.1326 -0.4683  0.4699
 1189TIP3    H225127   2.848   4.577   8.637  0.0447  0.0065 -0.5815
 1190TIP3   OH225128   0.272   4.479   8.150  0.3484 -0.4630 -0.6121
 1190TIP3    H125129   0.231   4.547   8.095  3.1773  1.2662 -0.8216
 1190TIP3    H225130   0.296   4.410   8.088 -0.3498 -0.5104 -0.8337
 1191TIP3   OH225131   6.043   1.539   1.051 -0.0350  0.0344  0.3901
 1191TIP3    H125132   6.008   1.451   1.041  1.2150 -0.3887 -0.4267
 1191TIP3    H225133   5.972   1.596   1.020 -0.5703 -0.7152  0.2004
 1192TIP3   OH225134   5.184   2.989   1.305  0.3295 -0.1167  0.3469
 1192TIP3    H125135   5.126   3.061   1.331 -0.0997 -0.4779  0.3845
 1192TIP3    H225136   5.227   2.962   1.386  0.0369 -0.3076  0.4381
 1193TIP3   OH225137   3.162   0.784   7.669  0.0445  0.2257  0.3198
 1193TIP3    H125138   3.196   0.863   7.626 -0.2205  0.8992  1.2917
 1193TIP3    H225139   3.182   0.713   7.609  3.2395  0.5644  0.8390
 1194TIP3   OH225140   0.990   1.824   0.540 -0.2079  0.0277 -0.1475
 1194TIP3    H125141   0.946   1.897   0.583 -0.4414 -1.2427  1.9169
 1194TIP3    H225142   1.078   1.825   0.577 -0.9862 -2.2654  2.0155
 1195TIP3   OH225143   4.614   0.388   1.588  0.0462 -0.0951  0.2026
 1195TIP3    H125144   4.520   0.397   1.604 -0.4262 -3.0635 -0.3364
 1195TIP3    H225145   4.647   0.341   1.665 -0.1607 -4.3795 -2.0178
 1196TIP3   OH225146   2.405   1.503   6.802  0.7498 -0.4527 -0.5279
 1196TIP3    H125147   2.484   1.557   6.799  0.4270  0.0151 -0.7439
 1196TIP3    H225148   2.333   1.565   6.798  0.3699 -0.9223 -1.3011
 1197TIP3   OH225149   3.056   4.334   2.143  0.3914 -0.0295 -0.0321
 1197TIP3    H125150   3.009   4.413   2.170  3.2331  1.2621  1.4837
 1197TIP3    H225151   3.003   4.262   2.179 -2.9884  0.9188 -2.5614
 1198TIP3   OH225152   5.124   4.993   0.277 -0.2104 -0.3033 -0.1649
 1198TIP3    H125153   5.130   5.015   0.184  1.8587 -1.4767 -0.3705
 1198TIP3    H225154   5.148   4.901   0.282  1.0196  0.0576  1.6485
 1199TIP3   OH225155   5.856   1.395   9.110  0.1466  0.0203  0.3284
 1199TIP3    H125156   5.805   1.399   9.191 -0.7645 -1.1062 -0.1591
 1199TIP3    H225157   5.886   1.484   9.096 -1.3397  0.6466  0.8804
 1200TIP3   OH225158   0.722   2.645   0.006 -0.2386 -0.6628 -0.6515
 1200TIP3    H125159   0.721   2.601   0.092  1.3688  0.6123  0.0581
 1200TIP3    H225160   0.629   2.653  -0.016 -0.6916 -1.2901  0.8185
 1201TIP3   OH225161   4.186   5.072   8.570 -0.1321 -0.6569  0.2325
 1201TIP3    H125162   4.278   5.095   8.570 -0.4197  0.5859  0.9869
 1201TIP3    H225163   4.157   5.088   8.480 -0.1107  1.1702  0.5087
 1202TIP3   OH225164   0.170   6.049   2.052  0.8649  0.2784  0.1605
 1202TIP3    H125165   0.218   6.127   2.078  2.3899  0.0180 -1.7011
 1202TIP3    H225166   0.204   6.026   1.966 -1.4977 -0.8757 -0.5572
 1203TIP3   OH225167   0.260   0.112   1.464 -0.2524  0.3969  0.3144
 1203TIP3    H125168   0.260   0.107   1.368 -1.2862  0.6513  0.2821
 1203TIP3    H225169   0.313   0.037   1.491  0.3648  0.5378 -0.4584
 1204TIP3   OH225170   1.207   2.722   8.033 -0.5868 -0.1425 -0.0692
 1204TIP3    H125171   1.216   2.801   8.086 -0.0817 -0.6330  0.5809
 1204TIP3    H225172   1.115   2.698   8.040 -0.6198  0.0661  0.1935
 1205TIP3   OH225173   3.592   3.675   0.517 -0.1710 -0.3186  0.0338
 1205TIP3    H125174   3.561   3.595   0.559 -0.8736  0.2255  0.5874
 1205TIP3    H225175   3.652   3.645   0.449 -0.5179 -1.3155  0.1502
 1206TIP3   OH225176   1.820   6.055   0.624 -0.1957 -0.2123 -0.4460
 1206TIP3    H125177   1.833   6.006   0.542  1.6639 -0.1862 -0.2086
 1206TIP3    H225178   1.908   6.077   0.652 -0.8484  0.3503  1.2450
 1207TIP3   OH225179   2.351   5.039   3.091  0.3826  0.6130  0.4204
 1207TIP3    H125180   2.442   5.009   3.101  0.0649  0.0907  2.0463
 1207TIP3    H225181   2.299   4.968   3.128 -0.8774 -0.0527 -2.3591
 1208TIP3   OH225182   1.505   1.368   7.362  0.1090 -0.2526 -0.3940
 1208TIP3    H125183   1.589   1.378   7.407  0.4134  0.4077 -1.0750
 1208TIP3    H225184   1.529   1.342   7.273 -0.3975  0.1258 -0.6468
 1209TIP3   OH225185   4.217   2.465   0.295  0.4810  0.4609  1.0920
 1209TIP3    H125186   4.242   2.373   0.297  0.2972  0.3818  0.1187
 1209TIP3    H225187   4.265   2.501   0.220  0.1991  1.0580  1.1917
 1210TIP3   OH225188   2.475   3.149   2.266 -0.4486  0.4658  0.1748
 1210TIP3    H125189   2.567   3.176   2.273 -0.6420  1.2513 -0.1551
 1210TIP3    H225190   2.473   3.061   2.302  0.1717  0.9775  1.5111
 1211TIP3   OH225191   3.061   4.438   8.103 -0.1058 -0.0971 -0.1878
 1211TIP3    H125192   2.997   4.452   8.033 -3.0366  0.7039  2.4333
 1211TIP3    H225193   3.080   4.344   8.100 -2.5823 -0.6687 -0.2058
 1212TIP3   OH225194   4.489   2.375   7.364  0.5044 -0.2968  0.2862
 1212TIP3    H125195   4.531   2.319   7.299  1.8375 -0.9242  1.6172
 1212TIP3    H225196   4.556   2.388   7.432 -0.2515  1.7295  0.7305
 1213TIP3   OH225197   6.265   1.226   8.663 -0.1799 -0.4825 -0.5280
 1213TIP3    H125198   6.279   1.225   8.757  1.1860  0.7810 -0.6901
 1213TIP3    H225199   6.238   1.315   8.643  2.1803  0.0675 -1.6325
 1214TIP3   OH225200   3.117   4.625   7.767 -0.0502 -0.0430 -0.0908
 1214TIP3    H125201   3.050   4.577   7.816 -1.0821  0.0738 -1.3426
 1214TIP3    H225202   3.068   4.679   7.704  1.1171  1.7474  0.4386
 1215TIP3   OH225203   0.148   1.810   8.198 -0.1957 -0.7440 -0.5017
 1215TIP3    H125204   0.221   1.772   8.149  0.9266  0.9296 -0.2185
 1215TIP3    H225205   0.107   1.871   8.137  0.3836  0.3529  0.1542
 1216TIP3   OH225206   4.085   0.219   9.370  0.7044 -0.3871 -0.2703
 1216TIP3    H125207   3.998   0.259   9.370  0.2840 -1.1805 -2.2805
 1216TIP3    H225208   4.079   0.149   9.305  3.1518  0.2345 -1.2664
 1217TIP3   OH225209   1.943   0.408   9.270  0.0214 -0.0624  0.7165
 1217TIP3    H125210   1.867   0.362   9.234 -0.3127  1.2296 -0.2709
 1217TIP3    H225211   1.912   0.497   9.286  1.0588  0.2113  1.2716
 1218TIP3   OH225212   5.871   0.176   2.952 -0.0915 -0.1650 -0.5838
 1218TIP3    H125213   5.784   0.192   2.989 -0.0197  0.0561 -0.5095
 1218TIP3    H225214   5.929   0.235   3.001  0.3675 -1.4673  0.5274
 1219TIP3   OH225215   5.566   3.548   8.188 -0.1006  0.2301 -0.4386
 1219TIP3    H125216   5.549   3.523   8.279 -0.3981  1.5029 -0.1199
 1219TIP3    H225217   5.479   3.554   8.148 -0.0918  1.3057 -0.3316
 1220TIP3   OH225218   2.378   0.150   8.735  0.2650  0.1005  0.0746
 1220TIP3    H125219   2.418   0.236   8.719 -1.0301  0.6908 -0.1215
 1220TIP3    H225220   2.392   0.135   8.828  3.8118 -1.2568 -0.5154
 1221TIP3   OH225221   6.058   1.697   8.808 -0.8381  0.0906  0.0244
 1221TIP3    H125222   6.046   1.616   8.857 -0.2612  0.4982  0.8760
 1221TIP3    H225223   6.152   1.714   8.813 -0.9953  0.9662  0.1243
 1222TIP3   OH225224   4.846   6.442   7.195  0.7311 -0.4627  0.1255
 1222TIP3    H125225   4.820   6.508   7.260  1.3898  0.3004 -0.3725
 1222TIP3    H225226   4.897   6.491   7.131 -0.1088 -1.1694 -1.1062
 1223TIP3   OH225227   1.787   5.771   1.438  0.5428 -0.0463  0.0978
 1223TIP3    H125228   1.826   5.791   1.523 -2.0248 -0.3408  1.4519
 1223TIP3    H225229   1.771   5.677   1.442 -0.2798  0.0698 -0.3969
 1224TIP3   OH225230   3.086   0.357   9.503  0.5695  0.2375 -0.0359
 1224TIP3    H125231   3.063   0.371   9.412 -0.0382 -0.2985  0.0306
 1224TIP3    H225232   3.110   0.265   9.508 -2.7877 -0.7101  1.0126
 1225TIP3   OH225233   4.918   4.103   7.399  0.1278  0.1243 -0.3436
 1225TIP3    H125234   4.975   4.106   7.475 -1.0131  0.5103  0.5269
 1225TIP3    H225235   4.940   4.181   7.349  0.5599  0.1145 -0.1691
 1226TIP3   OH225236   2.259   3.405   0.570 -0.0609 -0.3452 -0.0838
 1226TIP3    H125237   2.283   3.331   0.514 -0.2171 -0.8564  0.5187
 1226TIP3    H225238   2.178   3.378   0.613 -0.9205  0.7605 -0.9433
 1227TIP3   OH225239   1.990   4.478   1.717  0.0995 -0.0429  0.5225
 1227TIP3    H125240   1.900   4.508   1.725 -0.1554 -0.3979 -0.7648
 1227TIP3    H225241   2.041   4.557   1.698  0.1017  0.1809  1.4094
 1228TIP3   OH225242   5.736   3.515   7.608  0.0954  0.6133 -0.1453
 1228TIP3    H125243   5.679   3.535   7.533 -1.3154 -2.5859 -0.1111
 1228TIP3    H225244   5.675   3.502   7.681  1.1714  0.4085  0.7443
 1229TIP3   OH225245   0.518   2.402   7.914 -0.0373 -0.2113 -0.1317
 1229TIP3    H125246   0.596   2.404   7.970 -0.0900  0.4257 -0.0699
 1229TIP3    H225247   0.553   2.409   7.825 -0.0159 -0.1229 -0.1162
 1230TIP3   OH225248   1.653   1.179   2.315 -0.8522  1.0630  0.1583
 1230TIP3    H125249   1.738   1.201   2.353 -0.5543 -1.2757  0.9870
 1230TIP3    H225250   1.645   1.237   2.239  1.1143  1.8815  0.5184
 1231TIP3   OH225251   0.934   0.930   8.615  0.5273 -0.4017  0.4738
 1231TIP3    H125252   0.910   1.022   8.600 -0.8095 -1.0393 -1.8767
 1231TIP3    H225253   0.920   0.888   8.530  2.6107 -2.4995  1.0563
 1232TIP3   OH225254   2.708   1.271   1.242  0.1730 -0.3546 -0.4863
 1232TIP3    H125255   2.721   1.365   1.231  0.9068 -0.3724  0.1893
 1232TIP3    H225256   2.739   1.233   1.159  1.0288 -0.0946 -0.2948
 1233TIP3   OH225257   4.432   4.392   8.853  0.1142 -0.8707  0.1165
 1233TIP3    H125258   4.384   4.367   8.932 -0.4197 -0.6986 -0.1504
 1233TIP3    H225259   4.465   4.310   8.817 -0.9603 -1.1178 -0.3278
 1234TIP3   OH225260   5.735   1.147   9.301  0.5036 -0.0220  0.2677
 1234TIP3    H125261   5.736   1.242   9.309 -0.6225 -0.0802  1.5220
 1234TIP3    H225262   5.824   1.120   9.320  0.8940  0.7893 -0.3585
 1235TIP3   OH225263   6.233   3.433   8.270  0.2538 -0.1431 -1.2244
 1235TIP3    H125264   6.168   3.488   8.228  1.2610  0.6635 -1.7487
 1235TIP3    H225265   6.184   3.355   8.298 -0.7215 -0.0202 -2.5282
 1236TIP3   OH225266   0.449   2.372   0.732 -0.0500 -0.7434  0.0310
 1236TIP3    H125267   0.462   2.277   0.737 -1.6425 -1.0358 -0.6208
 1236TIP3    H225268   0.380   2.390   0.796  1.5748  0.3066  1.5746
 1237TIP3   OH225269   3.429   0.197   8.393  0.2185 -0.1088  0.2468
 1237TIP3    H125270   3.495   0.132   8.370 -1.0024 -1.3478  0.0666
 1237TIP3    H225271   3.410   0.180   8.485 -0.0976 -0.0115  0.2020
 1238TIP3   OH225272   0.741   3.997   9.283 -0.5677  0.8559  0.6062
 1238TIP3    H125273   0.677   4.069   9.288  0.5085  1.9041 -0.1103
 1238TIP3    H225274   0.757   3.973   9.374 -0.6066  1.8457  0.8832
 1239TIP3   OH225275   3.068   6.110   1.775  0.1421  0.3209  0.0310
 1239TIP3    H125276   3.140   6.055   1.805 -0.0427  0.8889  1.6032
 1239TIP3    H225277   2.992   6.078   1.824 -0.1335  1.4248  0.3441
 1240TIP3   OH225278   0.510   4.573   0.369 -0.2096 -0.0166 -0.0232
 1240TIP3    H125279   0.572   4.621   0.314  0.5517 -1.1734 -0.1937
 1240TIP3    H225280   0.436   4.555   0.312 -0.7327  1.3717  0.1798
 1241TIP3   OH225281   6.224   0.883   8.340 -0.4335  0.8536 -0.2901
 1241TIP3    H125282   6.214   0.914   8.430 -1.2577  1.0549 -0.4444
 1241TIP3    H225283   6.314   0.904   8.317 -1.0399  3.4544 -0.5163
 1242TIP3   OH225284   4.016   2.105   7.323  0.1161 -0.3191 -0.7112
 1242TIP3    H125285   4.076   2.165   7.278 -2.1508  0.9783 -2.1964
 1242TIP3    H225286   4.053   2.018   7.307  2.0599  0.4782 -0.7938
 1243TIP3   OH225287   3.708   5.882   0.993 -0.2948 -0.3375  0.1522
 1243TIP3    H125288   3.666   5.873   1.079  0.8933 -0.3037  0.7533
 1243TIP3    H225289   3.650   5.836   0.933 -2.8240  2.2258  0.3937
 1244TIP3   OH225290   4.636   1.426   0.995 -0.0700  0.0106  0.5703
 1244TIP3    H125291   4.636   1.521   0.983  0.0688  0.1211  1.3650
 1244TIP3    H225292   4.601   1.413   1.083 -0.4391 -0.6982  0.3261
 1245TIP3   OH225293   0.684   6.422   1.849  0.1294 -0.5758  0.0184
 1245TIP3    H125294   0.712   6.495   1.905 -0.3873  0.0243 -0.4930
 1245TIP3    H225295   0.759   6.405   1.792  0.5580 -1.0079  0.7047
 1246TIP3   OH225296   0.878   6.366   7.312 -0.5709  0.0172  0.4564
 1246TIP3    H125297   0.876   6.440   7.373 -0.6006  1.5212 -1.2805
 1246TIP3    H225298   0.937   6.394   7.242 -0.9951 -1.4028 -0.5111
 1247TIP3   OH225299   4.856   3.523   6.836  0.2226  0.0355  0.2156
 1247TIP3    H125300   4.939   3.475   6.845  1.2441  1.5279 -0.9015
 1247TIP3    H225301   4.836   3.552   6.925  1.1009 -0.0062  0.4328
 1248TIP3   OH225302   3.871   4.185   2.321 -0.4163 -0.2460  0.2039
 1248TIP3    H125303   3.789   4.141   2.298  0.8224 -1.7545 -1.7000
 1248TIP3    H225304   3.893   4.151   2.408 -1.5847 -0.1455  0.5538
 1249TIP3   OH225305   3.563   5.749   9.284 -0.5325 -0.4665  0.6059
 1249TIP3    H125306   3.608   5.664   9.280 -0.8791 -0.8244  2.8585
 1249TIP3    H225307   3.470   5.727   9.276 -0.6043 -0.2760  0.9138
 1250TIP3   OH225308   5.738   3.240   6.864 -0.4940 -0.3962  0.4359
 1250TIP3    H125309   5.772   3.311   6.919  0.1757 -0.5935  0.2884
 1250TIP3    H225310   5.745   3.273   6.775 -1.6022 -0.0674  0.4592
 1251TIP3   OH225311   2.547   1.726   8.407  0.0118  0.2959  0.5492
 1251TIP3    H125312   2.460   1.763   8.388 -0.6053  0.8666  3.8608
 1251TIP3    H225313   2.566   1.671   8.332 -3.6752 -0.6156  0.0748
 1252TIP3   OH225314   6.144   2.195   9.488 -0.3520 -0.0624 -0.9052
 1252TIP3    H125315   6.126   2.219   9.397  2.0455  1.5821 -1.0429
 1252TIP3    H225316   6.112   2.269   9.539  0.2766  0.0183 -0.6217
 1253TIP3   OH225317   0.344   2.539   8.976 -0.1552 -0.1627 -0.2501
 1253TIP3    H125318   0.261   2.492   8.969 -0.1453  0.0231 -1.9560
 1253TIP3    H225319   0.324   2.614   9.032 -0.7369 -0.9306  0.6024
 1254TIP3   OH225320   0.032   2.854   7.990  0.8333 -0.0727 -0.0248
 1254TIP3    H125321   0.031   2.941   8.030 -0.6751 -0.4457  0.8643
 1254TIP3    H225322  -0.038   2.858   7.924  1.1405 -0.4438 -0.3744
 1255TIP3   OH225323   2.983   0.022   7.707  1.0261 -0.3552 -0.2963
 1255TIP3    H125324   2.976   0.037   7.801 -0.2825 -0.3385 -0.3883
 1255TIP3    H225325   3.030   0.099   7.674 -1.1246  1.1643 -0.0458
 1256TIP3   OH225326   0.010   3.525   0.765 -0.5128  0.9978  0.3680
 1256TIP3    H125327   0.028   3.613   0.797  0.5440  0.6632  0.7351
 1256TIP3    H225328  -0.042   3.484   0.834 -0.7756  1.2443  0.3170
 1257TIP3   OH225329   3.722   4.319   7.184  0.1423  0.2499  0.1967
 1257TIP3    H125330   3.674   4.295   7.104 -1.4222 -0.3555  1.2609
 1257TIP3    H225331   3.762   4.238   7.213 -0.9447 -0.0057  1.0631
 1258TIP3   OH225332   1.407   5.826   8.020  0.3339  0.0060  0.3015
 1258TIP3    H125333   1.330   5.880   8.036 -0.4062 -0.9758  0.1289
 1258TIP3    H225334   1.420   5.830   7.925  0.9213  0.7251  0.4042
 1259TIP3   OH225335   2.330   1.989   1.612 -0.1760  0.3562  0.1594
 1259TIP3    H125336   2.288   2.069   1.579 -0.5885 -0.2830 -0.9581
 1259TIP3    H225337   2.298   1.921   1.553  0.8503 -0.4905  0.5607
 1260TIP3   OH225338   6.026   2.827   7.593 -0.6884 -0.0011  0.1427
 1260TIP3    H125339   6.119   2.816   7.578 -0.5803 -2.4458  1.9681
 1260TIP3    H225340   5.991   2.859   7.510  1.9200  2.4535 -0.1281
 1261TIP3   OH225341   5.334   4.330   1.547 -0.0044 -0.4804 -0.3341
 1261TIP3    H125342   5.334   4.380   1.629  0.9278 -1.1244  0.0683
 1261TIP3    H225343   5.412   4.276   1.552 -1.0784 -2.1259 -0.6860
 1262TIP3   OH225344   4.043   2.905   0.492  0.0650 -0.2775  0.0523
 1262TIP3    H125345   3.999   2.829   0.529 -1.4974 -0.3963 -1.9115
 1262TIP3    H225346   4.136   2.886   0.502 -0.3016 -1.9468  0.5822
 1263TIP3   OH225347   4.468   0.398   7.654 -0.6281 -0.4900 -0.1147
 1263TIP3    H125348   4.473   0.308   7.686  3.1435  0.3235  2.1941
 1263TIP3    H225349   4.504   0.393   7.565  0.7249 -1.1630  0.4385
 1264TIP3   OH225350   5.780   1.743   9.324 -0.1342  0.1116  0.0187
 1264TIP3    H125351   5.779   1.746   9.228  2.4056 -0.3090 -0.0971
 1264TIP3    H225352   5.734   1.662   9.345 -2.2468  1.0559 -0.7014
 1265TIP3   OH225353   3.014   2.042   0.842  0.0573  0.5235  1.0507
 1265TIP3    H125354   3.032   2.061   0.934 -0.9327  1.9032  0.9936
 1265TIP3    H225355   2.933   1.992   0.842  0.8703 -0.8415  0.9915
 1266TIP3   OH225356   2.420   2.602   0.040  0.2651  0.4546 -0.4225
 1266TIP3    H125357   2.478   2.644   0.104  0.7064  1.1057 -1.2386
 1266TIP3    H225358   2.382   2.675  -0.009 -0.4288 -0.0224 -0.5974
 1267TIP3   OH225359   2.521   1.435   8.628  0.5157  0.0687  0.5519
 1267TIP3    H125360   2.516   1.364   8.564  0.8577 -1.3723  2.0795
 1267TIP3    H225361   2.521   1.515   8.574 -3.5195 -0.8149 -1.0971
 1268TIP3   OH225362   4.963   2.321   8.810  0.1459 -0.4021 -0.5110
 1268TIP3    H125363   5.042   2.338   8.862 -0.9192  1.1004  0.6918
 1268TIP3    H225364   4.897   2.379   8.847 -1.5180 -1.5454 -1.5644
 1269TIP3   OH225365   1.447   4.871   0.359 -1.1987  0.0915  0.0278
 1269TIP3    H125366   1.493   4.897   0.439  1.8641  0.6584 -1.7548
 1269TIP3    H225367   1.481   4.783   0.340  0.1377  0.9401 -1.8930
 1270TIP3   OH225368   6.377   0.761   9.570  0.0186 -0.5979 -0.0757
 1270TIP3    H125369   6.408   0.807   9.492  0.6083  0.0223  0.5017
 1270TIP3    H225370   6.451   0.705   9.595  0.0573 -0.3467  0.3749
 1271TIP3   OH225371   2.453   5.168   9.141 -0.4784 -0.2905 -0.1174
 1271TIP3    H125372   2.436   5.252   9.183  0.5532 -0.9490  1.7261
 1271TIP3    H225373   2.368   5.125   9.139 -1.2468  1.1493 -2.0583
 1272TIP3   OH225374   3.502   3.271   9.058 -0.5449 -0.1920 -0.1530
 1272TIP3    H125375   3.524   3.296   9.147 -0.4752  0.1740 -0.2702
 1272TIP3    H225376   3.571   3.311   9.004 -1.2077  0.5488 -0.4776
 1273TIP3   OH225377   1.630   1.726   8.562  0.1509 -0.0287  0.0757
 1273TIP3    H125378   1.627   1.719   8.657  0.8649 -1.2904  0.0227
 1273TIP3    H225379   1.696   1.662   8.535 -0.5815 -0.2415 -1.3230
 1274TIP3   OH225380   3.655   2.481   9.500 -0.2543 -0.0144  0.3597
 1274TIP3    H125381   3.655   2.495   9.595 -0.7694  0.7673  0.2538
 1274TIP3    H225382   3.627   2.565   9.464 -1.6477 -0.7835 -0.4154
 1275TIP3   OH225383   5.666   5.886   0.828 -0.4032  0.1539  0.0269
 1275TIP3    H125384   5.727   5.876   0.756 -2.1921  1.2020 -1.7614
 1275TIP3    H225385   5.718   5.921   0.900  1.4008 -0.7108 -0.8169
 1276TIP3   OH225386   5.618   2.414   0.759 -0.1514 -0.4783  0.6466
 1276TIP3    H125387   5.650   2.499   0.729 -1.7043  0.3666  1.3001
 1276TIP3    H225388   5.635   2.414   0.853  1.4242 -1.6519  0.4185
 1277TIP3   OH225389   4.379   3.108   7.423  0.6926 -0.1344 -0.3571
 1277TIP3    H125390   4.306   3.151   7.467  1.0827  0.5410 -0.3681
 1277TIP3    H225391   4.439   3.084   7.493  0.6391 -0.3585 -0.3857
 1278TIP3   OH225392   6.472   6.207   7.612  0.0301  0.2864  0.0352
 1278TIP3    H125393   6.551   6.196   7.559 -0.9662 -1.1339 -1.2503
 1278TIP3    H225394   6.500   6.259   7.687  2.6368 -1.7124  0.5716
 1279TIP3   OH225395   3.546   0.741   0.074 -0.0191  0.3369 -0.1080
 1279TIP3    H125396   3.498   0.784   0.004 -1.6883 -0.2538  0.6331
 1279TIP3    H225397   3.556   0.650   0.044 -0.4371  0.1669  0.2496
 1280TIP3   OH225398   1.506   3.347   9.492 -0.4695  0.2935  0.2576
 1280TIP3    H125399   1.473   3.435   9.474 -1.6729 -0.6094 -2.3695
 1280TIP3    H225400   1.592   3.345   9.450 -0.9119 -0.0860 -0.6619
 1281TIP3   OH225401   1.874   5.466   1.473  0.5096  0.1612 -0.0176
 1281TIP3    H125402   1.960   5.491   1.438  1.2101 -2.0893 -0.0259
 1281TIP3    H225403   1.894   5.409   1.547 -0.9339 -1.8609 -1.0902
 1282TIP3   OH225404   6.330   1.691   8.750  0.0722  0.3222 -0.0232
 1282TIP3    H125405   6.275   1.651   8.682 -0.9959 -0.6258  1.3325
 1282TIP3    H225406   6.400   1.734   8.701 -1.6176  1.2199 -1.8190
 1283TIP3   OH225407   1.980   2.552   8.272 -0.5104  0.4228  0.0397
 1283TIP3    H125408   2.018   2.500   8.201  0.2791  1.4611 -0.3154
 1283TIP3    H225409   2.041   2.543   8.344 -0.7301  0.2973  0.2114
 1284TIP3   OH225410   0.686   4.412   8.071 -0.3980 -0.6662 -0.0657
 1284TIP3    H125411   0.605   4.368   8.096 -0.6948  0.8699  1.8703
 1284TIP3    H225412   0.657   4.494   8.030  0.1952 -1.0416 -1.3093
 1285TIP3   OH225413   2.704   6.228   6.761 -0.0975 -0.2838 -0.4246
 1285TIP3    H125414   2.691   6.139   6.793  1.2296 -1.6076 -3.2661
 1285TIP3    H225415   2.630   6.277   6.797  0.2041 -1.9711  2.8721
 1286TIP3   OH225416   1.735   0.603   1.503 -0.0646  0.4329  0.0842
 1286TIP3    H125417   1.733   0.612   1.598  2.0501  2.0440  0.0737
 1286TIP3    H225418   1.698   0.685   1.470  3.0935  1.8545 -0.3256
 1287TIP3   OH225419   4.378   3.970   9.394 -0.4761 -0.2348  0.1244
 1287TIP3    H125420   4.472   3.959   9.385 -0.2047  2.7778 -2.5207
 1287TIP3    H225421   4.367   4.027   9.470 -0.3661 -2.0247  1.5238
 1288TIP3   OH225422   0.094   2.454   9.002  0.4515  0.1387 -0.2165
 1288TIP3    H125423   0.118   2.374   9.049 -1.1486 -1.5087 -1.9979
 1288TIP3    H225424   0.011   2.433   8.959 -0.7467  3.2411  0.2851
 1289TIP3   OH225425   5.729   0.246   7.992  0.0255 -0.6357 -0.2560
 1289TIP3    H125426   5.668   0.253   8.065  0.9304 -0.3502  0.5064
 1289TIP3    H225427   5.754   0.337   7.973  0.6389 -0.7758 -0.1616
 1290TIP3   OH225428   1.291   4.439   7.710  0.1140 -0.3979  0.1596
 1290TIP3    H125429   1.302   4.345   7.722 -1.2815 -0.9245 -2.0464
 1290TIP3    H225430   1.237   4.447   7.631  0.3309  2.2676  0.1854
 1291TIP3   OH225431   4.922   0.827   9.442 -0.2420 -0.0967 -0.1618
 1291TIP3    H125432   4.943   0.834   9.535 -0.0533  3.1334 -0.3200
 1291TIP3    H225433   5.007   0.836   9.398 -0.5719  0.8352 -0.6340
 1292TIP3   OH225434   0.538   5.855   3.116 -0.1418 -0.7183 -0.0073
 1292TIP3    H125435   0.469   5.849   3.050  0.8985  0.9512 -1.3491
 1292TIP3    H225436   0.491   5.876   3.197 -1.2716  0.0165 -0.8050
 1293TIP3   OH225437   2.667   2.596   8.008  1.0202  0.1721  0.0212
 1293TIP3    H125438   2.629   2.564   7.926  1.6147 -2.5280  0.6997
 1293TIP3    H225439   2.598   2.651   8.047  0.7393  1.5211 -2.2241
 1294TIP3   OH225440   1.120   0.919   1.526 -0.2447  0.1075  0.3082
 1294TIP3    H125441   1.185   0.964   1.580 -0.2996  1.4560 -0.6879
 1294TIP3    H225442   1.166   0.899   1.444  0.6113 -4.1661  1.6013
 1295TIP3   OH225443   1.492   4.360   0.911 -0.0034  0.5246 -0.4347
 1295TIP3    H125444   1.479   4.358   1.006  0.0034  0.0764 -0.4411
 1295TIP3    H225445   1.509   4.452   0.892  0.2449  0.5806  0.0324
 1296TIP3   OH225446   3.958   4.615   7.994 -0.1227  0.0388 -0.0349
 1296TIP3    H125447   4.012   4.686   7.961  0.6678 -0.9534 -0.9486
 1296TIP3    H225448   3.888   4.605   7.929  1.4273 -1.9071 -1.5468
 1297TIP3   OH225449   4.922   4.979   7.836 -0.2843 -0.1807  0.4028
 1297TIP3    H125450   4.891   4.952   7.922 -0.7174  0.2487  0.3865
 1297TIP3    H225451   5.001   5.031   7.854 -0.4607  0.0373  0.5515
 1298TIP3   OH225452   6.113   3.217   8.365  0.1019  0.1306 -0.0662
 1298TIP3    H125453   6.063   3.267   8.430 -0.1109  0.6681 -0.6316
 1298TIP3    H225454   6.086   3.126   8.379 -1.8152  0.4860 -0.9723
 1299TIP3   OH225455   5.271   6.125   9.122 -0.3127 -0.1978  0.0475
 1299TIP3    H125456   5.208   6.178   9.170  1.0248  1.3680  0.1816
 1299TIP3    H225457   5.262   6.037   9.158 -0.7715  0.5034  1.7008
 1300TIP3   OH225458   1.651   5.305   1.980 -0.5584  0.0345  0.7243
 1300TIP3    H125459   1.567   5.268   2.007 -1.0207  1.1119  0.7996
 1300TIP3    H225460   1.632   5.348   1.897  0.0226 -0.0830  0.5271
 1301TIP3   OH225461   5.490   3.795   7.964 -0.6368 -0.2411 -0.8449
 1301TIP3    H125462   5.550   3.837   8.026  0.8746  0.7384 -2.8584
 1301TIP3    H225463   5.422   3.756   8.019  0.9438  0.0412  1.4439
 1302TIP3   OH225464   5.822   2.489   8.666  0.3031 -0.0186  0.2693
 1302TIP3    H125465   5.795   2.536   8.588  1.2672 -0.4149 -0.3204
 1302TIP3    H225466   5.867   2.411   8.633 -0.2977 -0.7984  1.2197
 1303TIP3   OH225467   3.367   1.738   0.266 -0.3226 -0.3380  0.1112
 1303TIP3    H125468   3.327   1.677   0.204 -0.8502 -0.0246  0.1355
 1303TIP3    H225469   3.453   1.757   0.229 -0.1313 -1.1487  0.1405
 1304TIP3   OH225470   3.757   5.187   8.844  0.2611 -0.2896 -0.1134
 1304TIP3    H125471   3.715   5.247   8.905  1.0370 -0.7392  0.8936
 1304TIP3    H225472   3.806   5.244   8.784  1.7357  0.1077  1.3799
 1305TIP3   OH225473   0.016   0.315   1.234 -0.0041  0.3616  0.6257
 1305TIP3    H125474   0.109   0.331   1.253  0.7116 -0.6133 -1.6950
 1305TIP3    H225475   0.012   0.309   1.139 -2.2442 -0.9198  0.7443
 1306TIP3   OH225476   1.668   0.667   2.640  0.0701  0.2604 -0.0767
 1306TIP3    H125477   1.724   0.654   2.717  0.2986 -0.8185 -0.4030
 1306TIP3    H225478   1.582   0.687   2.675  0.1518 -0.3291  0.4663
 1307TIP3   OH225479   4.302   5.757   7.731 -0.0392  0.2986  0.2165
 1307TIP3    H125480   4.272   5.777   7.643 -0.7462  1.5241  0.7077
 1307TIP3    H225481   4.338   5.669   7.725 -2.4749 -0.7032 -0.7106
 1308TIP3   OH225482   3.326   2.068   9.556  0.4472 -0.4984  0.0138
 1308TIP3    H125483   3.237   2.062   9.588  0.3031  1.1206  0.0133
 1308TIP3    H225484   3.378   2.096   9.632  0.2725  2.3273 -0.7919
 1309TIP3   OH225485   6.086   5.402   7.762 -0.3852 -0.0314 -0.2039
 1309TIP3    H125486   6.100   5.336   7.830  1.0801 -0.1963 -0.6193
 1309TIP3    H225487   6.052   5.478   7.810  0.0584 -0.3402  0.6435
 1310TIP3   OH225488   6.328   4.940   0.658 -0.3024 -0.0775  0.3512
 1310TIP3    H125489   6.396   4.979   0.603 -1.6629 -1.6997 -2.7189
 1310TIP3    H225490   6.369   4.861   0.693 -1.2545 -2.9245 -4.1662
 1311TIP3   OH225491   4.945   2.477   1.493 -0.6939 -0.0155 -0.6318
 1311TIP3    H125492   4.934   2.451   1.585  0.2972  0.0154 -0.4913
 1311TIP3    H225493   4.866   2.526   1.472 -0.2512  1.3495  0.6919
 1312TIP3   OH225494   5.650   0.875   0.496 -0.4651  0.3713  0.0798
 1312TIP3    H125495   5.728   0.896   0.446 -1.3309  1.7152 -0.7536
 1312TIP3    H225496   5.643   0.779   0.491  2.5608 -0.1200  2.4399
 1313TIP3   OH225497   4.633   0.071   2.015  0.3498  0.0149 -0.1699
 1313TIP3    H125498   4.660   0.118   2.094 -1.3189 -1.0001  1.0635
 1313TIP3    H225499   4.619  -0.019   2.044  0.1090 -0.4771 -1.7207
 1314TIP3   OH225500   2.332   1.952   7.571  0.2200 -0.2715 -0.2809
 1314TIP3    H125501   2.333   1.912   7.658 -0.8643 -0.4024 -0.3213
 1314TIP3    H225502   2.242   1.981   7.559 -0.1062 -1.8255 -2.0709
 1315TIP3   OH225503   5.249   5.767   8.205 -0.1982  0.0336  0.0760
 1315TIP3    H125504   5.186   5.830   8.171 -1.0406 -0.1137  1.2796
 1315TIP3    H225505   5.219   5.749   8.294  1.2211 -0.4981  0.4796
 1316TIP3   OH225506   5.935   0.182   1.456 -0.4803 -0.3131  0.2439
 1316TIP3    H125507   5.999   0.216   1.519 -2.6857  0.0620  2.4169
 1316TIP3    H225508   5.903   0.101   1.495 -2.0296  0.0061 -0.3063
 1317TIP3   OH225509   0.109   2.713   8.864  0.1983 -0.6978 -0.2111
 1317TIP3    H125510   0.104   2.659   8.943 -0.7538  0.2768  0.4364
 1317TIP3    H225511   0.057   2.790   8.885 -0.5155 -0.6482 -2.0058
 1318TIP3   OH225512   0.982   4.948   9.372  0.2859 -0.6984 -0.4098
 1318TIP3    H125513   0.993   5.007   9.297 -2.6480  0.8232  0.2165
 1318TIP3    H225514   0.999   5.004   9.448 -0.0232 -1.3493  0.1421
 1319TIP3   OH225515   0.201   0.087   2.567  0.2433  0.3487 -0.1245
 1319TIP3    H125516   0.291   0.093   2.598  0.4246 -0.1379 -0.5414
 1319TIP3    H225517   0.148   0.119   2.640  0.5962 -1.5166  1.0078
 1320TIP3   OH225518   1.114   1.687   0.360 -0.5917  0.1752  0.1382
 1320TIP3    H125519   1.160   1.765   0.329 -0.4611  0.6976  1.5846
 1320TIP3    H225520   1.050   1.720   0.423 -0.3276 -0.9021  0.9975
 1321TIP3   OH225521   3.543   3.004   1.254  0.3383  0.3026 -0.5101
 1321TIP3    H125522   3.468   3.052   1.219  2.4487  2.1891 -2.8458
 1321TIP3    H225523   3.618   3.061   1.237  2.2703 -1.0796  2.5279
 1322TIP3   OH225524   2.537   3.040   1.292  0.2560  0.3424  0.1352
 1322TIP3    H125525   2.611   3.003   1.244 -0.7199  1.3081 -2.2920
 1322TIP3    H225526   2.576   3.106   1.349  1.4988 -1.0581  0.9565
 1323TIP3   OH225527   5.084   2.565   0.052  0.3826 -0.5588 -0.2091
 1323TIP3    H125528   5.070   2.472   0.033 -0.1453 -0.2827 -1.2483
 1323TIP3    H225529   5.177   2.572   0.069  0.1646 -1.5846  1.7474
 1324TIP3   OH225530   5.795   3.538   8.465  0.2033 -0.2735 -0.2982
 1324TIP3    H125531   5.731   3.609   8.455  0.2671  0.4823  3.2804
 1324TIP3    H225532   5.878   3.583   8.480  0.4405 -1.0835  0.9577
 1325TIP3   OH225533   3.689   5.763   2.254  0.1312 -0.2352  0.3412
 1325TIP3    H125534   3.599   5.790   2.234 -0.4486 -2.1761  0.0916
 1325TIP3    H225535   3.712   5.812   2.332 -2.4206 -2.1088  2.4520
 1326TIP3   OH225536   4.436   0.139   7.706 -0.9226 -0.0046 -0.3261
 1326TIP3    H125537   4.476   0.054   7.692 -0.3741 -0.1917  1.9412
 1326TIP3    H225538   4.344   0.120   7.724 -0.5729 -0.2768  1.3181
 1327TIP3   OH225539   3.106   3.679   7.631 -0.1928 -0.0286  0.2569
 1327TIP3    H125540   3.063   3.765   7.632  0.4261  0.2779  0.6728
 1327TIP3    H225541   3.183   3.691   7.575  0.7463  0.1118  1.5375
 1328TIP3   OH225542   6.247   2.248   1.167  0.2377 -0.0508  0.2057
 1328TIP3    H125543   6.168   2.219   1.121  0.4282 -1.1506  0.5488
 1328TIP3    H225544   6.264   2.336   1.133 -0.7894 -0.0449 -0.3125
 1329TIP3   OH225545   2.296   1.600   7.570  0.0136  1.3188 -0.9249
 1329TIP3    H125546   2.235   1.673   7.577 -0.0426  1.2268 -0.3526
 1329TIP3    H225547   2.258   1.531   7.625 -0.1448  0.7062 -1.7833
 1330TIP3   OH225548   1.950   0.289   8.878 -0.4237 -0.5538 -0.4459
 1330TIP3    H125549   1.915   0.213   8.832 -1.4868 -0.8887  0.8734
 1330TIP3    H225550   1.976   0.350   8.808  1.7160 -2.6258 -1.5840
 1331TIP3   OH225551   1.718   1.338   0.996  0.1881  0.1661  0.2464
 1331TIP3    H125552   1.704   1.421   1.041  0.5263 -0.4829  1.5964
 1331TIP3    H225553   1.789   1.296   1.044 -0.4393 -1.2074  0.0249
 1332TIP3   OH225554   6.250   6.154   2.275 -0.7535  0.0879  0.6862
 1332TIP3    H125555   6.313   6.146   2.203 -1.4794 -0.1752  0.0763
 1332TIP3    H225556   6.231   6.247   2.281 -2.8155 -0.1310 -1.3312
 1333TIP3   OH225557   3.927   3.206   8.773 -0.5769 -0.5060 -0.4023
 1333TIP3    H125558   3.999   3.246   8.821 -0.4907 -0.1889 -0.7969
 1333TIP3    H225559   3.850   3.256   8.798 -0.4591 -0.0324 -0.9472
 1334TIP3   OH225560   2.477   0.805   0.983  0.3573 -0.2389 -0.0373
 1334TIP3    H125561   2.400   0.755   0.958  0.6758 -1.2569  0.9484
 1334TIP3    H225562   2.449   0.896   0.978 -0.6317 -0.5547 -0.5575
 1335TIP3   OH225563   5.909   1.507   8.532 -0.5501  0.1319 -0.2489
 1335TIP3    H125564   5.836   1.446   8.522 -0.9978  0.4887  0.7376
 1335TIP3    H225565   5.884   1.563   8.607 -0.6436  2.2070 -1.7335
 1336TIP3   OH225566   3.721   3.424   1.605  0.6086 -0.8179 -0.3919
 1336TIP3    H125567   3.789   3.462   1.661  1.3739 -2.3890 -0.1959
 1336TIP3    H225568   3.683   3.499   1.560  1.9065  0.2004  0.1216
 1337TIP3   OH225569   4.255   0.648   8.022  0.6765 -0.0109  0.0625
 1337TIP3    H125570   4.173   0.674   7.980  0.7245 -0.4820 -0.3307
 1337TIP3    H225571   4.230   0.627   8.112  0.5479  0.8501  0.2436
 1338TIP3   OH225572   0.414   0.095   1.837  0.3002 -0.0697  0.2820
 1338TIP3    H125573   0.429   0.055   1.751 -0.2459  1.0462 -0.3617
 1338TIP3    H225574   0.321   0.115   1.838  0.4160  0.4717  0.8920
 1339TIP3   OH225575   1.688   0.122   1.756 -0.4364  0.1230 -0.1366
 1339TIP3    H125576   1.643   0.160   1.680 -1.2834 -1.0331 -0.2490
 1339TIP3    H225577   1.640   0.156   1.832  0.1128  0.9014 -0.1279
 1340TIP3   OH225578   2.234   1.315   7.807 -0.2213  0.1799  0.2687
 1340TIP3    H125579   2.198   1.332   7.720 -0.0721  0.3886  0.2486
 1340TIP3    H225580   2.158   1.289   7.859 -0.3720  0.4190  0.1711
 1341TIP3   OH225581   5.150   0.210   7.196  0.3213 -0.4696  0.0491
 1341TIP3    H125582   5.102   0.280   7.240 -1.7180 -0.6790 -1.7241
 1341TIP3    H225583   5.234   0.250   7.173 -0.6793  1.3411 -0.6634
 1342TIP3   OH225584   5.578   4.244   1.616  0.4375 -0.3072 -0.0698
 1342TIP3    H125585   5.607   4.161   1.655 -1.2703 -0.0559  1.9616
 1342TIP3    H225586   5.620   4.312   1.670  0.6932  0.1231 -0.8047
 1343TIP3   OH225587   0.765   0.884   2.438 -0.3184 -0.3750  0.2732
 1343TIP3    H125588   0.788   0.795   2.411 -0.6669 -0.1620 -0.8102
 1343TIP3    H225589   0.823   0.903   2.511  0.3380 -1.1907 -0.0111
 1344TIP3   OH225590   5.096   1.500   8.411  0.1545  0.2412 -0.3529
 1344TIP3    H125591   5.005   1.528   8.418  0.7179  2.0419  0.4714
 1344TIP3    H225592   5.099   1.416   8.457 -0.8194  0.8782  0.9527
 1345TIP3   OH225593   1.024   3.508   9.194  0.0058  0.7052  0.4956
 1345TIP3    H125594   0.989   3.448   9.260 -1.0860 -0.0502 -0.7162
 1345TIP3    H225595   0.962   3.581   9.194 -0.1111  0.6066  0.1687
 1346TIP3   OH225596   3.383   6.297   8.638 -0.5511 -0.0923  0.5778
 1346TIP3    H125597   3.317   6.229   8.647 -0.1112 -0.6542 -0.3163
 1346TIP3    H225598   3.409   6.294   8.546 -1.3086  2.0326  0.2207
 1347TIP3   OH225599   3.621   2.085   0.864  0.0830  0.0794  0.8547
 1347TIP3    H125600   3.540   2.094   0.814  0.8685 -0.3930 -0.5477
 1347TIP3    H225601   3.638   2.173   0.899  0.8103  1.0893 -1.8112
 1348TIP3   OH225602   2.089   2.117   8.573 -0.6330  0.0809 -0.6183
 1348TIP3    H125603   2.033   2.176   8.624  0.6474  0.6343  0.2094
 1348TIP3    H225604   2.056   2.030   8.591 -1.5428  0.4288 -0.5569
 1349TIP3   OH225605   3.457   1.966   0.443 -0.3498 -0.1012  0.0682
 1349TIP3    H125606   3.516   1.922   0.504  1.4975  2.5884  0.4292
 1349TIP3    H225607   3.412   2.031   0.496 -1.9129 -0.5314 -0.6785
 1350TIP3   OH225608   5.794   2.146   8.925  0.0750  0.1117 -0.4470
 1350TIP3    H125609   5.703   2.131   8.951  0.4601 -2.7727 -0.5032
 1350TIP3    H225610   5.813   2.235   8.957 -1.9018 -0.2297  2.0350
 1351TIP3   OH225611   1.819   4.756   9.172  0.0063  0.0432 -0.3089
 1351TIP3    H125612   1.872   4.835   9.185 -0.4674  0.5937 -1.5154
 1351TIP3    H225613   1.770   4.773   9.091 -0.6297 -1.2085 -0.2183
 1352TIP3   OH225614   6.353   5.776   8.475  0.2737 -0.3631 -0.1433
 1352TIP3    H125615   6.396   5.691   8.463 -1.0148 -1.0698  0.0683
 1352TIP3    H225616   6.276   5.757   8.529  1.2061  1.3314  1.9111
 1353TIP3   OH225617   4.451   5.390   8.743 -0.5801  0.1095 -0.4589
 1353TIP3    H125618   4.462   5.470   8.691 -2.1281 -0.5442 -1.9282
 1353TIP3    H225619   4.429   5.421   8.831 -0.7244  1.3042 -0.8961
 1354TIP3   OH225620   2.944   0.329   8.143  0.1568  0.3013 -0.8461
 1354TIP3    H125621   2.889   0.343   8.220  0.6802  1.6457 -0.6787
 1354TIP3    H225622   3.028   0.300   8.178 -0.3650 -1.6472 -1.0956
 1355TIP3   OH225623   0.376   5.717   2.155  0.6831 -0.0779  0.5934
 1355TIP3    H125624   0.417   5.654   2.214  0.2898 -0.1753  0.7646
 1355TIP3    H225625   0.322   5.772   2.211 -0.9250 -1.1397  0.1751
 1356TIP3   OH225626   1.953   1.139   8.656  0.6361  0.0136  0.3096
 1356TIP3    H125627   1.996   1.065   8.613  0.4550 -0.3877  0.8192
 1356TIP3    H225628   1.865   1.140   8.619  0.8954  0.4938 -0.3192
 1357TIP3   OH225629   5.649   3.379   1.565  0.2895  0.0487  0.2314
 1357TIP3    H125630   5.608   3.296   1.543  1.4199 -0.3263 -0.5596
 1357TIP3    H225631   5.597   3.445   1.519  0.8878 -0.4675 -1.2342
 1358TIP3   OH225632   0.878   6.353   1.674 -0.3513  0.0112 -0.0753
 1358TIP3    H125633   0.936   6.276   1.677  0.1242  0.3862  0.7008
 1358TIP3    H225634   0.904   6.399   1.594  0.9183  0.5311  0.6027
 1359TIP3   OH225635   1.222   1.538   8.633  0.3296  0.3069 -0.2798
 1359TIP3    H125636   1.257   1.619   8.671  1.7327  0.3018 -1.4878
 1359TIP3    H225637   1.131   1.558   8.614  0.0139  0.8261  1.5784
 1360TIP3   OH225638   0.659   0.887   0.907 -0.4077  0.1938  0.3084
 1360TIP3    H125639   0.659   0.872   0.812 -1.0413 -0.1073  0.3576
 1360TIP3    H225640   0.684   0.803   0.945 -0.0311  0.3469  0.4142
 1361TIP3   OH225641   0.055   1.753   8.623  0.2025 -0.0413  0.2822
 1361TIP3    H125642   0.122   1.815   8.592 -0.8318  0.7447 -0.4304
 1361TIP3    H225643   0.096   1.710   8.698  0.5387  2.3661  1.5856
 1362TIP3   OH225644   4.310   4.847   8.876  0.1449 -0.4179  0.5755
 1362TIP3    H125645   4.261   4.853   8.794  0.0404 -0.1850  0.6543
 1362TIP3    H225646   4.382   4.787   8.857 -0.1936 -0.7918  0.4697
 1363TIP3   OH225647   5.261   2.621   0.592 -0.2760  0.2578  0.1345
 1363TIP3    H125648   5.264   2.540   0.641  0.5352 -0.2362 -0.6919
 1363TIP3    H225649   5.190   2.671   0.632 -0.9305 -0.9385  0.5155
 1364TIP3   OH225650   6.159   5.138   7.928 -0.4605  0.3800 -0.1463
 1364TIP3    H125651   6.152   5.082   7.850 -0.5462  0.8450 -0.4792
 1364TIP3    H225652   6.250   5.129   7.957 -0.9058 -1.3044  0.8547
 1365TIP3   OH225653   0.475   4.605   7.300 -0.5412 -0.3135 -0.6219
 1365TIP3    H125654   0.484   4.527   7.354  0.4922  0.1108 -0.1321
 1365TIP3    H225655   0.450   4.573   7.213  2.4604 -1.4738 -1.1734
 1366TIP3   OH225656   5.743   3.037   7.358  0.5899  0.1139  0.0723
 1366TIP3    H125657   5.761   3.044   7.451  2.0506 -1.1663 -0.0788
 1366TIP3    H225658   5.740   3.127   7.327 -0.6785  0.5943  1.4658
 1367TIP3   OH225659   5.676   3.844   7.739  0.1547 -0.3042 -0.4408
 1367TIP3    H125660   5.768   3.838   7.763 -0.3263  1.5206  2.4489
 1367TIP3    H225661   5.631   3.784   7.799 -0.6482 -0.1435 -0.8599
 1368TIP3   OH225662   1.404   4.513   8.057 -0.8896  0.0417  0.1517
 1368TIP3    H125663   1.485   4.497   8.008 -0.5473  2.0977 -0.0506
 1368TIP3    H225664   1.417   4.466   8.140  0.2974 -0.0603 -0.0724
 1369TIP3   OH225665   4.206   2.870   8.379  0.0185  0.4938 -0.1555
 1369TIP3    H125666   4.289   2.888   8.333  0.0111 -0.7102 -0.6866
 1369TIP3    H225667   4.198   2.941   8.442  1.9694  0.1121  0.6033
 1370TIP3   OH225668   0.547   0.514   0.750  0.2028  0.3162 -0.7308
 1370TIP3    H125669   0.596   0.562   0.817  0.9003 -1.6341  0.2520
 1370TIP3    H225670   0.474   0.571   0.728 -1.0182  0.4223  2.9268
 1371TIP3   OH225671   2.421   1.837   0.403 -0.4706  0.5996  0.4016
 1371TIP3    H125672   2.395   1.775   0.335  0.1434  0.6809  0.0908
 1371TIP3    H225673   2.381   1.920   0.375 -2.0754  0.1834  1.2937
 1372TIP3   OH225674   3.307   6.309   9.496  0.1591  0.6767 -0.0424
 1372TIP3    H125675   3.302   6.346   9.584  0.2384 -0.5393  0.4846
 1372TIP3    H225676   3.240   6.356   9.447  1.2639  2.5854  0.1813
 1373TIP3   OH225677   2.112   1.923   8.066  0.2582 -0.1730 -0.2237
 1373TIP3    H125678   2.098   1.829   8.061 -1.2756  0.0004  0.3198
 1373TIP3    H225679   2.032   1.962   8.031  0.9445  0.9527 -0.6427
 1374TIP3   OH225680   6.354   6.124   0.630  0.4742 -0.1186  0.0780
 1374TIP3    H125681   6.418   6.063   0.666  0.4893 -0.5900 -0.7082
 1374TIP3    H225682   6.393   6.211   0.643  2.3695 -0.4894 -2.3429
 1375TIP3   OH225683   6.205   4.098   0.116 -0.2958  0.0005  0.3689
 1375TIP3    H125684   6.139   4.044   0.072 -0.1696 -0.3754  0.6337
 1375TIP3    H225685   6.232   4.161   0.050  0.0478 -0.6935 -0.1751
 1376TIP3   OH225686   1.822   2.664   8.078 -0.0514 -0.3663 -0.0107
 1376TIP3    H125687   1.883   2.612   8.130  0.5701  1.5666  1.2892
 1376TIP3    H225688   1.739   2.658   8.125  0.3184  0.7346  0.8399
 1377TIP3   OH225689   1.084   6.198   0.800 -0.0727 -0.5262  0.2079
 1377TIP3    H125690   1.113   6.145   0.727  1.3555  2.0575 -1.2513
 1377TIP3    H225691   1.005   6.242   0.768 -0.1003 -0.2520  0.6414
 1378TIP3   OH225692   3.124   0.153   8.241  0.2001 -1.1519 -0.2754
 1378TIP3    H125693   3.130   0.138   8.335 -0.3238  0.8806  0.1318
 1378TIP3    H225694   3.082   0.074   8.206 -0.4837 -1.5299  1.3289
 1379TIP3   OH225695   5.434   0.734   0.079 -0.5219 -0.0153  0.3016
 1379TIP3    H125696   5.524   0.761   0.059 -0.9720  0.9329 -0.5673
 1379TIP3    H225697   5.424   0.750   0.173  1.0432 -2.7093  1.0242
 1380TIP3   OH225698   5.104   6.455   8.045 -0.1726 -0.3328 -0.6025
 1380TIP3    H125699   5.056   6.407   7.978 -2.5815 -0.5455  1.1277
 1380TIP3    H225700   5.043   6.523   8.075  1.2261  0.4682  0.5918
 1381TIP3   OH225701   0.018   2.732   0.548 -0.1726 -0.3526 -0.0528
 1381TIP3    H125702  -0.002   2.745   0.456 -1.4834 -1.8350 -0.0122
 1381TIP3    H225703   0.067   2.650   0.551  0.5031  0.0525  0.5194
 1382TIP3   OH225704   4.104   1.071   0.318 -0.0652 -0.6085 -0.3679
 1382TIP3    H125705   4.117   1.166   0.314 -0.1558 -0.5941 -0.3098
 1382TIP3    H225706   4.013   1.060   0.344  0.3150 -0.7010  1.0127
 1383TIP3   OH225707   6.203   5.141   8.404 -0.7751 -0.6835 -0.1460
 1383TIP3    H125708   6.253   5.081   8.349 -0.3081 -1.2220  0.8442
 1383TIP3    H225709   6.161   5.201   8.342  2.2920  0.7843 -0.9995
 1384TIP3   OH225710   5.200   1.600   0.486 -0.0185  0.3894  0.0998
 1384TIP3    H125711   5.180   1.572   0.396 -2.9320  1.2848  0.3473
 1384TIP3    H225712   5.141   1.547   0.540  0.7833  0.7697  1.3738
 1385TIP3   OH225713   4.643   1.079   1.372 -0.3131 -0.4979  0.2085
 1385TIP3    H125714   4.586   1.006   1.398  1.7134 -1.2761  2.9401
 1385TIP3    H225715   4.635   1.142   1.444 -0.0241  0.7805 -0.8526
 1386TIP3   OH225716   3.624   1.713   0.157  0.3159 -0.0866 -0.2032
 1386TIP3    H125717   3.631   1.690   0.064 -1.4310  0.0415 -0.4071
 1386TIP3    H225718   3.683   1.787   0.168 -0.2127  0.5477 -1.4675
 1387TIP3   OH225719   3.623   1.730   1.695  0.1319  0.6370  0.4920
 1387TIP3    H125720   3.704   1.759   1.653 -0.2997  2.3632  0.7699
 1387TIP3    H225721   3.569   1.697   1.622  0.3460  1.2774  0.0330
 1388TIP3   OH225722   2.415   1.120   7.865  0.3042 -0.3725  0.3161
 1388TIP3    H125723   2.418   1.148   7.957 -1.7646 -1.8956  0.9368
 1388TIP3    H225724   2.359   1.184   7.822 -0.6836 -0.9597  0.6940
 1389TIP3   OH225725   2.606   3.451   8.073 -0.0001  0.4801  0.1346
 1389TIP3    H125726   2.558   3.415   7.999  0.4732  1.3453 -0.6132
 1389TIP3    H225727   2.654   3.377   8.110 -1.5373 -0.3218  0.6331
 1390TIP3   OH225728   6.025   4.360   7.777  0.1839 -0.5216  0.2875
 1390TIP3    H125729   6.002   4.392   7.690  0.4261  0.3438  0.5247
 1390TIP3    H225730   5.989   4.425   7.837  1.2400 -0.3415  0.7590
 1391TIP3   OH225731   5.327   4.134   0.636 -0.4885 -0.1858  0.1377
 1391TIP3    H125732   5.368   4.054   0.669 -1.4078 -1.0527 -0.7516
 1391TIP3    H225733   5.259   4.155   0.701 -1.3525 -1.0895 -0.4397
 1392TIP3   OH225734   0.466   5.542   2.348 -0.1944 -0.1667 -0.3977
 1392TIP3    H125735   0.444   5.573   2.435 -0.4505  1.0105 -0.8633
 1392TIP3    H225736   0.436   5.451   2.346  0.5256 -0.4664  0.9905
 1393TIP3   OH225737   0.721   2.979   9.501  0.4782 -0.1861  0.4859
 1393TIP3    H125738   0.699   3.047   9.436 -0.4050 -0.7385  0.1827
 1393TIP3    H225739   0.753   2.906   9.448 -1.5174 -1.1385  0.5216
 1394TIP3   OH225740   4.610   3.058   6.820  0.4741  0.1774 -0.2380
 1394TIP3    H125741   4.667   3.128   6.786 -2.0072  0.9774 -3.2326
 1394TIP3    H225742   4.545   3.104   6.873  0.2592 -0.1710 -0.1989
 1395TIP3   OH225743   2.544   0.452   9.418  0.1681  0.4455  0.2468
 1395TIP3    H125744   2.611   0.414   9.475 -1.2966  0.1041  1.8145
 1395TIP3    H225745   2.506   0.523   9.469  0.0509  1.3670 -1.0554
 1396TIP3   OH225746   4.891   0.629   8.607 -0.1826  0.0456  0.0631
 1396TIP3    H125747   4.867   0.572   8.681  0.0973  0.6440  0.6242
 1396TIP3    H225748   4.812   0.633   8.554  0.0406 -1.5713 -0.4716
 1397TIP3   OH225749   2.782   1.535   7.929  0.1087 -0.3656 -0.6342
 1397TIP3    H125750   2.809   1.450   7.965  2.8761  0.6403 -0.1037
 1397TIP3    H225751   2.702   1.556   7.977  1.2900 -1.0929  1.8696
 1398TIP3   OH225752   6.505   1.440   0.030  0.1167  0.1542  0.2831
 1398TIP3    H125753   6.462   1.408  -0.049  0.1598  0.3465  0.1806
 1398TIP3    H225754   6.503   1.365   0.090  0.7981 -0.2480 -0.1841
 1399TIP3   OH225755   1.439   0.672   1.609  0.1653 -0.1104  0.1421
 1399TIP3    H125756   1.456   0.689   1.516  0.8959 -0.2989  0.2329
 1399TIP3    H225757   1.349   0.700   1.622  0.6381  1.7087 -0.2068
 1400TIP3   OH225758   4.986   4.908   8.520  0.1981  0.3054 -0.0194
 1400TIP3    H125759   4.925   4.972   8.555  0.6220  0.3872  0.6028
 1400TIP3    H225760   4.948   4.880   8.437 -0.3258  0.8619  0.0304
 1401TIP3   OH225761   0.750   0.992   2.140  0.3654 -0.3493  0.8483
 1401TIP3    H125762   0.785   1.008   2.052  0.6817  1.6490  1.2876
 1401TIP3    H225763   0.763   0.899   2.154 -0.3704 -0.8796 -1.5035
 1402TIP3   OH225764   2.420   2.410   1.269 -0.1550 -0.8577  0.5510
 1402TIP3    H125765   2.448   2.351   1.340 -0.6510  0.2542  1.7171
 1402TIP3    H225766   2.421   2.497   1.309 -0.3608 -0.1842 -0.8590
 1403TIP3   OH225767   3.899   5.074   7.772  0.1851  0.5925 -0.0724
 1403TIP3    H125768   3.922   5.167   7.783 -1.2285  1.0150 -0.5013
 1403TIP3    H225769   3.826   5.075   7.710  0.3925 -0.8493 -0.3685
 1404TIP3   OH225770   3.261   1.889   1.183  0.1569 -0.1125  0.1765
 1404TIP3    H125771   3.249   1.923   1.272 -0.7663 -2.0088  0.8385
 1404TIP3    H225772   3.346   1.923   1.155 -0.9442  3.2116  0.4644
 1405TIP3   OH225773   2.941   2.422   6.806  0.2616 -0.0041 -0.0322
 1405TIP3    H125774   3.016   2.364   6.791 -0.3370 -0.8504  0.1840
 1405TIP3    H225775   2.918   2.454   6.719  1.3956  0.9562 -0.0151
 1406TIP3   OH225776   3.881   4.911   1.969 -0.5062  0.6081 -0.2929
 1406TIP3    H125777   3.848   4.992   1.929  1.6866  1.9458  0.4153
 1406TIP3    H225778   3.884   4.931   2.063  0.5616 -0.1001 -0.1602
 1407TIP3   OH225779   0.019   2.504   7.387  0.1868 -0.1670 -0.4543
 1407TIP3    H125780   0.053   2.443   7.452  0.9529  0.1761 -0.5271
 1407TIP3    H225781   0.009   2.587   7.435  1.3273  0.2491 -0.9016
 1408TIP3   OH225782   5.254   0.561   0.362 -0.4148  0.0197  0.7350
 1408TIP3    H125783   5.334   0.611   0.344 -0.7839  1.2812  2.3233
 1408TIP3    H225784   5.201   0.571   0.283 -0.0036  1.2188  0.5867
 1409TIP3   OH225785   5.859   2.590   8.414  0.8434  0.1737 -0.2666
 1409TIP3    H125786   5.895   2.568   8.328  1.9140 -0.9544  0.4271
 1409TIP3    H225787   5.768   2.613   8.397  0.7615 -1.0103 -1.5952
 1410TIP3   OH225788   0.699   0.354   8.413  0.3664 -0.2863  0.4376
 1410TIP3    H125789   0.745   0.312   8.340  0.1901  0.0475  0.1318
 1410TIP3    H225790   0.608   0.327   8.403  0.4638 -0.8601  0.9824
 1411TIP3   OH225791   2.864   5.383   1.322  0.1289 -0.4690  0.0851
 1411TIP3    H125792   2.805   5.314   1.352 -0.6401  0.0008 -0.3354
 1411TIP3    H225793   2.909   5.413   1.401 -0.0785 -0.9272  0.3802
 1412TIP3   OH225794   6.528   6.006   0.823  0.1002 -0.9358  0.1032
 1412TIP3    H125795   6.529   6.098   0.848 -0.5533 -0.6873 -0.7401
 1412TIP3    H225796   6.561   5.960   0.900 -1.8391 -0.2183  1.4390
 1413TIP3   OH225797   5.543   6.496   7.887 -0.5039 -0.9197 -0.2149
 1413TIP3    H125798   5.476   6.564   7.874 -0.6713 -1.0249  0.0896
 1413TIP3    H225799   5.502   6.433   7.946 -0.0125 -0.8081  0.2540
 1414TIP3   OH225800   0.735   1.440   0.685 -0.0285 -0.4226 -0.3565
 1414TIP3    H125801   0.800   1.370   0.685  0.1357 -0.2812  0.4020
 1414TIP3    H225802   0.717   1.457   0.593  0.4088 -1.0203 -0.5527
 1415TIP3   OH225803   2.199   1.422   1.773 -0.1448 -0.1398 -0.6300
 1415TIP3    H125804   2.244   1.507   1.779 -0.4380 -0.0701  1.1153
 1415TIP3    H225805   2.156   1.424   1.688  0.0302  1.3771 -0.7227
 1416TIP3   OH225806   5.059   2.486   7.631  0.4379 -0.1641 -0.0033
 1416TIP3    H125807   5.143   2.510   7.670 -0.3048 -0.7035  2.0677
 1416TIP3    H225808   5.014   2.436   7.700 -1.5925  0.1486 -1.0286
 1417TIP3   OH225809   5.495   0.789   1.723 -0.1780 -0.6760 -0.2658
 1417TIP3    H125810   5.425   0.817   1.664  0.9420  0.3484 -1.1541
 1417TIP3    H225811   5.523   0.704   1.688 -0.0732 -0.4558 -0.7251
 1418TIP3   OH225812   3.124   5.628   1.945 -0.0176  0.0316  0.1143
 1418TIP3    H125813   3.207   5.579   1.940 -1.0368 -1.8608  0.7976
 1418TIP3    H225814   3.151   5.719   1.953  2.0282 -0.6020  1.1346
 1419TIP3   OH225815   2.176   5.273   2.289 -0.1558  0.3770  0.1105
 1419TIP3    H125816   2.228   5.203   2.248  0.1090 -0.7128  2.1551
 1419TIP3    H225817   2.096   5.229   2.318 -1.0784  1.4800 -0.7009
 1420TIP3   OH225818   5.197   6.254   1.905 -0.0207 -0.0212  0.1282
 1420TIP3    H125819   5.149   6.332   1.933  0.6336  1.2909 -2.1685
 1420TIP3    H225820   5.138   6.211   1.843 -0.3660 -1.4126  1.3543
 1421TIP3   OH225821   3.306   2.992   8.669  0.3561 -0.5623 -0.1826
 1421TIP3    H125822   3.386   3.001   8.719  0.2059 -1.5191  0.2654
 1421TIP3    H225823   3.258   2.921   8.712 -0.6433 -0.1469 -0.5540
 1422TIP3   OH225824   0.860   4.158   0.478  0.1189 -0.0638 -0.3135
 1422TIP3    H125825   0.924   4.098   0.517  0.9740  1.8763  1.4691
 1422TIP3    H225826   0.913   4.222   0.430 -0.7089 -0.1334 -1.3577
 1423TIP3   OH225827   6.370   6.357   9.178  0.0846  0.2233 -0.0640
 1423TIP3    H125828   6.276   6.343   9.186  0.0907  0.1938 -0.0425
 1423TIP3    H225829   6.391   6.418   9.249  0.0709  0.2796 -0.1080
 1424TIP3   OH225830   6.478   1.083   7.808 -0.4510 -0.0713  0.5061
 1424TIP3    H125831   6.520   1.133   7.738  0.6944 -1.1218  0.4004
 1424TIP3    H225832   6.505   0.992   7.791 -0.4689 -0.3935  2.0750
 1425TIP3   OH225833   3.521   3.411   0.625  0.1451 -0.3517 -0.1825
 1425TIP3    H125834   3.580   3.366   0.686 -1.6363 -2.1710  0.2808
 1425TIP3    H225835   3.435   3.407   0.666 -0.6626  0.6952 -1.6455
 1426TIP3   OH225836   4.514   1.057   2.269 -0.0095 -0.5577  0.2565
 1426TIP3    H125837   4.480   1.146   2.266  0.0841 -0.5405 -0.9058
 1426TIP3    H225838   4.609   1.067   2.278  0.0130 -0.5341 -0.0006
 1427TIP3   OH225839   0.530   3.581   2.056 -0.3156  0.7130  0.4337
 1427TIP3    H125840   0.447   3.554   2.095  0.7159 -3.1642  0.2893
 1427TIP3    H225841   0.516   3.574   1.962  0.7919 -2.5992  0.4108
 1428TIP3   OH225842   4.450   1.259   9.431 -0.4358 -0.4887  0.2950
 1428TIP3    H125843   4.528   1.313   9.444 -0.5460 -0.5954  1.4900
 1428TIP3    H225844   4.420   1.281   9.342  1.8627 -1.6219 -0.8512
 1429TIP3   OH225845   0.349   5.268   1.882  0.0059  0.1686  0.1665
 1429TIP3    H125846   0.335   5.191   1.826  1.7843  0.1642 -0.3576
 1429TIP3    H225847   0.342   5.235   1.971  0.8736 -0.6463 -0.0537
 1430TIP3   OH225848   0.812   0.470   0.449  0.6443 -0.0256  0.4055
 1430TIP3    H125849   0.729   0.514   0.429 -0.1659 -1.2539  0.9476
 1430TIP3    H225850   0.800   0.437   0.538  1.1520 -1.4851 -0.0461
 1431TIP3   OH225851   4.510   3.260   9.109 -0.0091  0.2060 -0.5682
 1431TIP3    H125852   4.532   3.274   9.201 -0.9707 -0.3760 -0.2320
 1431TIP3    H225853   4.538   3.170   9.091 -1.9939 -0.5706 -0.1191
 1432TIP3   OH225854   0.326   3.838   0.883 -0.3297 -0.2915  0.0598
 1432TIP3    H125855   0.274   3.788   0.946 -1.3660 -0.1199 -0.6455
 1432TIP3    H225856   0.326   3.928   0.917 -0.5849 -0.2713  0.0065
 1433TIP3   OH225857   2.826   1.653   7.458 -0.1163  0.3835  0.4177
 1433TIP3    H125858   2.734   1.630   7.447  0.4220 -1.1715 -1.2602
 1433TIP3    H225859   2.847   1.706   7.381  0.8314 -0.7858 -0.1486
 1434TIP3   OH225860   5.596   2.497   7.640 -0.4905 -0.2948 -0.4684
 1434TIP3    H125861   5.682   2.537   7.653 -0.1025  0.0345 -3.4216
 1434TIP3    H225862   5.608   2.406   7.669 -0.0449  0.4145  1.8303
 1435TIP3   OH225863   4.349   3.533   0.409 -0.1886  0.4389 -0.7699
 1435TIP3    H125864   4.445   3.542   0.402  0.2247  1.1993  3.3913
 1435TIP3    H225865   4.320   3.617   0.442 -1.7984 -0.8049  1.2035
 1436TIP3   OH225866   5.551   1.516   1.331 -0.6962  0.2082  0.3060
 1436TIP3    H125867   5.598   1.543   1.252 -1.0403  0.4983  0.1962
 1436TIP3    H225868   5.558   1.421   1.333  0.5392  0.2846  0.6911
 1437TIP3   OH225869   0.144   5.603   8.373  0.1360  0.1001 -0.2261
 1437TIP3    H125870   0.171   5.657   8.448  0.0866  0.5524 -0.5331
 1437TIP3    H225871   0.219   5.604   8.314 -0.2306  0.6660 -0.6931
 1438TIP3   OH225872   5.820   4.176   0.834  0.1581  0.1167  0.1554
 1438TIP3    H125873   5.727   4.178   0.813 -0.0900 -0.1528  1.1908
 1438TIP3    H225874   5.832   4.245   0.899  0.8807  0.8272 -0.6966
 1439TIP3   OH225875   6.359   5.644   1.956 -0.3653  0.2885  0.0756
 1439TIP3    H125876   6.320   5.727   1.982  2.2098  1.9579 -1.0613
 1439TIP3    H225877   6.407   5.614   2.032  0.4389  0.9489 -0.1657
 1440TIP3   OH225878   2.543   1.992   8.781 -0.5022  0.0901  0.1555
 1440TIP3    H125879   2.448   1.979   8.784 -1.0342  3.1636  0.3743
 1440TIP3    H225880   2.555   2.052   8.707  1.0379  1.0712  1.1532
 1441TIP3   OH225881   1.937   4.877   2.881 -0.0698 -0.0987 -0.0435
 1441TIP3    H125882   1.904   4.804   2.827 -1.0885 -1.1431  1.8933
 1441TIP3    H225883   2.020   4.901   2.840 -1.4814  0.2002 -2.9788
 1442TIP3   OH225884   5.334   0.162   0.863 -0.5783 -0.0901  0.6070
 1442TIP3    H125885   5.241   0.170   0.840 -0.4718  0.3376  0.3295
 1442TIP3    H225886   5.335   0.170   0.959 -0.5044  3.3053  0.4252
 1443TIP3   OH225887   5.253   3.857   1.479  0.2174 -0.0707 -0.1171
 1443TIP3    H125888   5.337   3.846   1.524  0.4462  0.3142 -0.4473
 1443TIP3    H225889   5.230   3.949   1.495 -0.6127 -0.4229  0.7848
 1444TIP3   OH225890   3.824   1.380   2.281 -0.7014  0.1096 -0.5467
 1444TIP3    H125891   3.759   1.317   2.312 -0.8918  0.5493 -0.0392
 1444TIP3    H225892   3.903   1.328   2.266 -1.3616 -0.5632 -1.8848
 1445TIP3   OH225893   2.392   3.084   8.605  0.3347 -0.7739  0.3512
 1445TIP3    H125894   2.332   3.158   8.598 -0.3551 -1.3704 -0.1015
 1445TIP3    H225895   2.479   3.123   8.590  0.1613  0.2176  1.7816
 1446TIP3   OH225896   2.337   1.366   9.008  0.4565 -0.0328  0.0959
 1446TIP3    H125897   2.362   1.439   8.950  0.4415 -1.0178 -1.1889
 1446TIP3    H225898   2.355   1.399   9.096  3.2677  0.4967 -0.5839
 1447TIP3   OH225899   5.299   2.728   8.789  0.4143  0.4246  0.1119
 1447TIP3    H125900   5.240   2.803   8.803 -1.9440 -1.7262  2.7491
 1447TIP3    H225901   5.361   2.732   8.862  1.4763  0.7611 -0.7756
 1448TIP3   OH225902   6.505   3.744   8.219  0.5365  0.1369  0.1509
 1448TIP3    H125903   6.581   3.789   8.181  1.0723 -0.2202  0.7878
 1448TIP3    H225904   6.510   3.655   8.184  0.6770 -0.0165  0.5590
 1449TIP3   OH225905   4.020   6.441   2.250 -0.6817  0.5121  0.8941
 1449TIP3    H125906   4.081   6.465   2.319  1.5801  1.0587 -1.1337
 1449TIP3    H225907   3.988   6.354   2.274  3.9772 -1.6558  0.3073
 1450TIP3   OH225908   1.337   1.453   7.822 -0.0405  0.3742  0.9336
 1450TIP3    H125909   1.310   1.408   7.901 -2.7917  1.4281  0.7114
 1450TIP3    H225910   1.301   1.541   7.831  0.3129  0.7827 -1.1162
 1451TIP3   OH225911   3.393   2.736   9.012 -0.1532 -0.0101  0.6166
 1451TIP3    H125912   3.329   2.685   9.063 -1.4159  1.5256  0.6252
 1451TIP3    H225913   3.355   2.741   8.925  1.5771 -1.8593 -0.3246
 1452TIP3   OH225914   3.092   4.057   0.252 -0.2905  0.1363 -0.2517
 1452TIP3    H125915   3.117   4.026   0.165  0.9530  0.9756 -0.2145
 1452TIP3    H225916   3.170   4.041   0.306 -0.4214  1.2458  0.2869
 1453TIP3   OH225917   5.473   0.772   0.841  0.1288 -0.4405  0.7866
 1453TIP3    H125918   5.438   0.852   0.881  1.5731  1.0085 -0.7142
 1453TIP3    H225919   5.530   0.735   0.908  0.0310  0.2008  1.2326
 1454TIP3   OH225920   4.626   0.805   7.745 -0.4188  0.5456 -0.2239
 1454TIP3    H125921   4.555   0.800   7.680 -1.1449  0.7884  0.5360
 1454TIP3    H225922   4.625   0.720   7.789 -0.5258  0.7053  0.0840
 1455TIP3   OH225923   6.047   0.875   8.849  0.2994  0.0958  0.6814
 1455TIP3    H125924   6.043   0.781   8.860 -0.6744  0.2087  1.3820
 1455TIP3    H225925   6.060   0.909   8.937  2.3154  0.5633  0.2691
 1456TIP3   OH225926   2.459   1.342   1.856  0.0804 -0.3366  0.2935
 1456TIP3    H125927   2.497   1.260   1.823 -0.5223 -0.3646 -0.3652
 1456TIP3    H225928   2.368   1.338   1.829 -0.0981  0.2853  0.7884
 1457TIP3   OH225929   2.346   0.399   2.173 -0.2128  0.2527  0.3202
 1457TIP3    H125930   2.288   0.339   2.219 -0.1936 -0.3989 -0.4850
 1457TIP3    H225931   2.353   0.363   2.085  1.2803  0.4236  0.3526
 1458TIP3   OH225932   3.240   3.282   0.282 -0.0223  0.5199 -0.1810
 1458TIP3    H125933   3.330   3.249   0.280  0.4660  1.7763  0.1393
 1458TIP3    H225934   3.248   3.374   0.259 -1.2008  0.7335  0.2089
 1459TIP3   OH225935   4.020   0.025   9.021 -0.1564  0.1644  0.3883
 1459TIP3    H125936   4.026  -0.048   9.082 -2.6409 -0.8079 -0.3639
 1459TIP3    H225937   4.016  -0.017   8.934 -1.8425  1.1083 -0.0468
 1460TIP3   OH225938   6.251   2.003   9.329 -0.1488 -0.0456  0.3573
 1460TIP3    H125939   6.194   2.036   9.398  0.3207 -0.4535  0.9457
 1460TIP3    H225940   6.305   2.079   9.304 -0.3498  0.1118  0.4024
 1461TIP3   OH225941   1.959   3.243   1.745  0.0327  0.1423  0.2182
 1461TIP3    H125942   1.897   3.311   1.717  0.3774  1.0089  1.4278
 1461TIP3    H225943   2.014   3.287   1.810 -0.6866 -1.6890  2.1781
 1462TIP3   OH225944   5.975   3.332   2.332 -0.1017 -0.2342  0.1315
 1462TIP3    H125945   6.018   3.249   2.352  1.1157  0.7179  1.7380
 1462TIP3    H225946   5.882   3.316   2.351 -0.3139 -1.8659 -1.8802
 1463TIP3   OH225947   5.762   0.035   2.690 -0.2783  0.1353 -0.0249
 1463TIP3    H125948   5.808  -0.042   2.721  0.1754  0.6520  0.6225
 1463TIP3    H225949   5.777   0.101   2.758 -0.0885  0.9967 -0.8761
 1464TIP3   OH225950   1.774   5.574   9.270  0.4025 -0.2641  0.7319
 1464TIP3    H125951   1.734   5.521   9.339 -1.2141 -0.3417 -0.2266
 1464TIP3    H225952   1.866   5.546   9.269  0.6069  0.1191  3.1707
 1465TIP3   OH225953   1.791   2.449   9.478  0.5829  0.0026  0.2886
 1465TIP3    H125954   1.696   2.460   9.482  0.6252  0.2398  0.7535
 1465TIP3    H225955   1.817   2.429   9.568  1.0130  0.3053  0.2366
 1466TIP3   OH225956   2.705   6.017   2.222 -0.1516 -0.3906 -0.6268
 1466TIP3    H125957   2.672   5.956   2.289 -0.0332  0.7842  0.5374
 1466TIP3    H225958   2.768   6.071   2.268 -0.7245  1.0456 -1.4725
 1467TIP3   OH225959   1.306   1.543   1.440 -0.0000 -0.3689  0.2912
 1467TIP3    H125960   1.227   1.587   1.408  0.7405  0.0883 -0.9979
 1467TIP3    H225961   1.370   1.614   1.449  0.9609 -1.0369 -0.9809
 1468TIP3   OH225962   5.037   3.934   0.396 -0.3758  0.1427  0.7554
 1468TIP3    H125963   4.994   3.915   0.313 -0.6455 -0.8937  1.1268
 1468TIP3    H225964   5.050   4.029   0.394 -2.0141  0.3965  0.3095
 1469TIP3   OH225965   5.884   3.429   1.416  0.1098  0.5254  0.3757
 1469TIP3    H125966   5.901   3.342   1.379  1.2490  1.1271 -0.5929
 1469TIP3    H225967   5.823   3.413   1.488 -1.3789 -0.8270 -1.1008
 1470TIP3   OH225968   6.127   2.532   7.191  0.2137 -0.0221 -0.0752
 1470TIP3    H125969   6.185   2.484   7.251 -1.1843 -0.8484  0.6565
 1470TIP3    H225970   6.126   2.480   7.111 -0.7033 -0.8321  0.4507
 1471TIP3   OH225971   1.341   6.026   9.456 -0.7980  0.2602 -0.0484
 1471TIP3    H125972   1.281   6.100   9.459 -1.7855 -0.5567  1.4169
 1471TIP3    H225973   1.349   5.997   9.547  2.8417  1.0944  0.0512
 1472TIP3   OH225974   4.216   0.121   8.651  0.0850  0.1074 -0.1951
 1472TIP3    H125975   4.202   0.032   8.618  0.3523  0.0029 -0.0332
 1472TIP3    H225976   4.296   0.151   8.608  1.1165 -0.4759  1.2165
 1473TIP3   OH225977   3.939   0.442   1.341 -0.0623 -0.3251  0.2971
 1473TIP3    H125978   3.990   0.498   1.282  2.8527 -0.1552  2.7355
 1473TIP3    H225979   3.972   0.354   1.325  0.1855 -0.3839  1.0874
 1474TIP3   OH225980   5.721   4.184   7.929  0.4299  0.0847  0.6205
 1474TIP3    H125981   5.811   4.167   7.902  0.2485  1.0092 -0.6756
 1474TIP3    H225982   5.727   4.202   8.022  1.0250 -3.8135  1.5346
 1475TIP3   OH225983   1.956   6.333   2.335 -0.5359  0.4579  0.5147
 1475TIP3    H125984   1.962   6.428   2.331  0.8881  0.4749  2.2084
 1475TIP3    H225985   2.024   6.302   2.276 -1.0294  0.4746 -0.0716
 1476TIP3   OH225986   5.758   0.786   8.718  0.1119 -0.2407 -0.4086
 1476TIP3    H125987   5.804   0.705   8.741  0.3090 -0.1688 -0.5491
 1476TIP3    H225988   5.826   0.853   8.719  0.0592 -0.1788 -0.8774
 1477TIP3   OH225989   6.145   2.568   2.192 -0.2965 -0.1180  0.0034
 1477TIP3    H125990   6.207   2.567   2.264  0.8490  1.9236 -0.8604
 1477TIP3    H225991   6.122   2.660   2.181 -1.1350 -0.4749 -1.6432
 1478TIP3   OH225992   3.103   1.030   7.069 -0.5759  0.8397  0.7679
 1478TIP3    H125993   3.020   0.984   7.077  0.4157 -0.9075  1.4380
 1478TIP3    H225994   3.106   1.057   6.977 -1.3690 -0.0802  0.4555
 1479TIP3   OH225995   1.070   4.705   9.515 -0.0380 -0.0012 -0.2766
 1479TIP3    H125996   1.054   4.729   9.424  1.2280 -0.0033 -0.5139
 1479TIP3    H225997   1.059   4.787   9.564 -0.6717  0.0094 -0.4194
 1480TIP3   OH225998   4.678   0.823   8.670 -0.5923 -0.7686  0.6561
 1480TIP3    H125999   4.664   0.912   8.704 -4.1242 -0.8600 -0.2165
 1480TIP3    H226000   4.741   0.835   8.598 -0.4282  0.8910  1.0289
 1481TIP3   OH226001   5.323   1.454   7.425  0.0640  0.1026 -0.0257
 1481TIP3    H126002   5.328   1.527   7.363 -0.2168  0.7217  0.6557
 1481TIP3    H226003   5.306   1.496   7.509 -2.3119 -0.8637  0.0525
 1482TIP3   OH226004   4.269   3.316   8.170  0.1140  0.4513 -0.5486
 1482TIP3    H126005   4.213   3.391   8.151  0.6863  1.2588  0.8363
 1482TIP3    H226006   4.352   3.336   8.125 -0.1759 -0.0360 -1.3356
 1483TIP3   OH226007   1.109   6.370   8.289  0.0761 -0.1950 -0.1103
 1483TIP3    H126008   1.057   6.335   8.217  1.4113 -0.7974 -0.8091
 1483TIP3    H226009   1.099   6.307   8.359 -0.3731 -0.1518 -0.1331
 1484TIP3   OH226010   5.420   1.110   8.259  0.4506 -0.1218 -0.3196
 1484TIP3    H126011   5.429   1.180   8.194  1.2122 -1.2097 -1.4422
 1484TIP3    H226012   5.392   1.034   8.209 -1.0170 -0.4823  0.9830
 1485TIP3   OH226013   2.319   0.560   8.876 -0.5202 -0.1735 -0.3975
 1485TIP3    H126014   2.235   0.529   8.911 -0.8133  1.1093  0.0908
 1485TIP3    H226015   2.339   0.638   8.927 -0.0754  0.7542 -1.9136
 1486TIP3   OH226016   2.502   0.622   7.873 -0.2490 -0.2519 -0.4944
 1486TIP3    H126017   2.500   0.562   7.948  1.6774  2.2241  1.7066
 1486TIP3    H226018   2.434   0.686   7.891  0.4582  0.5617 -0.6312
 1487TIP3   OH226019   1.341   1.666   0.900 -0.3679 -0.1368  0.2294
 1487TIP3    H126020   1.267   1.702   0.949 -0.2386  1.1096 -0.4591
 1487TIP3    H226021   1.417   1.717   0.929  0.1820 -1.1780  0.6792
 1488TIP3   OH226022   2.910   3.809   0.202 -0.3646 -0.0413  0.7094
 1488TIP3    H126023   2.993   3.796   0.248 -0.9228  0.7793  2.0127
 1488TIP3    H226024   2.906   3.903   0.185 -0.8593 -0.1284  0.2905
 1489TIP3   OH226025   4.823   0.469   8.816 -0.4004 -0.4061 -0.1543
 1489TIP3    H126026   4.876   0.524   8.874 -0.2700 -1.5956  0.8852
 1489TIP3    H226027   4.843   0.380   8.842 -1.9016 -0.9221 -0.6457
 1490TIP3   OH226028   5.892   3.322   9.597  0.2248  0.1906  0.0320
 1490TIP3    H126029   5.925   3.235   9.619  0.5401  0.4814  0.7207
 1490TIP3    H226030   5.808   3.305   9.553  0.8450 -0.5103 -0.9446
 1491TIP3   OH226031   4.462   0.184   8.571 -0.6639  0.0278 -0.4061
 1491TIP3    H126032   4.492   0.243   8.501 -1.3294  0.1220 -0.6198
 1491TIP3    H226033   4.496   0.223   8.651  0.2495 -0.1684 -0.6796
 1492TIP3   OH226034   4.545   2.724   7.925  0.3566 -0.1502  0.1042
 1492TIP3    H126035   4.623   2.748   7.875 -0.1602  0.6585 -0.3480
 1492TIP3    H226036   4.499   2.807   7.939  0.7494 -0.2726  2.4385
 1493TIP3   OH226037   3.253   1.624   8.457 -0.7166  0.2399  0.6297
 1493TIP3    H126038   3.243   1.605   8.364 -1.5979  1.5376  0.4233
 1493TIP3    H226039   3.198   1.560   8.501 -2.8125  1.5238  0.0340
 1494TIP3   OH226040   1.322   3.783   7.861 -0.3533  0.0854 -0.0406
 1494TIP3    H126041   1.258   3.716   7.837  0.0911 -0.2034 -0.4241
 1494TIP3    H226042   1.377   3.794   7.784  0.3488  0.0028  0.4367
 1495TIP3   OH226043   5.571   3.829   0.497 -0.3259  0.0841 -0.2634
 1495TIP3    H126044   5.511   3.888   0.451  0.5585  0.4931 -0.9234
 1495TIP3    H226045   5.578   3.866   0.585 -0.7375  0.2521 -0.2991
 1496TIP3   OH226046   0.480   4.623   8.273  0.0957 -0.5060  0.0623
 1496TIP3    H126047   0.495   4.573   8.353  0.0357 -1.1662 -0.3390
 1496TIP3    H226048   0.424   4.567   8.220  1.1466 -0.6120 -0.9678
 1497TIP3   OH226049   3.870   5.619   2.519  0.0534 -0.2132  0.2962
 1497TIP3    H126050   3.951   5.653   2.556 -0.4101 -0.2047  1.3345
 1497TIP3    H226051   3.854   5.674   2.442  0.9426 -0.1217  0.1623
 1498TIP3   OH226052   4.928   2.998   1.914  0.1996  0.0278 -0.2002
 1498TIP3    H126053   4.878   2.926   1.875 -0.0527 -0.2417  0.5964
 1498TIP3    H226054   4.952   2.966   2.001  1.1760  0.4214 -0.3110
 1499TIP3   OH226055   2.515   3.580   8.770 -0.3375 -0.8069  0.0315
 1499TIP3    H126056   2.583   3.624   8.718 -1.1947  2.0422  1.1270
 1499TIP3    H226057   2.441   3.570   8.711 -0.0312 -1.1068 -0.3098
 1500TIP3   OH226058   6.192   2.419   8.742 -0.2994 -0.0750 -0.3062
 1500TIP3    H126059   6.168   2.496   8.691 -1.0420 -0.7867 -1.0586
 1500TIP3    H226060   6.112   2.367   8.746  0.1581 -0.7586  0.3001
 1501TIP3   OH226061   6.367   4.196   8.200 -0.1910  0.2967 -0.6433
 1501TIP3    H126062   6.423   4.264   8.238 -0.2864 -0.3453  0.6761
 1501TIP3    H226063   6.401   4.186   8.111  1.0124  0.7883 -0.2687
 1502TIP3   OH226064   4.737   0.220   9.538  0.4889 -0.0954 -0.7667
 1502TIP3    H126065   4.734   0.129   9.567  0.8476 -0.1316 -0.8448
 1502TIP3    H226066   4.706   0.218   9.447  0.0165 -0.0712 -0.6086
 1503TIP3   OH226067   0.956   2.072   8.433  0.3484 -0.2349 -0.6179
 1503TIP3    H126068   0.962   2.018   8.512  2.1561 -0.5146 -0.9085
 1503TIP3    H226069   0.909   2.150   8.461 -0.4504 -1.0170  0.3269
 1504TIP3   OH226070   3.603   4.869   0.416 -0.1271 -0.1848  0.0671
 1504TIP3    H126071   3.605   4.773   0.414  0.1509 -0.1819 -2.2682
 1504TIP3    H226072   3.533   4.892   0.355  0.8384  1.1051 -0.5752
 1505TIP3   OH226073   1.948   3.367   7.356  0.1094 -0.0651 -0.3136
 1505TIP3    H126074   1.869   3.358   7.303 -0.5968 -0.9434  0.8494
 1505TIP3    H226075   2.010   3.411   7.298 -1.1461  0.4537 -1.3306
 1506TIP3   OH226076   4.486   0.595   2.844 -0.1449  0.0618  0.1710
 1506TIP3    H126077   4.541   0.657   2.892 -1.2920  0.6476  0.7699
 1506TIP3    H226078   4.509   0.509   2.880  0.1469  0.3388  0.6423
 1507TIP3   OH226079   4.746   1.351   8.674 -0.1672 -0.3947 -0.4099
 1507TIP3    H126080   4.670   1.402   8.644 -2.0816 -0.8132  3.1351
 1507TIP3    H226081   4.796   1.413   8.728 -0.6678 -1.2723  1.1420
 1508TIP3   OH226082   0.350   5.198   0.327 -0.1588 -0.6145 -0.7271
 1508TIP3    H126083   0.344   5.147   0.408  2.4366 -0.2753 -0.2576
 1508TIP3    H226084   0.306   5.143   0.262 -0.0423 -2.0932  0.3841
 1509TIP3   OH226085   6.159   0.343   7.764 -0.0490 -0.0295  0.0178
 1509TIP3    H126086   6.184   0.366   7.675 -0.5332 -1.0634 -0.3913
 1509TIP3    H226087   6.209   0.404   7.819 -0.8565  1.6031 -0.9890
 1510TIP3   OH226088   1.674   1.551   1.357 -0.1995  0.5027 -0.1223
 1510TIP3    H126089   1.655   1.601   1.436  0.0900  0.9125 -0.3110
 1510TIP3    H226090   1.769   1.544   1.355 -0.0688  1.9885 -1.3341
 1511TIP3   OH226091   0.361   3.767   0.372 -0.5217  0.0001  0.2339
 1511TIP3    H126092   0.396   3.849   0.337  0.1391 -0.2397  0.3032
 1511TIP3    H226093   0.277   3.756   0.328 -0.5118  0.5955  0.0528
 1512TIP3   OH226094   0.278   6.152   9.232  0.0864 -0.1504  0.0747
 1512TIP3    H126095   0.338   6.218   9.267  1.4406 -1.8271  1.0902
 1512TIP3    H226096   0.312   6.135   9.144 -0.2071  0.4172 -0.1540
 1513TIP3   OH226097   2.086   0.685   1.360  0.1770 -0.4282  0.0183
 1513TIP3    H126098   2.071   0.725   1.274  2.0225  0.0753 -0.1306
 1513TIP3    H226099   2.178   0.659   1.357  0.1574 -0.7601  1.7100
 1514TIP3   OH226100   5.112   4.119   2.474 -0.0177 -0.1366  0.0062
 1514TIP3    H126101   5.092   4.148   2.385 -0.3086 -0.6525 -0.1018
 1514TIP3    H226102   5.037   4.064   2.499 -0.0112  0.1227  0.6251
 1515TIP3   OH226103   4.467   2.208   9.463 -0.3120  0.0814 -0.1931
 1515TIP3    H126104   4.508   2.294   9.456  0.0860 -0.0607  0.3574
 1515TIP3    H226105   4.532   2.154   9.507 -1.1507 -0.1126  0.8485
 1516TIP3   OH226106   0.879   2.705   8.726 -0.0608 -0.0405  0.0103
 1516TIP3    H126107   0.789   2.682   8.702  0.2120 -0.3857 -0.6834
 1516TIP3    H226108   0.873   2.796   8.757 -0.7409 -0.2532  0.5268
 1517TIP3   OH226109   3.972   4.875   8.348  0.2000 -0.2027 -0.5707
 1517TIP3    H126110   3.905   4.912   8.406  0.9269 -0.6318  0.5899
 1517TIP3    H226111   4.001   4.795   8.393 -0.9000 -1.8812 -2.7192
 1518TIP3   OH226112   3.078   0.051   0.640 -0.0134  0.0151 -0.6626
 1518TIP3    H126113   3.167   0.033   0.612  0.8650  0.6773  1.5366
 1518TIP3    H226114   3.060  -0.014   0.708 -1.7685 -1.0192 -2.0081
 1519TIP3   OH226115   5.360   2.796   1.019 -0.5763  0.6432  0.0556
 1519TIP3    H126116   5.366   2.891   1.033 -1.7685  0.8060 -0.4841
 1519TIP3    H226117   5.270   2.781   0.993 -0.1034 -0.5038 -1.0048
 1520TIP3   OH226118   1.369   5.228   0.459 -0.4063  0.3883 -0.2892
 1520TIP3    H126119   1.459   5.246   0.485 -0.4203  1.3362 -0.8414
 1520TIP3    H226120   1.325   5.313   0.467 -0.8618  0.2893 -1.5890
 1521TIP3   OH226121   1.179   2.006   1.263  0.1173 -0.5614  0.0840
 1521TIP3    H126122   1.109   2.027   1.201  1.1473  0.2880 -0.8157
 1521TIP3    H226123   1.169   2.072   1.333 -0.2153 -0.6916  0.1636
 1522TIP3   OH226124   2.026   5.905   1.368  0.5692 -0.4816 -0.1540
 1522TIP3    H126125   2.028   5.850   1.289  0.5308  0.6001 -0.9384
 1522TIP3    H226126   1.949   5.876   1.416  2.0850 -3.0426  0.9199
 1523TIP3   OH226127   6.317   4.357   7.172  0.0126 -0.9802 -0.2789
 1523TIP3    H126128   6.336   4.306   7.251  0.8672 -0.8578 -0.3981
 1523TIP3    H226129   6.367   4.315   7.103  0.6081 -0.0888 -0.4123
 1524TIP3   OH226130   3.846   3.945   8.722 -0.2340 -0.1570  0.0465
 1524TIP3    H126131   3.882   4.031   8.700  0.1328 -0.3867 -0.2615
 1524TIP3    H226132   3.780   3.963   8.789  0.2086  0.3074  0.3668
 1525TIP3   OH226133   5.561   1.673   8.161  0.2183  0.1443  0.3829
 1525TIP3    H126134   5.625   1.641   8.224 -0.9617  0.4627  1.8154
 1525TIP3    H226135   5.477   1.662   8.205 -0.7251 -0.1734 -1.3948
 1526TIP3   OH226136   2.656   4.014   8.752  0.5769  0.4085  0.4673
 1526TIP3    H126137   2.607   4.051   8.678  0.3496  0.4164  0.6218
 1526TIP3    H226138   2.728   4.076   8.765  0.3245  0.6819  0.5806
 1527TIP3   OH226139   4.316   3.628   8.834  0.0447 -0.1106  0.1311
 1527TIP3    H126140   4.349   3.539   8.831  0.4644  0.0605 -0.9480
 1527TIP3    H226141   4.386   3.679   8.873 -0.3745 -0.3081  1.1807
 1528TIP3   OH226142   0.013   1.742   2.067 -0.3518 -0.2033 -0.2690
 1528TIP3    H126143   0.081   1.707   2.124  0.6147 -0.4199 -1.5096
 1528TIP3    H226144   0.061   1.787   1.997 -1.4958  0.1232 -0.8730
 1529TIP3   OH226145   4.214   5.193   9.196 -0.0882 -0.4048 -0.5887
 1529TIP3    H126146   4.275   5.266   9.191 -0.5750 -0.0172 -0.9159
 1529TIP3    H226147   4.176   5.188   9.108 -3.3560  1.7977  0.5318
 1530TIP3   OH226148   5.145   1.082   0.344  0.3066  0.4008 -0.6939
 1530TIP3    H126149   5.059   1.041   0.350  0.4591  0.2823  1.9250
 1530TIP3    H226150   5.176   1.060   0.256 -1.4260 -1.3808 -0.9381
 1531TIP3   OH226151   0.435   0.914   7.455 -0.0210  0.2453 -0.1374
 1531TIP3    H126152   0.385   0.993   7.435 -1.6340 -1.3191 -3.0274
 1531TIP3    H226153   0.526   0.938   7.443 -0.5131  1.5973 -1.4523
 1532TIP3   OH226154   4.089   5.356   0.875 -0.0384  0.3788 -0.1080
 1532TIP3    H126155   4.175   5.377   0.840  0.4571  0.9684  1.3820
 1532TIP3    H226156   4.089   5.261   0.883  0.7285  0.4219  0.4823
 1533TIP3   OH226157   1.391   4.037   0.155  0.0824  0.6649  0.2130
 1533TIP3    H126158   1.426   3.949   0.142  0.2106  0.7703 -0.1551
 1533TIP3    H226159   1.332   4.051   0.081 -1.6176  0.0549  1.3819
 1534TIP3   OH226160   4.969   3.295   9.072  0.0933  0.3160 -0.7508
 1534TIP3    H126161   4.895   3.349   9.100  0.5485 -0.1637  1.5545
 1534TIP3    H226162   4.929   3.230   9.013 -1.1381  0.7029 -0.3748
 1535TIP3   OH226163   2.379   3.874   0.934 -0.0006 -0.0821  0.6902
 1535TIP3    H126164   2.413   3.933   1.001 -0.9661  1.4106 -0.0826
 1535TIP3    H226165   2.312   3.925   0.889 -0.1915 -1.4537 -0.6525
 1536TIP3   OH226166   3.566   5.255   8.393  0.7362 -0.3024  0.1478
 1536TIP3    H126167   3.568   5.178   8.449  0.3878 -1.6576 -1.6141
 1536TIP3    H226168   3.520   5.321   8.445  2.4918 -0.6992  2.3319
 1537TIP3   OH226169   5.395   2.170   9.302 -0.5649 -0.3798  0.4863
 1537TIP3    H126170   5.337   2.219   9.244  0.0601  0.8466  0.8556
 1537TIP3    H226171   5.439   2.237   9.354  0.6613 -1.3210  0.7122
 1538TIP3   OH226172   3.960   5.915   2.145 -0.0675 -0.5896 -0.1648
 1538TIP3    H126173   3.934   5.980   2.209 -1.9772 -1.1238 -0.3486
 1538TIP3    H226174   4.038   5.874   2.183  1.3091  1.8685 -0.1377
 1539TIP3   OH226175   4.243   6.454   7.921  0.2363  0.0871  0.1872
 1539TIP3    H126176   4.273   6.457   8.012  1.2143  0.1688 -0.1182
 1539TIP3    H226177   4.321   6.428   7.871 -0.0359  0.9139 -0.7169
 1540TIP3   OH226178   0.499   3.532   7.634  0.0208 -0.0149  0.5471
 1540TIP3    H126179   0.498   3.505   7.542 -0.6997 -0.2519  0.6199
 1540TIP3    H226180   0.504   3.450   7.683 -0.5468  0.0514  0.7307
 1541TIP3   OH226181   4.828   1.398   7.481  0.2144  0.3545  0.1429
 1541TIP3    H126182   4.844   1.406   7.387  0.2212 -2.2776 -0.1488
 1541TIP3    H226183   4.734   1.410   7.490  0.3467  1.7096 -0.0112
 1542TIP3   OH226184   4.685   4.862   7.472 -0.4612  0.1565 -0.7896
 1542TIP3    H126185   4.642   4.812   7.403 -1.2057  0.0214 -0.2350
 1542TIP3    H226186   4.678   4.806   7.550  2.2352 -0.6826 -1.0160
 1543TIP3   OH226187   6.501   2.760   7.494 -0.3058  0.3919 -0.5179
 1543TIP3    H126188   6.495   2.827   7.427  0.1663  0.8545 -0.1056
 1543TIP3    H226189   6.584   2.777   7.538  0.1002 -0.8133 -0.7781
 1544TIP3   OH226190   0.191   1.291   7.836  0.4485  0.1851  0.3375
 1544TIP3    H126191   0.177   1.275   7.742  1.0723 -1.3592  0.4783
 1544TIP3    H226192   0.222   1.207   7.870  2.0004  1.2237  1.5876
 1545TIP3   OH226193   1.967   5.745   1.111 -0.1106  0.1971 -0.8447
 1545TIP3    H126194   1.931   5.661   1.136 -4.4742  1.8693 -0.7148
 1545TIP3    H226195   1.934   5.761   1.022 -0.4279  2.2381 -0.4206
 1546TIP3   OH226196   5.710   0.035   0.952 -0.2057 -0.2518 -0.1182
 1546TIP3    H126197   5.655   0.110   0.973 -0.2156 -0.4345  0.5111
 1546TIP3    H226198   5.738   0.050   0.861  1.7621  1.7373  0.7260
 1547TIP3   OH226199   6.140   1.749   1.557 -0.5455  0.0401 -0.7875
 1547TIP3    H126200   6.076   1.680   1.539 -0.3592 -0.4721  0.4276
 1547TIP3    H226201   6.215   1.703   1.595  0.1671  0.7527 -1.2984
 1548TIP3   OH226202   3.825   4.119   1.720 -0.2649  0.2589 -0.1859
 1548TIP3    H126203   3.889   4.180   1.684  0.7521 -1.2412 -1.0511
 1548TIP3    H226204   3.747   4.172   1.735  0.9158  1.9891  0.1674
 1549TIP3   OH226205   4.060   4.571   0.212 -0.6785 -0.0855  0.0674
 1549TIP3    H126206   4.107   4.591   0.293 -1.2920  0.2957  0.3376
 1549TIP3    H226207   4.122   4.592   0.142 -0.0434 -0.6771  0.4363
 1550TIP3   OH226208   0.240   1.263   0.001  0.3769 -0.4572  0.1219
 1550TIP3    H126209   0.251   1.344   0.050  2.0737  0.4727 -1.6364
 1550TIP3    H226210   0.243   1.194   0.067  2.6684  0.7104  1.3663
 1551TIP3   OH226211   5.311   6.056   1.163  0.0703 -0.1533 -0.2077
 1551TIP3    H126212   5.283   6.147   1.159  0.5183  0.0090  0.1702
 1551TIP3    H226213   5.346   6.038   1.076  0.1457  0.0925 -0.2296
 1552TIP3   OH226214   3.830   0.249   0.360 -0.0970  0.7639 -0.4610
 1552TIP3    H126215   3.917   0.242   0.319  1.1923  0.7343  2.0937
 1552TIP3    H226216   3.822   0.170   0.414 -1.6881  0.8435 -0.5282
 1553TIP3   OH226217   3.722   0.662   9.224 -0.1603  0.6138 -0.2927
 1553TIP3    H126218   3.645   0.707   9.190 -1.3447 -1.9232 -1.1827
 1553TIP3    H226219   3.784   0.660   9.151  1.0716  3.0740  0.5606
 1554TIP3   OH226220   2.982   5.963   8.582 -0.0287 -0.7991  0.5837
 1554TIP3    H126221   2.972   5.918   8.498 -0.4871  1.2583 -0.5494
 1554TIP3    H226222   2.896   6.004   8.597  1.1463  2.2164 -0.1015
 1555TIP3   OH226223   5.469   4.878   0.431 -0.0787 -0.3589  0.4925
 1555TIP3    H126224   5.410   4.949   0.455 -1.1876 -0.9751 -0.3235
 1555TIP3    H226225   5.535   4.876   0.501 -0.8991  0.4780  1.3073
 1556TIP3   OH226226   3.387   2.438   7.939 -0.3313 -0.0695 -0.5050
 1556TIP3    H126227   3.423   2.512   7.989 -0.5752  0.7678 -1.5432
 1556TIP3    H226228   3.293   2.442   7.956 -0.0443 -2.3993  2.3968
 1557TIP3   OH226229   3.820   1.977   1.282  1.1379  0.0950 -0.2209
 1557TIP3    H126230   3.871   1.975   1.201  0.0235 -0.9549 -0.9194
 1557TIP3    H226231   3.825   1.887   1.315  0.8571  0.3124  0.4222
 1558TIP3   OH226232   1.641   5.961   7.490 -0.0037  0.4516  0.2763
 1558TIP3    H126233   1.616   5.918   7.572  0.2466 -0.0014  0.1158
 1558TIP3    H226234   1.708   5.904   7.452 -1.2154 -0.1893 -1.0103
 1559TIP3   OH226235   3.510   0.775   9.073  0.1604  0.5909  0.2034
 1559TIP3    H126236   3.502   0.805   8.982  0.0750 -1.0974 -0.3760
 1559TIP3    H226237   3.424   0.792   9.111  0.8754  3.5766  0.7568
 1560TIP3   OH226238   0.972   0.605   9.209  0.5855  0.0792 -0.2088
 1560TIP3    H126239   1.055   0.573   9.245 -0.0005 -1.1719  0.0594
 1560TIP3    H226240   0.991   0.625   9.118  1.3450  0.4583  0.0224
 1561TIP3   OH226241   3.594   2.303   1.061 -0.4538 -0.0393  1.1698
 1561TIP3    H126242   3.580   2.379   1.118  0.1536 -0.6347  2.1521
 1561TIP3    H226243   3.545   2.232   1.103 -1.0288 -0.2025  0.2541
 1562TIP3   OH226244   1.416   2.807   8.500  0.4368  0.2989  0.2468
 1562TIP3    H126245   1.390   2.880   8.444  0.3308 -0.1308 -0.2780
 1562TIP3    H226246   1.433   2.846   8.585 -2.4192  0.5559  0.7917
 1563TIP3   OH226247   1.574   0.488   9.415  0.5433  0.5413  0.7671
 1563TIP3    H126248   1.503   0.539   9.456  0.2655  0.3505  0.5324
 1563TIP3    H226249   1.589   0.531   9.331  0.7786  0.6457  0.8644
 1564TIP3   OH226250   4.563   2.645   8.197 -0.4436  0.2338 -0.2148
 1564TIP3    H126251   4.516   2.563   8.179 -1.2090  0.7234 -0.4608
 1564TIP3    H226252   4.563   2.691   8.113 -1.8429  1.4107  0.3990
 1565TIP3   OH226253   2.803   2.430   7.050  0.5962  0.4212  0.0870
 1565TIP3    H126254   2.803   2.341   7.085  0.5928  0.5303  0.3670
 1565TIP3    H226255   2.850   2.423   6.968 -2.4026 -0.5390 -1.7148
 1566TIP3   OH226256   2.312   5.752   0.728 -0.2137  0.0018  0.1161
 1566TIP3    H126257   2.385   5.714   0.681 -0.1294  0.1558  0.1217
 1566TIP3    H226258   2.289   5.687   0.794 -1.3428 -0.9121 -1.1254
 1567TIP3   OH226259   5.015   5.723   7.885  0.1925  0.0973 -0.7512
 1567TIP3    H126260   4.944   5.753   7.943 -0.2965 -0.1883 -1.1873
 1567TIP3    H226261   4.969   5.683   7.811  0.8198 -0.7501 -0.6933
 1568TIP3   OH226262   2.711   4.992   8.859 -0.0166 -0.1691 -0.2564
 1568TIP3    H126263   2.677   5.077   8.888  0.1364 -0.2248  0.0923
 1568TIP3    H226264   2.760   4.959   8.934 -1.0361 -1.1021  0.0121
 1569TIP3   OH226265   6.371   0.277   0.563  0.0126  0.1605  0.4031
 1569TIP3    H126266   6.387   0.241   0.650 -0.0012 -0.4299  0.1669
 1569TIP3    H226267   6.344   0.368   0.579 -0.0720  0.0319  1.0124
 1570TIP3   OH226268   1.202   6.348   1.309  0.2305 -0.3128  0.5015
 1570TIP3    H126269   1.250   6.401   1.245 -1.1003  0.9100  0.4730
 1570TIP3    H226270   1.215   6.258   1.279 -0.8112  0.2543 -1.8763
 1571TIP3   OH226271   0.064   1.410   1.893  0.3770 -0.0511  0.0224
 1571TIP3    H126272   0.095   1.443   1.978  0.2938 -1.2967  0.5553
 1571TIP3    H226273  -0.029   1.432   1.891  0.5554  0.7138 -0.1135
 1572TIP3   OH226274   5.762   1.526   1.833  0.2112  0.4033 -0.3179
 1572TIP3    H126275   5.717   1.566   1.907  1.2390 -0.0626  0.5945
 1572TIP3    H226276   5.694   1.474   1.790 -0.4892  0.9629  0.0825
 1573TIP3   OH226277   3.217   6.341   1.201  0.0466  0.0479  0.3085
 1573TIP3    H126278   3.133   6.366   1.239 -1.5814 -2.0096 -1.6721
 1573TIP3    H226279   3.208   6.357   1.107  2.5055  1.2811  0.1897
 1574TIP3   OH226280   1.466   3.917   9.021  0.5527 -0.3120  0.3822
 1574TIP3    H126281   1.408   3.859   8.972  0.7268 -1.0358  1.0208
 1574TIP3    H226282   1.407   3.967   9.078  0.6555 -2.4397  2.4823
 1575TIP3   OH226283   1.143   4.186   6.825  0.3399 -0.2602  0.0315
 1575TIP3    H126284   1.117   4.153   6.739  0.8786 -0.5165 -0.0362
 1575TIP3    H226285   1.226   4.143   6.843  2.1057  2.4650 -0.9185
 1576TIP3   OH226286   6.505   1.291   2.345 -0.1070  0.3346  0.4469
 1576TIP3    H126287   6.431   1.343   2.377  0.2027  0.7133  0.5661
 1576TIP3    H226288   6.581   1.346   2.364  0.3996 -0.8772  2.0976
 1577TIP3   OH226289   0.804   3.911   0.724  0.0113  0.2940  0.3430
 1577TIP3    H126290   0.826   3.818   0.727  1.5242  0.5967 -0.4081
 1577TIP3    H226291   0.883   3.953   0.690 -0.4506  1.9277  1.1852
 1578TIP3   OH226292   2.503   3.302   1.067 -0.0655  0.0807  0.1084
 1578TIP3    H126293   2.516   3.387   1.110 -0.0950  0.4674 -0.6325
 1578TIP3    H226294   2.408   3.293   1.059 -0.0398  0.3416 -0.5181
 1579TIP3   OH226295   4.575   4.264   1.828  0.2450  0.1560  0.5149
 1579TIP3    H126296   4.480   4.252   1.820  0.1586  0.6699  0.7102
 1579TIP3    H226297   4.609   4.177   1.849 -0.2419  0.0710  0.9780
 1580TIP3   OH226298   0.022   3.028   0.385  0.3370 -0.0448  0.1586
 1580TIP3    H126299  -0.050   2.965   0.376  0.9096 -0.5581 -1.1148
 1580TIP3    H226300  -0.020   3.113   0.372 -0.3516 -0.1909  1.3175
 1581TIP3   OH226301   1.127   0.822   9.491  1.0934  0.0168 -0.2923
 1581TIP3    H126302   1.140   0.866   9.574  0.0377 -1.0936  0.4920
 1581TIP3    H226303   1.037   0.789   9.494  2.0031 -2.8136 -0.4671
 1582TIP3   OH226304   3.238   5.027   0.523  0.0488  0.8952  0.1783
 1582TIP3    H126305   3.205   5.116   0.534  1.3300  1.6326 -1.4319
 1582TIP3    H226306   3.333   5.036   0.529  0.2427 -0.2277 -0.8025
 1583TIP3   OH226307   3.172   4.409   1.065 -0.0417 -0.2456  0.1042
 1583TIP3    H126308   3.135   4.384   1.150  0.6800 -2.0065 -0.0654
 1583TIP3    H226309   3.106   4.382   1.001  0.2477 -0.6852 -0.0106
 1584TIP3   OH226310   1.090   5.469   8.850 -0.2118 -0.1685 -0.4659
 1584TIP3    H126311   1.015   5.421   8.884 -0.4388  0.2610 -0.3572
 1584TIP3    H226312   1.084   5.556   8.890  0.9924 -0.4857  0.4695
 1585TIP3   OH226313   3.257   5.977   7.668 -0.2623 -0.4383  0.5382
 1585TIP3    H126314   3.287   6.021   7.589 -0.5613 -0.6542  0.2989
 1585TIP3    H226315   3.286   5.886   7.657  0.0582 -0.3772  0.8706
 1586TIP3   OH226316   3.248   3.091   0.558  0.1388 -0.5174  0.6143
 1586TIP3    H126317   3.340   3.098   0.530  0.1265 -0.3610  0.6127
 1586TIP3    H226318   3.215   3.015   0.511  0.0871 -0.1857  0.1045
 1587TIP3   OH226319   5.020   1.795   7.988  0.0970  0.6080  0.1563
 1587TIP3    H126320   5.026   1.888   7.966  2.4339  0.4691 -0.0280
 1587TIP3    H226321   4.969   1.757   7.916  3.1648  1.0364 -2.5002
 1588TIP3   OH226322   4.000   6.257   2.474  0.1164 -0.6883 -0.1483
 1588TIP3    H126323   3.923   6.275   2.527 -0.4254 -0.2454 -1.0674
 1588TIP3    H226324   4.009   6.162   2.476  0.6103 -0.6298  1.4234
 1589TIP3   OH226325   4.916   2.421   7.849 -0.2776 -0.4256 -0.1027
 1589TIP3    H126326   4.863   2.495   7.820  0.7857  0.5155  0.2608
 1589TIP3    H226327   4.862   2.344   7.831 -0.7715  0.3063 -1.9739
 1590TIP3   OH226328   4.937   0.585   1.230 -0.3636 -0.0508 -0.2831
 1590TIP3    H126329   4.890   0.602   1.311 -0.2434  0.0350 -0.2322
 1590TIP3    H226330   5.013   0.643   1.233 -0.1581 -0.3199 -0.2839
 1591TIP3   OH226331   1.493   0.724   1.332 -0.1067 -0.4387 -0.0724
 1591TIP3    H126332   1.566   0.780   1.357 -0.1435 -0.6097  0.4283
 1591TIP3    H226333   1.506   0.708   1.239  0.5211 -0.5122  0.0246
 1592TIP3   OH226334   4.546   6.483   1.355 -0.5086 -0.3989 -0.3068
 1592TIP3    H126335   4.611   6.551   1.338 -0.1289 -0.6692  0.0441
 1592TIP3    H226336   4.520   6.497   1.445 -0.2528 -0.8603 -0.1557
 1593TIP3   OH226337   5.320   4.237   7.981  0.2948 -0.0985  0.1783
 1593TIP3    H126338   5.376   4.289   7.923 -0.9397 -0.8470 -1.7658
 1593TIP3    H226339   5.337   4.273   8.068  2.0407  1.2352 -0.6410
 1594TIP3   OH226340   4.163   5.077   1.654 -0.5271  0.4861 -0.2069
 1594TIP3    H126341   4.140   4.987   1.678 -0.2663  0.8072  1.3661
 1594TIP3    H226342   4.169   5.076   1.559 -1.7488 -0.8700 -0.2967
 1595TIP3   OH226343   0.419   3.105   8.973 -0.0109 -0.3400 -0.2174
 1595TIP3    H126344   0.455   3.130   9.058 -1.0316  2.5364 -0.5196
 1595TIP3    H226345   0.483   3.044   8.936  0.9122 -0.9126  2.1901
 1596TIP3   OH226346   4.937   3.912   1.484 -0.8394 -0.0862 -0.3801
 1596TIP3    H126347   4.935   3.888   1.576 -0.7194 -0.1497 -0.3937
 1596TIP3    H226348   4.991   3.991   1.481 -0.0230 -0.6372 -0.5193
 1597TIP3   OH226349   1.432   3.728   1.696 -0.6256  0.3690 -0.4574
 1597TIP3    H126350   1.372   3.764   1.631 -1.2094  0.9068  0.3584
 1597TIP3    H226351   1.405   3.768   1.779 -0.2251 -0.6794  0.2048
 1598TIP3   OH226352   1.551   4.352   3.051  0.3127 -0.0689  0.9152
 1598TIP3    H126353   1.556   4.447   3.059 -3.0147  0.2083  1.0580
 1598TIP3    H226354   1.601   4.333   2.971  0.4212  1.8666  0.4579
 1599TIP3   OH226355   5.160   2.047   7.641  0.6573 -0.3647 -1.2096
 1599TIP3    H126356   5.150   2.092   7.557  0.8160  0.0796 -0.9947
 1599TIP3    H226357   5.179   2.117   7.703  1.2814 -0.7708 -0.9337
 1600TIP3   OH226358   4.883   1.954   9.270  0.3552  0.1465  0.1107
 1600TIP3    H126359   4.955   1.934   9.210 -0.4547  0.4355 -0.9876
 1600TIP3    H226360   4.810   1.902   9.237 -0.7930  2.1172 -0.6430
 1601TIP3   OH226361   5.745   0.348   2.726  0.1336 -0.7817 -0.0257
 1601TIP3    H126362   5.740   0.444   2.723  0.3474 -0.7496  0.6044
 1601TIP3    H226363   5.701   0.320   2.645 -2.2743 -0.2179  0.9875
 1602TIP3   OH226364   4.313   3.736   1.555 -0.5662  0.4034 -0.5688
 1602TIP3    H126365   4.393   3.734   1.608  0.0717  0.5590 -1.4947
 1602TIP3    H226366   4.256   3.799   1.599  0.6666  1.9181 -1.0698
 1603TIP3   OH226367   5.851   4.745   0.303  0.0402 -0.0277 -0.0817
 1603TIP3    H126368   5.844   4.841   0.295 -2.5317 -0.1066  0.2854
 1603TIP3    H226369   5.760   4.715   0.309  0.8190 -2.3366  1.7220
 1604TIP3   OH226370   4.836   3.162   8.148  0.5332  0.3793  0.2144
 1604TIP3    H126371   4.902   3.197   8.208 -1.1545  1.2774  1.6439
 1604TIP3    H226372   4.765   3.134   8.205 -0.8394  0.5915 -1.3339
 1605TIP3   OH226373   3.510   5.109   0.662 -0.7681  0.7680  0.3251
 1605TIP3    H126374   3.517   5.199   0.694  0.9966  0.0910  2.0446
 1605TIP3    H226375   3.472   5.061   0.736  1.1783 -0.4124  0.6341
 1606TIP3   OH226376   1.001   5.602   9.501  0.1913  0.0420  0.0860
 1606TIP3    H126377   1.080   5.591   9.554  1.3718  1.7991 -1.2293
 1606TIP3    H226378   1.032   5.618   9.412 -1.6520  0.3629 -0.5534
 1607TIP3   OH226379   0.179   4.005   8.964  0.5428  0.3284  0.2913
 1607TIP3    H126380   0.190   4.083   9.019 -0.5555  0.4562  0.3511
 1607TIP3    H226381   0.268   3.983   8.937  0.8380  1.9178 -0.1587
 1608TIP3   OH226382   5.077   0.133   8.403  0.2184  0.4247 -0.5107
 1608TIP3    H126383   5.106   0.068   8.467  1.4545  1.9568  0.5588
 1608TIP3    H226384   5.017   0.085   8.346  2.8386 -2.2933 -1.2174
 1609TIP3   OH226385   0.778   1.722   0.697  0.5521 -0.4104  0.1004
 1609TIP3    H126386   0.791   1.630   0.719  1.6835 -0.2162  0.3062
 1609TIP3    H226387   0.842   1.740   0.629  0.9375  0.4350  0.6662
 1610TIP3   OH226388   1.247   4.601   9.089  0.3497  0.3660  0.8548
 1610TIP3    H126389   1.319   4.598   9.152  1.2850 -1.1086 -0.2159
 1610TIP3    H226390   1.171   4.627   9.141  1.5624  1.6727  2.0758
 1611TIP3   OH226391   3.504   2.002   1.131  0.0052 -0.1045 -0.2089
 1611TIP3    H126392   3.558   1.936   1.175  2.1416  0.0263 -2.4249
 1611TIP3    H226393   3.556   2.030   1.056 -1.4879  2.9872 -0.2682
 1612TIP3   OH226394   5.792   0.019   2.391  0.1055  0.6491  0.4289
 1612TIP3    H126395   5.867   0.067   2.357  1.1552 -1.2168 -0.0157
 1612TIP3    H226396   5.769   0.065   2.472  0.0817  2.7629 -0.7199
 1613TIP3   OH226397   1.529   4.632   8.578  0.7029  0.2097  0.1868
 1613TIP3    H126398   1.609   4.665   8.619  0.6280 -0.4189  0.8649
 1613TIP3    H226399   1.475   4.603   8.651  0.9388 -1.7635 -0.3616
 1614TIP3   OH226400   0.191   3.142   8.843  0.5140 -0.3722  0.1524
 1614TIP3    H126401   0.176   3.237   8.839  1.5172 -0.1827  0.4711
 1614TIP3    H226402   0.269   3.133   8.898 -0.2191 -1.4614  1.0472
 1615TIP3   OH226403   0.669   0.503   2.469 -0.3944 -0.3526 -0.1538
 1615TIP3    H126404   0.739   0.523   2.531 -0.4846  0.0114 -0.1704
 1615TIP3    H226405   0.639   0.588   2.438  0.1406 -0.5548 -1.2586
 1616TIP3   OH226406   0.969   2.137   1.155  0.2833 -0.1429  0.3014
 1616TIP3    H126407   0.910   2.152   1.081 -1.2024 -0.9077  1.2834
 1616TIP3    H226408   0.937   2.195   1.224  0.3170 -0.9632  1.0290
 1617TIP3   OH226409   0.154   4.018   7.807  0.7422 -0.0722 -0.2400
 1617TIP3    H126410   0.188   4.077   7.740 -1.7453 -0.6183 -2.1347
 1617TIP3    H226411   0.131   3.939   7.759 -2.8163  0.1638  0.7913
 1618TIP3   OH226412   3.467   4.461   8.543 -0.2189 -0.7596  0.1306
 1618TIP3    H126413   3.413   4.383   8.547  1.4470 -2.0047 -0.5839
 1618TIP3    H226414   3.405   4.533   8.532 -1.6977 -2.1631 -1.1356
 1619TIP3   OH226415   3.500   1.305   0.263 -0.5069 -0.2819 -0.4787
 1619TIP3    H126416   3.520   1.241   0.331 -0.0019 -1.5379 -1.7634
 1619TIP3    H226417   3.408   1.328   0.278 -0.1564  0.1750  1.1668
 1620TIP3   OH226418   1.024   0.153   0.063  0.2751 -0.5154  0.5376
 1620TIP3    H126419   0.999   0.226   0.006  0.6136 -0.9122 -0.1382
 1620TIP3    H226420   0.947   0.138   0.119 -0.6088 -0.9974 -0.7525
 1621TIP3   OH226421   5.303   1.709   1.304  0.3571  0.1372  0.8091
 1621TIP3    H126422   5.334   1.667   1.385  0.8274 -0.1725  0.4674
 1621TIP3    H226423   5.382   1.740   1.261  0.2037 -0.7224 -0.1039
 1622TIP3   OH226424   3.770   5.898   8.260  0.4360 -0.1603 -0.2001
 1622TIP3    H126425   3.704   5.864   8.199 -0.9333  1.0604  0.5208
 1622TIP3    H226426   3.843   5.925   8.205  0.5273 -1.9046 -0.9876
 1623TIP3   OH226427   0.762   5.141   1.439  0.1544  0.0357 -0.1649
 1623TIP3    H126428   0.737   5.221   1.394 -0.3524 -0.9381 -1.6812
 1623TIP3    H226429   0.773   5.076   1.369  0.3616 -1.2731  1.0338
 1624TIP3   OH226430   5.007   2.918   9.209 -0.2008 -0.2235 -0.8195
 1624TIP3    H126431   5.022   2.836   9.162 -0.8731 -2.0751  1.9916
 1624TIP3    H226432   4.913   2.935   9.197 -0.3366 -0.6003 -0.3062
 1625TIP3   OH226433   4.740   6.182   7.853 -0.4940  0.3301  0.2761
 1625TIP3    H126434   4.681   6.250   7.821  0.2393  0.7794 -0.1461
 1625TIP3    H226435   4.748   6.120   7.780 -0.2643  0.3912  0.2485
 1626TIP3   OH226436   2.042   3.985   0.554  0.0576  0.2222  0.1129
 1626TIP3    H126437   2.062   3.897   0.588  0.0106 -0.0481 -0.5328
 1626TIP3    H226438   2.106   4.042   0.596 -0.1867 -0.0552  0.8639
 1627TIP3   OH226439   1.422   4.991   1.049 -0.7972  0.8745 -0.5711
 1627TIP3    H126440   1.435   4.900   1.076  0.3735  1.3427  0.5323
 1627TIP3    H226441   1.336   4.991   1.007 -1.9251 -0.2990  1.5547
 1628TIP3   OH226442   4.329   2.636   1.457  0.4422 -0.0550 -0.1356
 1628TIP3    H126443   4.407   2.680   1.489  1.4673 -0.5929 -1.7584
 1628TIP3    H226444   4.312   2.566   1.520  2.1493 -0.8503 -0.5200
 1629TIP3   OH226445   0.262   5.206   9.506  0.3061  0.0983 -0.3589
 1629TIP3    H126446   0.260   5.110   9.505 -0.8173  0.1002 -1.2756
 1629TIP3    H226447   0.170   5.231   9.495  0.7188  1.2584 -1.3907
 1630TIP3   OH226448   3.059   5.001   0.812 -0.2886  0.6988  0.0274
 1630TIP3    H126449   3.008   5.056   0.754  0.1807 -0.2226 -1.2946
 1630TIP3    H226450   3.149   5.009   0.780 -0.0195  0.1654  0.6187
 1631TIP3   OH226451   4.989   5.851   8.229 -0.0555 -0.3468  0.2868
 1631TIP3    H126452   4.918   5.893   8.278 -0.4954 -2.1604  1.2862
 1631TIP3    H226453   4.953   5.768   8.200  1.5126 -1.1219  0.4418
 1632TIP3   OH226454   4.346   5.722   0.418 -0.1660 -0.0654 -0.1707
 1632TIP3    H126455   4.338   5.695   0.326  2.0589  0.0394 -0.4456
 1632TIP3    H226456   4.355   5.817   0.414 -1.4267  0.0983  0.3020
 1633TIP3   OH226457   1.147   2.346   8.519  0.2192 -0.3124  0.4995
 1633TIP3    H126458   1.171   2.433   8.549  2.1756 -1.1822  1.6237
 1633TIP3    H226459   1.218   2.320   8.460 -2.6021  0.6089 -3.6847
 1634TIP3   OH226460   5.527   3.027   0.893  0.6983 -0.2915 -0.0409
 1634TIP3    H126461   5.549   3.118   0.909  0.9686 -0.4957  0.8119
 1634TIP3    H226462   5.467   3.029   0.819  0.2772  0.6170  0.3183
 1635TIP3   OH226463   2.549   1.528   7.495 -0.0050 -0.7488  0.8086
 1635TIP3    H126464   2.458   1.545   7.520  0.3031  0.1143  1.4153
 1635TIP3    H226465   2.578   1.460   7.556 -0.7244 -2.2981 -0.4931
 1636TIP3   OH226466   2.011   4.751   9.399  0.2544  0.1797  0.6991
 1636TIP3    H126467   2.056   4.696   9.336  0.6682  0.7596  0.4791
 1636TIP3    H226468   2.069   4.827   9.411 -0.2701  0.5356  1.0410
 1637TIP3   OH226469   2.665   5.176   1.337  0.4548 -0.5371 -0.1785
 1637TIP3    H126470   2.664   5.169   1.242  1.4428  0.8414 -0.3187
 1637TIP3    H226471   2.707   5.095   1.367  1.6618 -0.2576 -1.0329
 1638TIP3   OH226472   2.851   5.397   9.065 -0.3282  0.4302 -0.5682
 1638TIP3    H126473   2.887   5.319   9.022 -0.3094  0.2824 -0.2869
 1638TIP3    H226474   2.903   5.406   9.145  1.4471  2.2417 -1.8163
 1639TIP3   OH226475   2.476   1.254   9.427 -0.5100  0.0150 -0.1654
 1639TIP3    H126476   2.536   1.325   9.405  1.0211 -1.5788 -1.4913
 1639TIP3    H226477   2.434   1.233   9.343 -2.5845  0.7480  0.6404
 1640TIP3   OH226478   4.635   1.818   8.816 -0.3733  0.0043  0.3425
 1640TIP3    H126479   4.562   1.865   8.856 -0.5008  0.5888 -0.5388
 1640TIP3    H226480   4.594   1.749   8.765 -0.2787 -0.0723  0.3702
 1641TIP3   OH226481   3.993   6.284   7.714  0.1819 -0.0550 -0.0345
 1641TIP3    H126482   4.050   6.319   7.645  0.4925  0.5397  0.5100
 1641TIP3    H226483   3.905   6.307   7.684  0.3312  0.4521 -0.1055
 1642TIP3   OH226484   2.219   3.696   1.056  0.6932  0.3235 -0.0365
 1642TIP3    H126485   2.204   3.625   0.994 -0.5857  1.5508 -1.1886
 1642TIP3    H226486   2.285   3.751   1.014  0.9622  0.3555  0.4141
 1643TIP3   OH226487   5.866   2.668   0.693 -0.6483 -0.9946 -0.6840
 1643TIP3    H126488   5.876   2.729   0.766 -2.1007 -1.0984 -0.3706
 1643TIP3    H226489   5.940   2.608   0.702 -1.0994 -1.3435  1.0526
 1644TIP3   OH226490   6.429   4.224   7.728  0.4497 -0.0133 -0.5573
 1644TIP3    H126491   6.523   4.207   7.725  0.3114 -1.1802  0.6858
 1644TIP3    H226492   6.420   4.294   7.792  0.4008 -0.7678  0.2898
 1645TIP3   OH226493   0.475   3.400   8.439 -0.2442 -0.3546  0.0296
 1645TIP3    H126494   0.438   3.349   8.511  0.1967  0.0997  0.5891
 1645TIP3    H226495   0.538   3.459   8.481 -0.6910  0.6016 -0.6111
 1646TIP3   OH226496   0.094   1.819   7.295 -0.1150  0.4770 -0.2548
 1646TIP3    H126497   0.034   1.840   7.223 -0.0406  1.1672 -0.1191
 1646TIP3    H226498   0.180   1.815   7.255 -0.2051 -0.2145 -0.3942
 1647TIP3   OH226499   1.267   0.210   3.111  0.2937 -0.0488  0.0676
 1647TIP3    H126500   1.171   0.209   3.110  0.2848 -0.3630  0.6171
 1647TIP3    H226501   1.292   0.174   3.026 -0.0707  0.7364 -0.3772
 1648TIP3   OH226502   4.486   0.926   7.255 -0.6096  0.1739  0.4860
 1648TIP3    H126503   4.501   0.999   7.195  0.9756  1.4711  2.3319
 1648TIP3    H226504   4.566   0.873   7.249 -1.0748 -0.5246  0.3486
 1649TIP3   OH226505   5.973   1.898   1.299 -0.8392 -0.0200  0.0288
 1649TIP3    H126506   6.029   1.886   1.223 -0.2941  0.0763  0.4086
 1649TIP3    H226507   5.969   1.812   1.340 -0.7569  0.0286  0.1412
 1650TIP3   OH226508   0.712   1.868   8.589  0.0048  0.1254 -0.4901
 1650TIP3    H126509   0.712   1.781   8.548 -0.5161  0.3778 -1.0352
 1650TIP3    H226510   0.730   1.928   8.516 -3.1375  0.7871 -0.8284
 1651TIP3   OH226511   3.230   5.947   7.953  0.0666 -0.1368 -0.0889
 1651TIP3    H126512   3.205   5.961   7.861  0.3574 -0.8995 -0.2901
 1651TIP3    H226513   3.325   5.959   7.954 -0.0178  0.5207  0.2408
 1652TIP3   OH226514   0.971   6.151   8.772  0.4107  0.6301 -0.0416
 1652TIP3    H126515   1.028   6.197   8.711 -0.2384  2.8118  0.8925
 1652TIP3    H226516   1.024   6.141   8.851  0.7618 -0.8731 -0.4402
 1653TIP3   OH226517   6.096   5.323   0.430  0.3817  0.0232  0.0282
 1653TIP3    H126518   6.073   5.343   0.521  0.1896 -0.5418  0.1046
 1653TIP3    H226519   6.184   5.284   0.435  0.9103  1.1409 -0.1560
 1654TIP3   OH226520   4.594   0.711   2.307 -0.1511 -0.3497 -0.1968
 1654TIP3    H126521   4.516   0.676   2.266 -0.8715 -0.3109  1.0751
 1654TIP3    H226522   4.632   0.637   2.355 -0.5874  0.0985  0.8844
 1655TIP3   OH226523   0.497   5.272   2.680 -0.4903 -0.2345  0.5476
 1655TIP3    H126524   0.558   5.345   2.672  0.4582 -1.0772 -0.1434
 1655TIP3    H226525   0.505   5.244   2.771  1.4191 -1.3638  0.0936
 1656TIP3   OH226526   4.065   2.027   8.230 -0.6879 -0.1525 -0.3514
 1656TIP3    H126527   4.032   2.111   8.199  0.2813  0.4635  0.2251
 1656TIP3    H226528   4.157   2.044   8.253 -0.7588 -1.1053  0.7652
 1657TIP3   OH226529   4.332   1.892   8.396 -0.3548  0.1734  0.4617
 1657TIP3    H126530   4.305   1.835   8.468 -0.0729 -0.4037  0.1115
 1657TIP3    H226531   4.279   1.971   8.408 -1.0933 -0.3398  0.6819
 1658TIP3   OH226532   2.787   0.214   0.347  0.7099  0.2275 -0.0743
 1658TIP3    H126533   2.704   0.186   0.308 -0.2622  0.3356  1.7884
 1658TIP3    H226534   2.854   0.182   0.287 -0.5870 -1.6635 -0.6067
 1659TIP3   OH226535   3.587   1.533   7.564 -0.2343 -0.1763 -0.2051
 1659TIP3    H126536   3.502   1.511   7.526 -0.3142 -1.5912  0.7302
 1659TIP3    H226537   3.634   1.576   7.493 -1.8989  1.1137 -0.5919
 1660TIP3   OH226538   2.509   6.126   2.020 -0.0114  0.4956 -0.0206
 1660TIP3    H126539   2.468   6.056   1.969 -2.1435  1.2114  0.6363
 1660TIP3    H226540   2.563   6.080   2.084  0.9033 -0.4535 -1.4042
 1661TIP3   OH226541   4.052   5.106   0.433 -0.6342 -0.1768  0.7054
 1661TIP3    H126542   3.966   5.103   0.475 -0.2456 -1.5023  1.4756
 1661TIP3    H226543   4.074   5.014   0.417  1.1892  0.0206  1.7538
 1662TIP3   OH226544   1.048   4.577   1.879 -0.3796  0.0871 -0.5246
 1662TIP3    H126545   1.035   4.671   1.885 -0.5033  0.0732 -0.5847
 1662TIP3    H226546   1.027   4.544   1.967  0.4479  0.2120 -0.2714
 1663TIP3   OH226547   1.754   2.187   8.990  1.0419 -0.0560  0.3527
 1663TIP3    H126548   1.690   2.242   9.034  0.4895  0.5637 -1.1596
 1663TIP3    H226549   1.830   2.187   9.049  0.2515  0.5313  1.4012
 1664TIP3   OH226550   6.441   0.331   8.910 -0.4207 -0.6594  0.1091
 1664TIP3    H126551   6.504   0.347   8.839 -2.2105  4.3429 -0.7427
 1664TIP3    H226552   6.480   0.375   8.986 -1.5688  0.0977  0.2854
 1665TIP3   OH226553   4.283   2.479   1.683  0.1564  0.2785 -0.5800
 1665TIP3    H126554   4.303   2.421   1.757  2.4050  1.2876 -0.3054
 1665TIP3    H226555   4.258   2.562   1.724 -2.8668 -0.3414 -0.9702
 1666TIP3   OH226556   0.963   0.347   7.788 -0.0951  0.0138  0.0662
 1666TIP3    H126557   1.057   0.333   7.777 -0.0627  0.9398 -1.0403
 1666TIP3    H226558   0.922   0.282   7.732 -0.0604  0.5475 -0.6028
 1667TIP3   OH226559   5.882   1.359   1.462 -1.0021 -0.2171  0.8290
 1667TIP3    H126560   5.956   1.314   1.502  0.3855  0.7714 -0.4850
 1667TIP3    H226561   5.858   1.304   1.387  0.7386  1.1069 -0.8187
 1668TIP3   OH226562   5.619   5.821   9.476  0.0107  0.4549 -0.0372
 1668TIP3    H126563   5.624   5.734   9.515 -0.0664 -0.3630 -1.7257
 1668TIP3    H226564   5.705   5.860   9.492 -0.3350  0.5457  1.7266
 1669TIP3   OH226565   2.851   0.389   8.400  0.6291  0.2068 -0.5966
 1669TIP3    H126566   2.780   0.434   8.446 -0.5501 -2.2087  0.1553
 1669TIP3    H226567   2.875   0.317   8.459  2.2015 -0.3470 -1.8358
 1670TIP3   OH226568   2.748   2.393   0.686  0.0078 -0.2128 -0.1443
 1670TIP3    H126569   2.717   2.368   0.599 -2.2578 -0.4960  0.6935
 1670TIP3    H226570   2.715   2.482   0.699 -0.3100 -0.4404  0.6910
 1671TIP3   OH226571   2.051   4.411   0.686  0.2067  0.5715  0.2470
 1671TIP3    H126572   2.006   4.390   0.767 -0.3809  0.3107 -0.1375
 1671TIP3    H226573   2.130   4.357   0.688 -0.0872  0.1403  0.3884
 1672TIP3   OH226574   4.937   5.472   6.946 -0.7587  0.0432  0.5230
 1672TIP3    H126575   4.948   5.416   6.869 -0.4330  0.4715  0.2602
 1672TIP3    H226576   4.866   5.531   6.923 -0.0062  0.8246  0.1670
 1673TIP3   OH226577   0.991   4.217   2.505 -0.2564  0.0960  0.2903
 1673TIP3    H126578   1.045   4.215   2.584 -0.1038 -0.8637  0.1764
 1673TIP3    H226579   0.957   4.128   2.497  0.5657 -0.1126 -1.2957
 1674TIP3   OH226580   6.102   6.313   6.968  0.3883  0.5214 -1.2507
 1674TIP3    H126581   6.082   6.348   6.881 -1.0587  0.2585 -1.0571
 1674TIP3    H226582   6.017   6.311   7.012  0.5566 -2.3037 -0.9136
 1675TIP3   OH226583   0.534   1.413   7.881  0.1824  0.1599 -0.3369
 1675TIP3    H126584   0.451   1.395   7.924 -0.6488  0.1863 -1.8867
 1675TIP3    H226585   0.518   1.492   7.830  1.5026  0.8231  0.2134
 1676TIP3   OH226586   2.020   3.273   2.216 -0.4354 -0.4724  0.7528
 1676TIP3    H126587   1.950   3.338   2.224  1.3678  1.7448 -0.2774
 1676TIP3    H226588   2.046   3.255   2.307 -1.3276 -0.1908  1.0749
 1677TIP3   OH226589   4.976   4.642   7.384 -0.2471 -0.2260  0.1503
 1677TIP3    H126590   4.907   4.617   7.446 -0.0337 -2.0093 -0.2657
 1677TIP3    H226591   4.929   4.673   7.307 -0.5409  0.1360  0.4672
 1678TIP3   OH226592   1.232   5.667   0.706  0.1149 -0.3908  0.2729
 1678TIP3    H126593   1.153   5.716   0.727  1.2388  0.9043  1.6933
 1678TIP3    H226594   1.221   5.582   0.748 -1.3451 -0.9963 -1.2297
 1679TIP3   OH226595   0.022   4.649   8.392 -0.2626  0.4710  0.1577
 1679TIP3    H126596   0.054   4.727   8.347 -0.6608  0.1877 -0.6580
 1679TIP3    H226597  -0.064   4.674   8.426  0.5066  1.0288  1.7718
 1680TIP3   OH226598   3.803   1.797   7.844 -0.1453  0.3759 -0.1247
 1680TIP3    H126599   3.867   1.727   7.837 -0.4737  0.1800 -1.3740
 1680TIP3    H226600   3.813   1.830   7.934 -0.7756 -2.0149  0.9116
 1681TIP3   OH226601   3.560   4.565   8.050  0.2496  0.0269  0.0314
 1681TIP3    H126602   3.514   4.481   8.052 -0.9617  0.5544 -2.4015
 1681TIP3    H226603   3.594   4.575   8.139 -2.1428 -1.6206  1.2504
 1682TIP3   OH226604   1.991   1.856   1.311 -0.4971 -0.3655 -0.3335
 1682TIP3    H126605   1.977   1.897   1.397 -1.1037  0.2237 -0.7060
 1682TIP3    H226606   1.986   1.929   1.249  2.4834 -0.3146 -0.6999
 1683TIP3   OH226607   3.601   4.117   9.161  0.1282  0.3760 -0.8228
 1683TIP3    H126608   3.672   4.137   9.223  0.2382  0.8380 -1.0934
 1683TIP3    H226609   3.527   4.091   9.217  0.2008  0.8683 -0.4880
 1684TIP3   OH226610   2.262   0.002   1.734  0.5327  0.0286  0.0947
 1684TIP3    H126611   2.244  -0.087   1.765  1.4108 -0.3029 -0.3243
 1684TIP3    H226612   2.229   0.003   1.645 -2.6918  1.2103  1.1489
 1685TIP3   OH226613   0.666   6.040   9.357 -0.6109  0.4120  0.0199
 1685TIP3    H126614   0.636   6.024   9.446 -0.0496 -2.9625 -0.2722
 1685TIP3    H226615   0.749   6.087   9.368 -1.5038  1.8163  1.1280
 1686TIP3   OH226616   2.511   1.012   7.452  0.5710 -0.2913 -0.6206
 1686TIP3    H126617   2.440   1.019   7.389  1.2465 -1.6572 -1.5686
 1686TIP3    H226618   2.480   0.949   7.517  0.9186 -0.9484 -1.0774
 1687TIP3   OH226619   2.782   1.689   9.576  0.1965  0.4033  0.1781
 1687TIP3    H126620   2.804   1.762   9.518  1.4139  0.1335  0.2679
 1687TIP3    H226621   2.724   1.726   9.642  0.9611  1.3398  0.3351
 1688TIP3   OH226622   4.177   0.155   8.191  0.5273  0.0251  0.0445
 1688TIP3    H126623   4.111   0.129   8.255  0.3346  0.1568 -0.0997
 1688TIP3    H226624   4.223   0.074   8.170  1.2743  0.1552  1.1212
 1689TIP3   OH226625   4.343   2.431   8.230  0.5349 -0.2669 -0.2187
 1689TIP3    H126626   4.258   2.411   8.191  0.6941  0.4361 -0.9568
 1689TIP3    H226627   4.321   2.481   8.309  0.2575  0.5479 -0.7869
 1690TIP3   OH226628   6.095   2.279   1.775  0.8291  0.5976  0.4048
 1690TIP3    H126629   6.066   2.199   1.818  0.2036 -0.3693 -1.6918
 1690TIP3    H226630   6.147   2.249   1.700  0.8209  2.1631 -0.2785
 1691TIP3   OH226631   2.488   1.016   1.225 -0.4762 -0.1025 -0.5360
 1691TIP3    H126632   2.499   1.107   1.195  0.3461  0.3082  0.9302
 1691TIP3    H226633   2.423   1.022   1.295 -1.6552 -0.9177 -1.5071
 1692TIP3   OH226634   2.821   0.353   8.923 -0.2297  0.1607 -0.7005
 1692TIP3    H126635   2.891   0.290   8.909 -2.0734 -2.0512 -0.7247
 1692TIP3    H226636   2.794   0.338   9.014 -2.2417 -0.8566 -1.4069
 1693TIP3   OH226637   3.004   4.285   0.883 -0.2093 -0.2193  0.0266
 1693TIP3    H126638   2.916   4.250   0.902 -0.2542 -0.7225 -1.0535
 1693TIP3    H226639   3.035   4.233   0.809  1.3984 -0.6887  0.9755
 1694TIP3   OH226640   5.736   5.164   8.670  0.1436  0.2533 -0.3056
 1694TIP3    H126641   5.759   5.251   8.637  2.6351 -0.1978  0.0213
 1694TIP3    H226642   5.752   5.170   8.764 -2.4954  0.2047  0.2312
 1695TIP3   OH226643   0.277   4.849   8.659  1.0169 -0.0355 -0.6645
 1695TIP3    H126644   0.191   4.811   8.640  0.8593 -0.1969  0.3510
 1695TIP3    H226645   0.304   4.888   8.576 -0.3789  0.7089 -0.8045
 1696TIP3   OH226646   1.459   5.700   2.587 -0.4225  0.1127  0.2549
 1696TIP3    H126647   1.400   5.655   2.526 -1.7082  2.2888 -0.2279
 1696TIP3    H226648   1.424   5.789   2.593 -0.1492  0.1467  3.9057
 1697TIP3   OH226649   4.843   0.385   9.135 -0.3680  0.0110  0.2601
 1697TIP3    H126650   4.912   0.442   9.169 -0.6204 -0.9033  2.4446
 1697TIP3    H226651   4.771   0.445   9.115 -0.4507  0.5754  2.0532
 1698TIP3   OH226652   0.543   1.795   1.773  0.7848  0.3838 -0.5591
 1698TIP3    H126653   0.485   1.728   1.737  0.8574  0.1637 -0.2700
 1698TIP3    H226654   0.604   1.747   1.829 -0.3799  0.8802  1.2282
 1699TIP3   OH226655   6.216   0.521   1.841 -0.3739  0.2181 -0.4088
 1699TIP3    H126656   6.147   0.566   1.792  1.0499  1.3565 -1.4584
 1699TIP3    H226657   6.265   0.592   1.882  2.3419 -0.2152 -2.6272
 1700TIP3   OH226658   0.197   5.909   2.280 -0.4355  0.2459 -0.3197
 1700TIP3    H126659   0.184   5.936   2.189 -0.1603  0.6918 -0.2278
 1700TIP3    H226660   0.215   5.991   2.327 -2.5846  0.3025  0.5056
 1701TIP3   OH226661   5.012   1.149   8.118  0.2239  0.3113  0.0135
 1701TIP3    H126662   5.060   1.232   8.116 -0.2473  0.7110  2.3468
 1701TIP3    H226663   5.072   1.088   8.162  0.8104 -0.8304 -2.2075
 1702TIP3   OH226664   1.888   2.838   9.006 -0.3215 -0.1585  0.2079
 1702TIP3    H126665   1.843   2.917   9.034 -0.4487 -0.2107  0.1479
 1702TIP3    H226666   1.978   2.850   9.037 -0.2170  0.2322 -0.2432
 1703TIP3   OH226667   4.684   3.135   1.966  0.3061 -0.1879  0.3573
 1703TIP3    H126668   4.765   3.085   1.961 -0.5649 -1.4941 -2.2711
 1703TIP3    H226669   4.710   3.225   1.948  1.1393 -0.6654 -0.9221
 1704TIP3   OH226670   6.243   2.226   7.169  0.3268  0.1856 -0.3244
 1704TIP3    H126671   6.173   2.269   7.119  0.8601 -0.9300 -2.1298
 1704TIP3    H226672   6.198   2.160   7.221  0.0103 -0.8033 -1.7813
 1705TIP3   OH226673   0.554   4.245   7.312  0.3139 -0.4714  0.1797
 1705TIP3    H126674   0.573   4.182   7.382  0.5708 -0.2606  0.3064
 1705TIP3    H226675   0.613   4.319   7.331 -1.2219  0.5849  1.0764
 1706TIP3   OH226676   5.787   2.784   1.381 -0.1784 -0.0637 -0.5018
 1706TIP3    H126677   5.827   2.814   1.300  0.2394  0.6288 -0.0567
 1706TIP3    H226678   5.815   2.848   1.447  0.9261 -1.5260  0.5282
 1707TIP3   OH226679   5.130   0.332   7.843  0.3785 -0.0122 -0.2186
 1707TIP3    H126680   5.080   0.255   7.817  1.6454 -1.2924  0.9393
 1707TIP3    H226681   5.145   0.379   7.761  0.2444 -1.4118 -1.0860
 1708TIP3   OH226682   1.013   1.248   1.399  0.0330 -0.0728 -0.2484
 1708TIP3    H126683   1.105   1.244   1.427 -0.4889 -0.6223  1.5517
 1708TIP3    H226684   1.000   1.339   1.373  1.2536 -0.1433 -1.2062
 1709TIP3   OH226685   5.744   5.445   8.561  0.2928  0.2336  0.2278
 1709TIP3    H126686   5.716   5.500   8.634 -2.6432 -1.8242  0.8593
 1709TIP3    H226687   5.686   5.471   8.489  0.2881 -0.6081 -0.0756
 1710TIP3   OH226688   6.519   4.687   9.152 -0.3313 -0.4102  0.1044
 1710TIP3    H126689   6.516   4.768   9.204 -0.7276 -1.2400  1.4258
 1710TIP3    H226690   6.472   4.623   9.206  0.0720 -1.5506 -0.8726
 1711TIP3   OH226691   2.169   4.246   8.299  0.2409  0.1327 -0.0091
 1711TIP3    H126692   2.221   4.207   8.229 -0.6401 -1.3209  0.0824
 1711TIP3    H226693   2.227   4.244   8.376  0.1220 -1.4367  0.0883
 1712TIP3   OH226694   2.043   6.167   1.451 -0.1415 -0.1775 -0.3185
 1712TIP3    H126695   2.037   6.076   1.421  1.7208 -0.7294  0.8216
 1712TIP3    H226696   2.043   6.161   1.546 -1.7665  1.2125 -0.1750
 1713TIP3   OH226697   2.063   5.120   1.695 -0.0732  0.3292 -0.4617
 1713TIP3    H126698   2.147   5.102   1.653  0.3586  0.5431  0.2947
 1713TIP3    H226699   2.012   5.040   1.683 -0.1108  0.5291 -1.7381
 1714TIP3   OH226700   0.842   3.770   1.017  0.4149 -0.1089 -0.2473
 1714TIP3    H126701   0.827   3.857   1.055 -1.1962  1.1987 -3.5257
 1714TIP3    H226702   0.769   3.758   0.957  1.9090 -2.7203 -1.6773
 1715TIP3   OH226703   2.093   5.557   0.085  0.2620 -0.0655  0.3751
 1715TIP3    H126704   2.101   5.607   0.004 -2.9974 -2.7740 -1.9346
 1715TIP3    H226705   2.182   5.530   0.106  1.2368  0.7621 -2.3239
 1716TIP3   OH226706   5.346   5.555   7.702 -0.4757 -0.3581 -0.1132
 1716TIP3    H126707   5.440   5.558   7.685 -0.6716  0.1401 -1.1658
 1716TIP3    H226708   5.337   5.592   7.790  0.3917 -1.3247  0.4032
 1717TIP3   OH226709   3.392   1.592   8.961  0.3975 -0.0461 -0.2552
 1717TIP3    H126710   3.297   1.595   8.950  0.2144 -2.7854 -0.1262
 1717TIP3    H226711   3.423   1.671   8.916 -1.8432  0.3149 -1.3625
 1718TIP3   OH226712   3.675   3.926   0.850  0.5410  0.0338  0.4969
 1718TIP3    H126713   3.707   3.877   0.774  0.1967  1.5595 -0.7059
 1718TIP3    H226714   3.619   3.865   0.897  0.9292 -1.0143 -0.3633
 1719TIP3   OH226715   1.739   3.959   2.147 -0.4391  0.0427  0.1595
 1719TIP3    H126716   1.717   3.973   2.239  1.1210  0.0009  0.5664
 1719TIP3    H226717   1.660   3.921   2.109 -0.8025 -0.8441  1.7091
 1720TIP3   OH226718   2.301   4.793   8.441 -0.0503  0.4504  0.1040
 1720TIP3    H126719   2.354   4.784   8.520 -1.0771 -0.9259  0.6575
 1720TIP3    H226720   2.350   4.745   8.374 -0.5601 -0.8159  0.6118
 1721TIP3   OH226721   0.472   6.091   9.553  0.0249 -0.6927 -0.3244
 1721TIP3    H126722   0.470   5.996   9.552 -0.2508 -0.6893 -0.0154
 1721TIP3    H226723   0.381   6.118   9.563  0.1755 -0.4112  0.4158
 1722TIP3   OH226724   6.483   6.025   8.545 -0.4082  0.1557  0.0316
 1722TIP3    H126725   6.510   5.967   8.617  0.5346  3.0378  2.1841
 1722TIP3    H226726   6.425   5.971   8.491 -0.5516 -2.4037  2.5300
 1723TIP3   OH226727   0.598   5.231   0.788  0.6032  0.5840  0.0093
 1723TIP3    H126728   0.513   5.187   0.786  1.2689 -0.8473  0.9118
 1723TIP3    H226729   0.578   5.324   0.789 -0.8922  0.3226 -1.6643
 1724TIP3   OH226730   3.206   0.519   1.210  0.1381 -0.3679  0.3915
 1724TIP3    H126731   3.257   0.540   1.132 -0.0243  0.5954  0.5246
 1724TIP3    H226732   3.251   0.567   1.281  0.6315 -1.6978  1.0087
 1725TIP3   OH226733   6.155   2.968   8.486 -0.4828 -0.5327  0.0282
 1725TIP3    H126734   6.219   2.970   8.556  0.2935  2.0783 -0.6473
 1725TIP3    H226735   6.070   2.979   8.529 -0.0143  1.0593  0.6255
 1726TIP3   OH226736   1.197   0.324   8.838 -0.1705  0.7879 -0.1610
 1726TIP3    H126737   1.136   0.251   8.852  0.7701  0.1965  1.0777
 1726TIP3    H226738   1.182   0.382   8.913  1.1253  0.3628  0.4568
 1727TIP3   OH226739   1.063   0.521   8.054  0.5743 -0.2665  0.0424
 1727TIP3    H126740   1.100   0.464   7.986 -1.0132 -0.4704 -0.7089
 1727TIP3    H226741   1.043   0.461   8.126  0.1611 -0.4430 -0.2140
 1728TIP3   OH226742   4.309   5.524   7.974  0.0698  0.2524 -0.5863
 1728TIP3    H126743   4.401   5.501   7.961 -0.7686 -3.5198 -1.0780
 1728TIP3    H226744   4.273   5.528   7.886 -0.4435  0.7518 -0.3581
 1729TIP3   OH226745   4.061   3.185   0.544 -0.8223  0.2183 -0.2245
 1729TIP3    H126746   3.985   3.209   0.490 -1.4368  0.3531  0.6806
 1729TIP3    H226747   4.075   3.092   0.525  0.1998  0.6869 -2.0775
 1730TIP3   OH226748   3.404   4.004   0.699 -0.4045 -0.7791 -0.0994
 1730TIP3    H126749   3.474   3.985   0.761 -0.5741 -1.1987 -0.0364
 1730TIP3    H226750   3.325   4.010   0.753 -0.4921 -0.7619 -0.2276
 1731TIP3   OH226751   5.951   2.441   0.884  0.2226  0.1444 -0.0427
 1731TIP3    H126752   6.023   2.504   0.885  1.1742 -0.6759  4.2665
 1731TIP3    H226753   5.874   2.493   0.910 -0.2669  0.4968 -2.0342
 1732TIP3   OH226754   6.265   3.270   1.887  0.0532  0.2028  0.2601
 1732TIP3    H126755   6.196   3.247   1.949  3.1844 -0.4033  3.8911
 1732TIP3    H226756   6.293   3.357   1.915  3.0386 -0.9972  1.3658
 1733TIP3   OH226757   2.970   5.198   9.403  0.3670  0.4080  0.6123
 1733TIP3    H126758   2.947   5.150   9.483  2.2114  1.0473  1.6069
 1733TIP3    H226759   2.915   5.160   9.335 -0.8014 -0.6108  2.0636
 1734TIP3   OH226760   1.235   4.302   2.376 -0.0445 -0.1320  0.0368
 1734TIP3    H126761   1.149   4.261   2.384 -0.3778  0.3914 -0.7745
 1734TIP3    H226762   1.217   4.392   2.350  0.6903  0.5205  1.6465
 1735TIP3   OH226763   6.267   3.623   9.179  0.3690 -0.6768  0.3026
 1735TIP3    H126764   6.225   3.628   9.265 -0.3196 -0.4099 -0.0410
 1735TIP3    H226765   6.194   3.614   9.117  0.8198 -0.1640 -0.3149
 1736TIP3   OH226766   6.154   0.671   8.159  0.5194  0.2278 -0.1262
 1736TIP3    H126767   6.189   0.732   8.224 -1.8869  1.4387  0.1320
 1736TIP3    H226768   6.106   0.606   8.210  0.5437 -0.1520 -0.5773
 1737TIP3   OH226769   1.900   1.663   8.334  0.5180  0.7004  0.1098
 1737TIP3    H126770   1.946   1.698   8.258  0.2079  0.3022 -0.2682
 1737TIP3    H226771   1.821   1.622   8.297  0.4297  0.3905  0.6336
 1738TIP3   OH226772   3.807   0.843   0.140 -0.2477  0.5190  0.2153
 1738TIP3    H126773   3.853   0.804   0.066  1.0360  1.8837  0.2481
 1738TIP3    H226774   3.716   0.813   0.130 -0.0128  0.2965 -1.6473
 1739TIP3   OH226775   4.325   2.624   9.069 -0.4910  0.4688 -0.4937
 1739TIP3    H126776   4.355   2.596   9.155  0.2849  0.9871 -0.5837
 1739TIP3    H226777   4.254   2.564   9.048 -0.5169  0.1693  0.3910
 1740TIP3   OH226778   2.889   1.829   1.615  0.4925  0.1096 -0.5659
 1740TIP3    H126779   2.960   1.893   1.613  0.1711  0.4934  0.2197
 1740TIP3    H226780   2.810   1.880   1.633  0.1892 -0.4694 -0.2081
 1741TIP3   OH226781   2.491   2.157   6.542  0.1316  0.0523  0.7088
 1741TIP3    H126782   2.462   2.087   6.600 -0.9164 -0.0844  0.0548
 1741TIP3    H226783   2.508   2.113   6.458 -1.7492  0.6969 -0.0799
 1742TIP3   OH226784   3.434   4.048   1.678 -0.1077 -0.4755 -0.0112
 1742TIP3    H126785   3.378   4.014   1.748 -1.5413  0.6373 -0.5731
 1742TIP3    H226786   3.419   3.989   1.605 -0.3771 -0.3079 -0.0915
 1743TIP3   OH226787   1.973   4.929   7.731 -0.4836  0.2761 -0.1573
 1743TIP3    H126788   1.893   4.952   7.684 -0.5623 -0.8308 -0.5931
 1743TIP3    H226789   1.976   4.833   7.728  1.0664  0.3091 -0.4998
 1744TIP3   OH226790   5.517   1.137   0.412  0.1335  0.1807 -0.0631
 1744TIP3    H126791   5.427   1.152   0.441 -0.6658 -3.8390  0.0662
 1744TIP3    H226792   5.509   1.110   0.321  1.1064 -0.8839  0.1427
 1745TIP3   OH226793   3.760   1.231   0.552  0.6155 -0.1330 -0.5133
 1745TIP3    H126794   3.687   1.287   0.525 -1.0970 -2.0013 -0.0286
 1745TIP3    H226795   3.751   1.152   0.498  1.5367 -0.8914  0.3969
 1746TIP3   OH226796   0.145   2.043   9.310 -0.0884  0.3202 -0.0403
 1746TIP3    H126797   0.129   2.127   9.266 -1.5527 -0.0181 -0.2049
 1746TIP3    H226798   0.067   1.991   9.292  0.3714 -0.7367  0.8789
 1747TIP3   OH226799   3.337   0.436   8.672 -0.1555  0.3598 -0.2698
 1747TIP3    H126800   3.302   0.365   8.726 -0.0784 -0.4053 -1.1875
 1747TIP3    H226801   3.261   0.485   8.644 -0.3608 -0.2864 -0.8771
 1748TIP3   OH226802   2.659   1.085   0.563 -0.1667  0.3560  0.0201
 1748TIP3    H126803   2.722   1.048   0.625  1.4032  0.8467 -1.2246
 1748TIP3    H226804   2.680   1.178   0.559  0.6600  0.1293 -2.1818
 1749TIP3   OH226805   6.471   6.530   8.229 -0.5116  0.5414 -0.1542
 1749TIP3    H126806   6.542   6.561   8.285  1.3457 -1.9094 -0.9570
 1749TIP3    H226807   6.485   6.573   8.145  0.3010 -0.2100 -0.4177
 1750TIP3   OH226808   0.832   5.728   3.046 -0.0586 -0.7879 -0.0374
 1750TIP3    H126809   0.747   5.765   3.072  0.1338  0.1821 -0.7687
 1750TIP3    H226810   0.834   5.642   3.090 -0.5758 -0.0267  1.5596
 1751TIP3   OH226811   2.143   3.403   1.924 -0.1465  1.1031 -0.3101
 1751TIP3    H126812   2.127   3.428   2.014 -0.2416 -2.5188  0.8398
 1751TIP3    H226813   2.144   3.486   1.875 -1.5601  3.0660  2.7243
 1752TIP3   OH226814   5.059   1.203   9.278  0.2386 -0.3117  0.5550
 1752TIP3    H126815   5.099   1.285   9.249  1.4372 -0.6868  1.0708
 1752TIP3    H226816   5.056   1.210   9.374  1.9528 -1.5326  0.7455
 1753TIP3   OH226817   2.545   2.013   6.297 -0.4831 -0.2985  0.5444
 1753TIP3    H126818   2.623   1.982   6.251 -2.0036  0.6764 -3.0010
 1753TIP3    H226819   2.533   1.950   6.368  2.3405 -1.6412 -0.0348
 1754TIP3   OH226820   0.587   3.282   9.524  0.3425 -0.2526  0.7740
 1754TIP3    H126821   0.557   3.315   9.608  0.4706 -0.4500  0.8965
 1754TIP3    H226822   0.682   3.276   9.532  0.3178 -0.6850  0.7643
 1755TIP3   OH226823   1.489   6.025   1.557  0.2516 -0.4601 -0.3405
 1755TIP3    H126824   1.447   5.954   1.605  1.4676 -0.3869  0.9126
 1755TIP3    H226825   1.510   5.987   1.472  0.4985 -1.4818  0.1604
 1756TIP3   OH226826   2.768   1.181   0.955 -0.1072 -0.0596 -0.3737
 1756TIP3    H126827   2.828   1.167   0.881 -0.7169 -1.0357 -0.7130
 1756TIP3    H226828   2.710   1.105   0.953 -0.6458  0.3037  0.6337
 1757TIP3   OH226829   0.644   0.449   8.075  0.3054 -0.1114  1.1642
 1757TIP3    H126830   0.558   0.413   8.050  0.5522  0.9604 -1.6547
 1757TIP3    H226831   0.624   0.533   8.116 -0.0825  1.3679 -1.7441
 1758TIP3   OH226832   0.865   0.005   8.419 -0.3309  0.1407 -0.3366
 1758TIP3    H126833   0.946  -0.044   8.407 -0.5457 -0.9985  2.2598
 1758TIP3    H226834   0.884   0.092   8.383  1.4629 -0.5927 -1.2545
 1759TIP3   OH226835   3.829   0.177   9.544  0.2210  0.1752 -0.3809
 1759TIP3    H126836   3.801   0.115   9.476  0.1829 -0.2403  0.0040
 1759TIP3    H226837   3.869   0.249   9.496  0.0720 -0.0506 -0.8518
 1760TIP3   OH226838   2.382   0.701   8.198 -0.8735 -0.2763 -0.0264
 1760TIP3    H126839   2.430   0.626   8.163 -0.7574 -0.6956  0.9942
 1760TIP3    H226840   2.411   0.775   8.145 -0.8863 -0.9221 -0.9620
 1761TIP3   OH226841   5.116   1.273   6.834  0.0273  0.1589 -0.2998
 1761TIP3    H126842   5.174   1.250   6.762 -0.4899 -0.4907 -0.5183
 1761TIP3    H226843   5.033   1.231   6.812 -0.4085  0.7330  0.2116
 1762TIP3   OH226844   0.328   5.061   1.693  0.0970 -0.0165 -0.2350
 1762TIP3    H126845   0.239   5.029   1.676  0.5820 -1.6651  0.1299
 1762TIP3    H226846   0.378   5.036   1.616  0.6771 -0.9521  0.4200
 1763TIP3   OH226847   2.966   0.333   0.524  0.8639 -0.0725  0.2439
 1763TIP3    H126848   2.898   0.268   0.506  1.2980 -0.1139 -1.4756
 1763TIP3    H226849   3.047   0.292   0.495  1.1184  1.2813 -1.1473
 1764TIP3   OH226850   1.459   4.423   1.798  0.1347 -0.0900 -0.0902
 1764TIP3    H126851   1.386   4.384   1.846  1.0440 -1.9402 -0.1455
 1764TIP3    H226852   1.512   4.465   1.865  0.6405 -1.4267  0.3633
 1765TIP3   OH226853   3.066   3.765   1.941  0.2546  0.7270  0.2311
 1765TIP3    H126854   3.062   3.858   1.919 -0.6070  0.6140 -0.1323
 1765TIP3    H226855   3.159   3.748   1.956  0.3942  1.6933  0.5340
 1766TIP3   OH226856   0.560   0.067   2.061 -0.0312 -0.0469 -0.3722
 1766TIP3    H126857   0.492   0.064   1.994 -0.1064  1.9640 -0.4388
 1766TIP3    H226858   0.594   0.156   2.057  0.8379 -0.2532  1.4112
 1767TIP3   OH226859   0.269   6.039   8.634  0.1042  0.7717  0.2448
 1767TIP3    H126860   0.270   6.069   8.543  1.4612 -2.1463 -0.8165
 1767TIP3    H226861   0.289   6.118   8.685  0.0047  2.3541 -2.0000
 1768TIP3   OH226862   2.195   4.875   1.852  0.0439 -0.1934  0.2010
 1768TIP3    H126863   2.128   4.840   1.794  0.7795  0.9077 -1.4028
 1768TIP3    H226864   2.150   4.890   1.935 -2.4770  2.9075 -1.4938
 1769TIP3   OH226865   5.358   3.952   6.703 -0.1419  0.4303 -0.1678
 1769TIP3    H126866   5.345   4.046   6.715  2.3029  0.8219 -0.0034
 1769TIP3    H226867   5.292   3.926   6.639 -1.8050  1.9253  0.8369
 1770TIP3   OH226868   6.012   2.357   7.861  0.6103 -0.0555 -0.4599
 1770TIP3    H126869   6.057   2.392   7.784 -0.5742  1.6998 -0.4078
 1770TIP3    H226870   6.078   2.359   7.930  1.1213  0.2500 -0.9474
 1771TIP3   OH226871   0.471   6.457   1.632 -0.7131 -0.3171 -0.4885
 1771TIP3    H126872   0.537   6.458   1.562 -2.8409  0.0180 -2.6265
 1771TIP3    H226873   0.515   6.415   1.706  1.2360 -2.0600 -2.4924
 1772TIP3   OH226874   0.008   3.538   8.694 -0.4619 -0.0069 -0.7709
 1772TIP3    H126875  -0.061   3.604   8.691 -1.7461 -1.2990 -0.9468
 1772TIP3    H226876   0.003   3.501   8.782  0.9124  0.7801 -0.3376
 1773TIP3   OH226877   2.463   2.787   2.033 -0.0146  0.5957  0.1789
 1773TIP3    H126878   2.424   2.712   2.077  1.4457 -0.5563 -0.4062
 1773TIP3    H226879   2.389   2.844   2.012 -1.2739 -1.1016 -0.1810
 1774TIP3   OH226880   0.865   4.264   9.569 -0.1106 -0.4979 -0.2034
 1774TIP3    H126881   0.828   4.281   9.655  0.5131  0.0680 -0.0383
 1774TIP3    H226882   0.957   4.287   9.577 -0.5716  2.3962 -1.7788
 1775TIP3   OH226883   6.235   3.542   8.834 -0.6726 -0.3483 -0.1938
 1775TIP3    H126884   6.198   3.516   8.750 -1.0475 -0.2743 -0.0522
 1775TIP3    H226885   6.224   3.637   8.838 -0.9638 -0.3918  0.0867
 1776TIP3   OH226886   3.766   1.958   0.125 -0.3569  0.4898  0.0445
 1776TIP3    H126887   3.803   1.978   0.211  1.9790 -0.1350 -0.7326
 1776TIP3    H226888   3.843   1.950   0.068 -1.8293  0.6051 -2.0402
 1777TIP3   OH226889   2.969   1.497   0.432  0.0179 -0.0669  0.8081
 1777TIP3    H126890   3.046   1.471   0.482  1.0014  1.6337  0.2440
 1777TIP3    H226891   3.002   1.523   0.346 -1.6023 -2.5212 -0.6763
 1778TIP3   OH226892   3.526   0.076   7.858  0.1507 -0.4334  0.0188
 1778TIP3    H126893   3.521  -0.020   7.849  0.3324 -0.6752  2.0009
 1778TIP3    H226894   3.453   0.098   7.917  1.4480  0.3325  1.4037
 1779TIP3   OH226895   3.508   3.881   2.087  0.3970  0.3003 -0.5046
 1779TIP3    H126896   3.499   3.785   2.088 -1.5067  0.4390  0.3887
 1779TIP3    H226897   3.462   3.908   2.007 -0.4042  0.5563  0.0371
 1780TIP3   OH226898   1.884   3.949   1.886  0.2165 -0.3172  0.2837
 1780TIP3    H126899   1.848   3.966   1.973 -2.3474 -0.4905 -0.6773
 1780TIP3    H226900   1.851   4.020   1.832 -0.0568 -1.4015 -1.0225
 1781TIP3   OH226901   5.490   6.033   7.703 -0.1590  0.4900  0.6400
 1781TIP3    H126902   5.517   6.044   7.612 -1.3233 -1.6930 -0.0568
 1781TIP3    H226903   5.423   6.100   7.717 -1.3647 -0.3418 -0.7980
 1782TIP3   OH226904   4.923   3.764   8.031 -0.1553  0.5984 -0.0242
 1782TIP3    H126905   4.950   3.723   7.949  1.4490  0.4302  0.5576
 1782TIP3    H226906   4.900   3.691   8.088  1.4208  0.5299  0.5704
 1783TIP3   OH226907   0.004   5.266   9.442 -0.4635  0.4233  0.0068
 1783TIP3    H126908  -0.066   5.254   9.506 -0.8798  1.1448 -0.3084
 1783TIP3    H226909  -0.041   5.288   9.361  0.0654 -0.4458 -0.5376
 1784TIP3   OH226910   3.861   4.697   1.233 -0.5472  0.5714 -0.8607
 1784TIP3    H126911   3.788   4.671   1.177  0.3894 -0.5658 -1.6169
 1784TIP3    H226912   3.839   4.785   1.263 -1.7167  0.6757 -1.9422
 1785TIP3   OH226913   3.914   4.034   0.966  0.4841 -0.1202  0.0536
 1785TIP3    H126914   3.956   3.993   1.042 -1.1825  1.8768  2.2274
 1785TIP3    H226915   3.838   3.979   0.947 -1.1299  1.1652  2.2632
 1786TIP3   OH226916   1.879   5.454   1.162  0.4946  0.1521  0.2543
 1786TIP3    H126917   1.934   5.387   1.201 -0.0622 -0.4182  0.0774
 1786TIP3    H226918   1.865   5.424   1.072 -0.3259  0.1474  0.3799
 1787TIP3   OH226919   5.589   1.030   2.458 -0.0450  0.8909 -0.1077
 1787TIP3    H126920   5.570   1.104   2.515  1.9247 -0.3245  2.2505
 1787TIP3    H226921   5.565   0.952   2.509  1.0172 -0.2378 -1.2441
 1788TIP3   OH226922   4.350   6.063   1.035  0.0277  0.4871 -0.0143
 1788TIP3    H126923   4.292   5.996   1.069  0.7610  0.9430  2.2963
 1788TIP3    H226924   4.304   6.145   1.050  0.0206  0.6554 -0.9064
 1789TIP3   OH226925   3.886   3.824   0.290 -0.3808 -0.1650 -0.0974
 1789TIP3    H126926   3.936   3.871   0.357 -0.1376 -1.6441  0.8166
 1789TIP3    H226927   3.897   3.876   0.210 -1.0151  1.8617  1.0753
 1790TIP3   OH226928   4.446   1.812   0.028  0.1982 -0.0796 -0.6370
 1790TIP3    H126929   4.468   1.904   0.014 -0.8090  0.3492  0.4444
 1790TIP3    H226930   4.509   1.764  -0.025  2.5888  1.1337  0.9512
 1791TIP3   OH226931   6.056   4.821   8.413 -0.0287 -0.7381  0.3894
 1791TIP3    H126932   6.002   4.894   8.443  1.1934  0.5685 -0.4397
 1791TIP3    H226933   6.031   4.747   8.469 -1.3537  0.2853  1.2041
 1792TIP3   OH226934   0.191   5.716   1.677  0.1142 -0.6309  0.2181
 1792TIP3    H126935   0.124   5.696   1.612 -1.7055  1.2311  1.3950
 1792TIP3    H226936   0.268   5.742   1.625  0.3763 -3.7942 -1.1777
 1793TIP3   OH226937   1.155   3.661   8.311  0.0940 -0.1392 -0.2859
 1793TIP3    H126938   1.087   3.663   8.243  1.0415  0.6150 -1.2389
 1793TIP3    H226939   1.199   3.745   8.303  0.3055 -0.0910  1.2010
 1794TIP3   OH226940   2.185   0.472   9.418 -0.5040 -0.2438  0.4416
 1794TIP3    H126941   2.136   0.533   9.472 -1.1236  1.4474 -1.8784
 1794TIP3    H226942   2.255   0.525   9.379 -0.1233 -1.3728 -0.4789
 1795TIP3   OH226943   5.022   3.664   8.817 -0.5166 -0.4297 -0.4413
 1795TIP3    H126944   5.109   3.657   8.777 -0.5913  1.7303 -1.1314
 1795TIP3    H226945   5.032   3.624   8.903  1.3025  0.1210 -0.3432
 1796TIP3   OH226946   4.353   4.606   8.585 -0.3424 -0.1369  0.1777
 1796TIP3    H126947   4.409   4.530   8.568  0.6686  0.3636  1.1440
 1796TIP3    H226948   4.365   4.662   8.508  0.3142 -0.1376  0.2759
 1797TIP3   OH226949   5.338   2.326   8.310  0.7369  0.3809  0.7346
 1797TIP3    H126950   5.333   2.413   8.270  0.9932 -0.4453 -1.2134
 1797TIP3    H226951   5.254   2.316   8.355 -1.5821 -0.2361 -3.2295
 1798TIP3   OH226952   2.700   0.936   8.882 -0.4439 -0.0115 -0.0901
 1798TIP3    H126953   2.721   0.999   8.951 -0.1834  0.5966 -0.7109
 1798TIP3    H226954   2.617   0.967   8.845  0.0248  0.3750 -0.8503
 1799TIP3   OH226955   0.276   2.756   9.132 -0.0178 -0.2492 -0.1412
 1799TIP3    H126956   0.350   2.789   9.182 -1.5411  0.0161  2.0719
 1799TIP3    H226957   0.260   2.824   9.066  1.8093 -0.4306 -0.8132
 1800TIP3   OH226958   1.097   5.695   1.020 -0.0571  0.2180 -0.3149
 1800TIP3    H126959   1.087   5.603   0.995  2.6701 -1.1193  2.7642
 1800TIP3    H226960   1.036   5.708   1.092  0.1496  0.5613 -0.1965
 1801TIP3   OH226961   4.078   3.555   7.640 -0.5826  0.4403  0.0035
 1801TIP3    H126962   3.995   3.591   7.608 -0.3844  1.2203  0.3422
 1801TIP3    H226963   4.061   3.531   7.731 -0.2267  1.3670  0.3296
 1802TIP3   OH226964   1.403   2.223   0.113  0.3090 -0.6186 -0.1672
 1802TIP3    H126965   1.358   2.303   0.139 -0.0467 -1.0294  0.5092
 1802TIP3    H226966   1.402   2.168   0.192  0.4090 -1.3537 -0.6685
 1803TIP3   OH226967   2.754   4.639   0.429  0.1348 -0.0990 -0.3063
 1803TIP3    H126968   2.733   4.546   0.424 -2.5024  0.4559 -1.1028
 1803TIP3    H226969   2.669   4.683   0.434  1.3169  2.2412  1.0322
 1804TIP3   OH226970   4.136   3.539   8.212  1.0563 -0.0857  0.3199
 1804TIP3    H126971   4.180   3.603   8.268  0.9174  0.6711 -0.4242
 1804TIP3    H226972   4.133   3.580   8.126 -0.7955 -0.2567  0.2635
 1805TIP3   OH226973   5.504   1.738   0.656 -0.0494  0.1694  0.0148
 1805TIP3    H126974   5.431   1.753   0.596  1.5390  0.3268 -1.9920
 1805TIP3    H226975   5.483   1.789   0.733 -0.9089  2.2516 -1.5032
 1806TIP3   OH226976   0.591   0.321   9.290 -0.2381  0.2061 -0.5242
 1806TIP3    H126977   0.656   0.251   9.280  1.1010  1.3758 -0.2863
 1806TIP3    H226978   0.620   0.389   9.230 -0.9969  0.9362 -0.0710
 1807TIP3   OH226979   2.483   0.678   1.792 -0.2370 -0.3110 -0.1862
 1807TIP3    H126980   2.482   0.585   1.815  0.5275 -0.2431  0.1516
 1807TIP3    H226981   2.559   0.714   1.839 -0.6631  0.5333 -0.1147
 1808TIP3   OH226982   3.867   0.708   1.555  0.2402 -0.3205  0.0909
 1808TIP3    H126983   3.862   0.688   1.462  1.6635 -1.8657  0.2873
 1808TIP3    H226984   3.785   0.753   1.575 -1.5089 -2.6221 -1.3134
 1809TIP3   OH226985   2.859   5.631   7.905  0.2261 -0.1531  0.0326
 1809TIP3    H126986   2.844   5.712   7.857  0.3513 -0.8756 -1.2536
 1809TIP3    H226987   2.771   5.596   7.921  0.0693  1.0384  2.0671
 1810TIP3   OH226988   4.746   2.809   1.823  0.1068  0.5006 -0.3187
 1810TIP3    H126989   4.658   2.806   1.861 -0.2229 -1.3054 -1.1389
 1810TIP3    H226990   4.732   2.836   1.733  0.2659 -0.7131 -0.7232
 1811TIP3   OH226991   4.714   2.139   0.919  0.0497 -0.3729  0.5335
 1811TIP3    H126992   4.654   2.159   0.848 -0.3169  0.9298  1.1822
 1811TIP3    H226993   4.795   2.186   0.897 -0.4548  1.0268  1.5262
 1812TIP3   OH226994   2.738   4.868   9.114 -0.2862  0.4051 -0.6153
 1812TIP3    H126995   2.816   4.876   9.169  0.6792  0.1704 -1.9159
 1812TIP3    H226996   2.671   4.919   9.161  0.2605 -0.4425  1.1691
 1813TIP3   OH226997   1.024   5.303   1.002  0.5059  0.3153 -0.5462
 1813TIP3    H126998   1.009   5.212   0.975  0.5657  0.5670 -1.4392
 1813TIP3    H226999   0.983   5.309   1.088  2.4327 -1.1795  0.5771
 1814TIP3   OH227000   6.295   5.066   7.224  0.1480 -0.0540 -0.0080
 1814TIP3    H127001   6.362   4.999   7.212 -0.6378 -0.5984 -1.6415
 1814TIP3    H227002   6.339   5.135   7.274  1.9368 -0.3978 -1.0301
 1815TIP3   OH227003   5.767   1.661   7.592 -0.3746 -0.0594 -0.3175
 1815TIP3    H127004   5.830   1.729   7.615  0.6237 -1.1086  0.1457
 1815TIP3    H227005   5.751   1.675   7.499 -1.1207  1.5315  0.0036
 1816TIP3   OH227006   3.623   0.646   8.289 -0.0943  0.4904 -0.6859
 1816TIP3    H127007   3.569   0.617   8.362  1.9448  0.0534  0.7587
 1816TIP3    H227008   3.602   0.586   8.218 -1.6232  0.4752 -0.2471
 1817TIP3   OH227009   6.328   4.771   8.460 -0.2249  1.4164 -0.5385
 1817TIP3    H127010   6.331   4.736   8.549 -1.0195  0.1973 -0.9657
 1817TIP3    H227011   6.237   4.759   8.432 -0.1127  2.2835 -1.3204
 1818TIP3   OH227012   2.720   4.736   8.631  0.1830 -0.1957  0.0246
 1818TIP3    H127013   2.624   4.731   8.626  0.1934 -0.6939  0.2884
 1818TIP3    H227014   2.750   4.704   8.546  0.0927  1.2411 -0.5841
 1819TIP3   OH227015   2.959   6.267   2.154  0.0277 -0.2746 -0.0777
 1819TIP3    H127016   2.911   6.309   2.226  0.2298  0.4222 -0.3448
 1819TIP3    H227017   3.040   6.318   2.147  0.4248 -0.9172 -0.1906
 1820TIP3   OH227018   4.279   4.424   9.114  0.1852  0.1129  0.4196
 1820TIP3    H127019   4.301   4.509   9.151 -1.5896  0.0291  1.7929
 1820TIP3    H227020   4.329   4.361   9.165  0.3806  0.2247  0.3684
 1821TIP3   OH227021   4.823   6.091   8.760 -0.1212  0.5617 -0.0713
 1821TIP3    H127022   4.857   6.100   8.849  0.7181  0.0591 -0.3252
 1821TIP3    H227023   4.881   6.146   8.707 -1.0963  1.4734 -0.2023
 1822TIP3   OH227024   0.985   4.588   0.185  0.2455  0.7497  0.4546
 1822TIP3    H127025   0.999   4.666   0.238  0.8369  0.9009  0.0895
 1822TIP3    H227026   0.997   4.617   0.095  5.3053 -0.5500  0.3849
 1823TIP3   OH227027   2.573   2.940   7.887  0.5411 -0.4573 -0.1569
 1823TIP3    H127028   2.655   2.931   7.937  2.3682  0.5106 -2.7707
 1823TIP3    H227029   2.505   2.918   7.950  2.8203 -2.0021  1.9819
 1824TIP3   OH227030   0.875   1.523   9.007  0.8216 -0.0864 -0.4730
 1824TIP3    H127031   0.910   1.459   8.945  1.7639  1.1354 -1.2300
 1824TIP3    H227032   0.918   1.605   8.985 -1.5032  1.2058 -0.5603
 1825TIP3   OH227033   5.222   4.758   0.019  0.2353 -0.5008 -0.3864
 1825TIP3    H127034   5.271   4.683  -0.015  0.1861 -1.2391  1.0899
 1825TIP3    H227035   5.130   4.737   0.002  0.2404 -0.6660 -0.2228
 1826TIP3   OH227036   4.157   3.710   7.133 -0.3132 -0.2829 -0.4496
 1826TIP3    H127037   4.085   3.647   7.135 -0.1042 -0.5368 -0.7808
 1826TIP3    H227038   4.137   3.766   7.058  0.1900 -0.7906 -0.9792
 1827TIP3   OH227039   3.529   5.327   0.166 -0.6266 -0.3785  0.1481
 1827TIP3    H127040   3.559   5.414   0.142 -1.8697 -0.8003 -3.4939
 1827TIP3    H227041   3.533   5.326   0.262 -0.1468  3.4687  0.3213
 1828TIP3   OH227042   5.799   3.124   1.130  0.2588  0.7086  0.1140
 1828TIP3    H127043   5.705   3.136   1.144 -0.0330  0.2449 -1.2851
 1828TIP3    H227044   5.810   3.030   1.119  0.4312  0.9436 -2.3789
 1829TIP3   OH227045   3.993   2.972   8.144 -0.6228  0.0673  0.0307
 1829TIP3    H127046   3.994   2.887   8.187 -1.0112  0.2280  0.3685
 1829TIP3    H227047   3.940   2.960   8.066  1.9546 -0.8188 -1.6896
 1830TIP3   OH227048   4.940   0.063   2.219 -0.4089  0.0428 -0.1091
 1830TIP3    H127049   5.036   0.070   2.226 -0.0120 -1.9447 -2.2457
 1830TIP3    H227050   4.909   0.154   2.227  1.5885  0.7071  0.9163
 1831TIP3   OH227051   2.886   5.300   0.885 -0.3574 -0.3516 -0.4137
 1831TIP3    H127052   2.923   5.358   0.952  1.0584 -0.9254 -0.6673
 1831TIP3    H227053   2.792   5.317   0.888 -0.1085  1.0302  0.3903
 1832TIP3   OH227054   5.346   1.681   1.617  0.1545 -0.0427  0.2096
 1832TIP3    H127055   5.304   1.598   1.594 -0.7054  0.5028 -0.2272
 1832TIP3    H227056   5.432   1.656   1.649 -0.2281 -1.1346  0.4236
 1833TIP3   OH227057   5.082   6.270   9.228  0.7226  0.5100 -0.1327
 1833TIP3    H127058   5.082   6.260   9.323 -0.8118 -0.2263 -0.1892
 1833TIP3    H227059   5.035   6.352   9.213 -0.2137 -0.0424 -0.2913
 1834TIP3   OH227060   4.202   0.772   8.731  0.6943 -0.0772  0.5383
 1834TIP3    H127061   4.121   0.775   8.680 -0.5652 -0.7590  2.3944
 1834TIP3    H227062   4.256   0.842   8.695  0.1921 -0.9668 -2.1785
 1835TIP3   OH227063   3.245   1.922   8.931  0.4206 -0.0946  0.5109
 1835TIP3    H127064   3.216   1.840   8.970 -1.6928  0.9296  1.2084
 1835TIP3    H227065   3.200   1.926   8.847  0.2327  0.4984  0.6329
 1836TIP3   OH227066   1.457   1.791   8.330  0.5226 -0.2305  0.2130
 1836TIP3    H127067   1.377   1.744   8.354  1.7441 -2.0900  0.8707
 1836TIP3    H227068   1.508   1.795   8.412  1.0780  1.0276 -0.1595
 1837TIP3   OH227069   3.951   3.623   6.990  0.0941  0.1220 -0.0977
 1837TIP3    H127070   3.863   3.660   7.002 -0.0854  0.3688 -1.8537
 1837TIP3    H227071   3.969   3.635   6.897  1.5846 -0.8616  0.0326
 1838TIP3   OH227072   4.812   4.311   8.236 -0.3665 -0.1452  0.3319
 1838TIP3    H127073   4.822   4.274   8.148  1.4091 -0.4368  0.6192
 1838TIP3    H227074   4.835   4.403   8.226 -1.1239  0.0525  0.3268
 1839TIP3   OH227075   2.476   5.508   8.212  0.3734  0.4131 -0.4260
 1839TIP3    H127076   2.484   5.554   8.296 -0.8085  0.0874 -0.1170
 1839TIP3    H227077   2.382   5.503   8.197  0.5882  1.1836 -2.1852
 1840TIP3   OH227078   5.037   5.450   8.947  0.0820 -0.2901  0.2342
 1840TIP3    H127079   5.040   5.541   8.977  0.7704 -0.6986  1.4986
 1840TIP3    H227080   5.113   5.440   8.889  0.4601 -0.2498  0.7153
 1841TIP3   OH227081   2.281   1.063   1.418 -0.6273  0.3495  0.3602
 1841TIP3    H127082   2.346   1.124   1.453 -0.0262 -0.3107  0.4038
 1841TIP3    H227083   2.197   1.101   1.445 -0.2108 -0.5151  3.2728
 1842TIP3   OH227084   4.476   1.598   7.281  0.3605  0.8394  0.0929
 1842TIP3    H127085   4.567   1.572   7.297  0.3400 -0.4705 -1.6430
 1842TIP3    H227086   4.450   1.548   7.204 -1.4156  2.2195 -0.2713
 1843TIP3   OH227087   2.083   3.700   0.126 -0.4007  0.3214 -0.1128
 1843TIP3    H127088   2.113   3.660   0.045 -0.2989 -1.7811  0.8814
 1843TIP3    H227089   1.989   3.683   0.127 -0.3696  0.1587  0.2785
 1844TIP3   OH227090   1.190   5.437   0.824  0.4951  0.0338 -0.3107
 1844TIP3    H127091   1.267   5.383   0.808  1.4933  0.9229  1.2434
 1844TIP3    H227092   1.139   5.388   0.889 -0.8166 -1.0131 -2.0190
 1845TIP3   OH227093   4.716   3.987   1.295 -0.1572 -0.4747  0.4725
 1845TIP3    H127094   4.693   3.929   1.222 -0.1999  0.0244  0.0835
 1845TIP3    H227095   4.795   3.948   1.333 -0.0673 -0.6735  0.0858
 1846TIP3   OH227096   4.054   2.145   8.895 -0.3900 -0.2323 -0.2389
 1846TIP3    H127097   4.136   2.191   8.911 -1.5073  1.2617  1.5806
 1846TIP3    H227098   4.003   2.156   8.975 -2.2595 -1.3880 -1.1677
 1847TIP3   OH227099   1.308   0.540   1.082 -0.0662  0.2304  0.3247
 1847TIP3    H127100   1.392   0.584   1.071 -0.3280  1.0028  1.3000
 1847TIP3    H227101   1.304   0.517   1.175  0.8036 -3.4405 -0.3905
 1848TIP3   OH227102   1.933   2.029   7.819  0.1418  0.2649  0.3830
 1848TIP3    H127103   1.945   2.123   7.809  0.1205  0.1890 -0.3664
 1848TIP3    H227104   1.839   2.015   7.812  0.1693  0.1545  0.2279
 1849TIP3   OH227105   3.945   3.423   1.840 -0.7622  0.4641  0.2483
 1849TIP3    H127106   3.969   3.354   1.778 -0.6521  1.3210 -0.7024
 1849TIP3    H227107   3.939   3.379   1.925  0.5091 -0.4811 -0.1251
 1850TIP3   OH227108   0.425   5.228   9.051  0.3922  0.1031  0.0448
 1850TIP3    H127109   0.448   5.159   9.114 -0.3575  0.9340  1.2859
 1850TIP3    H227110   0.375   5.291   9.103 -0.3236  0.7870 -1.4306
 1851TIP3   OH227111   6.118   4.449   0.343  0.7144  0.0735  0.1890
 1851TIP3    H127112   6.159   4.510   0.405  1.1767 -0.4657  0.4277
 1851TIP3    H227113   6.183   4.381   0.330  1.2093  0.9039 -2.0429
 1852TIP3   OH227114   4.495   2.964   7.636 -0.5252  0.1798 -0.4652
 1852TIP3    H127115   4.406   2.959   7.670  0.6790 -1.6107  2.9035
 1852TIP3    H227116   4.518   2.874   7.613  1.0865  0.1649  0.9440
 1853TIP3   OH227117   4.202   4.690   9.586 -0.3162  0.0214  0.1710
 1853TIP3    H127118   4.223   4.784   9.583  4.8673 -0.8213  1.1775
 1853TIP3    H227119   4.239   4.655   9.505 -0.5260 -1.3705  0.6570
 1854TIP3   OH227120   3.375   5.984   8.875  0.1746  0.5323  0.1594
 1854TIP3    H127121   3.462   5.988   8.913 -0.2862  3.3302  1.1138
 1854TIP3    H227122   3.317   6.023   8.940 -1.7080 -0.4666 -0.7990
 1855TIP3   OH227123   2.006   1.384   8.352  0.0066  0.7948 -0.2895
 1855TIP3    H127124   1.982   1.472   8.325  0.0417  0.4224 -1.5646
 1855TIP3    H227125   1.949   1.366   8.427 -1.0254  1.3476 -0.9248
 1856TIP3   OH227126   2.333   0.735   0.277  0.4991  0.0023 -0.2029
 1856TIP3    H127127   2.363   0.810   0.226  1.7518 -0.7351 -0.6215
 1856TIP3    H227128   2.240   0.727   0.257 -0.3291  2.9062  1.7699
 1857TIP3   OH227129   4.925   4.871   8.128  0.4370 -0.1831 -0.2446
 1857TIP3    H127130   4.843   4.920   8.129  1.2856  1.3685 -2.0389
 1857TIP3    H227131   4.994   4.937   8.130  1.6674 -1.4277  0.5516
 1858TIP3   OH227132   3.142   0.266   1.590 -0.4255  0.2744  0.2042
 1858TIP3    H127133   3.117   0.349   1.628 -0.2954  1.2749 -1.7765
 1858TIP3    H227134   3.102   0.266   1.503 -0.4952 -1.7779  0.1851
 1859TIP3   OH227135   3.457   4.943   2.155  0.6531 -0.4064  0.1517
 1859TIP3    H127136   3.462   4.940   2.060 -1.6452  0.5474 -0.0695
 1859TIP3    H227137   3.547   4.952   2.184  1.3133  0.3251 -1.9730
 1860TIP3   OH227138   6.475   4.617   7.084  0.4212  0.2904  0.5570
 1860TIP3    H127139   6.433   4.536   7.113 -2.4491  1.0977 -1.0112
 1860TIP3    H227140   6.502   4.599   6.994  1.2001  0.6057  0.7190
 1861TIP3   OH227141   3.900   2.455   8.325 -0.3826 -0.1278 -0.3517
 1861TIP3    H127142   3.926   2.381   8.271  0.5160  0.4271 -0.6946
 1861TIP3    H227143   3.965   2.523   8.307 -0.9602  0.6121  0.2534
 1862TIP3   OH227144   3.841   2.648   7.857 -0.0131 -0.0227  0.4193
 1862TIP3    H127145   3.807   2.662   7.769  0.3607  0.8989  0.4099
 1862TIP3    H227146   3.855   2.554   7.862 -1.4610 -0.2755  0.0335
 1863TIP3   OH227147   1.186   5.567   0.103  0.4024  0.2168  0.3984
 1863TIP3    H127148   1.121   5.612   0.157  1.7440  4.4405 -1.1005
 1863TIP3    H227149   1.262   5.556   0.161 -0.2404 -1.0718  1.0326
 1864TIP3   OH227150   5.530   4.147   9.520  0.2852 -0.1030 -0.7141
 1864TIP3    H127151   5.614   4.193   9.523 -0.5740  1.5007  0.5084
 1864TIP3    H227152   5.467   4.212   9.552 -1.1399 -1.8666  0.2095
 1865TIP3   OH227153   0.198   1.951   0.222 -0.3695 -0.4281 -0.2424
 1865TIP3    H127154   0.200   1.903   0.139  0.2849 -0.3869 -0.2625
 1865TIP3    H227155   0.264   2.020   0.211  0.3743 -0.9667  0.6171
 1866TIP3   OH227156   0.906   4.877   2.567 -0.0281  0.0075  0.8656
 1866TIP3    H127157   0.831   4.936   2.564 -0.5850 -0.7111 -0.2223
 1866TIP3    H227158   0.977   4.929   2.603  0.0555  1.9687 -1.8972
 1867TIP3   OH227159   0.296   3.281   0.896  0.3061  0.2160 -0.7826
 1867TIP3    H127160   0.207   3.301   0.868  0.5814 -0.0733 -1.8817
 1867TIP3    H227161   0.322   3.205   0.845 -0.5155 -2.8741  2.9138
 1868TIP3   OH227162   5.106   0.642   0.968  0.4845  0.2539 -0.7163
 1868TIP3    H127163   5.114   0.704   1.040  0.8122  0.1956 -0.7009
 1868TIP3    H227164   5.194   0.607   0.957  0.2009 -0.5601 -0.4159
 1869TIP3   OH227165   3.348   2.333   2.049  0.1420  0.3307  0.2277
 1869TIP3    H127166   3.328   2.396   1.980  2.5224 -0.1704 -1.0152
 1869TIP3    H227167   3.269   2.279   2.055 -0.8392  1.5689 -0.7234
 1870TIP3   OH227168   4.845   0.138   1.523  0.0300  0.6412 -0.7489
 1870TIP3    H127169   4.808   0.195   1.455 -0.4437  0.8593 -0.3163
 1870TIP3    H227170   4.913   0.089   1.478  1.8330  2.9286 -0.7226
 1871TIP3   OH227171   4.111   0.878   0.596  0.5722  0.2915 -0.9053
 1871TIP3    H127172   4.136   0.928   0.518  0.7419  0.4606 -0.7439
 1871TIP3    H227173   4.088   0.945   0.660 -0.2276  0.1381 -1.0276
 1872TIP3   OH227174   4.775   3.456   9.169 -0.3285 -0.1313  0.0888
 1872TIP3    H127175   4.680   3.464   9.174 -0.2966  0.2123  0.1981
 1872TIP3    H227176   4.806   3.487   9.254 -0.1238 -0.3068  0.0782
 1873TIP3   OH227177   1.443   5.710   1.182  0.5378 -0.0192 -0.6431
 1873TIP3    H127178   1.476   5.791   1.221 -0.4957 -0.5499  1.4816
 1873TIP3    H227179   1.521   5.665   1.152  1.2405  1.1973 -0.7278
 1874TIP3   OH227180   2.695   0.548   7.458  0.2068 -0.7989 -0.6294
 1874TIP3    H127181   2.685   0.501   7.375 -0.4820  0.1339 -1.0788
 1874TIP3    H227182   2.787   0.534   7.481  0.4992 -0.7834 -1.7198
 1875TIP3   OH227183   1.690   4.305   1.568  0.2358  0.2216  0.2059
 1875TIP3    H127184   1.620   4.244   1.592 -0.6209  0.7575 -0.8371
 1875TIP3    H227185   1.644   4.387   1.550  0.9450  0.2293 -1.8161
 1876TIP3   OH227186   0.198   0.999   2.647 -0.1616 -0.4656 -0.0559
 1876TIP3    H127187   0.171   1.089   2.668  0.1073 -0.0495 -1.3982
 1876TIP3    H227188   0.152   0.979   2.565 -0.1734 -1.5398  0.1989
 1877TIP3   OH227189   4.746   6.403   9.022 -0.0311 -0.2208  0.4302
 1877TIP3    H127190   4.695   6.336   8.977  0.5144  0.4264 -1.2119
 1877TIP3    H227191   4.730   6.483   8.972  2.3708  0.0555  0.0096
 1878TIP3   OH227192   4.395   6.442   0.727  0.1864 -0.5306  0.2329
 1878TIP3    H127193   4.427   6.368   0.778 -0.9773 -0.7788  0.6352
 1878TIP3    H227194   4.447   6.440   0.646  2.3074  0.0844  1.5089
 1879TIP3   OH227195   0.692   3.169   1.583  0.1602 -0.5341  0.2238
 1879TIP3    H127196   0.731   3.106   1.522  0.9739  0.8708 -0.7603
 1879TIP3    H227197   0.749   3.246   1.577 -1.1982  0.5533  0.8693
 1880TIP3   OH227198   3.725   2.296   0.517  0.0858 -0.3993  0.8318
 1880TIP3    H127199   3.713   2.270   0.426 -0.3753 -0.2442  0.8468
 1880TIP3    H227200   3.654   2.358   0.534  0.9897  0.6501  0.8852
 1881TIP3   OH227201   3.191   1.520   9.355 -0.0887  0.1310 -0.5714
 1881TIP3    H127202   3.281   1.531   9.326  0.4040 -1.8126  0.0224
 1881TIP3    H227203   3.185   1.571   9.436  0.3289  0.6315 -0.8496
 1882TIP3   OH227204   1.843   5.796   0.242 -0.5579 -0.3237 -0.0873
 1882TIP3    H127205   1.898   5.832   0.312  0.3768  0.7714 -1.3148
 1882TIP3    H227206   1.881   5.710   0.224 -3.2372 -2.4764  3.3469
 1883TIP3   OH227207   3.775   6.248   8.205 -0.0818 -0.2089 -0.2656
 1883TIP3    H127208   3.830   6.322   8.180  1.4800 -1.3837 -0.4503
 1883TIP3    H227209   3.685   6.278   8.188  0.6145  0.8409 -2.5012
 1884TIP3   OH227210   1.566   5.856   0.156  0.3976  0.0309  0.1432
 1884TIP3    H127211   1.591   5.849   0.248  1.1540 -1.7565 -0.1482
 1884TIP3    H227212   1.620   5.790   0.112 -0.2432  0.5752 -1.5186
 1885TIP3   OH227213   5.307   5.035   9.055 -0.7750  0.0877 -0.0012
 1885TIP3    H127214   5.375   5.097   9.082 -0.6552 -0.9422  2.2922
 1885TIP3    H227215   5.231   5.089   9.036 -0.5906  0.9733  1.6772
 1886TIP3   OH227216   5.894   3.914   0.722  0.4494  0.1919 -0.2030
 1886TIP3    H127217   5.908   4.005   0.749 -0.4815  0.7267 -1.3986
 1886TIP3    H227218   5.879   3.867   0.804  2.4502  0.7922  0.5737
 1887TIP3   OH227219   5.699   4.237   7.621  0.0231  0.0109  0.5866
 1887TIP3    H127220   5.778   4.184   7.631  0.2314  0.2085  0.0398
 1887TIP3    H227221   5.635   4.197   7.680 -0.5378 -2.2675 -1.4022
 1888TIP3   OH227222   1.538   1.606   9.199 -0.6097  0.2578 -0.5178
 1888TIP3    H127223   1.523   1.679   9.259 -1.4562  0.1226 -0.5531
 1888TIP3    H227224   1.466   1.612   9.135 -1.7340 -1.6059  0.4813
 1889TIP3   OH227225   1.092   2.429   0.330  0.2693  0.4784 -0.1828
 1889TIP3    H127226   1.160   2.420   0.263 -0.5424 -0.2755 -0.9372
 1889TIP3    H227227   1.120   2.370   0.400 -1.4776 -3.0050 -2.1470
 1890TIP3   OH227228   3.500   0.668   1.355  0.2905 -0.2716 -0.6696
 1890TIP3    H127229   3.462   0.716   1.281  0.3057 -1.2134 -1.3048
 1890TIP3    H227230   3.550   0.597   1.314 -1.7826 -2.3896  0.2955
 1891TIP3   OH227231   2.172   0.084   0.283  0.0391  0.0447 -0.8064
 1891TIP3    H127232   2.093   0.042   0.248 -1.2019  1.9962 -0.4953
 1891TIP3    H227233   2.226   0.101   0.206 -0.5187  0.0155 -1.2117
 1892TIP3   OH227234   1.582   5.782   8.572  0.1463 -0.6098  0.4645
 1892TIP3    H127235   1.594   5.851   8.638 -0.6691  0.0262 -0.0401
 1892TIP3    H227236   1.498   5.742   8.594  0.4252 -1.1885  0.5087
 1893TIP3   OH227237   2.155   6.058   9.288 -0.3884  0.1124 -0.4359
 1893TIP3    H127238   2.203   5.976   9.299 -0.2438  0.1873 -0.5003
 1893TIP3    H227239   2.063   6.032   9.282 -0.4629  0.0506  0.8020
 1894TIP3   OH227240   1.890   1.605   0.452 -0.0175  0.4235  0.4812
 1894TIP3    H127241   1.924   1.516   0.459  0.4695  0.6104  0.5616
 1894TIP3    H227242   1.915   1.634   0.365 -1.5109 -0.0468 -0.1356
 1895TIP3   OH227243   2.968   1.633   9.198  0.0802  0.3907  0.0095
 1895TIP3    H127244   3.035   1.596   9.256  1.1832  3.8236  1.1613
 1895TIP3    H227245   3.005   1.627   9.110 -0.6069 -2.7291 -0.1893
 1896TIP3   OH227246   2.780   0.936   0.746 -0.0958  0.1249 -0.8036
 1896TIP3    H127247   2.854   0.888   0.710 -0.0215  0.7580 -1.5289
 1896TIP3    H227248   2.738   0.875   0.806  2.1458  0.3747  1.1837
 1897TIP3   OH227249   4.035   0.460   8.168 -0.5100  0.3468 -0.8963
 1897TIP3    H127250   4.028   0.458   8.072  0.3381 -1.3317 -0.9504
 1897TIP3    H227251   4.023   0.369   8.195  2.0107  0.3130  0.3629
 1898TIP3   OH227252   4.409   4.705   9.209  0.2039  0.2997 -0.2171
 1898TIP3    H127253   4.411   4.650   9.287  1.6880 -0.7496 -0.9329
 1898TIP3    H227254   4.496   4.744   9.205  0.3571 -0.1262 -1.6311
 1899TIP3   OH227255   1.185   4.758   1.048  0.3185  0.7187 -0.1391
 1899TIP3    H127256   1.184   4.843   1.005 -1.6278  2.5624  3.0676
 1899TIP3    H227257   1.124   4.768   1.121  1.3501 -2.9053  1.4647
 1900TIP3   OH227258   1.443   0.221   1.330  0.0810  0.2655 -0.0390
 1900TIP3    H127259   1.488   0.143   1.299  0.0351  0.8196 -1.6109
 1900TIP3    H227260   1.385   0.190   1.399  0.1282 -1.0811 -0.5725
 1901TIP3   OH227261   3.324   3.406   2.636 -0.2139  0.0403  0.5212
 1901TIP3    H127262   3.284   3.489   2.610  0.4503 -0.0418 -0.8160
 1901TIP3    H227263   3.416   3.426   2.649 -0.0608 -0.4774  0.2546
 1902TIP3   OH227264   5.929   2.572   7.363  0.1007 -0.0524  0.1219
 1902TIP3    H127265   6.001   2.546   7.306  0.8445 -0.1092  1.0648
 1902TIP3    H227266   5.931   2.668   7.360  0.1627 -0.0548  0.0759
 1903TIP3   OH227267   6.347   6.192   6.972  0.3053 -0.2394  0.5376
 1903TIP3    H127268   6.277   6.126   6.977 -0.9072  0.7222 -2.0280
 1903TIP3    H227269   6.301   6.276   6.975  1.3222  0.4214 -1.2655
 1904TIP3   OH227270   4.986   5.161   0.518 -0.1799  0.3260 -0.4839
 1904TIP3    H127271   4.988   5.094   0.587 -1.8087  0.3428 -0.3856
 1904TIP3    H227272   4.984   5.111   0.436  0.4929  0.2937 -0.4880
 1905TIP3   OH227273   1.643   0.593   0.854 -0.7821  0.3063  0.4535
 1905TIP3    H127274   1.653   0.564   0.763  1.1513  1.6157  0.1863
 1905TIP3    H227275   1.691   0.675   0.858 -1.8618  0.9033  2.3984
 1906TIP3   OH227276   1.387   5.119   7.867  0.0108  0.3330  0.1673
 1906TIP3    H127277   1.347   5.061   7.803  0.2463  0.4655 -0.0981
 1906TIP3    H227278   1.463   5.156   7.823  0.6643 -0.2091  0.7884
 1907TIP3   OH227279   3.914   2.308   0.032 -0.4238 -0.3719  0.1273
 1907TIP3    H127280   3.887   2.400   0.036  0.8951  0.0054  2.0749
 1907TIP3    H227281   4.002   2.311  -0.007 -0.6529 -0.9084 -0.4547
 1908TIP3   OH227282   4.747   4.886   1.438  0.7231  0.5146  0.2654
 1908TIP3    H127283   4.826   4.848   1.476  1.7190  2.2371  0.0343
 1908TIP3    H227284   4.770   4.904   1.346  0.1780  1.2638  0.2590
 1909TIP3   OH227285   3.091   1.122   7.459 -0.1514  0.2484  0.1301
 1909TIP3    H127286   3.044   1.098   7.539 -1.3755  0.5975 -0.4683
 1909TIP3    H227287   3.172   1.071   7.463 -1.3002 -1.6397  0.3917
 1910TIP3   OH227288   5.214   2.247   0.652 -0.0820 -0.3990 -0.3479
 1910TIP3    H127289   5.307   2.226   0.638  0.3175  1.8813 -1.6044
 1910TIP3    H227290   5.177   2.254   0.564 -1.2061 -0.3135  0.1154
 1911TIP3   OH227291   2.398   5.635   8.454 -0.1183  0.4854 -0.5417
 1911TIP3    H127292   2.376   5.606   8.543 -2.1739  1.5702 -0.6445
 1911TIP3    H227293   2.472   5.695   8.467  0.6520 -0.5808  0.2310
 1912TIP3   OH227294   1.024   5.950   1.301  0.0581  0.5114  0.0161
 1912TIP3    H127295   1.088   5.959   1.231  0.4806  1.0675  0.4612
 1912TIP3    H227296   0.982   6.036   1.307 -0.8668  0.0961 -0.3945
 1913TIP3   OH227297   2.483   1.298   7.076  0.4045  0.3526 -0.2935
 1913TIP3    H127298   2.469   1.310   7.170  0.6071 -0.3104 -0.1745
 1913TIP3    H227299   2.421   1.230   7.051  1.5181 -0.6923 -0.2941
 1914TIP3   OH227300   5.624   3.732   1.144 -0.3137 -0.4090  0.0842
 1914TIP3    H127301   5.545   3.773   1.179  0.2021 -0.6610  1.6207
 1914TIP3    H227302   5.694   3.795   1.162 -0.3220  0.4783 -2.5698
 1915TIP3   OH227303   2.118   2.458   9.166  0.5240 -0.4357 -0.7732
 1915TIP3    H127304   2.096   2.499   9.082  1.9894  1.1183 -0.4581
 1915TIP3    H227305   2.065   2.506   9.230  0.1481 -0.9552 -0.6887
 1916TIP3   OH227306   4.729   5.374   8.513 -0.4685  0.0898 -0.1449
 1916TIP3    H127307   4.649   5.373   8.461  0.1019  1.1226 -1.0743
 1916TIP3    H227308   4.723   5.454   8.566 -0.5258 -0.3765  0.5761
 1917TIP3   OH227309   4.822   1.804   8.170  0.3025 -0.1533 -0.5329
 1917TIP3    H127310   4.873   1.786   8.248  1.0508  1.7545 -0.5341
 1917TIP3    H227311   4.887   1.816   8.101 -0.1573  1.4427 -0.7213
 1918TIP3   OH227312   5.861   5.733   0.139 -0.1000  0.2937  0.4977
 1918TIP3    H127313   5.771   5.700   0.132  0.8260 -2.2130 -0.9597
 1918TIP3    H227314   5.905   5.670   0.196  1.2651  0.1374 -0.6666
 1919TIP3   OH227315   4.229   3.337   9.090 -0.0385 -0.7866  0.2216
 1919TIP3    H127316   4.213   3.378   9.175 -1.0578  1.8640 -1.1177
 1919TIP3    H227317   4.324   3.327   9.085  0.2710  1.4208  0.6976
 1920TIP3   OH227318   1.231   4.193   1.010 -0.7602  0.0916  0.1234
 1920TIP3    H127319   1.267   4.281   1.022  0.8230 -0.5994  0.6728
 1920TIP3    H227320   1.244   4.175   0.916  2.0964 -0.8170  0.5932
 1921TIP3   OH227321   0.375   4.125   0.960  0.3653 -0.5474  0.6005
 1921TIP3    H127322   0.352   4.194   0.898 -0.7683 -2.2983 -1.0026
 1921TIP3    H227323   0.471   4.122   0.958  0.5298  1.8081  1.7100
 1922TIP3   OH227324   0.509   0.574   1.172 -0.0138 -1.0807  0.4909
 1922TIP3    H127325   0.427   0.561   1.124  0.5577 -1.6323 -0.3541
 1922TIP3    H227326   0.572   0.517   1.129  0.4098 -2.0069  2.2190
 1923TIP3   OH227327   1.118   4.304   0.030  0.0241 -0.0970  0.1641
 1923TIP3    H127328   1.170   4.224   0.020 -0.8533 -0.5616 -0.9741
 1923TIP3    H227329   1.150   4.362  -0.039 -0.7586 -0.2891 -0.3759
 1924TIP3   OH227330   0.038   6.095   1.172 -0.4303 -0.1869  0.4173
 1924TIP3    H127331   0.090   6.161   1.217  0.1130 -1.4255  1.6471
 1924TIP3    H227332   0.013   6.137   1.089 -0.6234  1.7750  1.4136
 1925TIP3   OH227333   1.072   2.520   7.786  0.4614  0.4465  0.7179
 1925TIP3    H127334   1.105   2.481   7.705  0.8564 -0.6303  1.3766
 1925TIP3    H227335   1.104   2.610   7.784  0.4952  0.4276 -0.2951
 1926TIP3   OH227336   2.418   1.715   2.039 -0.1364 -0.1145 -0.5406
 1926TIP3    H127337   2.380   1.756   2.117  0.7157 -0.4982  0.0909
 1926TIP3    H227338   2.344   1.707   1.978 -1.1352 -1.0486  0.7325
 1927TIP3   OH227339   0.238   1.600   0.964 -0.0491 -0.2846  0.6365
 1927TIP3    H127340   0.283   1.653   0.898 -0.3134 -0.7459  0.0744
 1927TIP3    H227341   0.305   1.540   0.997  0.0533 -0.1358  0.7007
 1928TIP3   OH227342   0.773   4.698   2.348 -0.2605 -0.0571  0.1499
 1928TIP3    H127343   0.722   4.779   2.339  0.0870  0.1909  0.3868
 1928TIP3    H227344   0.833   4.716   2.420  0.3908 -0.2278 -0.3446
 1929TIP3   OH227345   1.902   5.234   0.444 -0.5929  0.1942 -0.4343
 1929TIP3    H127346   1.937   5.234   0.533 -1.2785 -0.6985 -0.1503
 1929TIP3    H227347   1.807   5.244   0.456 -0.5725  1.3492 -1.1283
 1930TIP3   OH227348   0.654   1.482   8.810  0.1883 -0.0837  0.5224
 1930TIP3    H127349   0.618   1.569   8.828  2.3629  0.8774  0.4589
 1930TIP3    H227350   0.718   1.466   8.879  0.4442 -1.2708  0.0513
 1931TIP3   OH227351   6.055   4.600   8.609 -0.4757 -0.1087  0.1468
 1931TIP3    H127352   6.068   4.510   8.582  0.4239  0.2437 -0.6278
 1931TIP3    H227353   5.959   4.611   8.609 -0.6803 -1.5396  1.9510
 1932TIP3   OH227354   1.336   1.090   8.104 -0.0682 -0.3421  0.2335
 1932TIP3    H127355   1.345   1.046   8.019  1.3297  0.3197  0.0005
 1932TIP3    H227356   1.384   1.034   8.165 -1.0056 -0.7756  0.5918
 1933TIP3   OH227357   6.356   3.368   8.499  0.1008  0.0055  0.1319
 1933TIP3    H127358   6.275   3.317   8.500 -0.5269  0.9975  0.3205
 1933TIP3    H227359   6.348   3.424   8.421  0.8863 -0.3274 -0.2014
 1934TIP3   OH227360   5.717   3.302   0.384  0.1500 -0.0860  0.5355
 1934TIP3    H127361   5.760   3.219   0.365 -1.0379 -0.9128  1.2709
 1934TIP3    H227362   5.650   3.310   0.316 -0.2182 -0.1134  0.8888
 1935TIP3   OH227363   0.461   1.853   9.485 -0.7376 -0.1105  0.4820
 1935TIP3    H127364   0.524   1.782   9.502  0.8870  1.1567  0.0097
 1935TIP3    H227365   0.437   1.842   9.393 -0.1674  0.1916  0.2956
 1936TIP3   OH227366   4.721   5.087   8.995 -0.3442  0.3383  0.3771
 1936TIP3    H127367   4.733   5.175   8.961 -0.2648  0.3202  0.3586
 1936TIP3    H227368   4.795   5.037   8.961  0.2383  0.5332  1.3131
 1937TIP3   OH227369   3.963   1.864   8.401 -0.0145 -0.0282 -0.4332
 1937TIP3    H127370   3.996   1.935   8.346  0.1869 -0.6755 -1.1532
 1937TIP3    H227371   3.916   1.909   8.472  0.0391  0.8184 -0.9217
 1938TIP3   OH227372   2.735   3.034   2.546 -0.4865 -0.0320 -0.3415
 1938TIP3    H127373   2.810   3.051   2.603 -1.0457 -0.0469  0.4200
 1938TIP3    H227374   2.742   3.100   2.477  1.0124 -0.9457 -1.0909
 1939TIP3   OH227375   6.134   3.707   2.092 -0.3767  0.1760 -0.7303
 1939TIP3    H127376   6.040   3.706   2.073 -0.9144  2.4036  1.3223
 1939TIP3    H227377   6.144   3.771   2.163  2.2570 -2.2961  1.4246
 1940TIP3   OH227378   1.432   6.405   2.860  0.1603 -0.5453 -0.8869
 1940TIP3    H127379   1.439   6.316   2.893  1.1344 -0.4761 -0.8841
 1940TIP3    H227380   1.516   6.422   2.818  1.8038  1.8696  2.8606
 1941TIP3   OH227381   1.817   2.360   8.364 -0.1636 -0.2455  0.2449
 1941TIP3    H127382   1.852   2.438   8.321 -1.6845 -0.8374 -2.2812
 1941TIP3    H227383   1.881   2.291   8.345 -0.8496 -0.5145 -1.2217
 1942TIP3   OH227384   3.419   1.796   9.250  0.2983  0.5243 -0.3475
 1942TIP3    H127385   3.427   1.701   9.255  0.9201  0.1787 -4.6107
 1942TIP3    H227386   3.509   1.828   9.254  0.1969  0.8129 -0.3618
 1943TIP3   OH227387   1.150   2.231   1.419 -0.5969 -0.4943  0.3731
 1943TIP3    H127388   1.222   2.285   1.450 -0.2472  0.0273 -1.2463
 1943TIP3    H227389   1.081   2.241   1.484 -0.2575  1.3137  0.4834
 1944TIP3   OH227390   4.470   4.891   7.215 -0.0275 -0.0271 -0.0267
 1944TIP3    H127391   4.532   4.886   7.142 -1.2952  1.3529 -1.2782
 1944TIP3    H227392   4.395   4.839   7.186 -0.9163  1.2588 -0.1725
 1945TIP3   OH227393   4.198   4.466   1.490  0.0095  0.0207  0.1439
 1945TIP3    H127394   4.251   4.510   1.556 -0.2577  2.2741 -1.0131
 1945TIP3    H227395   4.243   4.485   1.407 -1.4160  0.1334 -0.6352
 1946TIP3   OH227396   1.994   2.323   7.455 -0.1491  0.2475 -0.6052
 1946TIP3    H127397   2.056   2.396   7.456 -1.3639  1.3140  0.0314
 1946TIP3    H227398   1.912   2.360   7.490 -0.6545 -1.5489  0.2518
 1947TIP3   OH227399   3.803   0.085   1.426  0.1551  0.3742  0.3035
 1947TIP3    H127400   3.714   0.106   1.396  0.4701 -0.7298 -1.5224
 1947TIP3    H227401   3.797   0.086   1.521 -2.0763 -0.6760  0.2273
 1948TIP3   OH227402   6.303   2.989   8.722 -0.0674 -0.2795 -0.4301
 1948TIP3    H127403   6.337   3.069   8.763 -0.4935 -0.3752  0.1092
 1948TIP3    H227404   6.374   2.925   8.732 -0.0254 -0.1929 -0.1780
 1949TIP3   OH227405   3.568   0.820   2.010  0.3005  0.4742  0.1762
 1949TIP3    H127406   3.594   0.894   2.065 -0.1552  0.1014  0.9054
 1949TIP3    H227407   3.615   0.833   1.928  1.4984  0.6861  0.8802
 1950TIP3   OH227408   3.086   3.705   0.411  0.5501 -0.6935  0.5440
 1950TIP3    H127409   3.059   3.632   0.466 -1.5834 -0.5508 -0.1980
 1950TIP3    H227410   3.160   3.744   0.457  1.9326 -3.4104  0.8316
 1951TIP3   OH227411   6.344   0.504   7.845  0.2062  0.1508 -0.4016
 1951TIP3    H127412   6.418   0.518   7.785 -1.4760  1.3071 -2.3223
 1951TIP3    H227413   6.306   0.591   7.856 -1.6087 -0.6092 -0.4852
 1952TIP3   OH227414   6.269   3.062   0.150  0.0410  0.1845  0.2938
 1952TIP3    H127415   6.272   3.012   0.232  0.2745 -1.1302 -0.4802
 1952TIP3    H227416   6.176   3.075   0.134 -0.0881 -1.1323 -0.1283
 1953TIP3   OH227417   0.953   2.423   7.044 -0.7214  0.0223 -0.3762
 1953TIP3    H127418   0.889   2.415   6.973 -0.8950  1.4710 -0.4108
 1953TIP3    H227419   0.905   2.397   7.123 -1.3425  1.0114 -0.4165
 1954TIP3   OH227420   2.785   1.242   9.364  0.0473  0.4989 -0.0099
 1954TIP3    H127421   2.799   1.238   9.269 -3.9035  1.0844 -0.7932
 1954TIP3    H227422   2.767   1.334   9.382 -0.8569  0.1581  0.9734
 1955TIP3   OH227423   6.161   3.303   7.802 -0.0974  0.5244  0.0243
 1955TIP3    H127424   6.178   3.274   7.891 -0.3726  1.9060  0.5532
 1955TIP3    H227425   6.071   3.335   7.803  0.0261  0.9124 -0.6513
 1956TIP3   OH227426   1.408   1.831   1.519  0.6343  0.0958  0.0065
 1956TIP3    H127427   1.481   1.784   1.558 -0.4191 -1.5122  0.1387
 1956TIP3    H227428   1.366   1.876   1.592  0.9384  0.2709  0.0763
 1957TIP3   OH227429   4.935   5.581   8.194  0.4359  0.4162  0.3296
 1957TIP3    H127430   4.975   5.574   8.108  0.2320 -0.0047  0.2612
 1957TIP3    H227431   4.986   5.521   8.249  1.1579  1.3836  0.7405
 1958TIP3   OH227432   5.027   0.604   7.693  0.7028 -0.3693  0.2008
 1958TIP3    H127433   4.993   0.544   7.626  1.1367  1.1106 -1.3994
 1958TIP3    H227434   5.120   0.612   7.673  0.8579  0.0442  1.0400
 1959TIP3   OH227435   2.183   0.089   8.364  0.0053 -0.5783 -0.1110
 1959TIP3    H127436   2.101   0.139   8.373  0.2981  0.0039 -0.5722
 1959TIP3    H227437   2.191   0.041   8.446  1.4136  2.6919  1.8763
 1960TIP3   OH227438   2.424   4.943   0.084  0.0089 -0.2248 -0.0673
 1960TIP3    H127439   2.422   4.926  -0.010  1.5702  0.7573 -0.3066
 1960TIP3    H227440   2.504   4.900   0.114 -0.9951 -1.4140  1.0336
 1961TIP3   OH227441   5.419   4.972   8.127  0.1686 -0.3672  0.0859
 1961TIP3    H127442   5.484   4.940   8.190  0.2571  0.7298  0.5710
 1961TIP3    H227443   5.460   4.959   8.041  0.0160 -1.9505  0.2310
 1962TIP3   OH227444   6.005   0.375   8.167  0.2096  0.0476 -0.3264
 1962TIP3    H127445   6.012   0.313   8.095 -1.2427  1.1415 -1.4632
 1962TIP3    H227446   5.955   0.448   8.131  0.6798  1.2652  1.3799
 1963TIP3   OH227447   4.185   3.819   0.522 -0.0082  0.0550  0.4132
 1963TIP3    H127448   4.208   3.867   0.601  1.7155 -1.6527  1.0153
 1963TIP3    H227449   4.226   3.869   0.451 -0.4304  0.8521  0.7114
 1964TIP3   OH227450   4.305   6.029   7.781 -0.6415 -0.9479 -0.2498
 1964TIP3    H127451   4.298   5.937   7.757 -0.1125 -0.9837 -0.2881
 1964TIP3    H227452   4.313   6.075   7.698  0.1445 -0.9720 -0.1937
 1965TIP3   OH227453   1.032   4.871   1.913 -0.0350  0.4669  0.6866
 1965TIP3    H127454   0.962   4.920   1.870  1.4925  2.0789 -0.0879
 1965TIP3    H227455   1.032   4.904   2.003 -1.0109 -0.4287  1.0431
 1966TIP3   OH227456   0.611   5.867   1.981 -0.2327  0.4356 -0.2844
 1966TIP3    H127457   0.580   5.957   1.975  1.5246  1.0212 -1.2341
 1966TIP3    H227458   0.682   5.870   2.045  0.1784 -0.1611 -0.7021
 1967TIP3   OH227459   2.846   2.456   1.267 -0.0466  0.1177 -0.2107
 1967TIP3    H127460   2.826   2.549   1.271  1.0590  0.4435 -1.4747
 1967TIP3    H227461   2.859   2.430   1.358  0.4633  1.3901  0.0970
 1968TIP3   OH227462   0.069   6.448   0.335  0.0832  0.0191 -0.1813
 1968TIP3    H127463   0.007   6.519   0.350  0.0332  0.0442 -0.4939
 1968TIP3    H227464   0.095   6.458   0.244 -1.9495 -1.9264 -1.0778
 1969TIP3   OH227465   1.089   5.980   1.034 -0.1053 -0.4493  0.1251
 1969TIP3    H127466   1.098   6.034   0.955 -1.2478 -1.5306 -0.7895
 1969TIP3    H227467   1.123   5.895   1.009 -1.9749 -1.2852  0.2250
 1970TIP3   OH227468   6.217   5.943   6.956 -0.8098  0.7452  0.1538
 1970TIP3    H127469   6.154   5.972   6.890 -0.4300  0.7683 -0.2022
 1970TIP3    H227470   6.242   5.855   6.928 -0.5975  0.7802  0.2335
 1971TIP3   OH227471   1.825   3.724   0.768  0.4786  0.1747 -0.3178
 1971TIP3    H127472   1.917   3.750   0.772  0.4804  0.2926 -0.9798
 1971TIP3    H227473   1.778   3.805   0.745  0.5179 -0.4064 -2.7063
 1972TIP3   OH227474   4.648   0.315   0.426 -0.1661 -0.1445  0.4237
 1972TIP3    H127475   4.708   0.310   0.500  0.7986  0.5872 -0.2808
 1972TIP3    H227476   4.599   0.396   0.441 -1.6955 -1.2138  1.4912
 1973TIP3   OH227477   4.105   4.064   2.442 -0.2820 -0.1656  0.0047
 1973TIP3    H127478   4.136   4.141   2.395  0.8296 -0.1998  0.6617
 1973TIP3    H227479   4.068   4.098   2.523 -3.0833 -0.0093 -1.2085
 1974TIP3   OH227480   5.182   0.005   1.852 -0.1231  0.0772 -0.1592
 1974TIP3    H127481   5.134   0.062   1.793 -0.6589 -0.2040 -0.0014
 1974TIP3    H227482   5.114  -0.044   1.899  0.2552  0.6967  1.0968
 1975TIP3   OH227483   1.317   6.007   2.275 -0.1996  0.3849  0.1666
 1975TIP3    H127484   1.257   6.078   2.297 -1.3646 -0.9218  1.5307
 1975TIP3    H227485   1.273   5.958   2.205 -1.2093 -1.0426  1.7145
 1976TIP3   OH227486   0.414   5.554   8.636  0.0722  0.3680 -0.0643
 1976TIP3    H127487   0.474   5.511   8.575  0.7131  0.1435  0.7076
 1976TIP3    H227488   0.374   5.482   8.684 -1.1817  0.4910 -0.8951
 1977TIP3   OH227489   1.469   1.048   9.486 -0.8936  0.0739  0.1835
 1977TIP3    H127490   1.479   1.122   9.426 -2.9669 -0.9392 -1.5514
 1977TIP3    H227491   1.423   1.085   9.562  1.9095  1.4086  1.3586
 1978TIP3   OH227492   0.312   2.623   2.101  0.0416 -0.4746 -0.2715
 1978TIP3    H127493   0.332   2.622   2.194 -1.6155  0.0471  0.1211
 1978TIP3    H227494   0.275   2.710   2.086 -3.3388 -1.8111 -0.5569
 1979TIP3   OH227495   4.996   4.666   9.482 -0.1532  0.1017  0.3465
 1979TIP3    H127496   5.008   4.617   9.400  1.5202  0.9755  0.0333
 1979TIP3    H227497   4.944   4.742   9.456  2.0474  1.4444 -0.4018
 1980TIP3   OH227498   5.285   3.688   8.401 -0.4723  0.0775  0.0430
 1980TIP3    H127499   5.236   3.639   8.335  0.0567  0.1813 -0.4304
 1980TIP3    H227500   5.265   3.780   8.382  0.7740  0.1812 -0.8558
 1981TIP3   OH227501   4.085   2.696   0.927 -0.2540  0.2252 -0.3320
 1981TIP3    H127502   4.132   2.616   0.905  2.3584  1.3166  0.8628
 1981TIP3    H227503   4.129   2.730   1.005 -0.6993  3.2296 -1.2528
 1982TIP3   OH227504   2.401   3.840   0.604 -0.8040  0.8086 -0.2901
 1982TIP3    H127505   2.443   3.755   0.597 -0.0968  1.0720  0.5937
 1982TIP3    H227506   2.341   3.843   0.529 -1.5131 -0.8234  0.1574
 1983TIP3   OH227507   1.371   3.515   0.220  0.5367  0.0273  0.2165
 1983TIP3    H127508   1.284   3.541   0.251  1.0478  0.8781  0.9948
 1983TIP3    H227509   1.427   3.589   0.242  1.6565 -0.9122  0.6064
 1984TIP3   OH227510   1.669   4.982   2.619  0.0855 -0.1844  0.5374
 1984TIP3    H127511   1.708   5.052   2.672 -0.1850  0.7736 -0.4750
 1984TIP3    H227512   1.574   4.995   2.628 -0.0033 -1.3115  1.4551
 1985TIP3   OH227513   4.970   2.753   1.637 -0.4184  0.0955  0.2236
 1985TIP3    H127514   5.017   2.761   1.555  0.9768 -1.6292  0.7901
 1985TIP3    H227515   4.954   2.843   1.665  0.2240  0.7018 -1.2797
 1986TIP3   OH227516   4.023   3.443   7.896 -0.0422 -0.5677 -0.3500
 1986TIP3    H127517   3.956   3.438   7.963  0.0870  0.3077 -0.1437
 1986TIP3    H227518   4.054   3.353   7.886  0.5340 -0.5902  1.3697
 1987TIP3   OH227519   3.949   4.238   8.714  0.6636  0.5638  0.2824
 1987TIP3    H127520   3.897   4.229   8.794  0.0146 -0.7896 -0.2683
 1987TIP3    H227521   3.892   4.287   8.654 -0.1260 -1.1201 -0.4018
 1988TIP3   OH227522   1.453   3.403   1.179 -0.1283  0.1594 -0.4006
 1988TIP3    H127523   1.420   3.393   1.089  0.4696  1.5473 -0.8018
 1988TIP3    H227524   1.379   3.441   1.227  0.0492  0.9158 -0.7053
 1989TIP3   OH227525   2.219   0.368   7.965  0.4290  0.1903  0.0736
 1989TIP3    H127526   2.257   0.341   8.048  2.2174  0.2103 -0.6972
 1989TIP3    H227527   2.217   0.288   7.913 -0.0448  0.3166 -0.1060
 1990TIP3   OH227528   0.001   0.129   7.627  0.7883 -0.1780 -0.3461
 1990TIP3    H127529   0.054   0.054   7.600  1.6891 -0.3444  1.7733
 1990TIP3    H227530   0.038   0.203   7.579  1.5223 -0.6578 -0.5281
 1991TIP3   OH227531   2.475   3.923   8.951 -0.3371  1.1159  0.1304
 1991TIP3    H127532   2.519   3.959   8.875  0.2563  0.4681  0.1516
 1991TIP3    H227533   2.533   3.944   9.025 -0.7404  1.4488  0.3544
 1992TIP3   OH227534   5.814   2.006   9.374  1.0731 -1.1415 -0.0041
 1992TIP3    H127535   5.909   2.018   9.371  1.1677 -1.5182  1.0788
 1992TIP3    H227536   5.801   1.912   9.380  0.6208 -1.0918 -0.1323
 1993TIP3   OH227537   2.903   1.295   0.108  1.0181  0.1085 -0.7888
 1993TIP3    H127538   2.864   1.273   0.023 -0.3859 -0.4273 -0.0422
 1993TIP3    H227539   2.885   1.219   0.162  0.4297  1.0995  0.4577
 1994TIP3   OH227540   4.292   1.746   8.618  0.6545 -0.6365 -0.2306
 1994TIP3    H127541   4.253   1.819   8.666  1.6443  0.2005 -0.6711
 1994TIP3    H227542   4.373   1.727   8.665  1.8999  0.5351 -1.8218
 1995TIP3   OH227543   2.818   4.343   1.231  1.0495 -0.0246 -0.2260
 1995TIP3    H127544   2.762   4.265   1.229  0.4975  0.3397  0.5910
 1995TIP3    H227545   2.906   4.310   1.248  0.7049 -0.4132  0.8175
 1996TIP3   OH227546   5.809   4.629   8.492  0.4046  0.5750 -0.4747
 1996TIP3    H127547   5.767   4.567   8.433  1.4673 -1.5982  0.9403
 1996TIP3    H227548   5.810   4.712   8.443 -1.3586 -0.4068 -2.2949
 1997TIP3   OH227549   2.800   4.138   1.013 -0.7645  0.9733 -0.1544
 1997TIP3    H127550   2.744   4.104   1.082 -1.5389 -1.2114 -1.7456
 1997TIP3    H227551   2.791   4.075   0.941  2.4371  1.4210 -1.1235
 1998TIP3   OH227552   5.058   6.198   8.579 -0.1560 -0.3058  0.3956
 1998TIP3    H127553   5.092   6.169   8.663  0.3561 -0.4297  0.1463
 1998TIP3    H227554   5.078   6.126   8.519  0.6733  0.3425 -0.1174
 1999TIP3   OH227555   0.789   6.159   1.926 -0.8348  0.7419 -0.0219
 1999TIP3    H127556   0.778   6.254   1.921  0.2318  0.9885  1.4952
 1999TIP3    H227557   0.883   6.147   1.941 -1.1380 -0.4586  1.1366
 2000TIP3   OH227558   0.651   2.179   2.074 -0.1755 -0.1414 -0.5217
 2000TIP3    H127559   0.657   2.232   1.994  3.0610  0.6489  0.1314
 2000TIP3    H227560   0.627   2.092   2.043  1.3554  0.0618 -2.4205
 2001TIP3   OH227561   6.352   2.735   8.505  0.0018  0.1762 -0.1226
 2001TIP3    H127562   6.399   2.652   8.518  1.3433  0.8011 -0.7518
 2001TIP3    H227563   6.420   2.802   8.514 -0.7512  1.1123 -1.1768
 2002TIP3   OH227564   5.945   6.340   0.242  0.2151 -0.3421  0.2236
 2002TIP3    H127565   5.950   6.245   0.233  0.5602 -0.2936 -0.1280
 2002TIP3    H227566   5.863   6.365   0.199  0.4951 -0.4056 -0.3605
 2003TIP3   OH227567   3.708   2.532   7.312 -0.7019  0.0022 -0.0795
 2003TIP3    H127568   3.701   2.624   7.336 -1.2550  0.0557 -0.4177
 2003TIP3    H227569   3.802   2.517   7.303 -0.4558 -0.0290  2.0492
 2004TIP3   OH227570   0.461   0.633   1.812  0.6011 -0.7119 -0.5086
 2004TIP3    H127571   0.477   0.647   1.906  0.4625  0.5170 -0.6446
 2004TIP3    H227572   0.522   0.693   1.769 -1.1939  0.7521 -1.1307
 2005TIP3   OH227573   1.202   3.102   7.814 -0.1645  0.4087  0.0566
 2005TIP3    H127574   1.286   3.119   7.770 -0.6262  1.6101 -0.4132
 2005TIP3    H227575   1.200   3.165   7.886  1.4768 -2.7958  3.2352
 2006TIP3   OH227576   6.202   1.077   1.926 -0.0012 -0.0174  0.5873
 2006TIP3    H127577   6.289   1.058   1.890  0.9005  1.8063  1.6298
 2006TIP3    H227578   6.189   1.171   1.909 -1.4269 -0.0836  1.1404
 2007TIP3   OH227579   2.190   2.006   2.437  0.1271  0.0122  0.2354
 2007TIP3    H127580   2.115   2.053   2.401  0.3736  0.9292  0.8747
 2007TIP3    H227581   2.227   2.066   2.501  0.6387 -0.9474  0.8673
 2008TIP3   OH227582   3.259   1.904   7.500 -0.4603  0.7656  0.7360
 2008TIP3    H127583   3.335   1.914   7.443  0.5061 -2.0633  1.3626
 2008TIP3    H227584   3.295   1.910   7.589 -0.9554 -0.5112  1.0367
 2009TIP3   OH227585   6.036   5.075   7.420  0.4226 -0.3661 -0.3962
 2009TIP3    H127586   6.090   5.023   7.360 -0.7885 -0.6935 -1.2419
 2009TIP3    H227587   5.948   5.040   7.410 -0.0924  0.6411  0.3967
 2010TIP3   OH227588   3.923   0.964   9.442  0.7696 -0.2505 -0.1987
 2010TIP3    H127589   3.913   1.055   9.470 -1.6154 -0.7616  0.8019
 2010TIP3    H227590   4.009   0.962   9.399  0.8199  2.4879 -0.4070
 2011TIP3   OH227591   1.471   5.110   2.042  0.1945  0.5725  0.3364
 2011TIP3    H127592   1.392   5.104   2.096  0.3889 -1.4708  0.4935
 2011TIP3    H227593   1.457   5.044   1.974  1.3681  0.8519 -0.1818
 2012TIP3   OH227594   5.296   5.122   0.448  0.0755 -0.2264  0.3910
 2012TIP3    H127595   5.225   5.079   0.400  0.6541  0.4508 -1.1374
 2012TIP3    H227596   5.281   5.215   0.435  2.0044 -0.0526 -1.2624
 2013TIP3   OH227597   3.049   3.518   0.596  0.6580  0.1659  0.3268
 2013TIP3    H127598   3.126   3.462   0.592  1.3935  1.2171 -2.4224
 2013TIP3    H227599   2.978   3.465   0.558  1.0663  0.5917 -1.1031
 2014TIP3   OH227600   2.665   6.060   7.003  0.2360  0.3600  0.1685
 2014TIP3    H127601   2.647   5.997   7.073  0.2866  0.9865  0.7547
 2014TIP3    H227602   2.760   6.063   6.996  0.2190 -0.3066 -0.4967
 2015TIP3   OH227603   5.259   1.253   0.518  0.0910 -0.3973 -0.7403
 2015TIP3    H127604   5.212   1.216   0.593  1.4661 -1.1571 -0.2119
 2015TIP3    H227605   5.218   1.211   0.442 -0.7409 -0.2797 -0.3673
 2016TIP3   OH227606   2.882   5.556   0.400 -0.1304  0.0464 -0.1681
 2016TIP3    H127607   2.954   5.614   0.424 -1.0396  1.3529 -0.5201
 2016TIP3    H227608   2.804   5.594   0.441 -0.7688 -0.8765 -0.4658
 2017TIP3   OH227609   4.961   3.309   7.463  0.1288 -0.2101  0.1409
 2017TIP3    H127610   4.911   3.233   7.433 -1.1224  1.1460 -1.3968
 2017TIP3    H227611   4.895   3.374   7.485  1.1784  0.6593  0.8174
 2018TIP3   OH227612   1.473   0.892   8.273 -0.3068  0.3905  0.2791
 2018TIP3    H127613   1.495   0.831   8.203  1.3578  1.5573 -0.2729
 2018TIP3    H227614   1.402   0.849   8.321 -2.1392 -0.0950 -2.6107
 2019TIP3   OH227615   1.669   3.560   1.809 -0.0320  0.0147  0.3035
 2019TIP3    H127616   1.660   3.473   1.769  1.3846  0.1372 -0.3432
 2019TIP3    H227617   1.593   3.609   1.778  0.3138 -0.3168 -1.1628
 2020TIP3   OH227618   3.466   5.343   1.935  0.2191 -0.2512  0.5146
 2020TIP3    H127619   3.417   5.267   1.903  0.3433 -0.3965  0.6695
 2020TIP3    H227620   3.550   5.307   1.964  0.2476 -0.0667  0.6606
 2021TIP3   OH227621   6.167   1.863   0.431 -0.0031 -0.1600 -0.4485
 2021TIP3    H127622   6.244   1.920   0.434  0.7949 -1.1999 -0.2510
 2021TIP3    H227623   6.186   1.795   0.495 -0.8776 -0.7040 -0.7511
 2022TIP3   OH227624   4.747   5.059   0.996  0.3361 -0.1242 -0.4440
 2022TIP3    H127625   4.759   4.965   0.983  0.7046 -0.1625  0.1507
 2022TIP3    H227626   4.791   5.099   0.921  2.1469 -0.3527  0.4324
 2023TIP3   OH227627   0.100   2.542   2.331  0.3235  0.2831 -0.0981
 2023TIP3    H127628   0.181   2.503   2.364 -1.1697 -3.2198 -0.1150
 2023TIP3    H227629   0.118   2.636   2.327  3.4963 -0.0571  2.3010
 2024TIP3   OH227630   6.206   1.198   9.223  0.3457 -0.5517  0.7421
 2024TIP3    H127631   6.137   1.158   9.277 -3.4758  0.7845 -2.6912
 2024TIP3    H227632   6.232   1.276   9.271 -3.5276  1.0549  0.5508
 2025TIP3   OH227633   0.561   2.674   0.443  0.7344 -0.0630  0.1950
 2025TIP3    H127634   0.604   2.670   0.358 -1.4202 -2.2255 -0.9198
 2025TIP3    H227635   0.622   2.630   0.502  1.0472 -1.1120 -0.8655
 2026TIP3   OH227636   1.659   3.076   7.898 -0.5547  0.6900 -0.4033
 2026TIP3    H127637   1.574   3.106   7.865 -1.5104  0.1111  1.3993
 2026TIP3    H227638   1.656   2.981   7.891  0.0947  0.6839 -0.6654
 2027TIP3   OH227639   5.859   0.037   7.894 -0.6728  0.6809  0.2875
 2027TIP3    H127640   5.843   0.036   7.800  1.0033 -0.5004 -0.0315
 2027TIP3    H227641   5.820   0.119   7.924 -2.9005  0.2392 -1.0855
 2028TIP3   OH227642   1.105   4.841   0.158  0.7759 -0.0613 -0.0760
 2028TIP3    H127643   1.132   4.915   0.212  0.7837  1.9184 -2.5714
 2028TIP3    H227644   1.185   4.817   0.110  0.7668 -1.7425  0.6640
 2029TIP3   OH227645   5.823   3.092   9.169  0.0398 -0.3471 -0.7451
 2029TIP3    H127646   5.811   3.048   9.086 -0.6190 -1.4073 -0.1115
 2029TIP3    H227647   5.750   3.062   9.223 -0.4832  1.5952 -0.3024
 2030TIP3   OH227648   0.609   4.856   7.694 -0.4761 -0.3653  0.0390
 2030TIP3    H127649   0.698   4.889   7.702 -0.9799  1.2737 -0.6443
 2030TIP3    H227650   0.558   4.931   7.664 -2.0956 -1.2639  0.3987
 2031TIP3   OH227651   4.234   1.968   6.340  0.0510 -0.0052  0.4352
 2031TIP3    H127652   4.315   2.002   6.379 -0.6359  1.8723  0.3710
 2031TIP3    H227653   4.164   2.008   6.393 -0.8808  1.4841 -1.7753
 2032TIP3   OH227654   2.454   4.714   8.648 -0.0206  0.0456 -0.4259
 2032TIP3    H127655   2.463   4.777   8.719  0.3081  0.0596 -0.4766
 2032TIP3    H227656   2.418   4.635   8.689 -1.8023  0.7188 -0.6150
 2033TIP3   OH227657   0.649   2.368   1.879  0.6549 -0.3043 -0.1406
 2033TIP3    H127658   0.583   2.432   1.851  1.2604 -0.5137 -2.2226
 2033TIP3    H227659   0.731   2.402   1.845  0.8623 -2.6406 -2.2388
 2034TIP3   OH227660   5.998   3.072   0.140  0.4553 -0.4793  0.2300
 2034TIP3    H127661   5.916   3.100   0.182  0.4697  1.0802 -0.7204
 2034TIP3    H227662   5.990   2.977   0.135 -2.1225 -0.2799 -1.4366
 2035TIP3   OH227663   1.159   1.000   8.294  0.2009 -0.3391 -0.8593
 2035TIP3    H127664   1.209   1.047   8.228  0.5652  1.9557  0.9467
 2035TIP3    H227665   1.091   1.061   8.322 -0.6097 -1.6306  0.1522
 2036TIP3   OH227666   1.298   2.101   9.018 -0.4420 -0.0977 -0.3719
 2036TIP3    H127667   1.226   2.046   8.986 -1.5980  0.6465  0.8375
 2036TIP3    H227668   1.324   2.154   8.943 -1.0646 -0.4766 -0.8606
 2037TIP3   OH227669   5.537   3.467   1.172 -0.7397 -0.6476  0.7114
 2037TIP3    H127670   5.531   3.521   1.251  2.3493  0.3866  0.3635
 2037TIP3    H227671   5.483   3.512   1.107  1.0633  1.6262  0.6834
 2038TIP3   OH227672   0.936   3.277   7.575 -0.6331 -0.9523 -0.6560
 2038TIP3    H127673   0.878   3.351   7.592 -0.6104 -0.9641 -0.5247
 2038TIP3    H227674   0.981   3.300   7.494 -0.8046 -0.9323 -0.7483
 2039TIP3   OH227675   0.885   2.305   8.507 -0.2427  0.5240 -0.1975
 2039TIP3    H127676   0.976   2.323   8.531 -0.6080  1.1685  0.7648
 2039TIP3    H227677   0.833   2.341   8.579 -1.2170 -0.8378 -0.1640
 2040TIP3   OH227678   6.289   2.517   1.727  0.2524 -0.0178 -0.1122
 2040TIP3    H127679   6.215   2.480   1.774 -0.6690  1.1725 -0.5773
 2040TIP3    H227680   6.334   2.572   1.792  0.6055 -0.5614  0.1085
 2041TIP3   OH227681   2.167   0.242   9.147  0.0838 -0.4023 -0.1618
 2041TIP3    H127682   2.252   0.213   9.115 -0.0487  0.9002 -1.7918
 2041TIP3    H227683   2.104   0.202   9.087 -0.3271  0.2069 -0.1454
 2042TIP3   OH227684   5.332   3.863   8.685  0.1265 -0.6789  0.0745
 2042TIP3    H127685   5.267   3.925   8.653  1.1314  1.8991  2.6084
 2042TIP3    H227686   5.296   3.777   8.664 -4.3167  0.5679  1.5925
 2043TIP3   OH227687   4.490   6.520   8.393  0.0601 -0.4776 -0.0716
 2043TIP3    H127688   4.581   6.530   8.365 -0.2960  0.6583 -0.9336
 2043TIP3    H227689   4.476   6.591   8.456 -0.0795 -0.9829  0.4697
 2044TIP3   OH227690   5.653   1.588   2.157  0.4981  0.2450 -0.0695
 2044TIP3    H127691   5.728   1.638   2.189  0.3589 -0.6010  1.6850
 2044TIP3    H227692   5.690   1.506   2.124  0.3518 -0.4425  1.3692
 2045TIP3   OH227693   6.393   1.906   7.728  0.0755 -0.0956  0.3586
 2045TIP3    H127694   6.486   1.900   7.706  0.2289  1.3328  0.5602
 2045TIP3    H227695   6.355   1.960   7.659 -0.9228 -1.8370 -0.5384
 2046TIP3   OH227696   4.075   1.345   7.905 -0.3196  0.0365  0.3917
 2046TIP3    H127697   4.094   1.327   7.998  0.1597  0.0800  0.3050
 2046TIP3    H227698   4.001   1.288   7.885  0.0642 -0.5503  0.5981
 2047TIP3   OH227699   2.693   4.902   0.967  0.8053  0.5937  0.3914
 2047TIP3    H127700   2.660   4.951   0.892  1.5435 -1.0906 -1.1021
 2047TIP3    H227701   2.710   4.814   0.934  0.4725 -0.4380  2.7210
 2048TIP3   OH227702   5.239   5.805   8.510 -0.0423 -0.3814  0.1160
 2048TIP3    H127703   5.290   5.820   8.589 -3.9094  1.0039  2.6670
 2048TIP3    H227704   5.218   5.893   8.478 -2.4740 -0.7549  0.4919
 2049TIP3   OH227705   6.337   4.263   0.325 -0.6609  0.2341  0.2934
 2049TIP3    H127706   6.276   4.220   0.265 -0.3744 -1.3781  1.1165
 2049TIP3    H227707   6.357   4.197   0.391  0.2663  1.4548  1.2861
 2050TIP3   OH227708   1.132   1.614   9.234  0.0670  0.0606 -0.0558
 2050TIP3    H127709   1.191   1.605   9.158 -0.2293 -1.0271 -0.1739
 2050TIP3    H227710   1.073   1.540   9.227  0.1850 -0.1910  1.3840
 2051TIP3   OH227711   4.227   5.160   7.042  0.8811 -0.6449  0.0619
 2051TIP3    H127712   4.147   5.208   7.063  0.9601 -0.8918  0.9717
 2051TIP3    H227713   4.247   5.186   6.952  0.0460 -0.2132 -0.0129
 2052TIP3   OH227714   1.826   4.432   1.984  1.0316  0.5716 -0.1013
 2052TIP3    H127715   1.737   4.461   2.004  0.5903 -1.6154  1.4797
 2052TIP3    H227716   1.880   4.511   1.994 -0.5067  1.5923  0.4870
 2053TIP3   OH227717   3.388   2.263   0.867 -0.2359 -0.2015  0.1267
 2053TIP3    H127718   3.446   2.280   0.941 -1.6370 -1.3252  1.5543
 2053TIP3    H227719   3.300   2.278   0.901 -0.9566 -1.4064 -1.1030
 2054TIP3   OH227720   5.965   3.040   6.995 -0.5629  0.1278 -0.4115
 2054TIP3    H127721   5.880   3.076   6.969 -0.8515 -0.0362  0.3003
 2054TIP3    H227722   6.003   3.106   7.054 -0.5460 -0.1618 -0.0955
 2055TIP3   OH227723   6.168   5.919   1.650  0.4098  0.3297 -0.4071
 2055TIP3    H127724   6.131   5.845   1.602  0.6065  0.3204 -0.5479
 2055TIP3    H227725   6.172   5.990   1.586  1.4426  0.0771 -0.6397
 2056TIP3   OH227726   1.048   0.262   0.893 -0.3764 -0.2479  0.2744
 2056TIP3    H127727   1.141   0.277   0.877 -0.0807 -0.7165  1.3975
 2056TIP3    H227728   1.030   0.177   0.854 -0.3264 -0.1708  0.0830
 2057TIP3   OH227729   6.128   2.446   9.575  0.3497 -0.3356 -0.1686
 2057TIP3    H127730   6.176   2.418   9.497  0.6834  1.4773 -0.6471
 2057TIP3    H227731   6.192   2.495   9.627 -0.2811 -0.1972  0.4994
 2058TIP3   OH227732   6.220   2.965   1.916  0.5585  0.2992 -0.0992
 2058TIP3    H127733   6.253   3.043   1.872  1.1368  1.1185  1.6753
 2058TIP3    H227734   6.290   2.940   1.977 -0.6633 -0.0000  1.2447
 2059TIP3   OH227735   1.585   5.984   2.221  0.1599 -0.5283 -0.0249
 2059TIP3    H127736   1.492   5.976   2.238  0.3613 -2.4477  0.3784
 2059TIP3    H227737   1.591   6.024   2.134 -1.0113  0.1651  0.2036
 2060TIP3   OH227738   3.705   2.791   0.211 -0.4835 -0.1980  0.5543
 2060TIP3    H127739   3.753   2.862   0.253  1.2312  1.2012 -3.2262
 2060TIP3    H227740   3.773   2.727   0.189 -1.6449 -1.8937  1.7582
 2061TIP3   OH227741   3.073   4.693   7.328  0.0360 -0.1667  0.3909
 2061TIP3    H127742   3.073   4.716   7.421  0.8660  1.6697 -0.0123
 2061TIP3    H227743   3.027   4.766   7.286  4.5324  2.1062 -1.1975
 2062TIP3   OH227744   6.012   0.031   7.367 -0.1497 -0.5599  0.0492
 2062TIP3    H127745   5.939   0.052   7.308 -0.0854 -0.0606  0.1459
 2062TIP3    H227746   6.082   0.090   7.340 -0.3305  0.1414  1.0414
 2063TIP3   OH227747   5.844   5.229   8.920 -0.3300 -0.0683  0.1264
 2063TIP3    H127748   5.896   5.296   8.876 -1.0579  0.5847  0.2380
 2063TIP3    H227749   5.905   5.158   8.936  0.4247  0.5168 -0.1096
 2064TIP3   OH227750   2.912   4.852   8.408 -0.3838 -0.4314 -0.0682
 2064TIP3    H127751   2.862   4.773   8.392  1.2623 -1.1229 -2.3673
 2064TIP3    H227752   2.947   4.876   8.322  4.0582 -0.6549  1.4102
 2065TIP3   OH227753   1.947   4.008   2.592  0.1873 -0.2560 -0.0279
 2065TIP3    H127754   1.875   4.071   2.591  0.0311 -0.4395 -0.4961
 2065TIP3    H227755   1.911   3.931   2.637  0.3531 -0.0507  0.4713
 2066TIP3   OH227756   1.464   5.885   7.771  0.1043 -0.0105 -0.0282
 2066TIP3    H127757   1.408   5.954   7.734 -0.6495 -0.4942  0.1857
 2066TIP3    H227758   1.540   5.932   7.806 -0.4067  0.7163  0.1341
 2067TIP3   OH227759   3.725   3.862   1.732 -0.5435  0.3314 -0.8853
 2067TIP3    H127760   3.801   3.804   1.716 -0.4244  0.6746 -1.6133
 2067TIP3    H227761   3.763   3.948   1.744 -0.6202  0.0876  1.5113
 2068TIP3   OH227762   0.902   0.228   0.333  0.8394 -0.0286 -0.3254
 2068TIP3    H127763   0.899   0.311   0.380  0.1338 -0.8078  1.0800
 2068TIP3    H227764   0.978   0.182   0.369 -0.1303 -0.9361  0.6555
 2069TIP3   OH227765   6.517   0.233   2.427 -0.0536 -0.4668 -0.1164
 2069TIP3    H127766   6.565   0.296   2.480  0.8864 -0.7998 -0.5498
 2069TIP3    H227767   6.500   0.160   2.486  0.5809 -0.6395 -0.1463
 2070TIP3   OH227768   2.508   4.695   2.200  0.6692 -0.0348  0.5134
 2070TIP3    H127769   2.546   4.618   2.242  1.9880  0.7389  0.8264
 2070TIP3    H227770   2.423   4.707   2.242  0.5403 -1.1769  0.6045
 2071TIP3   OH227771   5.441   3.825   9.322  0.2210  0.2003  0.2178
 2071TIP3    H127772   5.477   3.834   9.411  0.0925 -1.3676  0.4596
 2071TIP3    H227773   5.476   3.742   9.291  1.1418  1.2330 -1.6467
 2072TIP3   OH227774   5.183   2.106   7.187 -0.7851  0.3073  0.8105
 2072TIP3    H127775   5.268   2.122   7.145 -0.8092 -1.8086 -0.1848
 2072TIP3    H227776   5.128   2.180   7.160  0.4105  1.1136  0.5315
 2073TIP3   OH227777   6.214   1.877   8.155 -0.3766  0.3892  0.1296
 2073TIP3    H127778   6.269   1.911   8.085  0.6112 -0.2836  0.5533
 2073TIP3    H227779   6.273   1.868   8.230 -0.6913 -1.6761  0.2027
 2074TIP3   OH227780   6.406   0.409   2.764 -0.7719 -0.0913  0.0861
 2074TIP3    H127781   6.336   0.455   2.809  0.3692  0.4871  1.3193
 2074TIP3    H227782   6.363   0.333   2.724 -2.2777  0.8411 -0.1449
 2075TIP3   OH227783   0.087   3.841   8.524 -0.2554  0.2292 -0.0609
 2075TIP3    H127784   0.055   3.921   8.484 -1.7633 -0.9258 -1.3131
 2075TIP3    H227785   0.163   3.868   8.575 -0.0097  2.2483 -1.3789
 2076TIP3   OH227786   5.688   3.368   7.974  0.1789  0.1289 -0.1734
 2076TIP3    H127787   5.653   3.437   7.918 -0.4314  0.3461  0.4640
 2076TIP3    H227788   5.665   3.395   8.063 -0.2743 -1.0013  0.0737
 2077TIP3   OH227789   0.697   4.054   2.205 -0.6506  0.0606 -0.5425
 2077TIP3    H127790   0.791   4.041   2.219 -1.1409 -1.3149  1.8576
 2077TIP3    H227791   0.657   3.971   2.229 -2.7255  1.5085  1.4383
 2078TIP3   OH227792   6.364   4.339   1.764  0.5175 -0.0091  0.2678
 2078TIP3    H127793   6.323   4.294   1.838  0.2857  0.6382  0.5415
 2078TIP3    H227794   6.454   4.354   1.791  0.3208  0.6149  0.6097
 2079TIP3   OH227795   0.121   4.660   1.319 -0.2903  0.2409  0.2401
 2079TIP3    H127796   0.041   4.704   1.290  0.2078  0.9993 -0.0181
 2079TIP3    H227797   0.192   4.709   1.277  0.3058 -0.5289  0.3182
 2080TIP3   OH227798   5.181   1.967   1.302  0.2579  0.5707 -0.3633
 2080TIP3    H127799   5.238   2.028   1.347  1.4558 -1.0000  0.3277
 2080TIP3    H227800   5.222   1.881   1.314 -1.1987 -0.3530 -1.5423
 2081TIP3   OH227801   2.697   6.488   2.346 -0.1115  0.6254 -0.5418
 2081TIP3    H127802   2.748   6.407   2.354 -2.0707 -0.8616 -1.9365
 2081TIP3    H227803   2.629   6.480   2.413  0.5876  1.9056  0.3558
 2082TIP3   OH227804   3.700   1.245   7.607  0.0345 -0.4877  0.6617
 2082TIP3    H127805   3.753   1.233   7.528 -1.0419 -1.0616  0.0163
 2082TIP3    H227806   3.655   1.328   7.594  1.3288  0.4023  1.5642
 2083TIP3   OH227807   3.642   4.345   1.543 -0.6043 -0.7185  0.7430
 2083TIP3    H127808   3.551   4.321   1.525 -0.9083  0.1929  0.9694
 2083TIP3    H227809   3.690   4.317   1.466 -1.5891  1.5121 -0.7897
 2084TIP3   OH227810   1.163   3.162   2.237  0.3040 -0.5422  0.0023
 2084TIP3    H127811   1.241   3.148   2.290  0.6047  0.1717 -0.2432
 2084TIP3    H227812   1.092   3.127   2.291  0.4816  0.9572  1.3178
 2085TIP3   OH227813   2.386   6.038   8.244 -0.6361 -0.5484  0.0857
 2085TIP3    H127814   2.294   6.032   8.218 -0.5614  0.5261 -0.4786
 2085TIP3    H227815   2.386   6.094   8.322 -0.4370 -0.3581 -0.0503
 2086TIP3   OH227816   5.179   2.122   1.731 -0.3644  0.0626 -0.1203
 2086TIP3    H127817   5.160   2.031   1.708  2.0885 -0.8031  0.8977
 2086TIP3    H227818   5.094   2.165   1.734 -1.4078 -1.4087 -3.6242
 2087TIP3   OH227819   0.270   1.479   0.165 -0.0243  0.6358 -0.4017
 2087TIP3    H127820   0.185   1.512   0.194 -0.2034 -0.7600  0.7683
 2087TIP3    H227821   0.321   1.470   0.245  0.5785 -0.2677 -0.8664
 2088TIP3   OH227822   2.220   5.031   0.480  0.4472  0.0109 -0.2310
 2088TIP3    H127823   2.309   5.005   0.505  0.6044 -0.7568 -1.5256
 2088TIP3    H227824   2.197   4.974   0.407 -0.2497  1.7225 -1.4181
 2089TIP3   OH227825   5.576   2.811   8.806  0.1480 -0.2290  0.5482
 2089TIP3    H127826   5.571   2.785   8.714  0.2404  0.7771  0.2451
 2089TIP3    H227827   5.532   2.896   8.809 -1.6912 -1.1440  1.8194
 2090TIP3   OH227828   3.495   1.939   1.896 -0.2945  0.0744 -0.2600
 2090TIP3    H127829   3.410   1.895   1.904  0.4983 -1.4735  0.0490
 2090TIP3    H227830   3.547   1.881   1.840  1.0997  0.1066  0.9421
 2091TIP3   OH227831   1.517   0.524   7.944 -0.3364 -0.0079  0.1347
 2091TIP3    H127832   1.572   0.446   7.938 -0.4913 -0.1342  0.3335
 2091TIP3    H227833   1.494   0.544   7.853  0.9399  0.6982 -0.0565
 2092TIP3   OH227834   4.549   0.337   8.798  0.0414  0.0592  0.4167
 2092TIP3    H127835   4.495   0.347   8.877  1.1404  0.9779  1.0824
 2092TIP3    H227836   4.560   0.427   8.766  1.3152 -0.0828  0.4033
 2093TIP3   OH227837   1.878   2.971   8.218 -0.1042  0.2441  0.3154
 2093TIP3    H127838   1.953   2.931   8.174 -1.6404 -4.0268  1.1304
 2093TIP3    H227839   1.909   2.989   8.307  0.9507  2.3026 -0.3861
 2094TIP3   OH227840   0.902   0.156   1.801  0.4272  0.5546  0.2272
 2094TIP3    H127841   0.973   0.131   1.742  0.1200  0.1111  0.0373
 2094TIP3    H227842   0.901   0.252   1.799 -0.0309  0.5413 -1.0354
 2095TIP3   OH227843   2.787   2.439   6.521  0.2618 -0.5507 -0.2831
 2095TIP3    H127844   2.701   2.441   6.477  0.1243  0.2982  0.0030
 2095TIP3    H227845   2.829   2.360   6.487 -0.2279 -0.4328 -1.2097
 2096TIP3   OH227846   2.920   6.504   8.151  0.0155 -0.2352 -0.1774
 2096TIP3    H127847   2.879   6.495   8.237 -0.1162  1.3535 -0.0604
 2096TIP3    H227848   2.888   6.428   8.102  1.3416 -2.0780  1.6267
 2097TIP3   OH227849   1.865   1.342   7.859  0.7195 -0.1713  0.6686
 2097TIP3    H127850   1.929   1.351   7.929  0.3764  2.2311  0.7855
 2097TIP3    H227851   1.814   1.423   7.863  0.3711 -0.1536 -2.0457
 2098TIP3   OH227852   4.962   3.281   9.454  0.1042  0.1621 -0.4833
 2098TIP3    H127853   4.906   3.204   9.460  1.9600 -1.2430 -0.5436
 2098TIP3    H227854   4.902   3.352   9.428 -1.6454 -1.2289 -0.4247
 2099TIP3   OH227855   3.125   2.853   0.206  0.0854  0.4925 -0.1247
 2099TIP3    H127856   3.063   2.873   0.136 -1.4788 -2.6552  0.1782
 2099TIP3    H227857   3.111   2.922   0.270  0.4048  2.5539 -2.1309
 2100TIP3   OH227858   5.367   1.472   2.178 -0.1398  0.5016 -0.1400
 2100TIP3    H127859   5.418   1.478   2.097  0.2634  1.3905  0.1683
 2100TIP3    H227860   5.380   1.557   2.220  0.6006 -0.3370  1.4083
 2101TIP3   OH227861   4.674   1.551   1.418  0.2103  0.5707 -0.5703
 2101TIP3    H127862   4.678   1.611   1.344  1.0167  0.2352 -0.8083
 2101TIP3    H227863   4.624   1.598   1.485  2.5078  2.3549  0.0067
 2102TIP3   OH227864   6.303   1.483   2.425 -0.0034 -0.0110  0.5126
 2102TIP3    H127865   6.209   1.503   2.424 -0.2093 -0.9515  0.8120
 2102TIP3    H227866   6.343   1.561   2.464 -0.7264  0.1150  1.0191
 2103TIP3   OH227867   3.305   5.254   1.110  0.1550  0.1143 -0.4960
 2103TIP3    H127868   3.209   5.251   1.109  0.1572 -0.5931  0.2859
 2103TIP3    H227869   3.328   5.309   1.035 -0.8449 -0.2958 -1.1253
 2104TIP3   OH227870   1.849   4.359   9.057 -0.4307 -0.3372 -0.0851
 2104TIP3    H127871   1.759   4.334   9.077 -0.3600 -1.5090 -1.0681
 2104TIP3    H227872   1.857   4.344   8.963  0.1170  2.0314 -0.4580
 2105TIP3   OH227873   0.056   6.144   9.015  0.2387  0.4240 -0.4016
 2105TIP3    H127874   0.116   6.195   9.070  0.5092  0.1461 -0.4325
 2105TIP3    H227875   0.010   6.208   8.962  0.0482  0.6900  0.0815
 2106TIP3   OH227876   5.673   1.064   9.042  0.2166 -0.2943  0.0737
 2106TIP3    H127877   5.667   0.972   9.069 -1.1416 -0.1757  0.2794
 2106TIP3    H227878   5.693   1.112   9.122 -1.5070 -0.1865  0.4872
 2107TIP3   OH227879   0.729   5.546   0.137 -0.0048 -0.2030  0.2283
 2107TIP3    H127880   0.654   5.514   0.087 -0.8664 -0.7662  1.8049
 2107TIP3    H227881   0.802   5.544   0.075 -1.3525  0.8085 -1.4961
 2108TIP3   OH227882   6.494   4.010   8.768  0.0047 -0.3846  0.0731
 2108TIP3    H127883   6.432   4.082   8.782 -0.4869 -0.8630  0.3731
 2108TIP3    H227884   6.565   4.027   8.829  0.3003  0.3020 -0.4405
 2109TIP3   OH227885   1.174   2.564   1.244 -0.2094  0.2680 -0.0860
 2109TIP3    H127886   1.221   2.500   1.190  0.4033  0.0585  0.6768
 2109TIP3    H227887   1.236   2.587   1.314 -1.1333  0.1953  0.7836
 2110TIP3   OH227888   3.715   4.266   2.066 -0.1781  0.3568  0.4267
 2110TIP3    H127889   3.672   4.200   2.121  0.1056 -0.5987 -0.4641
 2110TIP3    H227890   3.679   4.250   1.978  1.6274 -0.1673 -0.2526
 2111TIP3   OH227891   2.014   3.751   9.142  0.2024 -0.0863  0.2338
 2111TIP3    H127892   1.989   3.753   9.049 -1.6676  0.7768  0.7184
 2111TIP3    H227893   2.110   3.753   9.141  0.2496 -0.9256 -1.6837
 2112TIP3   OH227894   4.530   5.526   1.151  0.0716 -0.2366 -0.1105
 2112TIP3    H127895   4.449   5.557   1.109 -0.5934 -1.7269  0.0044
 2112TIP3    H227896   4.565   5.461   1.091  0.9217  0.0292  0.0873
 2113TIP3   OH227897   0.599   3.608   1.601  0.9437 -0.6645  0.0863
 2113TIP3    H127898   0.561   3.687   1.562  0.9370 -0.8227 -0.2338
 2113TIP3    H227899   0.652   3.640   1.674 -0.2769 -0.4875  0.9185
 2114TIP3   OH227900   1.585   5.182   8.277 -0.2943  0.3372  0.5820
 2114TIP3    H127901   1.632   5.109   8.317 -0.1358  1.3324  2.3128
 2114TIP3    H227902   1.532   5.142   8.208  2.6628 -0.9105 -1.1706
 2115TIP3   OH227903   6.197   5.446   2.188  0.0992 -0.1194 -0.1063
 2115TIP3    H127904   6.292   5.441   2.195  0.0198 -0.7147  0.6720
 2115TIP3    H227905   6.168   5.474   2.275 -0.3697  1.3088 -0.6906
 2116TIP3   OH227906   6.331   1.619   7.797 -0.0834 -0.2668 -0.2099
 2116TIP3    H127907   6.411   1.587   7.754  0.0425 -0.4621  0.1636
 2116TIP3    H227908   6.315   1.704   7.756  1.7547  0.9746  1.4325
 2117TIP3   OH227909   5.853   5.941   1.038  0.1415  0.1134  0.1036
 2117TIP3    H127910   5.884   6.030   1.023 -1.4820  0.7460  0.2765
 2117TIP3    H227911   5.848   5.933   1.133 -0.7148  0.2320  0.0810
 2118TIP3   OH227912   4.451   2.900   8.260 -0.1347  0.1750  0.1565
 2118TIP3    H127913   4.469   2.813   8.296 -2.8308  0.3550  2.2466
 2118TIP3    H227914   4.517   2.956   8.301  1.8144 -0.7971 -1.4239
 2119TIP3   OH227915   1.343   2.758   1.504  0.3808  0.4433  0.1902
 2119TIP3    H127916   1.323   2.812   1.427 -3.6359 -0.4228  0.3758
 2119TIP3    H227917   1.371   2.821   1.570 -0.9472  1.9430 -0.5715
 2120TIP3   OH227918   3.647   2.499   1.278  0.7192  0.1648 -0.5529
 2120TIP3    H127919   3.630   2.472   1.368 -1.7304 -0.2977 -1.0773
 2120TIP3    H227920   3.665   2.593   1.284  0.3482  0.1845  0.3806
 2121TIP3   OH227921   3.245   4.471   0.776 -0.2400 -0.0933 -0.8004
 2121TIP3    H127922   3.219   4.426   0.856  0.8414  0.0873 -0.3336
 2121TIP3    H227923   3.220   4.562   0.791  1.2467  0.2247 -0.0478
 2122TIP3   OH227924   5.480   6.178   1.624  0.7894  0.2186  0.0709
 2122TIP3    H127925   5.426   6.099   1.618  0.4699  0.4179  0.3132
 2122TIP3    H227926   5.497   6.188   1.717  0.8763  0.4064  0.0353
 2123TIP3   OH227927   1.914   0.509   1.890  0.3363 -0.4960  0.1215
 2123TIP3    H127928   1.858   0.536   1.816 -0.1110 -0.7124  0.3753
 2123TIP3    H227929   1.896   0.416   1.900  0.3015 -0.4405  0.5827
 2124TIP3   OH227930   3.166   2.979   1.795 -0.6059  0.2524 -0.1067
 2124TIP3    H127931   3.157   2.960   1.702 -1.3419  0.3610 -0.0577
 2124TIP3    H227932   3.224   2.910   1.828 -0.3583  0.2022 -0.6325
 2125TIP3   OH227933   1.707   0.793   8.671 -0.5991 -0.2849 -0.5301
 2125TIP3    H127934   1.738   0.777   8.760  1.0459  2.1012 -0.5929
 2125TIP3    H227935   1.736   0.717   8.621  0.2450 -0.6967  0.5625
 2126TIP3   OH227936   2.374   1.457   1.374 -0.2593 -0.0700  0.3066
 2126TIP3    H127937   2.405   1.539   1.411  0.9852  0.0233 -0.8948
 2126TIP3    H227938   2.437   1.391   1.405  1.0602  0.0671 -1.8532
 2127TIP3   OH227939   0.846   5.576   9.067  0.5806 -0.0566  0.3667
 2127TIP3    H127940   0.870   5.611   8.981  0.3559  1.0352  0.7260
 2127TIP3    H227941   0.753   5.555   9.060 -0.2339  2.8253  1.1611
 2128TIP3   OH227942   6.425   0.978   1.818 -0.5641  0.3271  0.1465
 2128TIP3    H127943   6.440   1.050   1.757  1.5720  0.1525  0.3927
 2128TIP3    H227944   6.513   0.949   1.844 -1.3885 -0.6968  2.0232
 2129TIP3   OH227945   4.081   1.326   9.304 -0.3232 -0.0498  0.0187
 2129TIP3    H127946   4.041   1.371   9.230  1.3756  0.1685 -0.8163
 2129TIP3    H227947   4.175   1.334   9.289  0.0493 -1.1185  1.5408
 2130TIP3   OH227948   0.772   2.638   7.323  0.0110  0.3363 -0.1425
 2130TIP3    H127949   0.744   2.627   7.414  2.7402  0.0910  0.7721
 2130TIP3    H227950   0.755   2.553   7.282 -0.7825  0.2909  0.2627
 2131TIP3   OH227951   2.304   4.074   0.394 -0.2789 -0.1733  0.3474
 2131TIP3    H127952   2.273   3.986   0.370 -1.0102 -0.0565  0.8071
 2131TIP3    H227953   2.353   4.105   0.318 -1.4260 -0.3214 -0.4676
 2132TIP3   OH227954   5.657   6.421   0.612 -0.0729 -0.1468  0.5309
 2132TIP3    H127955   5.630   6.460   0.529 -0.0222  0.4346  0.7779
 2132TIP3    H227956   5.721   6.483   0.648  0.0330 -0.4758  0.9198
 2133TIP3   OH227957   1.583   0.835   0.313 -0.2551 -0.3485 -0.8202
 2133TIP3    H127958   1.571   0.813   0.221 -1.0319 -0.1535 -0.7704
 2133TIP3    H227959   1.495   0.856   0.344  0.1712  0.8669 -0.3694
 2134TIP3   OH227960   0.785   5.216   8.477  0.2310 -0.4871  0.2816
 2134TIP3    H127961   0.767   5.210   8.383  1.9438 -2.4253  0.0164
 2134TIP3    H227962   0.867   5.266   8.482  0.9057 -1.6079  0.6265
 2135TIP3   OH227963   2.613   1.608   7.240  0.0454  0.7554 -0.4179
 2135TIP3    H127964   2.670   1.551   7.189  0.4281  0.5124  0.2669
 2135TIP3    H227965   2.602   1.563   7.324 -0.3756  1.2586 -0.1952
 2136TIP3   OH227966   1.577   4.189   0.452  0.0450 -0.3040  0.3905
 2136TIP3    H127967   1.659   4.208   0.406  0.0194  0.8996  0.8075
 2136TIP3    H227968   1.531   4.273   0.455 -1.8735 -1.2237 -1.0798
 2137TIP3   OH227969   2.884   4.978   0.008 -0.2722  0.1653 -0.0856
 2137TIP3    H127970   2.865   4.980   0.101  1.0051 -1.2425  0.2629
 2137TIP3    H227971   2.909   4.887  -0.009 -1.1186  0.2315 -1.9410
 2138TIP3   OH227972   3.587   6.445   8.737 -0.2245  0.0955 -0.2831
 2138TIP3    H127973   3.538   6.393   8.673  0.6747 -1.1615 -0.0084
 2138TIP3    H227974   3.649   6.382   8.776  0.6407  1.2991  0.3590
 2139TIP3   OH227975   5.244   4.750   8.018  0.2179 -0.9090 -0.0333
 2139TIP3    H127976   5.223   4.843   8.030 -0.0299 -0.5719 -2.5153
 2139TIP3    H227977   5.178   4.718   7.957  0.0693 -2.8618  1.0710
 2140TIP3   OH227978   3.018   5.446   1.615 -0.5399  0.2444  0.7219
 2140TIP3    H127979   3.074   5.433   1.691  1.2702 -1.0733 -0.7236
 2140TIP3    H227980   2.964   5.367   1.611  1.0997 -0.9045 -0.6287
 2141TIP3   OH227981   0.343   0.603   8.034  0.0034 -0.0301 -0.4543
 2141TIP3    H127982   0.376   0.526   7.988 -0.0793 -0.7038  0.5576
 2141TIP3    H227983   0.420   0.656   8.051  0.0627  0.1146 -1.1588
 2142TIP3   OH227984   4.025   0.433   8.607  0.1896  0.1721  0.5583
 2142TIP3    H127985   4.080   0.491   8.554 -0.3532  0.4442  0.2847
 2142TIP3    H227986   4.086   0.390   8.667  0.6242  0.8890  0.6370
 2143TIP3   OH227987   3.568   4.275   7.997  0.9507  0.1236  0.7120
 2143TIP3    H127988   3.556   4.180   8.005  0.4912  0.1249  0.0958
 2143TIP3    H227989   3.539   4.295   7.908  2.3941  0.6289  0.3263
 2144TIP3   OH227990   2.656   4.784   0.133 -0.2511  0.5655  0.2296
 2144TIP3    H127991   2.709   4.851   0.176  0.2507 -1.1147  2.4008
 2144TIP3    H227992   2.712   4.706   0.133 -1.5294 -0.3882 -0.4595
 2145TIP3   OH227993   5.141   6.285   0.908  0.0359 -0.3439 -0.2853
 2145TIP3    H127994   5.099   6.371   0.916  0.7459  0.2662 -2.4640
 2145TIP3    H227995   5.233   6.305   0.892 -0.1253 -1.3880 -2.9655
 2146TIP3   OH227996   0.943   2.726   7.597  0.4329 -0.1848 -0.7883
 2146TIP3    H127997   1.025   2.683   7.573  1.6243  0.1300  2.2539
 2146TIP3    H227998   0.965   2.780   7.673 -2.1334  1.7731 -1.2767
 2147TIP3   OH227999   4.783   4.104   0.435  0.3253  0.3294  0.1629
 2147TIP3    H128000   4.702   4.144   0.403  1.3055  2.4750  0.1946
 2147TIP3    H228001   4.843   4.110   0.360  1.4458  1.8476  1.1209
 2148TIP3   OH228002   5.286   1.672   0.977 -0.0280 -0.2474 -0.0157
 2148TIP3    H128003   5.222   1.697   1.044  1.3615 -1.6326  1.9331
 2148TIP3    H228004   5.323   1.755   0.946  0.0186  0.3992  1.6900
 2149TIP3   OH228005   3.630   6.176   9.181 -0.3071 -0.2656  0.1075
 2149TIP3    H128006   3.623   6.259   9.133  0.2190 -0.6910 -0.7411
 2149TIP3    H228007   3.599   6.196   9.269  0.6542  1.0610  0.1744
 2150TIP3   OH228008   5.960   2.417   8.937  0.3417 -0.0846  0.2246
 2150TIP3    H128009   5.868   2.428   8.912  0.1033 -2.9159 -0.5846
 2150TIP3    H228010   5.989   2.504   8.962 -2.0113  1.2694 -1.3490
 2151TIP3   OH228011   0.387   5.260   2.357 -0.1786 -0.0635  0.3291
 2151TIP3    H128012   0.299   5.297   2.344  0.5800  1.3700 -1.2746
 2151TIP3    H228013   0.375   5.166   2.353 -1.7810  0.0668  1.2632
 2152TIP3   OH228014   1.383   1.930   6.896 -0.4311  0.3138  0.0475
 2152TIP3    H128015   1.289   1.911   6.903 -0.0142 -1.3732  1.9700
 2152TIP3    H228016   1.421   1.848   6.866  0.7177  0.0025  2.1551
 2153TIP3   OH228017   1.795   1.961   2.802 -0.1773 -0.3322  0.5548
 2153TIP3    H128018   1.783   1.991   2.892  0.2705  1.4363  0.0588
 2153TIP3    H228019   1.758   1.873   2.802 -0.4912 -0.2515  2.3844
 2154TIP3   OH228020   5.538   6.029   1.330  0.1265  0.6601 -0.1209
 2154TIP3    H128021   5.468   6.044   1.266 -1.8946  0.2292  1.8513
 2154TIP3    H228022   5.540   6.110   1.381  0.5197  0.3569  0.3486
 2155TIP3   OH228023   0.275   2.889   7.832 -0.8600  0.6376 -0.3935
 2155TIP3    H128024   0.228   2.807   7.849  0.4808 -0.2766 -0.8806
 2155TIP3    H228025   0.282   2.931   7.918  0.0724 -0.6937  0.2249
 2156TIP3   OH228026   2.605   6.415   1.256 -0.4796 -0.1091  0.3162
 2156TIP3    H128027   2.596   6.399   1.350  0.4225 -1.5233  0.1952
 2156TIP3    H228028   2.629   6.330   1.220 -0.4058  0.5081 -1.1496
 2157TIP3   OH228029   4.263   0.581   7.702 -0.2448  0.2680  0.1441
 2157TIP3    H128030   4.334   0.523   7.675  0.4657  0.7158  0.9914
 2157TIP3    H228031   4.301   0.668   7.700 -1.2467  0.7030 -0.9223
 2158TIP3   OH228032   5.397   4.956   2.138  0.9836  0.3339  0.0897
 2158TIP3    H128033   5.455   5.000   2.076 -0.3897  0.6901 -0.9825
 2158TIP3    H228034   5.394   4.865   2.108 -1.2969  0.9172 -1.7087
 2159TIP3   OH228035   3.890   3.143   8.344  0.1266 -0.2943 -0.1058
 2159TIP3    H128036   3.959   3.099   8.293 -0.3650  0.2479 -1.2709
 2159TIP3    H228037   3.936   3.214   8.389  0.3992 -0.1899 -0.5423
 2160TIP3   OH228038   6.030   6.200   1.552 -0.1072  0.2812 -0.1659
 2160TIP3    H128039   6.055   6.239   1.635 -1.0856  0.8357 -0.1157
 2160TIP3    H228040   5.942   6.233   1.535  0.4970  1.0943 -1.9869
 2161TIP3   OH228041   4.715   3.994   8.263  0.2418 -0.2668  0.4391
 2161TIP3    H128042   4.799   4.019   8.224 -0.3182  2.1980  0.6760
 2161TIP3    H228043   4.673   3.940   8.196  1.1980  0.1042 -0.5004
 2162TIP3   OH228044   4.508   4.279   8.016  0.2119 -0.3729  0.0057
 2162TIP3    H128045   4.510   4.329   8.097 -0.6451 -0.4802  0.1008
 2162TIP3    H228046   4.469   4.195   8.040 -0.2774 -0.3203 -0.5536
 2163TIP3   OH228047   4.868   4.716   8.757  0.1488 -0.0796 -0.0528
 2163TIP3    H128048   4.844   4.790   8.812  4.0459  1.7393 -0.4527
 2163TIP3    H228049   4.895   4.756   8.674  0.3573 -2.1507 -1.0443
 2164TIP3   OH228050   2.289   3.816   9.205  0.2752 -0.1922 -0.5927
 2164TIP3    H128051   2.362   3.857   9.157  1.4751 -1.8851 -0.3341
 2164TIP3    H228052   2.316   3.724   9.213 -1.9829 -0.9027 -0.6023
 2165TIP3   OH228053   0.864   0.837   8.360 -0.7339 -0.7046 -0.3556
 2165TIP3    H128054   0.808   0.890   8.303  0.5559 -0.1799 -1.1653
 2165TIP3    H228055   0.921   0.788   8.300  0.3906 -0.4398  0.4617
 2166TIP3   OH228056   2.772   4.183   9.416 -0.4013  0.1581 -0.0835
 2166TIP3    H128057   2.765   4.234   9.497 -0.8529 -0.2553  0.1479
 2166TIP3    H228058   2.681   4.170   9.388 -0.3443 -1.0296  0.2019
 2167TIP3   OH228059   2.524   4.152   1.658 -0.4120 -0.1571 -0.2067
 2167TIP3    H128060   2.460   4.165   1.587 -0.1855  0.6909 -0.2714
 2167TIP3    H228061   2.482   4.192   1.734  0.5692  1.6711 -0.5472
 2168TIP3   OH228062   4.058   5.337   1.680  0.4342 -0.5473  0.2892
 2168TIP3    H128063   4.133   5.396   1.675 -0.6371  0.7725 -1.3761
 2168TIP3    H228064   4.093   5.251   1.656  1.5765 -0.1234  0.3796
 2169TIP3   OH228065   5.693   6.212   8.137 -0.4206 -0.6683 -0.0801
 2169TIP3    H128066   5.696   6.289   8.193  0.8440 -0.8952  0.1841
 2169TIP3    H228067   5.614   6.225   8.084  0.1000  1.1077 -0.4899
 2170TIP3   OH228068   2.340   0.126   0.053  0.1159 -0.3719 -0.4535
 2170TIP3    H128069   2.361   0.154  -0.037 -0.0777  1.1664 -0.0449
 2170TIP3    H228070   2.397   0.051   0.068  2.6473  1.3731 -0.7080
 2171TIP3   OH228071   6.221   1.935   8.464  0.0716  0.2055  0.2582
 2171TIP3    H128072   6.198   2.015   8.417 -0.8781  0.4157  1.0447
 2171TIP3    H228073   6.138   1.901   8.498  0.7746  0.6506  2.6697
 2172TIP3   OH228074   4.853   0.976   0.748  0.0858 -0.1510 -0.0525
 2172TIP3    H128075   4.841   1.069   0.770 -0.4545 -0.3037  0.3067
 2172TIP3    H228076   4.930   0.949   0.798  0.9584  0.3932 -1.0487
 2173TIP3   OH228077   5.356   3.982   0.396  0.1233  0.5400  0.1571
 2173TIP3    H128078   5.330   4.044   0.464 -1.4273 -0.3927  0.4614
 2173TIP3    H228079   5.275   3.936   0.373  0.9590 -0.3793 -1.0724
 2174TIP3   OH228080   2.460   5.281   1.464 -0.0333  0.1095  0.0275
 2174TIP3    H128081   2.426   5.340   1.398 -1.7301 -1.8132 -0.9054
 2174TIP3    H228082   2.536   5.240   1.423  0.3967  0.6719  0.2294
 2175TIP3   OH228083   2.080   1.388   7.577 -0.2964  0.7041  0.6580
 2175TIP3    H128084   2.036   1.322   7.523  0.0865  0.5525  0.5273
 2175TIP3    H228085   2.016   1.458   7.587  0.0952  1.4048 -1.2180
 2176TIP3   OH228086   5.876   1.759   0.927 -0.0049  0.0011 -0.4084
 2176TIP3    H128087   5.822   1.837   0.932  2.3615  1.6817  0.3033
 2176TIP3    H228088   5.901   1.753   0.834  1.1073  1.0848 -0.2071
 2177TIP3   OH228089   3.482   0.579   2.252  0.1546 -0.2078  0.1056
 2177TIP3    H128090   3.573   0.602   2.236 -0.3284  1.4337 -0.5460
 2177TIP3    H228091   3.433   0.633   2.189 -1.1497 -2.5077 -0.9509
 2178TIP3   OH228092   4.344   3.320   7.650 -0.1111 -0.2956 -0.5002
 2178TIP3    H128093   4.436   3.328   7.625 -0.0114  0.8849  0.1714
 2178TIP3    H228094   4.305   3.404   7.625 -1.1454 -0.9595 -1.2389
 2179TIP3   OH228095   2.165   2.150   0.825 -0.8259  0.1365  0.5437
 2179TIP3    H128096   2.083   2.102   0.836 -1.8374  1.2429 -1.5427
 2179TIP3    H228097   2.150   2.233   0.871  0.2095 -0.6953  2.5045
 2180TIP3   OH228098   1.411   1.838   0.102 -0.2473  0.4006  0.5214
 2180TIP3    H128099   1.379   1.822   0.013 -2.0236 -0.4731  1.2575
 2180TIP3    H228100   1.350   1.901   0.139  2.5123  3.6050  0.0557
 2181TIP3   OH228101   1.497   4.068   1.603 -0.3471  0.0667 -0.5076
 2181TIP3    H128102   1.424   4.030   1.554  1.0120 -1.6461 -1.3336
 2181TIP3    H228103   1.572   4.014   1.579  1.6429  2.9309 -1.2786
 2182TIP3   OH228104   2.970   5.853   8.313 -0.2720 -0.0978 -0.3118
 2182TIP3    H128105   2.967   5.760   8.290 -1.9998 -0.8152  2.3934
 2182TIP3    H228106   3.051   5.885   8.273  0.0340 -2.5667 -1.8691
 2183TIP3   OH228107   3.065   2.118   0.426  0.3589  0.3719  0.0295
 2183TIP3    H128108   3.095   2.034   0.458  0.0465  0.1008 -0.3769
 2183TIP3    H228109   3.018   2.157   0.500 -1.9341 -1.0275 -0.5830
 2184TIP3   OH228110   1.840   3.382   1.289  0.5635 -0.0023 -0.0480
 2184TIP3    H128111   1.794   3.465   1.295  0.4538 -0.0509 -0.2210
 2184TIP3    H228112   1.874   3.367   1.377  0.2556  0.0347  0.0765
 2185TIP3   OH228113   6.323   2.334   0.432 -0.1356  0.0033 -0.4245
 2185TIP3    H128114   6.325   2.357   0.339 -1.1752  2.3392  0.0577
 2185TIP3    H228115   6.414   2.337   0.460  0.0767  0.4038 -1.1435
 2186TIP3   OH228116   3.682   4.556   1.066  0.0503 -0.0681  0.0216
 2186TIP3    H128117   3.684   4.503   0.987  0.2092 -1.4470  0.9238
 2186TIP3    H228118   3.595   4.539   1.104  0.8141 -1.2355  1.3230
 2187TIP3   OH228119   1.342   6.528   8.310  0.2708  0.0184  0.5615
 2187TIP3    H128120   1.261   6.477   8.310  0.0027  0.4194 -0.7186
 2187TIP3    H228121   1.327   6.597   8.375 -1.1300  1.1642 -0.9115
 2188TIP3   OH228122   2.439   4.082   7.877  0.1336  0.2833 -0.5151
 2188TIP3    H128123   2.348   4.104   7.899  0.4684  0.4079  0.8916
 2188TIP3    H228124   2.491   4.129   7.943  1.0273 -2.4237  0.8839
 2189TIP3   OH228125   2.360   5.781   0.386 -0.0720 -0.1447  0.3962
 2189TIP3    H128126   2.313   5.699   0.403  2.3343 -1.9851 -1.0916
 2189TIP3    H228127   2.305   5.827   0.322 -0.9263 -1.1382  0.3810
 2190TIP3   OH228128   2.449   4.243   9.484  0.4500 -0.0160  0.0000
 2190TIP3    H128129   2.461   4.174   9.418 -1.9727 -0.3679 -0.1626
 2190TIP3    H228130   2.366   4.285   9.460  0.6528  1.3491  1.5385
 2191TIP3   OH228131   2.546   1.174   8.153  0.3391  0.0730 -0.3872
 2191TIP3    H128132   2.531   1.266   8.133 -1.2772  0.3814  1.8537
 2191TIP3    H228133   2.631   1.172   8.196 -0.8617  1.0656  2.2316
 2192TIP3   OH228134   1.185   3.544   1.694  0.7385 -0.1740 -0.4331
 2192TIP3    H128135   1.176   3.582   1.782  1.2028  1.5781 -1.1085
 2192TIP3    H228136   1.142   3.607   1.637  1.0744 -0.9425 -1.5553
 2193TIP3   OH228137   1.676   6.007   1.075  0.1778  0.1473  0.0336
 2193TIP3    H128138   1.632   6.017   0.991 -1.2136  3.3405  0.9718
 2193TIP3    H228139   1.766   6.035   1.058  0.7452 -2.0938 -0.9471
 2194TIP3   OH228140   5.383   1.149   9.052  0.5633  0.4080  0.1269
 2194TIP3    H128141   5.465   1.188   9.024  0.2937  0.9744  0.1085
 2194TIP3    H228142   5.317   1.188   8.994  0.3031 -0.1626  0.0347
 2195TIP3   OH228143   2.202   5.861   0.150  0.0646  0.1069 -0.1940
 2195TIP3    H128144   2.121   5.821   0.120 -0.0298  0.4438 -0.3973
 2195TIP3    H228145   2.174   5.933   0.206  0.1786  1.0446 -1.2952
 2196TIP3   OH228146   0.810   0.012   8.682  0.1803  0.0216  0.9170
 2196TIP3    H128147   0.823   0.001   8.588 -0.3035 -0.5730  0.9119
 2196TIP3    H228148   0.885   0.063   8.711 -0.4021  1.5030 -0.0378
 2197TIP3   OH228149   1.326   1.767   9.414 -0.0280  0.3545  0.6664
 2197TIP3    H128150   1.232   1.759   9.429 -0.1288 -0.4123 -0.2726
 2197TIP3    H228151   1.334   1.777   9.319  0.8678 -0.0954  0.6828
 2198TIP3   OH228152   0.844   5.393   9.473 -0.0850 -0.1727  0.4854
 2198TIP3    H128153   0.869   5.383   9.381 -1.0031  0.7396  0.1140
 2198TIP3    H228154   0.894   5.468   9.503  0.9822 -1.0752  1.0486
 2199TIP3   OH228155   6.473   1.737   0.426  0.1616  0.3467 -0.0142
 2199TIP3    H128156   6.474   1.730   0.330 -0.8466 -1.6154  0.0700
 2199TIP3    H228157   6.411   1.807   0.444 -2.2996 -1.4804 -0.7968
 2200TIP3   OH228158   6.188   3.662   0.100  0.1155 -0.2849 -0.0149
 2200TIP3    H128159   6.283   3.672   0.090 -0.0298 -0.5836 -1.9666
 2200TIP3    H228160   6.156   3.644   0.012 -2.0104  1.7628  0.2396
 2201TIP3   OH228161   1.756   3.757   9.450  0.3203  0.1722  0.2845
 2201TIP3    H128162   1.793   3.672   9.477 -0.5842 -0.1274  0.6107
 2201TIP3    H228163   1.756   3.753   9.355 -0.7746 -0.6817  0.2998
 2202TIP3   OH228164   5.490   4.396   7.547 -0.0843  0.3424 -0.2246
 2202TIP3    H128165   5.562   4.334   7.554 -0.7483 -0.4024  0.0700
 2202TIP3    H228166   5.502   4.436   7.460 -1.2582 -2.2410 -1.6807
 2203TIP3   OH228167   3.222   5.244   2.748  0.7158  0.6528  0.1343
 2203TIP3    H128168   3.142   5.286   2.779  0.1067 -0.3830  0.0089
 2203TIP3    H228169   3.260   5.205   2.826  1.2587  1.3722  0.2424
 2204TIP3   OH228170   4.299   2.338   7.761  0.2969 -0.2562  0.2926
 2204TIP3    H128171   4.393   2.344   7.781  0.5855 -2.1679 -0.2823
 2204TIP3    H228172   4.279   2.419   7.714  1.5862  0.3204  0.6976
 2205TIP3   OH228173   3.993   0.675   0.713 -0.2798  0.1036 -0.3629
 2205TIP3    H128174   3.925   0.639   0.655 -0.6453 -0.1659  0.2151
 2205TIP3    H228175   4.025   0.753   0.668 -0.3610 -0.2548 -1.0553
 2206TIP3   OH228176   0.759   4.922   1.285 -0.5329 -0.5070  0.6883
 2206TIP3    H128177   0.838   4.870   1.298  0.2766  0.5104 -0.0038
 2206TIP3    H228178   0.715   4.881   1.210  0.9569  0.7261 -0.9428
 2207TIP3   OH228179   0.979   5.386   0.556 -0.4993  0.1442  0.1309
 2207TIP3    H128180   0.979   5.385   0.652 -0.1835 -3.2024  0.2322
 2207TIP3    H228181   1.070   5.403   0.533  0.4247 -3.1846  0.6978
 2208TIP3   OH228182   3.395   3.697   1.231  0.1309 -0.2741 -0.0185
 2208TIP3    H128183   3.393   3.788   1.200  1.9838  0.1950  1.0991
 2208TIP3    H228184   3.390   3.644   1.151  1.0610  0.8413 -0.8492
 2209TIP3   OH228185   2.165   2.567   0.651  0.1685  0.6461  0.2634
 2209TIP3    H128186   2.119   2.506   0.593  1.1252 -1.0805  1.2414
 2209TIP3    H228187   2.255   2.568   0.619  0.0599  2.0252 -0.0752
 2210TIP3   OH228188   0.115   5.581   8.025  0.6428 -0.5458  0.3106
 2210TIP3    H128189   0.210   5.596   8.027  0.6946 -0.7064 -0.5516
 2210TIP3    H228190   0.077   5.666   8.043  0.9252 -0.9526  3.3935
 2211TIP3   OH228191   1.741   0.994   8.454  0.7700  0.2175  0.1821
 2211TIP3    H128192   1.692   1.076   8.464  0.1960 -0.1757  0.6211
 2211TIP3    H228193   1.701   0.934   8.516 -1.8654 -1.8373 -3.1369
 2212TIP3   OH228194   6.251   2.940   0.402  0.2192  0.2160  0.2919
 2212TIP3    H128195   6.204   2.971   0.480 -0.7307  2.3142 -1.0246
 2212TIP3    H228196   6.236   2.846   0.401 -1.9135  0.4809  1.2906
 2213TIP3   OH228197   3.315   6.414   6.917 -0.7347 -0.8793  0.1039
 2213TIP3    H128198   3.238   6.471   6.920 -1.1717 -1.4247 -0.4296
 2213TIP3    H228199   3.279   6.326   6.906 -0.1238 -1.3989  1.8781
 2214TIP3   OH228200   2.821   0.969   8.167 -0.0080 -0.2656  0.1495
 2214TIP3    H128201   2.896   0.992   8.221 -0.0695  0.0716  0.0919
 2214TIP3    H228202   2.853   0.975   8.077  0.0734 -0.7508  0.1442
 2215TIP3   OH228203   0.614   6.213   8.365  0.4062  0.0833  0.1761
 2215TIP3    H128204   0.527   6.173   8.367  0.5355 -0.1953  1.7951
 2215TIP3    H228205   0.641   6.217   8.457  1.4407  1.6411 -0.1508
 2216TIP3   OH228206   4.157   5.160   1.934 -0.5187  0.0070  0.2555
 2216TIP3    H128207   4.133   5.137   1.844 -0.9559  0.7155  0.1842
 2216TIP3    H228208   4.209   5.240   1.926 -2.6716  1.5531  0.7741
 2217TIP3   OH228209   1.485   5.906   1.839 -0.4594 -0.1760  0.4756
 2217TIP3    H128210   1.425   5.879   1.769 -1.2489 -2.2209  1.8530
 2217TIP3    H228211   1.546   5.834   1.847 -0.4291 -0.0050  1.9306
 2218TIP3   OH228212   5.404   3.579   0.973  0.0642  0.5109  0.2358
 2218TIP3    H128213   5.330   3.639   0.970 -0.8793 -0.6614 -0.8225
 2218TIP3    H228214   5.467   3.617   0.911  1.3191  2.6312  2.6278
 2219TIP3   OH228215   5.077   4.484   1.362 -0.3733  0.5371  0.3410
 2219TIP3    H128216   5.112   4.541   1.293  0.6063 -0.2190  0.1812
 2219TIP3    H228217   5.136   4.409   1.362 -1.0585 -0.0145  1.2206
 2220TIP3   OH228218   1.339   3.694   8.952  0.2733 -0.1252  0.3934
 2220TIP3    H128219   1.358   3.601   8.937 -1.5321 -0.8551  2.0678
 2220TIP3    H228220   1.304   3.696   9.041 -5.6316  1.0704 -1.4804
 2221TIP3   OH228221   3.788   4.427   7.574 -0.4824 -0.2661  0.1534
 2221TIP3    H128222   3.790   4.488   7.501  0.8545 -0.6323 -0.1375
 2221TIP3    H228223   3.835   4.349   7.542  1.0827 -0.0387  1.7264
 2222TIP3   OH228224   0.481   5.200   8.229 -0.1507 -0.0631  0.5802
 2222TIP3    H128225   0.391   5.192   8.262 -0.1430 -1.6136  0.3030
 2222TIP3    H228226   0.473   5.182   8.136  0.4671 -0.4132  0.5912
 2223TIP3   OH228227   4.872   4.846   0.877  0.5814  0.1852  0.1224
 2223TIP3    H128228   4.789   4.801   0.859  0.8570  0.2654 -1.4857
 2223TIP3    H228229   4.917   4.848   0.793  2.6078 -0.5861  1.1252
 2224TIP3   OH228230   4.173   1.208   0.847 -0.5498  0.1944  0.0854
 2224TIP3    H128231   4.079   1.188   0.857 -0.9510  2.1362  0.4995
 2224TIP3    H228232   4.205   1.217   0.936  0.5107 -2.2565  0.0297
 2225TIP3   OH228233   4.451   6.251   7.875 -0.4046 -0.3700  0.3344
 2225TIP3    H128234   4.452   6.294   7.789  0.1145  1.3461  1.1494
 2225TIP3    H228235   4.405   6.169   7.860 -0.4509 -0.0484 -1.5589
 2226TIP3   OH228236   0.044   0.038   8.559  0.4474 -0.9866 -0.1553
 2226TIP3    H128237   0.037   0.125   8.519  0.3015 -0.5069  0.8781
 2226TIP3    H228238   0.131   0.007   8.535  1.1193  0.1140  0.7442
 2227TIP3   OH228239   1.290   0.817   8.827  0.8116  0.3684 -0.6623
 2227TIP3    H128240   1.368   0.872   8.824  1.3622 -0.2041  1.5955
 2227TIP3    H228241   1.253   0.831   8.914 -0.3783 -1.0128 -0.9003
 2228TIP3   OH228242   2.656   6.387   0.478 -0.1360  0.0733 -0.2080
 2228TIP3    H128243   2.579   6.443   0.475  1.0140  1.7660  0.1544
 2228TIP3    H228244   2.684   6.389   0.570  0.7810  0.1418 -0.4784
 2229TIP3   OH228245   6.466   0.493   8.133 -0.1942 -0.3943  0.5446
 2229TIP3    H128246   6.455   0.467   8.042  2.6213 -2.3013  0.6034
 2229TIP3    H228247   6.434   0.418   8.183 -2.1897  0.8400  1.2110
 2230TIP3   OH228248   2.210   5.073   9.093  0.1587  0.6444 -0.4435
 2230TIP3    H128249   2.129   5.082   9.144 -0.9744  2.6994 -2.4530
 2230TIP3    H228250   2.183   5.036   9.010  1.5743 -0.1175 -0.6066
 2231TIP3   OH228251   5.002   5.382   7.202 -0.1060  0.6543  0.1876
 2231TIP3    H128252   4.956   5.453   7.157 -1.3161  0.2935  0.8077
 2231TIP3    H228253   5.081   5.423   7.237  0.3150  1.1846 -1.3082
 2232TIP3   OH228254   2.927   0.119   8.830 -0.2008  0.2291 -0.4306
 2232TIP3    H128255   2.853   0.070   8.867 -0.4549  1.9676  1.5610
 2232TIP3    H228256   2.893   0.155   8.748 -1.6904  1.1151  0.5141
 2233TIP3   OH228257   3.571   3.241   0.416  0.2018 -0.3125 -0.2214
 2233TIP3    H128258   3.547   3.308   0.480 -3.8094 -1.7542  0.1007
 2233TIP3    H228259   3.542   3.159   0.457  0.9697 -1.7214 -2.3719
 2234TIP3   OH228260   4.022   3.873   9.476  0.3824  0.4087  0.0685
 2234TIP3    H128261   4.042   3.780   9.467  0.4189  0.2270  1.7072
 2234TIP3    H228262   4.058   3.913   9.397 -0.4187 -1.0776 -1.0980
 2235TIP3   OH228263   3.625   4.141   8.602 -0.0910  0.1952  0.1612
 2235TIP3    H128264   3.611   4.135   8.696 -0.1484  1.2253  0.2343
 2235TIP3    H228265   3.538   4.142   8.564 -0.0665 -1.3727 -0.0161
 2236TIP3   OH228266   2.728   1.577   1.211  0.1552  0.3500 -0.2318
 2236TIP3    H128267   2.769   1.592   1.297  0.9646  1.2032 -0.7369
 2236TIP3    H228268   2.758   1.651   1.158 -1.6321  0.7193 -0.7967
 2237TIP3   OH228269   4.348   2.960   1.368  0.0970 -0.6656  0.4602
 2237TIP3    H128270   4.362   3.038   1.421 -0.2672 -0.5788  0.4345
 2237TIP3    H228271   4.270   2.980   1.315  0.9306 -0.4270 -0.7170
 2238TIP3   OH228272   0.135   4.093   1.382 -0.0741 -0.3764  0.8553
 2238TIP3    H128273   0.102   4.175   1.419 -1.4764 -0.4024 -0.2563
 2238TIP3    H228274   0.077   4.026   1.419 -0.7322 -0.5345 -0.4242
 2239TIP3   OH228275   4.410   2.177   1.405 -0.5657  0.1861 -0.1336
 2239TIP3    H128276   4.485   2.202   1.352 -0.0332  2.0345  1.3739
 2239TIP3    H228277   4.340   2.236   1.376 -0.4313  0.8180  0.8000
 2240TIP3   OH228278   4.113   1.360   8.216 -0.2552  0.5223  0.4889
 2240TIP3    H128279   4.032   1.371   8.266  0.0822  2.5821  0.6846
 2240TIP3    H228280   4.173   1.425   8.253  1.3219 -0.6034 -0.0090
 2241TIP3   OH228281   1.525   2.142   6.952 -0.1249  0.3597 -0.0115
 2241TIP3    H128282   1.453   2.184   6.999 -1.4259  0.4937 -2.0121
 2241TIP3    H228283   1.487   2.061   6.918  0.7106  0.3481 -0.9574
 2242TIP3   OH228284   4.926   4.341   7.279  0.2479  0.1191  0.2014
 2242TIP3    H128285   4.900   4.430   7.302  0.9899  0.8928 -1.7811
 2242TIP3    H228286   4.854   4.309   7.225  0.4214 -0.1453  0.1273
 2243TIP3   OH228287   0.616   6.299   0.527  0.3323  0.1926 -0.2576
 2243TIP3    H128288   0.587   6.254   0.606  3.1721 -0.6547  0.4310
 2243TIP3    H228289   0.548   6.364   0.510 -2.5997 -2.4740  0.2735
 2244TIP3   OH228290   3.283   5.254   0.028  0.2728  0.5007  0.2028
 2244TIP3    H128291   3.359   5.290   0.073  0.7521  0.3113 -0.4490
 2244TIP3    H228292   3.210   5.310   0.056  0.2784 -0.4660  2.3336
 2245TIP3   OH228293   5.037   5.187   7.547  0.3387 -0.1378 -0.5610
 2245TIP3    H128294   5.012   5.095   7.556  0.5181 -0.0457  1.0849
 2245TIP3    H228295   5.124   5.183   7.505  0.1147 -0.6800 -0.9931
 2246TIP3   OH228296   4.018   3.987   9.203  0.4058 -0.6625  0.1623
 2246TIP3    H128297   4.090   4.016   9.147 -0.2579  2.0675  0.5386
 2246TIP3    H228298   3.960   3.938   9.145  0.4233  0.9080 -1.2768
 2247TIP3   OH228299   4.203   4.865   0.237  0.0859  0.4848  0.4534
 2247TIP3    H128300   4.136   4.851   0.303 -1.0655 -0.6718 -0.8867
 2247TIP3    H228301   4.155   4.893   0.159  1.1900 -0.0137 -0.4399
 2248TIP3   OH228302   2.788   0.485   0.060 -0.2553 -0.2995  0.0045
 2248TIP3    H128303   2.838   0.456   0.136 -0.6082 -2.0193 -0.3746
 2248TIP3    H228304   2.767   0.576   0.078 -0.8101 -0.8123  2.2421
 2249TIP3   OH228305   1.896   2.099   0.063  0.1851 -0.2442 -0.1178
 2249TIP3    H128306   1.902   2.102  -0.033 -2.8317 -2.1552 -0.4792
 2249TIP3    H228307   1.970   2.044   0.089  0.5521 -0.4111 -1.4088
 2250TIP3   OH228308   4.649   0.088   8.853 -0.2335 -0.0851 -0.3143
 2250TIP3    H128309   4.650   0.176   8.817 -1.2780 -0.1953 -0.6441
 2250TIP3    H228310   4.560   0.077   8.887 -0.8890 -1.8323 -2.3610
 2251TIP3   OH228311   6.492   6.224   1.622  0.0836  0.1179  0.5268
 2251TIP3    H128312   6.542   6.304   1.632  0.6871 -0.3418  1.3087
 2251TIP3    H228313   6.415   6.249   1.571 -0.3344  1.4487  1.7522
 2252TIP3   OH228314   4.847   0.515   0.914 -0.0742 -0.4509  0.6922
 2252TIP3    H128315   4.798   0.579   0.966  0.5311 -0.4398  1.2537
 2252TIP3    H228316   4.939   0.532   0.935  0.0622 -1.9729  1.4067
 2253TIP3   OH228317   0.078   5.260   0.536 -0.1187  0.2439  0.1782
 2253TIP3    H128318   0.089   5.320   0.462  0.3478  1.7688  1.4451
 2253TIP3    H228319   0.157   5.205   0.535 -0.5973 -0.4674 -1.0464
 2254TIP3   OH228320   4.290   2.163   8.043 -0.0920  0.4073  0.0792
 2254TIP3    H128321   4.381   2.181   8.020  0.2812 -1.1636  0.1987
 2254TIP3    H228322   4.275   2.073   8.015 -0.9164 -0.1428  2.0558
 2255TIP3   OH228323   5.870   1.136   8.046  0.0768 -0.3923 -0.2569
 2255TIP3    H128324   5.873   1.067   7.980 -0.2431 -0.2907 -0.3781
 2255TIP3    H228325   5.942   1.115   8.106 -0.6116 -1.3694  0.2516
 2256TIP3   OH228326   1.485   0.296   2.582 -0.2086 -0.1232 -0.4441
 2256TIP3    H128327   1.398   0.335   2.597 -0.4522 -0.3173 -1.3002
 2256TIP3    H228328   1.467   0.206   2.556  0.2077  0.0397 -1.3342
 2257TIP3   OH228329   1.711   3.499   8.231 -0.5126 -0.2969  0.3444
 2257TIP3    H128330   1.768   3.441   8.281 -1.0607 -0.2893  0.9887
 2257TIP3    H228331   1.690   3.449   8.152 -2.7475 -1.9333  1.8601
 2258TIP3   OH228332   0.480   2.536   3.117  0.7754 -0.3348  0.2572
 2258TIP3    H128333   0.518   2.458   3.158 -0.2671 -0.9946  0.0147
 2258TIP3    H228334   0.386   2.517   3.114  0.5390  0.8360 -0.0306
 2259TIP3   OH228335   2.764   0.775   1.466  0.0772  0.6028  0.3978
 2259TIP3    H128336   2.706   0.839   1.426 -0.1364  1.2760  1.6973
 2259TIP3    H228337   2.720   0.691   1.457  0.1051  0.7181 -0.8563
 2260TIP3   OH228338   4.325   0.630   8.914  0.5495 -0.6003 -0.4618
 2260TIP3    H128339   4.263   0.673   8.855  0.6620 -2.1286 -1.7416
 2260TIP3    H228340   4.407   0.626   8.865  0.2362 -3.3284 -0.9330
 2261TIP3   OH228341   0.337   5.625   8.181 -0.0274  0.1409 -0.0143
 2261TIP3    H128342   0.352   5.663   8.095  0.6697 -0.8188 -0.3329
 2261TIP3    H228343   0.423   5.592   8.208 -0.3318  0.0230  0.8475
 2262TIP3   OH228344   4.629   2.665   9.202 -0.1813 -0.4647  0.5029
 2262TIP3    H128345   4.646   2.651   9.109 -0.9278 -0.7110  0.4007
 2262TIP3    H228346   4.667   2.751   9.221 -0.9353  0.0460 -0.2617
 2263TIP3   OH228347   3.268   3.517   1.906 -0.1040 -0.0446 -0.4068
 2263TIP3    H128348   3.308   3.572   1.838 -0.2892  0.4786 -0.1014
 2263TIP3    H228349   3.236   3.441   1.859 -0.5654  0.4851 -0.9697
 2264TIP3   OH228350   2.064   1.175   9.189 -0.0411 -0.0451  0.5702
 2264TIP3    H128351   2.053   1.164   9.095  0.3566 -0.1026  0.5286
 2264TIP3    H228352   2.038   1.265   9.207  2.7160  0.9390 -0.0439
 2265TIP3   OH228353   3.614   3.927   0.188  0.0790  0.4074  0.2160
 2265TIP3    H128354   3.677   3.978   0.137 -0.9109  1.0446 -0.4056
 2265TIP3    H228355   3.651   3.926   0.276  0.1328  2.2621  0.2699
 2266TIP3   OH228356   3.264   5.355   8.544  0.3736  0.5170 -1.1369
 2266TIP3    H128357   3.224   5.296   8.480  0.0973 -0.1817 -0.3480
 2266TIP3    H228358   3.190   5.407   8.577  0.5495  1.0233 -1.5279
 2267TIP3   OH228359   4.408   2.855   0.109  0.2101  0.2360 -0.1241
 2267TIP3    H128360   4.424   2.947   0.125 -1.2249  0.2874  1.2714
 2267TIP3    H228361   4.456   2.835   0.029  2.2861  1.6528  0.7125
 2268TIP3   OH228362   0.094   3.336   9.537 -0.5871 -0.1425 -0.2022
 2268TIP3    H128363   0.149   3.392   9.591 -1.5899 -0.5553  1.3132
 2268TIP3    H228364   0.012   3.386   9.527  0.7104  1.6056 -4.5028
 2269TIP3   OH228365   1.037   5.884   1.571 -0.6573 -0.6034  0.0640
 2269TIP3    H128366   1.063   5.888   1.479 -0.0698  1.0662  0.2704
 2269TIP3    H228367   0.949   5.846   1.569 -0.4936 -0.9818 -1.1395
 2270TIP3   OH228368   2.973   0.516   7.479 -0.1679 -0.3964 -0.0541
 2270TIP3    H128369   2.995   0.428   7.449  0.0122 -0.4659  0.2723
 2270TIP3    H228370   3.047   0.570   7.449 -1.6812  0.2690 -2.9977
 2271TIP3   OH228371   1.880   0.975   2.794  0.2920  0.2999  0.0131
 2271TIP3    H128372   1.868   0.990   2.700  0.8034 -1.6053 -0.3923
 2271TIP3    H228373   1.946   0.906   2.800 -0.5874 -0.4569  1.7458
 2272TIP3   OH228374   0.363   3.179   0.653  0.1141  0.0533 -0.7623
 2272TIP3    H128375   0.334   3.247   0.592 -0.6879 -0.8217 -1.3800
 2272TIP3    H228376   0.374   3.101   0.599 -1.0753 -0.8699  0.2786
 2273TIP3   OH228377   4.874   1.881   0.860  0.3390 -0.4392 -0.2402
 2273TIP3    H128378   4.840   1.876   0.949  0.4308  0.0418 -0.1763
 2273TIP3    H228379   4.952   1.937   0.866  1.9204 -2.5422 -0.1666
 2274TIP3   OH228380   2.650   2.603   6.721 -0.7942  0.4123  0.0349
 2274TIP3    H128381   2.691   2.533   6.671 -1.6351 -1.2279  1.5308
 2274TIP3    H228382   2.556   2.584   6.718 -0.9364  0.7270  1.4982
 2275TIP3   OH228383   4.033   5.654   1.124  0.3623  0.3772 -0.4372
 2275TIP3    H128384   3.988   5.655   1.040 -3.0492  0.0008  1.2016
 2275TIP3    H228385   4.075   5.568   1.127  0.3902  0.3328 -1.6933
 2276TIP3   OH228386   0.481   2.073   7.822 -0.6179  0.5865  0.1229
 2276TIP3    H128387   0.487   2.158   7.866 -1.1302  0.7651 -0.1356
 2276TIP3    H228388   0.541   2.081   7.747 -0.0350  0.4171  0.5666
 2277TIP3   OH228389   1.351   4.962   8.467  0.5094 -0.0149 -0.1922
 2277TIP3    H128390   1.345   4.956   8.563  0.1279  0.1583 -0.2031
 2277TIP3    H228391   1.261   4.973   8.438  0.6983  0.7629 -0.5171
 2278TIP3   OH228392   6.098   6.496   8.639 -0.5628 -0.7642  0.3207
 2278TIP3    H128393   6.032   6.499   8.708  0.4526 -1.1051  1.3432
 2278TIP3    H228394   6.086   6.410   8.598 -0.7381 -0.8344  0.5166
 2279TIP3   OH228395   6.014   4.903   9.336  0.4076 -0.7616  0.4131
 2279TIP3    H128396   5.996   4.982   9.387  2.1747  0.0492 -0.1431
 2279TIP3    H228397   5.929   4.859   9.331 -1.5285  2.6736 -1.9409
 2280TIP3   OH228398   2.132   0.109   7.701 -0.0811  0.3190 -0.1359
 2280TIP3    H128399   2.204   0.076   7.756  0.2745  1.0689 -0.1429
 2280TIP3    H228400   2.175   0.134   7.619 -0.8949 -2.8560 -1.6829
 2281TIP3   OH228401   1.138   0.436   0.371  0.4720  0.5021 -0.2548
 2281TIP3    H128402   1.140   0.507   0.436  1.3654 -0.2763  0.5995
 2281TIP3    H228403   1.199   0.371   0.405  0.0417 -0.4645 -1.2797
 2282TIP3   OH228404   4.075   3.432   7.207 -0.7988  0.3100  0.0359
 2282TIP3    H128405   4.130   3.443   7.129  0.2022  1.2231  0.8312
 2282TIP3    H228406   3.986   3.450   7.176 -0.5932 -0.6053 -1.1595
 2283TIP3   OH228407   3.358   2.164   0.615 -0.6521 -0.2487 -0.5996
 2283TIP3    H128408   3.370   2.226   0.544  2.5884 -0.9365 -0.7926
 2283TIP3    H228409   3.373   2.215   0.695  1.3597 -0.5410 -0.7336
 2284TIP3   OH228410   4.554   6.230   8.315 -0.8636 -0.7211  0.6188
 2284TIP3    H128411   4.545   6.287   8.392 -2.9192  0.6008 -0.4780
 2284TIP3    H228412   4.571   6.291   8.243 -0.3523 -1.7961 -0.1951
 2285TIP3   OH228413   0.032   4.520   6.841  0.4728 -0.4992  0.6901
 2285TIP3    H128414  -0.053   4.498   6.802  0.2776 -0.1940  0.9325
 2285TIP3    H228415   0.096   4.478   6.785  0.1447 -1.0048  0.6880
 2286TIP3   OH228416   4.888   5.710   0.918  0.0072  0.0376  0.3730
 2286TIP3    H128417   4.867   5.803   0.920 -2.1244 -0.3153  3.8368
 2286TIP3    H228418   4.810   5.669   0.880  0.5643 -0.4235 -0.2941
 2287TIP3   OH228419   0.948   0.395   9.540  0.3469 -0.3316  0.0315
 2287TIP3    H128420   0.954   0.450   9.462 -0.8534  0.0984  0.2220
 2287TIP3    H228421   0.970   0.454   9.612 -1.1395 -0.0201  0.2553
 2288TIP3   OH228422   0.699   5.057   2.548 -0.3086 -0.5135  0.3471
 2288TIP3    H128423   0.660   5.001   2.481 -1.7086 -0.1162  0.8058
 2288TIP3    H228424   0.629   5.071   2.612  0.3187  0.9225  0.7613
 2289TIP3   OH228425   2.551   0.735   9.346  0.6050 -0.1079 -0.2917
 2289TIP3    H128426   2.511   0.768   9.426  0.1617  2.3825 -1.4408
 2289TIP3    H228427   2.645   0.752   9.357  0.4294  1.1884 -0.6903
 2290TIP3   OH228428   2.375   3.585   2.161 -0.7440  0.8031  0.2392
 2290TIP3    H128429   2.418   3.637   2.229 -0.7322  0.7300  0.2872
 2290TIP3    H228430   2.396   3.495   2.183  0.2256  0.8330 -0.5090
 2291TIP3   OH228431   3.311   1.044   1.881  0.3183 -0.5244  0.0787
 2291TIP3    H128432   3.377   1.093   1.832 -0.1056 -0.5914 -0.5636
 2291TIP3    H228433   3.314   1.082   1.969  1.0544 -0.3738 -0.0030
 2292TIP3   OH228434   0.859   3.070   8.414  0.2204  0.0497  0.1243
 2292TIP3    H128435   0.930   3.013   8.383 -0.3314 -2.0551  2.4283
 2292TIP3    H228436   0.901   3.125   8.480  0.2633  0.8015 -0.5110
 2293TIP3   OH228437   3.129   2.694   8.511 -0.3408 -0.2261  0.1760
 2293TIP3    H128438   3.119   2.602   8.489  0.2364 -0.8020  2.1648
 2293TIP3    H228439   3.122   2.739   8.426 -3.0433 -1.8340 -0.5728
 2294TIP3   OH228440   5.424   4.714   1.165 -0.0346 -0.5074 -0.2261
 2294TIP3    H128441   5.460   4.703   1.077  0.1181 -1.8841 -0.0159
 2294TIP3    H228442   5.461   4.642   1.215 -0.1177  0.2635  0.9831
 2295TIP3   OH228443   0.701   0.786   7.279 -0.3667 -0.5036  0.0160
 2295TIP3    H128444   0.788   0.759   7.251 -1.2500 -1.6636 -1.8495
 2295TIP3    H228445   0.715   0.865   7.331  1.9811 -2.0506  1.9619
 2296TIP3   OH228446   2.428   3.036   8.170  0.6110  0.0861 -0.3944
 2296TIP3    H128447   2.418   3.115   8.223  0.0374  0.3214 -0.8412
 2296TIP3    H228448   2.511   2.999   8.198 -0.1071 -0.3022  1.3422
 2297TIP3   OH228449   0.843   3.572   8.281  0.5457 -0.2056 -0.1951
 2297TIP3    H128450   0.766   3.552   8.335  1.9800 -1.0325  1.6408
 2297TIP3    H228451   0.882   3.487   8.262  0.7187  0.1640 -1.6114
 2298TIP3   OH228452   4.419   6.120   0.027 -0.2187  0.4756 -0.6276
 2298TIP3    H128453   4.499   6.165   0.056 -1.0447  1.7134 -0.1879
 2298TIP3    H228454   4.350   6.155   0.083 -0.9248 -1.3501 -0.2927
 2299TIP3   OH228455   6.450   0.576   8.431  0.6566  1.0120  0.2192
 2299TIP3    H128456   6.517   0.600   8.367 -0.0075  2.7429  0.1316
 2299TIP3    H228457   6.367   0.593   8.386  0.1494 -0.0272  0.7209
 2300TIP3   OH228458   5.542   2.294   8.493 -0.2501 -0.3998 -0.5345
 2300TIP3    H128459   5.513   2.301   8.402  0.1482 -0.0553 -0.6381
 2300TIP3    H228460   5.480   2.349   8.542  0.4379  0.6433 -0.8049
 2301TIP3   OH228461   3.600   1.547   1.910 -0.1693 -0.4392 -0.2158
 2301TIP3    H128462   3.539   1.586   1.973 -1.6688 -2.6802 -0.1691
 2301TIP3    H228463   3.598   1.608   1.836 -2.2809 -0.2419 -0.0822
 2302TIP3   OH228464   5.522   1.150   0.100  0.8195  0.0941 -0.3067
 2302TIP3    H128465   5.583   1.215   0.065 -1.2388  1.3165 -1.8856
 2302TIP3    H228466   5.438   1.171   0.058 -0.3817 -2.3850  0.6426
 2303TIP3   OH228467   2.584   6.228   7.910  0.2593 -0.2026 -0.0296
 2303TIP3    H128468   2.612   6.168   7.841 -0.4698 -1.2644  0.5739
 2303TIP3    H228469   2.495   6.254   7.885  0.3436  0.1516  0.0267
 2304TIP3   OH228470   3.880   5.923   1.891  0.2938  0.2369  0.1040
 2304TIP3    H128471   3.890   5.893   1.981 -1.1666 -1.9196 -0.3778
 2304TIP3    H228472   3.907   5.848   1.837 -0.8074  0.7519 -1.2245
 2305TIP3   OH228473   0.283   6.120   2.423  0.3771 -0.1429 -0.2108
 2305TIP3    H128474   0.329   6.159   2.497  0.9309 -0.6754 -0.2753
 2305TIP3    H228475   0.292   6.185   2.352  2.4081 -0.9062 -0.7168
 2306TIP3   OH228476   3.199   0.529   0.397  0.0726  0.4265 -0.1013
 2306TIP3    H128477   3.216   0.440   0.428  0.0932  0.3631 -0.2893
 2306TIP3    H228478   3.261   0.541   0.325 -1.9693 -0.5677 -2.1690
 2307TIP3   OH228479   3.250   3.089   0.078 -0.2297 -0.3974 -0.4996
 2307TIP3    H128480   3.247   3.172   0.125 -1.8722 -0.9266  0.3953
 2307TIP3    H228481   3.201   3.104  -0.002 -0.7796 -0.5740 -0.1998
 2308TIP3   OH228482   2.882   5.777   1.810 -0.0654 -0.2552 -0.0533
 2308TIP3    H128483   2.853   5.801   1.898 -2.0411 -2.8415  0.1353
 2308TIP3    H228484   2.976   5.761   1.819 -0.1249  0.1148  1.4475
 2309TIP3   OH228485   1.764   0.004   9.026 -0.1037  0.3653 -0.2263
 2309TIP3    H128486   1.726  -0.069   9.075  1.8252  0.7613  2.0107
 2309TIP3    H228487   1.757   0.079   9.085  2.8325  0.7351 -0.2159
 2310TIP3   OH228488   4.323   4.712   8.316  0.4503 -0.3131  0.6152
 2310TIP3    H128489   4.303   4.801   8.287  1.4814 -0.8953 -2.2652
 2310TIP3    H228490   4.417   4.704   8.305  0.2340 -2.0809 -0.2711
 2311TIP3   OH228491   1.409   6.109   0.918 -0.1816 -0.2952 -1.3057
 2311TIP3    H128492   1.494   6.114   0.874  0.1480  1.1917 -0.5884
 2311TIP3    H228493   1.392   6.015   0.928  0.9059 -0.6237 -2.3335
 2312TIP3   OH228494   5.574   1.381   8.962 -0.1023 -0.3654 -0.0644
 2312TIP3    H128495   5.584   1.424   8.877  0.9502  2.0066  1.1569
 2312TIP3    H228496   5.663   1.352   8.984  0.2281  1.5482  1.3902
 2313TIP3   OH228497   4.473   6.100   8.955  0.7861 -0.0155  0.7090
 2313TIP3    H128498   4.510   6.014   8.934  1.3094 -0.0756  1.8120
 2313TIP3    H228499   4.400   6.081   9.014 -0.2215  0.1933 -0.4441
 2314TIP3   OH228500   4.697   3.956   7.372  1.1598 -0.1759  0.0200
 2314TIP3    H128501   4.769   4.009   7.409  1.2478  0.4162 -0.9755
 2314TIP3    H228502   4.726   3.934   7.284  0.8461 -1.3834  0.2087
 2315TIP3   OH228503   0.378   4.431   0.559 -0.4216  0.1929 -0.2575
 2315TIP3    H128504   0.287   4.441   0.531  0.0715  0.2868 -1.9331
 2315TIP3    H228505   0.429   4.477   0.493  0.8851 -0.2289  0.4132
 2316TIP3   OH228506   2.539   4.621   1.369  0.0513  0.3188 -0.7441
 2316TIP3    H128507   2.475   4.550   1.375  0.2141 -0.0390 -2.7994
 2316TIP3    H228508   2.490   4.699   1.395 -1.0712 -0.0356 -1.7142
 2317TIP3   OH228509   1.651   4.738   0.122  0.4176 -0.3308  0.1808
 2317TIP3    H128510   1.614   4.687   0.194 -0.1210 -0.5152 -0.2194
 2317TIP3    H228511   1.745   4.733   0.135  0.3289 -0.4076  0.8432
 2318TIP3   OH228512   4.506   4.447   7.671  0.1529  0.8427  0.4128
 2318TIP3    H128513   4.512   4.363   7.626 -1.6382  0.7491  0.2548
 2318TIP3    H228514   4.440   4.496   7.621 -1.7161  0.8330  2.7197
 2319TIP3   OH228515   2.995   3.711   0.746 -0.1727 -0.3576  0.4607
 2319TIP3    H128516   3.034   3.633   0.706  1.1598  1.1837 -1.4296
 2319TIP3    H228517   2.907   3.715   0.707  0.0462 -0.4960 -0.0678
 2320TIP3   OH228518   6.378   2.429   9.409  0.3811  0.2614 -0.4555
 2320TIP3    H128519   6.397   2.513   9.369 -2.3176  1.7216  1.0354
 2320TIP3    H228520   6.441   2.421   9.481  1.7367  0.1501 -1.6153
 2321TIP3   OH228521   1.914   5.068   0.839 -0.5118 -0.6711  0.0798
 2321TIP3    H128522   1.884   5.159   0.841  0.1495 -0.3994 -1.1515
 2321TIP3    H228523   1.842   5.019   0.799 -0.9044 -0.7119  0.8273
 2322TIP3   OH228524   2.009   5.887   2.145 -0.2761  0.7684  0.2213
 2322TIP3    H128525   1.999   5.883   2.240 -0.9156  0.4611  0.1480
 2322TIP3    H228526   2.100   5.913   2.132 -0.2525  1.0750  0.9188
 2323TIP3   OH228527   3.687   2.721   9.032  0.4184 -0.8934  0.5072
 2323TIP3    H128528   3.690   2.626   9.046  1.1917 -0.8244  0.9138
 2323TIP3    H228529   3.599   2.747   9.060  0.7558 -1.2670  2.0288
 2324TIP3   OH228530   2.232   6.195   1.082  0.2429  0.3878  0.4258
 2324TIP3    H128531   2.181   6.189   1.001 -0.8625 -2.5473  1.1984
 2324TIP3    H228532   2.291   6.120   1.078  0.9303  0.8171  1.8696
 2325TIP3   OH228533   1.390   5.507   9.202 -0.2485 -0.4944  0.6890
 2325TIP3    H128534   1.478   5.491   9.169 -0.7934  0.2184 -1.2156
 2325TIP3    H228535   1.393   5.597   9.234  0.1750 -1.0612  2.3384
 2326TIP3   OH228536   4.389   2.948   7.985  0.0251 -0.1438 -0.4844
 2326TIP3    H128537   4.417   2.940   8.077 -0.5334 -0.7833 -0.3595
 2326TIP3    H228538   4.318   2.884   7.976  0.6731 -0.7498 -1.5997
 2327TIP3   OH228539   4.578   4.540   1.862  0.5843 -0.0611 -0.4150
 2327TIP3    H128540   4.593   4.448   1.839 -0.4846 -0.3046 -0.1882
 2327TIP3    H228541   4.489   4.542   1.898 -0.6501  1.5632 -3.2524
 2328TIP3   OH228542   5.182   4.863   1.482 -0.0934 -0.2254  0.1903
 2328TIP3    H128543   5.186   4.773   1.517 -2.3778 -0.0756  0.9613
 2328TIP3    H228544   5.191   4.918   1.559 -0.2537  0.2001 -0.0965
 2329TIP3   OH228545   2.953   4.757   1.065 -0.0300 -0.4184  0.3856
 2329TIP3    H128546   2.888   4.827   1.058  0.5368  0.0927  0.1025
 2329TIP3    H228547   2.937   4.718   1.151 -0.6544 -0.2460  0.3506
 2330TIP3   OH228548   4.853   0.633   0.272  0.1356 -0.0398  0.4048
 2330TIP3    H128549   4.824   0.571   0.205  2.0006 -0.5490  0.0323
 2330TIP3    H228550   4.772   0.676   0.302 -0.9056 -0.9776 -0.9884
 2331TIP3   OH228551   1.629   2.539   8.476 -0.0132 -0.8945  0.3861
 2331TIP3    H128552   1.664   2.459   8.438 -0.9541 -1.5413  0.8397
 2331TIP3    H228553   1.566   2.571   8.412 -0.1968 -0.9393  0.5423
 2332TIP3   OH228554   5.646   2.952   9.319 -0.2944 -0.2139 -0.5322
 2332TIP3    H128555   5.635   2.876   9.262 -0.4420 -0.1316 -0.6133
 2332TIP3    H228556   5.557   2.974   9.347 -0.0765 -1.4919  1.3601
 2333TIP3   OH228557   3.709   0.360   2.804 -0.7491  0.3416  0.4742
 2333TIP3    H128558   3.799   0.363   2.771 -0.2330 -0.8322  1.6623
 2333TIP3    H228559   3.682   0.451   2.809  0.0609  0.6627 -0.7184
 2334TIP3   OH228560   4.868   4.517   0.590  0.0837  0.1712 -0.1971
 2334TIP3    H128561   4.867   4.429   0.627  0.6357 -0.7192 -2.1435
 2334TIP3    H228562   4.944   4.560   0.630 -0.1705 -0.2283  0.7360
 2335TIP3   OH228563   5.957   2.848   7.330  0.0933 -0.3614 -0.4554
 2335TIP3    H128564   6.031   2.908   7.322  0.3497 -0.5734  0.2865
 2335TIP3    H228565   5.881   2.900   7.301  0.4872 -0.0727 -0.9879
 2336TIP3   OH228566   2.218   4.828   1.020 -0.1289 -0.1947 -0.0545
 2336TIP3    H128567   2.200   4.752   1.075  3.0853 -0.2982  1.0692
 2336TIP3    H228568   2.278   4.882   1.072 -1.1265  2.4125 -1.4041
 2337TIP3   OH228569   2.356   1.040   0.907  0.0568 -0.2705  0.4624
 2337TIP3    H128570   2.353   0.970   0.841  0.9759  0.1941 -0.0937
 2337TIP3    H228571   2.332   1.119   0.859 -0.2447 -0.0819  0.9194
 2338TIP3   OH228572   5.631   3.258   9.432 -0.1706 -0.3441  0.0980
 2338TIP3    H128573   5.553   3.302   9.396  0.5103 -0.7598 -2.0387
 2338TIP3    H228574   5.622   3.167   9.403  2.6900  0.2365 -3.3254
 2339TIP3   OH228575   3.996   1.211   9.556 -0.6778 -0.0612  0.3338
 2339TIP3    H128576   4.088   1.203   9.581 -0.1545  0.5547 -1.2982
 2339TIP3    H228577   3.998   1.249   9.468 -2.4806 -0.4591  0.0860
 2340TIP3   OH228578   5.538   2.026   0.045 -0.0403  0.0275  0.1622
 2340TIP3    H128579   5.582   1.959   0.098 -0.2643  0.6816  1.2096
 2340TIP3    H228580   5.591   2.032  -0.034  1.7526  0.7546  1.3530
 2341TIP3   OH228581   6.274   5.959   8.986 -0.3712  0.3786  0.1368
 2341TIP3    H128582   6.286   6.012   8.908  0.0474  1.8167  1.1285
 2341TIP3    H228583   6.350   5.901   8.988  0.7347  1.7833  0.5501
 2342TIP3   OH228584   0.811   6.186   7.996  0.0964 -0.0895  0.0840
 2342TIP3    H128585   0.860   6.254   7.950  0.3358  1.3381  2.2907
 2342TIP3    H228586   0.779   6.229   8.075 -1.5483 -2.0147  0.5413
 2343TIP3   OH228587   1.790   0.674   8.914 -0.0322  0.0615  0.3230
 2343TIP3    H128588   1.828   0.749   8.960  1.9916 -1.1201  0.6923
 2343TIP3    H228589   1.862   0.612   8.906 -1.2898 -1.2889 -1.2186
 2344TIP3   OH228590   4.344   4.346   0.340  0.4117  0.0401 -0.2238
 2344TIP3    H128591   4.363   4.298   0.421  0.7058 -0.0136 -0.3245
 2344TIP3    H228592   4.289   4.419   0.368  0.3058 -0.1185 -0.0092
 2345TIP3   OH228593   2.062   3.685   1.482 -0.2163 -0.2969  0.4113
 2345TIP3    H128594   2.021   3.674   1.396 -0.2970 -1.2951  0.5672
 2345TIP3    H228595   1.992   3.718   1.538  0.2548  2.0090 -0.2811
 2346TIP3   OH228596   3.163   5.050   7.495  0.3644  0.0415  0.8113
 2346TIP3    H128597   3.106   5.121   7.467  1.0195 -0.0698 -0.9016
 2346TIP3    H228598   3.184   5.003   7.415 -0.4478 -2.4132  1.9418
 2347TIP3   OH228599   3.819   0.965   1.285  0.5953 -0.3408  0.0704
 2347TIP3    H128600   3.767   0.916   1.349  1.0592  2.2321  2.6477
 2347TIP3    H228601   3.775   1.050   1.279  0.7216 -0.3788 -2.9833
 2348TIP3   OH228602   4.289   4.470   0.766 -0.2386 -0.2230 -0.4721
 2348TIP3    H128603   4.335   4.426   0.838  1.1529  3.2605  0.9676
 2348TIP3    H228604   4.198   4.442   0.777  0.5244 -2.7914  0.1693
 2349TIP3   OH228605   0.860   1.046   9.029  0.2330  0.2334 -0.1216
 2349TIP3    H128606   0.948   1.067   8.999 -0.6821  0.3400 -3.0327
 2349TIP3    H228607   0.815   1.131   9.031 -0.4365 -0.0828 -1.0604
 2350TIP3   OH228608   5.183   3.138   9.194 -0.1339  0.1428  0.4054
 2350TIP3    H128609   5.126   3.062   9.200 -0.4329  0.2913 -0.4670
 2350TIP3    H228610   5.142   3.195   9.129  0.2094  0.9503  0.8685
 2351TIP3   OH228611   3.572   1.653   7.812  0.2580 -0.3691  0.6407
 2351TIP3    H128612   3.653   1.704   7.822  1.1068 -1.0627 -1.8219
 2351TIP3    H228613   3.583   1.608   7.728 -2.9372 -0.0490 -0.0813
 2352TIP3   OH228614   1.382   4.204   8.858  0.1223  0.0833  0.6683
 2352TIP3    H128615   1.297   4.191   8.818  0.9867 -0.8815 -0.9534
 2352TIP3    H228616   1.383   4.142   8.932 -0.1932 -0.6800  0.0462
 2353TIP3   OH228617   4.626   4.606   7.273 -0.7430  0.6288  0.4550
 2353TIP3    H128618   4.618   4.510   7.279 -1.5288  0.6555 -0.0288
 2353TIP3    H228619   4.536   4.638   7.284 -0.8045  1.1989 -1.4240
 2354TIP3   OH228620   3.370   3.172   1.575 -0.4580  0.5001  0.2922
 2354TIP3    H128621   3.379   3.225   1.496 -0.9206 -0.4614 -0.4317
 2354TIP3    H228622   3.372   3.082   1.543 -0.0616  0.0864  1.4490
 2355TIP3   OH228623   2.848   5.783   0.976 -0.2300  0.5335 -0.0566
 2355TIP3    H128624   2.891   5.867   0.958  0.4021 -0.0153 -1.2322
 2355TIP3    H228625   2.832   5.746   0.889 -2.4102  0.3555  0.3643
 2356TIP3   OH228626   1.515   2.853   0.544  0.2986 -0.4849 -0.0809
 2356TIP3    H128627   1.441   2.889   0.591 -1.1053 -1.6768 -1.2458
 2356TIP3    H228628   1.558   2.928   0.504 -2.6290  0.0321 -2.5981
 2357TIP3   OH228629   0.399   6.226   7.843 -0.5273 -0.1388  0.5282
 2357TIP3    H128630   0.344   6.199   7.769 -0.1659  2.4228 -0.7760
 2357TIP3    H228631   0.470   6.162   7.844 -0.0628  0.2413 -1.9314
 2358TIP3   OH228632   0.925   1.465   2.485  0.3823 -0.0225 -0.4204
 2358TIP3    H128633   0.959   1.380   2.512 -2.4053 -1.4937 -1.1970
 2358TIP3    H228634   1.002   1.514   2.458  1.9849 -2.6965 -1.0226
 2359TIP3   OH228635   1.036   3.365   1.011 -0.2078 -0.5925 -0.1094
 2359TIP3    H128636   0.981   3.427   1.058  0.5624  1.2388 -1.5104
 2359TIP3    H228637   1.116   3.414   0.991  0.4745 -2.0656 -1.1773
 2360TIP3   OH228638   4.589   1.505   7.648  0.3384 -0.1231 -0.1088
 2360TIP3    H128639   4.602   1.598   7.633 -0.5173 -0.0876 -0.6662
 2360TIP3    H228640   4.605   1.493   7.741 -0.4419  0.7354  0.1473
 2361TIP3   OH228641   2.117   2.907   7.808 -0.7473  0.0792 -0.0389
 2361TIP3    H128642   2.189   2.967   7.827 -0.7779  0.3888 -0.8707
 2361TIP3    H228643   2.094   2.870   7.893  1.3485 -1.1153  0.0793
 2362TIP3   OH228644   1.623   3.310   8.061 -0.8185 -0.2675 -0.1216
 2362TIP3    H128645   1.684   3.258   8.008 -0.8519  0.8664 -1.3269
 2362TIP3    H228646   1.545   3.318   8.006 -2.1406 -1.7386  1.4161
 2363TIP3   OH228647   4.572   6.152   8.650 -0.4587  0.2217 -0.9297
 2363TIP3    H128648   4.651   6.117   8.690 -1.2350 -0.8809 -0.3124
 2363TIP3    H228649   4.550   6.230   8.701 -2.0530 -1.7555  1.6326
 2364TIP3   OH228650   2.455   0.052   0.427  0.2956 -0.2658 -0.4528
 2364TIP3    H128651   2.491   0.096   0.350 -1.4632  0.5249 -0.8681
 2364TIP3    H228652   2.361   0.058   0.416 -0.2186  3.3303  3.6593
 2365TIP3   OH228653   2.267   3.698   8.045  0.0835  0.0579 -0.4548
 2365TIP3    H128654   2.359   3.691   8.021  0.0894  0.5436 -0.5950
 2365TIP3    H228655   2.240   3.609   8.066  1.4578  0.2900  2.8731
 2366TIP3   OH228656   4.196   2.553   6.501  0.1513  0.0895 -0.1117
 2366TIP3    H128657   4.268   2.500   6.465 -0.0164 -0.4077  0.2661
 2366TIP3    H228658   4.126   2.490   6.517  0.4902  0.1349  1.8167
 2367TIP3   OH228659   0.163   1.382   9.355  0.3928  0.3524 -0.3100
 2367TIP3    H128660   0.185   1.306   9.301  0.7385 -0.9882  1.5878
 2367TIP3    H228661   0.180   1.352   9.445 -0.6497  2.2919  0.5812
 2368TIP3   OH228662   5.034   5.683   8.673  0.3998 -0.3486  0.2234
 2368TIP3    H128663   4.938   5.677   8.675  0.3881 -1.3914 -1.5099
 2368TIP3    H228664   5.053   5.723   8.588  1.5257 -0.5290  0.3801
 2369TIP3   OH228665   3.366   0.925   9.421 -0.3060 -0.8951 -0.4314
 2369TIP3    H128666   3.453   0.964   9.411 -0.4542 -0.1939  0.8593
 2369TIP3    H228667   3.327   0.931   9.333  0.0290  1.0638 -0.4863
 2370TIP3   OH228668   4.453   5.623   1.805  0.7276  0.0392  0.4098
 2370TIP3    H128669   4.456   5.617   1.901  2.3152 -0.1872  0.3687
 2370TIP3    H228670   4.495   5.706   1.784 -0.1947  0.3961 -0.0801
 2371TIP3   OH228671   0.699   2.558   8.127  1.0340 -0.4087 -0.5250
 2371TIP3    H128672   0.749   2.477   8.118  1.3119 -0.5053  1.4840
 2371TIP3    H228673   0.713   2.585   8.218 -0.9600  0.6428 -0.4834
 2372TIP3   OH228674   5.801   2.069   0.886  0.0787  0.5816  0.1675
 2372TIP3    H128675   5.735   2.054   0.819 -1.0289  0.9621  1.1220
 2372TIP3    H228676   5.884   2.045   0.845 -0.8806 -2.4000 -0.2656
 2373TIP3   OH228677   0.683   1.633   2.470 -0.2862 -0.2237  0.4443
 2373TIP3    H128678   0.768   1.598   2.499  0.4427  1.9122  1.1521
 2373TIP3    H228679   0.706   1.711   2.420 -1.8429  1.2778  1.9499
 2374TIP3   OH228680   1.015   0.767   0.559 -0.0702 -0.0533  0.5952
 2374TIP3    H128681   1.008   0.847   0.610 -1.7899  0.0567  0.2403
 2374TIP3    H228682   1.017   0.797   0.468  0.0699 -0.3807  0.4889
 2375TIP3   OH228683   4.930   6.039   0.100 -0.9333 -0.5872  0.3747
 2375TIP3    H128684   4.942   5.946   0.119  1.7138 -0.1660  1.1606
 2375TIP3    H228685   4.989   6.056   0.026 -0.5302  0.6767  0.9629
 2376TIP3   OH228686   1.031   0.004   0.768  0.4366  0.5279  0.4481
 2376TIP3    H128687   0.989  -0.056   0.830  1.3140  1.3769  1.9472
 2376TIP3    H228688   1.123  -0.023   0.767  0.6437  1.2083  0.3804
 2377TIP3   OH228689   6.471   4.072   9.591 -0.0311 -0.3962  0.0942
 2377TIP3    H128690   6.424   4.154   9.610  0.8390  0.0035  0.5862
 2377TIP3    H228691   6.413   4.025   9.531  0.0679  1.1960 -1.3451
 2378TIP3   OH228692   4.563   3.129   7.206  0.6098  0.4143  0.0946
 2378TIP3    H128693   4.481   3.110   7.252  0.6835  0.2500  0.1577
 2378TIP3    H228694   4.542   3.115   7.114  0.9332 -0.9837  0.2124
 2379TIP3   OH228695   0.512   2.894   0.620 -0.0826  0.9055  0.0163
 2379TIP3    H128696   0.420   2.880   0.640  0.2400 -0.1953  0.7994
 2379TIP3    H228697   0.532   2.832   0.551  0.3056  0.4514  0.5297
 2380TIP3   OH228698   0.405   3.452   7.986  0.6328 -0.5116  0.0469
 2380TIP3    H128699   0.327   3.405   7.957  2.0655 -3.0627  0.0207
 2380TIP3    H228700   0.375   3.507   8.059 -1.5567  0.2815 -1.3569
 2381TIP3   OH228701   3.825   4.798   9.386  0.0492 -0.1057  0.0301
 2381TIP3    H128702   3.838   4.704   9.401  0.5781  0.0072  0.3020
 2381TIP3    H228703   3.886   4.841   9.447  0.7402  0.3947 -0.9875
 2382TIP3   OH228704   0.234   5.304   9.226 -0.8116 -0.4162  0.0675
 2382TIP3    H128705   0.265   5.273   9.311  0.6657  1.6806  0.3616
 2382TIP3    H228706   0.141   5.278   9.224 -0.5562 -1.6175  1.7468
 2383TIP3   OH228707   5.999   2.064   1.911  0.2623  0.1052  0.2375
 2383TIP3    H128708   5.906   2.085   1.904  0.2587 -0.0951 -0.4036
 2383TIP3    H228709   6.018   2.071   2.005 -0.9930 -2.3737  0.7619
 2384TIP3   OH228710   4.734   2.176   0.525  0.0246 -0.3889  0.3210
 2384TIP3    H128711   4.720   2.087   0.557  1.6635 -0.7720  0.0739
 2384TIP3    H228712   4.682   2.232   0.583 -2.2443 -1.5905 -0.4397
 2385TIP3   OH228713   5.849   4.660   9.443  0.2106 -0.0254  0.2833
 2385TIP3    H128714   5.838   4.691   9.533  0.0461 -1.0923  0.6462
 2385TIP3    H228715   5.938   4.626   9.440  0.1534 -0.1566  0.0895
 2386TIP3   OH228716   3.380   5.324   7.958 -0.2925  0.7123  0.0296
 2386TIP3    H128717   3.472   5.325   7.931 -0.5102 -1.0918 -0.9222
 2386TIP3    H228718   3.376   5.260   8.028 -1.0254 -0.2738 -0.8777
 2387TIP3   OH228719   3.661   4.084   7.555 -0.2214  0.3832  0.3077
 2387TIP3    H128720   3.734   4.139   7.525 -0.7328  0.6507 -0.4945
 2387TIP3    H228721   3.632   4.038   7.476 -0.2692 -0.4898  0.8286
 2388TIP3   OH228722   4.031   1.923   7.030 -0.0764  0.2288  0.1081
 2388TIP3    H128723   3.941   1.889   7.023 -0.6834  1.7017  0.3822
 2388TIP3    H228724   4.029   2.006   6.983  0.6860  1.0998  1.5404
 2389TIP3   OH228725   2.676   3.136   0.911 -0.6785 -0.0304  0.1008
 2389TIP3    H128726   2.612   3.165   0.976 -1.6411  1.2635 -1.3775
 2389TIP3    H228727   2.737   3.209   0.903 -0.3772 -0.3127 -0.2263
 2390TIP3   OH228728   1.981   1.019   6.974 -0.5803  0.4317  0.0169
 2390TIP3    H128729   2.009   0.989   7.061 -0.7316 -1.4889 -0.5639
 2390TIP3    H228730   2.049   1.081   6.947 -0.0612  0.3727  1.1247
 2391TIP3   OH228731   1.468   5.214   1.743 -0.8429  0.3153  0.7861
 2391TIP3    H128732   1.410   5.261   1.684  0.6071 -0.1225 -1.0705
 2391TIP3    H228733   1.418   5.136   1.769 -1.3342  0.2648 -0.2558
 2392TIP3   OH228734   3.089   4.609   3.152  0.6314 -0.0435  0.1360
 2392TIP3    H128735   3.097   4.633   3.059 -0.1722  1.4319  0.4167
 2392TIP3    H228736   3.174   4.629   3.190  1.8192 -2.9568 -0.7041
 2393TIP3   OH228737   4.039   0.478   7.860  0.4328 -0.1080 -0.5988
 2393TIP3    H128738   4.107   0.531   7.819 -0.6664  2.3302  0.5414
 2393TIP3    H228739   3.958   0.503   7.815 -0.3192  0.2763  0.8865
 2394TIP3   OH228740   5.153   4.109   1.550  0.2906 -0.6195 -0.2103
 2394TIP3    H128741   5.210   4.184   1.568 -1.1997  0.5246 -0.0497
 2394TIP3    H228742   5.100   4.101   1.630  0.3889 -1.8122 -0.2590
 2395TIP3   OH228743   2.733   2.735   1.318  0.2925  0.6969 -0.1385
 2395TIP3    H128744   2.684   2.765   1.241  0.1497  1.4122  0.2247
 2395TIP3    H228745   2.668   2.732   1.388  0.8755  2.2288  0.4900
 2396TIP3   OH228746   4.086   1.038   7.498  0.5297 -0.4463  0.0434
 2396TIP3    H128747   4.178   1.018   7.480  1.0978  1.1071  0.9908
 2396TIP3    H228748   4.076   1.021   7.591  0.4435  1.3083  0.3908
 2397TIP3   OH228749   1.074   2.833   9.271 -0.0957 -0.2296 -0.1628
 2397TIP3    H128750   1.097   2.750   9.229  2.8661  0.4097 -0.0318
 2397TIP3    H228751   1.027   2.807   9.351 -0.1294 -1.7028 -0.6215
 2398TIP3   OH228752   2.139   1.039   1.984  0.1614  0.1048  0.4006
 2398TIP3    H128753   2.186   1.026   1.902  1.7927  0.8098  1.1730
 2398TIP3    H228754   2.069   1.101   1.962  0.2883 -0.0744 -0.5462
 2399TIP3   OH228755   0.245   0.309   2.088  0.0521  0.0656 -0.6019
 2399TIP3    H128756   0.199   0.383   2.129  0.9134  0.7625 -0.8595
 2399TIP3    H228757   0.218   0.233   2.139  0.2141  0.7503  0.5427
 2400TIP3   OH228758   6.411   4.793   1.255 -0.0504  0.1887  0.1036
 2400TIP3    H128759   6.431   4.853   1.182 -2.9592  0.7001 -0.3994
 2400TIP3    H228760   6.335   4.744   1.225 -0.4966 -0.5491  2.3051
 2401TIP3   OH228761   2.563   4.345   0.470 -0.2989 -0.1714  0.3601
 2401TIP3    H128762   2.587   4.292   0.394  1.1429 -0.3712  0.9042
 2401TIP3    H228763   2.472   4.369   0.456 -0.0873 -0.2814 -1.3752
 2402TIP3   OH228764   5.483   3.589   1.741  0.2102  0.0072 -0.2242
 2402TIP3    H128765   5.568   3.587   1.785 -0.8781 -0.4918  2.0347
 2402TIP3    H228766   5.426   3.636   1.803 -0.6527  2.4876 -2.7245
 2403TIP3   OH228767   1.793   2.617   2.530 -0.1206 -0.0450 -0.4509
 2403TIP3    H128768   1.747   2.692   2.568  1.4968  0.5178  0.4878
 2403TIP3    H228769   1.736   2.542   2.547 -0.6931  0.6216  0.6598
 2404TIP3   OH228770   1.942   0.042   0.104  0.3569  0.4144 -0.2696
 2404TIP3    H128771   1.942  -0.032   0.043  1.9018 -1.3041  1.6380
 2404TIP3    H228772   1.856   0.038   0.146  0.7840 -1.0808  0.5739
 2405TIP3   OH228773   5.552   5.012   0.200 -0.4180 -0.1433 -0.3035
 2405TIP3    H128774   5.490   5.008   0.128  0.0227  1.3937 -0.8182
 2405TIP3    H228775   5.508   4.967   0.272 -0.5207 -2.4711 -1.7258
 2406TIP3   OH228776   3.593   1.391   8.480 -0.7104  0.1656  0.3083
 2406TIP3    H128777   3.579   1.311   8.529  0.6887 -0.3549 -0.0821
 2406TIP3    H228778   3.563   1.461   8.538 -1.4775 -0.5939  0.8482
 2407TIP3   OH228779   6.374   6.382   8.436 -0.3034  0.3767  0.0006
 2407TIP3    H128780   6.393   6.441   8.364 -0.3946 -0.2058 -0.5123
 2407TIP3    H228781   6.382   6.436   8.515  2.8404  0.3456 -0.1815
 2408TIP3   OH228782   2.843   6.270   8.036  0.4786 -0.1444 -0.0264
 2408TIP3    H128783   2.905   6.199   8.021 -0.4203 -1.0949  0.5954
 2408TIP3    H228784   2.762   6.241   7.993  0.4691  1.1122 -0.9042
 2409TIP3   OH228785   5.979   1.001   0.685 -0.0773  0.2132  0.2985
 2409TIP3    H128786   6.012   0.966   0.603  1.4214 -0.1846  1.0359
 2409TIP3    H228787   6.057   1.029   0.733 -1.0464  2.7982  0.5767
 2410TIP3   OH228788   0.357   0.097   1.207 -0.8174  0.0660 -0.2146
 2410TIP3    H128789   0.440   0.125   1.245 -0.6809 -1.5957  0.8046
 2410TIP3    H228790   0.332   0.169   1.148  1.0773  0.8008 -0.1858
 2411TIP3   OH228791   0.632   3.252   1.232 -0.2217  0.1299 -0.1790
 2411TIP3    H128792   0.727   3.250   1.234 -0.1062  2.0593  3.1481
 2411TIP3    H228793   0.607   3.313   1.301 -3.9382 -1.7444  0.4336
 2412TIP3   OH228794   1.443   4.346   8.345  0.0977  0.3250 -0.5328
 2412TIP3    H128795   1.537   4.361   8.354  0.1583 -0.0837 -0.4942
 2412TIP3    H228796   1.403   4.423   8.386  0.4232  1.2381 -1.8789
 2413TIP3   OH228797   1.307   3.831   1.064  0.1408 -0.3826  0.0886
 2413TIP3    H128798   1.297   3.915   1.020  0.5987 -0.9896 -1.2042
 2413TIP3    H228799   1.395   3.801   1.039  0.7954 -0.3466  2.1311
 2414TIP3   OH228800   3.861   1.030   1.888 -0.8715  0.0747 -0.0005
 2414TIP3    H128801   3.942   1.060   1.929 -0.7714 -0.2878  0.0714
 2414TIP3    H228802   3.802   1.105   1.894  0.1248  1.0789 -1.9242
 2415TIP3   OH228803   3.885   1.354   1.375 -0.0979  0.3225  0.5562
 2415TIP3    H128804   3.951   1.288   1.357 -0.4265  0.4635 -1.4637
 2415TIP3    H228805   3.884   1.363   1.470  2.6489  0.1925  0.6746
 2416TIP3   OH228806   1.068   2.327   9.098 -0.0449 -0.5822  0.2605
 2416TIP3    H128807   1.148   2.355   9.142  0.8942 -0.8940 -1.2223
 2416TIP3    H228808   1.048   2.398   9.037 -1.1878 -0.2909  0.9213
 2417TIP3   OH228809   1.521   0.797   0.040 -0.0957  0.5723 -0.4715
 2417TIP3    H128810   1.471   0.732  -0.010  0.3213  2.5949 -3.8618
 2417TIP3    H228811   1.511   0.878  -0.010  2.3138  2.2929  1.5758
 2418TIP3   OH228812   2.225   3.900   2.160  0.0610  0.5532  0.8161
 2418TIP3    H128813   2.302   3.954   2.141  0.3609 -0.5242 -1.4628
 2418TIP3    H228814   2.186   3.939   2.238  2.0920  2.0167  1.1722
 2419TIP3   OH228815   2.598   3.439   0.315  0.0057  0.0266 -0.7160
 2419TIP3    H128816   2.685   3.419   0.348 -0.2971 -1.1717 -0.5989
 2419TIP3    H228817   2.565   3.356   0.282 -0.3382  0.8443 -2.5965
 2420TIP3   OH228818   0.616   3.298   7.740 -0.8561  0.1633 -0.1554
 2420TIP3    H128819   0.610   3.223   7.800 -1.6951  0.9759  0.8153
 2420TIP3    H228820   0.699   3.340   7.761 -1.3186  0.6574  0.7078
 2421TIP3   OH228821   3.908   0.636   8.345 -0.1565 -0.2962 -0.2825
 2421TIP3    H128822   3.826   0.635   8.296 -0.8149 -1.3005  0.7919
 2421TIP3    H228823   3.953   0.556   8.318 -0.9358 -1.3465  1.3492
 2422TIP3   OH228824   0.762   5.649   7.930 -0.1322  0.0288  0.1016
 2422TIP3    H128825   0.848   5.618   7.959 -1.2144 -1.6185  1.7684
 2422TIP3    H228826   0.748   5.729   7.981 -0.3308 -0.7104  1.2569
 2423TIP3   OH228827   2.050   1.319   8.078  0.6171  0.3126  0.4205
 2423TIP3    H128828   2.001   1.296   8.157  0.0308  2.5189  0.7494
 2423TIP3    H228829   2.136   1.346   8.109  0.9644 -0.3940  0.1185
 2424TIP3   OH228830   0.128   1.355   8.217  0.4844 -0.1600  0.5216
 2424TIP3    H128831   0.052   1.404   8.245  1.8682  2.3867  0.0729
 2424TIP3    H228832   0.092   1.277   8.175 -1.7721  0.0302  1.9661
 2425TIP3   OH228833   4.337   4.558   9.418  0.0770 -0.1450 -0.3039
 2425TIP3    H128834   4.273   4.489   9.395 -0.9642  0.0418  1.8494
 2425TIP3    H228835   4.397   4.515   9.479 -0.2247  0.6819  0.5871
 2426TIP3   OH228836   4.407   2.058   7.638 -0.0026  0.2523  0.0113
 2426TIP3    H128837   4.410   2.142   7.684 -0.8016 -0.4963  1.4954
 2426TIP3    H228838   4.413   2.081   7.546  1.4455  1.8256  0.4407
 2427TIP3   OH228839   0.684   0.974   7.802 -0.1822  0.0974 -0.6387
 2427TIP3    H128840   0.779   0.981   7.806 -0.1933  0.6547 -1.2366
 2427TIP3    H228841   0.652   1.044   7.859 -0.2383  0.5661 -1.2386
 2428TIP3   OH228842   2.976   2.654   0.575 -0.1315  0.4415  0.2539
 2428TIP3    H128843   3.006   2.580   0.628 -0.8246 -0.2446 -0.2906
 2428TIP3    H228844   2.947   2.615   0.493 -0.1185  1.3699 -0.2098
 2429TIP3   OH228845   1.727   2.836   8.460  0.4651  0.2674 -0.3439
 2429TIP3    H128846   1.632   2.830   8.455  0.3748  0.5053  0.7905
 2429TIP3    H228847   1.759   2.756   8.419 -0.2674 -0.4700  0.5043
 2430TIP3   OH228848   4.544   2.655   0.600  0.5013  0.1544  0.1901
 2430TIP3    H128849   4.596   2.718   0.550  1.4528 -0.6367  0.1550
 2430TIP3    H228850   4.571   2.669   0.691  0.8817 -0.3361  0.1590
 2431TIP3   OH228851   0.515   2.871   9.229 -0.1502 -0.0273  0.1031
 2431TIP3    H128852   0.588   2.845   9.172 -0.4229 -0.1742 -0.1850
 2431TIP3    H228853   0.524   2.966   9.238 -0.6568  0.1446 -0.9849
 2432TIP3   OH228854   3.865   4.314   8.965  0.2943  0.0416  0.4407
 2432TIP3    H128855   3.827   4.402   8.969 -0.1976 -0.1305 -0.3413
 2432TIP3    H228856   3.825   4.268   9.038 -0.1009  0.2102  0.3318
 2433TIP3   OH228857   0.972   2.504   3.024 -0.2029  0.4270 -0.1526
 2433TIP3    H128858   1.034   2.464   2.963 -0.7557  0.1676 -0.5473
 2433TIP3    H228859   0.959   2.593   2.990 -2.8629 -0.6392 -2.2492
 2434TIP3   OH228860   4.785   1.768   0.195 -0.0968  0.0496 -0.4102
 2434TIP3    H128861   4.847   1.732   0.257 -1.4290  0.1523  1.0533
 2434TIP3    H228862   4.776   1.860   0.220 -1.3523 -0.1334 -0.1392
 2435TIP3   OH228863   4.648   5.649   9.040 -0.4324  0.9140 -0.9906
 2435TIP3    H128864   4.719   5.712   9.050  1.1216 -0.6540 -1.6502
 2435TIP3    H228865   4.623   5.626   9.130  1.9007 -0.6024 -0.6294
 2436TIP3   OH228866   6.122   3.098   2.422  0.0482 -0.3080  0.0537
 2436TIP3    H128867   6.212   3.121   2.398 -0.1728  3.2270  1.9488
 2436TIP3    H228868   6.119   3.110   2.517 -2.8214  1.6424 -0.1587
 2437TIP3   OH228869   1.969   0.898   7.868  0.0111  0.4587 -0.1831
 2437TIP3    H128870   1.959   0.939   7.783  0.0563  2.0686  0.5488
 2437TIP3    H228871   1.914   0.820   7.864 -0.1844  0.6487 -1.5780
 2438TIP3   OH228872   0.489   2.117   0.705  0.5528  0.1810  0.9859
 2438TIP3    H128873   0.569   2.077   0.740 -0.0481 -1.0561  1.0330
 2438TIP3    H228874   0.419   2.072   0.752 -0.1725  1.1620  0.8552
 2439TIP3   OH228875   3.931   2.752   9.210  0.0583 -0.3583 -0.0707
 2439TIP3    H128876   3.864   2.751   9.142  0.7364 -2.7475 -0.8317
 2439TIP3    H228877   3.928   2.664   9.248  1.0233  0.2969  1.6623
 2440TIP3   OH228878   0.969   2.584   0.908 -0.3412  0.7599 -0.2448
 2440TIP3    H128879   0.874   2.568   0.902 -0.1468  0.1235 -2.1421
 2440TIP3    H228880   0.977   2.679   0.897 -0.7819  0.9041  0.5653
 2441TIP3   OH228881   0.551   3.241   1.880 -0.3861 -0.0341  0.2122
 2441TIP3    H128882   0.508   3.223   1.964  0.7751 -0.8675  0.6574
 2441TIP3    H228883   0.508   3.320   1.848 -2.1646 -0.7449  0.6708
 2442TIP3   OH228884   0.527   6.453   2.466  0.0480 -0.1098  0.0756
 2442TIP3    H128885   0.520   6.440   2.371 -0.7753  2.1251 -0.2343
 2442TIP3    H228886   0.556   6.369   2.499 -1.1194 -1.4228 -1.9970
 2443TIP3   OH228887   5.696   4.367   9.578  0.2945  0.2461 -0.5454
 2443TIP3    H128888   5.712   4.376   9.484 -0.3779  0.3902 -0.6487
 2443TIP3    H228889   5.605   4.392   9.590  0.0090 -0.9503 -0.0306
 2444TIP3   OH228890   2.306   4.511   8.738  0.1702 -0.7910 -0.1132
 2444TIP3    H128891   2.258   4.434   8.705  2.8002 -2.7522  0.2879
 2444TIP3    H228892   2.296   4.506   8.833 -0.4413 -0.0369 -0.1289
 2445TIP3   OH228893   2.240   4.348   1.656  0.0420 -0.0740 -0.2120
 2445TIP3    H128894   2.151   4.364   1.685  0.6361  0.7022  1.2812
 2445TIP3    H228895   2.283   4.307   1.731  0.5751 -1.8538 -1.4175
 2446TIP3   OH228896   1.760   0.327   1.097 -0.3260  0.1905 -0.1790
 2446TIP3    H128897   1.785   0.404   1.147  0.7701  1.8039 -2.9997
 2446TIP3    H228898   1.744   0.359   1.009  0.0727 -2.8000 -1.4640
 2447TIP3   OH228899   1.708   3.197   7.446 -0.0049  0.3687  0.6664
 2447TIP3    H128900   1.719   3.223   7.354  1.3143 -1.9301  0.1126
 2447TIP3    H228901   1.665   3.111   7.442  3.0538 -1.3652  1.9837
 2448TIP3   OH228902   2.627   4.898   1.244  0.4241 -0.1240 -0.3970
 2448TIP3    H128903   2.640   4.905   1.149  0.9546 -3.1944 -0.6427
 2448TIP3    H228904   2.701   4.847   1.275 -0.3610 -0.1956  1.4967
 2449TIP3   OH228905   3.424   4.013   9.590 -0.5691  0.2948 -0.4378
 2449TIP3    H128906   3.394   4.104   9.582  0.7409  0.7491 -0.5519
 2449TIP3    H228907   3.481   4.013   9.667 -0.0884 -0.2908 -0.7826
 2450TIP3   OH228908   5.027   2.684   9.057  0.3266 -0.4841  0.1477
 2450TIP3    H128909   5.089   2.665   9.127  0.6428 -2.4240 -0.6022
 2450TIP3    H228910   4.966   2.610   9.060 -1.2725  0.7860  0.1014
 2451TIP3   OH228911   5.053   6.289   7.404  0.3634  0.3201 -0.0726
 2451TIP3    H128912   5.119   6.339   7.357  0.2565 -1.9347 -2.9394
 2451TIP3    H228913   4.970   6.313   7.362 -0.2630  0.7497  1.3269
 2452TIP3   OH228914   4.592   3.598   0.558  0.7261 -0.2607  0.0722
 2452TIP3    H128915   4.630   3.530   0.503  1.3010  1.1820 -1.3866
 2452TIP3    H228916   4.642   3.593   0.640  2.3535 -0.0899 -0.8729
 2453TIP3   OH228917   2.625   0.892   8.396 -0.5995  0.6284  0.2385
 2453TIP3    H128918   2.574   0.834   8.339 -1.0503  2.2165 -1.0452
 2453TIP3    H228919   2.697   0.923   8.342 -0.6047  1.5929  0.7550
 2454TIP3   OH228920   2.200   1.568   8.481 -0.5187  0.2202 -0.5221
 2454TIP3    H128921   2.286   1.524   8.487 -0.6989 -0.0420  0.2988
 2454TIP3    H228922   2.147   1.524   8.548 -1.5275 -0.1285 -1.5232
 2455TIP3   OH228923   3.959   5.484   2.231 -0.9262  0.7525  0.2106
 2455TIP3    H128924   3.988   5.514   2.317 -1.9050  1.2748  0.3739
 2455TIP3    H228925   4.027   5.514   2.171  0.8355 -1.4054  1.0080
 2456TIP3   OH228926   1.532   3.530   9.154 -0.1218  0.0302 -0.3213
 2456TIP3    H128927   1.441   3.538   9.182  0.7951 -0.8940  3.4820
 2456TIP3    H228928   1.565   3.620   9.158 -0.6907  0.2728 -1.0140
 2457TIP3   OH228929   3.012   0.007   0.345 -0.3966  0.3133  0.6256
 2457TIP3    H128930   3.073  -0.067   0.345  1.3118  1.5931 -1.7681
 2457TIP3    H228931   3.010   0.036   0.436  0.3895 -1.4785  1.2535
 2458TIP3   OH228932   1.718   4.732   1.346 -0.2060 -0.1126  0.2725
 2458TIP3    H128933   1.755   4.818   1.366 -0.3107 -0.2979  1.3156
 2458TIP3    H228934   1.628   4.751   1.317  0.7247  0.3646 -2.5727
 2459TIP3   OH228935   1.880   0.779   8.354  0.2933  0.4378 -0.3875
 2459TIP3    H128936   1.924   0.816   8.278  2.2649 -0.1783  0.3998
 2459TIP3    H228937   1.830   0.852   8.391  0.6014  1.1474 -1.3324
 2460TIP3   OH228938   1.129   5.102   8.002  0.4401 -0.2593 -0.1250
 2460TIP3    H128939   1.132   5.020   8.052  0.0804  2.0488  4.1308
 2460TIP3    H228940   1.218   5.114   7.969  0.4914 -2.2584 -0.8372
 2461TIP3   OH228941   3.322   2.295   8.676  0.4381  0.2825  0.1285
 2461TIP3    H128942   3.319   2.229   8.606 -3.4817  1.8585 -1.4831
 2461TIP3    H228943   3.318   2.243   8.757 -0.0869 -1.5110 -0.9804
 2462TIP3   OH228944   6.494   1.681   0.152  0.5244  0.6073  0.3848
 2462TIP3    H128945   6.569   1.711   0.101  0.6424  0.5108  0.5040
 2462TIP3    H228946   6.475   1.594   0.118  0.3815  0.6851  0.2619
 2463TIP3   OH228947   3.312   0.311   2.427  0.1140 -0.4415 -0.2143
 2463TIP3    H128948   3.252   0.290   2.498  0.1510 -0.3568 -0.1565
 2463TIP3    H228949   3.332   0.227   2.386 -2.3617 -0.1716 -2.1396
 2464TIP3   OH228950   2.128   1.837   9.440  0.0573 -0.1122  0.3762
 2464TIP3    H128951   2.033   1.826   9.429  0.2766 -1.7232 -0.2279
 2464TIP3    H228952   2.158   1.866   9.354  0.2321 -0.6016  0.2705
 2465TIP3   OH228953   0.013   6.161   8.186  0.0874  0.2232 -0.0396
 2465TIP3    H128954  -0.045   6.088   8.204 -0.5512  0.3402 -1.4722
 2465TIP3    H228955   0.060   6.176   8.268 -0.0917 -1.4903  0.4069
 2466TIP3   OH228956   4.196   0.503   8.433  0.2811  0.5184  0.7113
 2466TIP3    H128957   4.185   0.454   8.352 -1.5513 -0.3119  1.4018
 2466TIP3    H228958   4.280   0.548   8.423 -0.5333  1.5675 -2.1803
 2467TIP3   OH228959   0.756   3.519   1.135 -0.2611  0.2246  0.0739
 2467TIP3    H128960   0.666   3.503   1.106  0.0592 -0.7208 -0.4390
 2467TIP3    H228961   0.776   3.607   1.104 -0.9977  0.4332  0.1692
 2468TIP3   OH228962   2.400   2.821   1.616  0.3933 -0.3333  0.2701
 2468TIP3    H128963   2.432   2.911   1.624  1.0441 -0.5466  0.1279
 2468TIP3    H228964   2.360   2.802   1.701  0.8862 -0.1491  0.5466
 2469TIP3   OH228965   1.626   0.527   9.107  0.5626  0.5295 -0.1173
 2469TIP3    H128966   1.665   0.595   9.051 -0.3659  1.9061  0.8300
 2469TIP3    H228967   1.540   0.511   9.069  1.4307 -1.4782 -1.3796
 2470TIP3   OH228968   1.611   2.638   8.737  0.7221  0.4969  0.2068
 2470TIP3    H128969   1.612   2.638   8.641 -1.0876 -1.1004  0.1213
 2470TIP3    H228970   1.550   2.707   8.761 -1.0670 -0.9499  0.0455
 2471TIP3   OH228971   4.327   3.135   8.815  0.2425 -0.1468 -0.7972
 2471TIP3    H128972   4.380   3.063   8.848  2.0327  2.1130  1.7102
 2471TIP3    H228973   4.240   3.120   8.852  0.5183 -1.1358 -0.5243
 2472TIP3   OH228974   2.713   3.235   0.595 -0.1524  0.3740 -0.6141
 2472TIP3    H128975   2.648   3.284   0.647 -0.0461 -0.0956 -0.0268
 2472TIP3    H228976   2.676   3.147   0.588  0.8547 -0.1813  0.5728
 2473TIP3   OH228977   4.408   2.523   0.076  0.2227  0.1154 -0.3345
 2473TIP3    H128978   4.476   2.500   0.012 -0.9186  0.3751 -1.7095
 2473TIP3    H228979   4.456   2.544   0.156  1.6209 -2.0343 -0.5095
 2474TIP3   OH228980   6.063   2.491   1.954 -0.0924  0.1389 -0.1021
 2474TIP3    H128981   6.084   2.532   2.038 -0.4233 -1.1699  0.6510
 2474TIP3    H228982   6.112   2.408   1.955 -1.8663 -0.9568 -0.1767
 2475TIP3   OH228983   6.114   4.785   7.989  0.8275  0.5587 -0.5382
 2475TIP3    H128984   6.106   4.764   7.895  1.8988 -0.1528 -0.4890
 2475TIP3    H228985   6.036   4.746   8.028  0.2010  1.1415 -1.1665
 2476TIP3   OH228986   5.777   0.723   9.581  0.0389  0.3860  0.1341
 2476TIP3    H128987   5.818   0.768   9.655 -0.2230  0.3255  0.3178
 2476TIP3    H228988   5.740   0.793   9.527 -1.1756  0.3612  0.8928
 2477TIP3   OH228989   0.094   6.275   3.080  0.1700  0.4630  0.0230
 2477TIP3    H128990   0.144   6.223   3.017  1.4441  0.8931  0.6288
 2477TIP3    H228991   0.102   6.365   3.048  0.1771  0.5870  0.3646
 2478TIP3   OH228992   5.733   0.708   2.021 -0.1866 -0.6385 -0.5512
 2478TIP3    H128993   5.827   0.701   2.004  0.7041 -1.3029  3.5247
 2478TIP3    H228994   5.702   0.617   2.017  0.0331 -0.8009  1.0018
 2479TIP3   OH228995   5.506   2.148   8.928 -0.0445  0.1440 -0.1775
 2479TIP3    H128996   5.478   2.132   8.837  2.7027  0.5230 -1.1913
 2479TIP3    H228997   5.427   2.136   8.980 -1.3726 -1.8128 -2.4316
 2480TIP3   OH228998   2.047   3.202   2.495  0.2899  0.2355  0.4303
 2480TIP3    H128999   1.956   3.184   2.518  0.1457 -0.4234 -0.6037
 2480TIP3    H229000   2.086   3.116   2.480  0.1653  0.5717 -2.4286
 2481TIP3   OH229001   2.188   2.833   0.530  0.2454  0.2192  0.5275
 2481TIP3    H129002   2.150   2.745   0.531  0.8555 -0.0875  2.4967
 2481TIP3    H229003   2.150   2.875   0.453 -2.6272 -0.6775  1.3100
 2482TIP3   OH229004   2.494   6.486   7.595  0.4650 -0.6385  0.3241
 2482TIP3    H129005   2.451   6.505   7.678  1.0306 -1.2329  0.7547
 2482TIP3    H229006   2.527   6.571   7.565  1.7328 -0.6848  1.5363
 2483TIP3   OH229007   5.536   2.684   1.452  0.1181  0.0525  0.2887
 2483TIP3    H129008   5.494   2.636   1.380  1.9797 -2.7938  0.9385
 2483TIP3    H229009   5.598   2.742   1.409 -1.6937  1.5174 -0.4979
 2484TIP3   OH229010   3.154   2.284   6.704  0.1097 -0.3057 -0.6066
 2484TIP3    H129011   3.169   2.221   6.634 -0.7917 -2.1118  0.7351
 2484TIP3    H229012   3.238   2.328   6.715  0.5349 -0.6835 -2.1520
 2485TIP3   OH229013   0.287   0.150   0.494 -0.1558 -0.1139 -0.4289
 2485TIP3    H129014   0.335   0.174   0.573  0.2700 -0.9667 -0.4124
 2485TIP3    H229015   0.342   0.181   0.422  0.7851 -1.6540 -0.4239
 2486TIP3   OH229016   6.186   4.694   1.152  0.1657  0.2722 -1.0122
 2486TIP3    H129017   6.117   4.752   1.183  1.4914  0.9167  0.8961
 2486TIP3    H229018   6.146   4.607   1.151 -1.0432  0.8148 -1.2240
 2487TIP3   OH229019   5.800   6.010   1.700  0.3126 -0.3408 -0.1851
 2487TIP3    H129020   5.778   6.063   1.624 -0.4620  0.0148  0.2759
 2487TIP3    H229021   5.800   6.072   1.773 -1.0890 -1.0295  0.4396
 2488TIP3   OH229022   4.467   0.900   2.023  0.0182 -1.0161  0.4401
 2488TIP3    H129023   4.424   0.926   2.105 -2.5882 -0.9761 -0.8320
 2488TIP3    H229024   4.495   0.983   1.984 -0.0277 -0.9209  0.6083
 2489TIP3   OH229025   6.194   0.385   7.511  0.2586 -0.4318  0.8144
 2489TIP3    H129026   6.209   0.324   7.439  1.6725  0.6192  0.1560
 2489TIP3    H229027   6.146   0.458   7.471 -0.3722 -0.5580  1.3218
 2490TIP3   OH229028   4.121   4.250   0.575 -0.0287  0.2517  0.2797
 2490TIP3    H129029   4.082   4.224   0.491 -0.6231 -3.0796  1.4306
 2490TIP3    H229030   4.046   4.264   0.633  0.2440 -3.0070  1.6388
 2491TIP3   OH229031   2.327   5.913   1.300 -0.4918 -0.2097  0.6256
 2491TIP3    H129032   2.297   5.827   1.269  0.6621  0.2535 -2.0497
 2491TIP3    H229033   2.247   5.959   1.324 -1.6942 -0.4298 -2.4205
 2492TIP3   OH229034   4.034   1.877   2.337 -0.2308 -0.2683  0.1734
 2492TIP3    H129035   3.942   1.853   2.338  0.1132 -1.7261  0.3916
 2492TIP3    H229036   4.039   1.959   2.385 -1.4933  0.1924 -0.4579
 2493TIP3   OH229037   3.442   3.653   9.221 -0.1064 -0.0583  0.5577
 2493TIP3    H129038   3.469   3.741   9.247  0.5373  0.1934 -0.8352
 2493TIP3    H229039   3.355   3.665   9.183  0.3546  0.1523 -0.4673
 2494TIP3   OH229040   6.443   0.074   1.932 -0.2424  0.0073 -0.2663
 2494TIP3    H129041   6.442  -0.021   1.930 -0.2167  0.0170 -1.2388
 2494TIP3    H229042   6.534   0.098   1.910 -0.2796  0.2541 -0.1583
 2495TIP3   OH229043   4.383   1.630   6.806 -0.2795  0.5835 -0.1980
 2495TIP3    H129044   4.472   1.616   6.775  0.0692  1.5102  0.3414
 2495TIP3    H229045   4.338   1.670   6.732 -1.2848 -2.9865 -1.7607
 2496TIP3   OH229046   1.563   0.845   7.988  1.1967  0.1341  0.4905
 2496TIP3    H129047   1.504   0.905   7.941  0.7175  0.0336  0.9543
 2496TIP3    H229048   1.618   0.903   8.041  0.9972  0.1914  0.6381
 2497TIP3   OH229049   3.880   1.175   8.167  0.6813 -0.7753  0.2411
 2497TIP3    H129050   3.936   1.165   8.245  0.4337 -1.6013  0.3165
 2497TIP3    H229051   3.794   1.144   8.195 -0.2149  1.7158  0.5309
 2498TIP3   OH229052   1.946   2.662   1.930  0.2257  0.8899  0.2094
 2498TIP3    H129053   2.021   2.698   1.883  1.1927 -0.3010  0.7688
 2498TIP3    H229054   1.963   2.682   2.022 -0.7525  1.6318  0.2488
 2499TIP3   OH229055   2.262   4.241   0.590  0.2214  0.4363  0.3699
 2499TIP3    H129056   2.318   4.184   0.537  0.6078 -0.1907  1.4200
 2499TIP3    H229057   2.272   4.328   0.550  0.6883  0.0272 -0.4285
 2500TIP3   OH229058   4.873   1.962   7.642  0.3369 -0.4759 -0.3552
 2500TIP3    H129059   4.928   1.989   7.569  0.3822 -0.9141 -0.4876
 2500TIP3    H229060   4.902   1.873   7.662 -0.9444 -1.0686 -1.0272
 2501TIP3   OH229061   5.896   4.601   8.972  0.2944 -0.1575  0.0787
 2501TIP3    H129062   5.984   4.630   8.995 -0.0539 -0.4327  1.9392
 2501TIP3    H229063   5.907   4.507   8.955  0.2074 -0.4444  1.4622
 2502TIP3   OH229064   4.141   1.084   1.941  0.2390  0.1273  0.0880
 2502TIP3    H129065   4.130   1.012   2.003 -1.1837 -1.2177 -1.6226
 2502TIP3    H229066   4.162   1.042   1.858 -0.5497  1.6822 -0.9509
 2503TIP3   OH229067   2.211   5.455   8.153  0.1892  0.1950  0.2620
 2503TIP3    H129068   2.159   5.458   8.233  0.7741  0.0641  0.6527
 2503TIP3    H229069   2.160   5.401   8.093 -0.4044  0.5556  0.4292
 2504TIP3   OH229070   5.788   1.152   0.809  0.6052 -0.0698  0.1765
 2504TIP3    H129071   5.855   1.093   0.775  0.6003  1.1348 -2.1626
 2504TIP3    H229072   5.705   1.111   0.785  0.3697 -1.5730  3.0928
 2505TIP3   OH229073   0.423   0.347   7.951  0.4247 -0.5402  0.2789
 2505TIP3    H129074   0.380   0.335   7.867  0.0650 -0.7300  0.4903
 2505TIP3    H229075   0.406   0.266   7.999  0.3921 -0.3212  0.6399
 2506TIP3   OH229076   2.572   1.176   2.098  0.4168  0.1150 -0.0164
 2506TIP3    H129077   2.514   1.250   2.081 -1.0785 -0.6489  1.4090
 2506TIP3    H229078   2.647   1.214   2.143 -0.3098  0.8173  0.6498
 2507TIP3   OH229079   4.313   6.454   8.184 -0.9223 -0.1341  0.1809
 2507TIP3    H129080   4.375   6.494   8.245 -0.6522 -1.3709  0.7334
 2507TIP3    H229081   4.283   6.374   8.227 -1.6577 -0.4069 -0.7833
 2508TIP3   OH229082   2.430   5.291   8.468  0.0887  0.4540 -0.0898
 2508TIP3    H129083   2.400   5.233   8.397 -0.1743  0.7655 -0.2374
 2508TIP3    H229084   2.402   5.378   8.440  2.0547  0.9236 -0.7350
 2509TIP3   OH229085   5.023   3.002   0.344  0.2727 -0.0719 -0.2022
 2509TIP3    H129086   5.103   2.961   0.312  0.5734  0.7016 -0.4633
 2509TIP3    H229087   5.010   3.077   0.286  0.5696  1.1014  1.1832
 2510TIP3   OH229088   1.266   3.666   9.216  0.3484 -0.6283 -0.4524
 2510TIP3    H129089   1.233   3.753   9.238  2.3231 -0.7771  4.4787
 2510TIP3    H229090   1.189   3.609   9.224 -0.3849  0.3077 -0.6761
 2511TIP3   OH229091   5.762   3.338   8.266  0.0034  0.0968  0.1292
 2511TIP3    H129092   5.769   3.409   8.330 -0.5587  0.6158 -0.3659
 2511TIP3    H229093   5.844   3.341   8.218  0.0620  0.2977  0.2388
 2512TIP3   OH229094   0.295   4.468   0.226  0.2920 -0.0229  0.8061
 2512TIP3    H129095   0.206   4.483   0.258 -0.5544  0.0454 -1.4052
 2512TIP3    H229096   0.287   4.469   0.131  2.4122 -1.5963  0.5361
 2513TIP3   OH229097   5.911   3.521   0.396  0.1631  0.3234  0.3867
 2513TIP3    H129098   5.856   3.443   0.398 -1.6846  1.5429  0.2097
 2513TIP3    H229099   5.930   3.536   0.304 -0.1048  0.4855  0.3569
 2514TIP3   OH229100   2.312   2.278   8.506  0.3575  0.5581 -0.0012
 2514TIP3    H129101   2.248   2.218   8.545  0.8003  1.3259  2.0293
 2514TIP3    H229102   2.279   2.365   8.526  1.0633  0.9846 -0.6397
 2515TIP3   OH229103   5.640   0.272   2.493 -0.6658  0.2351 -0.3720
 2515TIP3    H129104   5.612   0.248   2.404  1.3392  2.4088 -1.6943
 2515TIP3    H229105   5.558   0.278   2.542 -1.7438 -2.5748 -1.5676
 2516TIP3   OH229106   1.858   3.537   0.016 -0.0473 -0.0783 -0.0327
 2516TIP3    H129107   1.802   3.527   0.093 -0.3119 -0.8355 -0.3118
 2516TIP3    H229108   1.873   3.447  -0.014  0.5636  0.1748 -0.4966
 2517TIP3   OH229109   5.849   3.708   8.775  0.0549  0.1588  0.0127
 2517TIP3    H129110   5.876   3.786   8.727 -0.0546 -0.2328 -0.7053
 2517TIP3    H229111   5.898   3.711   8.857  0.6260  0.5776 -0.3448
 2518TIP3   OH229112   6.007   3.485   9.231 -0.4624  0.1414 -0.5433
 2518TIP3    H129113   6.046   3.399   9.244 -1.7352 -0.5177 -0.8843
 2518TIP3    H229114   5.913   3.471   9.243 -0.7746  1.3115 -1.3999
 2519TIP3   OH229115   5.145   3.129   8.802  0.4206 -0.1170  0.1239
 2519TIP3    H129116   5.139   3.035   8.820 -0.3602  0.1978  1.7363
 2519TIP3    H229117   5.056   3.161   8.815  1.0604  1.1559  1.7656
 2520TIP3   OH229118   3.029   0.403   9.252 -0.0594 -0.8645 -0.5331
 2520TIP3    H129119   3.000   0.321   9.212 -1.7743  0.1992 -1.5726
 2520TIP3    H229120   2.949   0.447   9.278  0.8380  0.4449  0.1360
 2521TIP3   OH229121   5.578   0.595   0.576  0.3736 -0.0460  0.3890
 2521TIP3    H129122   5.574   0.539   0.498 -1.3615 -0.0652  0.4539
 2521TIP3    H229123   5.494   0.641   0.577 -0.0504 -0.7457  2.7425
 2522TIP3   OH229124   0.222   2.819   8.438  0.6439 -0.3594 -0.4334
 2522TIP3    H129125   0.132   2.848   8.423  0.1051 -0.8495  1.5863
 2522TIP3    H229126   0.262   2.888   8.491  1.3768 -0.2934 -1.0531
 2523TIP3   OH229127   0.550   4.366   1.394  0.7565  0.2751 -0.1621
 2523TIP3    H129128   0.473   4.396   1.345  1.1164 -1.1925 -1.7190
 2523TIP3    H229129   0.617   4.433   1.375 -0.3815  2.2298  2.1905
 2524TIP3   OH229130   4.281   3.902   0.195 -0.2942  0.0902 -0.2215
 2524TIP3    H129131   4.232   3.932   0.118 -4.0147  1.8829  2.5524
 2524TIP3    H229132   4.300   3.983   0.244 -0.5865 -1.1803  2.1147
 2525TIP3   OH229133   4.029   5.945   8.113  0.0103 -0.6539 -0.5477
 2525TIP3    H129134   4.089   5.972   8.182  0.3894 -0.6135 -0.8862
 2525TIP3    H229135   4.012   6.026   8.064  0.3835 -0.8294 -0.9811
 2526TIP3   OH229136   3.521   5.376   2.846  0.0613  0.1569  0.1370
 2526TIP3    H129137   3.605   5.339   2.872 -0.6460 -1.7388 -0.0922
 2526TIP3    H229138   3.501   5.334   2.762 -1.7546 -0.5217  0.8550
 2527TIP3   OH229139   0.344   4.536   6.956 -0.1664 -0.0163  0.0914
 2527TIP3    H129140   0.278   4.520   6.888 -2.0438  0.8893  1.6080
 2527TIP3    H229141   0.360   4.450   6.995 -1.0900 -0.1238  0.2484
 2528TIP3   OH229142   3.334   5.045   8.951  0.6024 -0.0108 -0.0531
 2528TIP3    H129143   3.337   4.968   8.895  0.2357  0.1600 -0.3194
 2528TIP3    H229144   3.357   5.118   8.893 -0.7292  0.2947 -0.2396
 2529TIP3   OH229145   6.241   4.630   2.114 -0.1859  0.0231 -0.2737
 2529TIP3    H129146   6.235   4.537   2.134  1.9842  0.2323  1.8443
 2529TIP3    H229147   6.170   4.670   2.165 -0.5609 -0.3744 -0.4781
 2530TIP3   OH229148   5.259   2.147   9.040  0.3830 -0.0975 -0.0569
 2530TIP3    H129149   5.174   2.130   9.000  1.1245 -0.2543 -1.6519
 2530TIP3    H229150   5.276   2.069   9.093 -0.0868 -0.4623 -0.4284
 2531TIP3   OH229151   0.680   4.938   9.107 -0.1716 -1.0968  0.5092
 2531TIP3    H129152   0.635   4.992   9.173  1.3364 -0.4460  1.0434
 2531TIP3    H229153   0.692   4.996   9.032  0.9489 -0.8333  0.8741
 2532TIP3   OH229154   2.788   3.795   7.756  0.0734  0.0589  0.5236
 2532TIP3    H129155   2.824   3.728   7.815  0.6084  0.1233  0.2752
 2532TIP3    H229156   2.865   3.837   7.718 -0.2221 -0.9189 -1.3005
 2533TIP3   OH229157   6.414   4.066   0.578  0.5123  0.1018  0.1795
 2533TIP3    H129158   6.359   4.118   0.636 -0.6654  0.7335 -1.4184
 2533TIP3    H229159   6.372   3.981   0.574 -0.1328  0.4414 -0.6750
 2534TIP3   OH229160   3.542   4.419   0.570 -0.3771  0.1903  0.2178
 2534TIP3    H129161   3.516   4.329   0.551  0.0679 -0.1819  1.2963
 2534TIP3    H229162   3.549   4.423   0.665  0.3298  1.1703  0.1455
 2535TIP3   OH229163   3.440   2.402   9.146  0.6737  0.6844  0.9798
 2535TIP3    H129164   3.399   2.486   9.128 -0.1244  0.0307 -0.4226
 2535TIP3    H229165   3.387   2.364   9.216  0.0693  0.6863  0.5313
 2536TIP3   OH229166   3.101   5.015   1.739  0.5276 -0.3304  0.4705
 2536TIP3    H129167   3.036   5.023   1.809  1.5046 -0.5939  1.4534
 2536TIP3    H229168   3.050   5.010   1.658 -0.6318  0.1318  1.1515
 2537TIP3   OH229169   0.367   4.417   7.540  0.5357  0.3954 -0.5320
 2537TIP3    H129170   0.366   4.492   7.599  0.0137 -1.5720  2.1254
 2537TIP3    H229171   0.448   4.371   7.560  0.0755 -0.6243 -0.9417
 2538TIP3   OH229172   2.795   6.393   8.360 -0.1110 -0.7997 -0.1242
 2538TIP3    H129173   2.785   6.408   8.454  0.0195  1.7901 -0.4456
 2538TIP3    H229174   2.826   6.303   8.354 -1.5271 -1.5303  2.2011
 2539TIP3   OH229175   2.114   1.436   1.501 -0.2227 -0.0836 -0.3843
 2539TIP3    H129176   2.193   1.445   1.448  0.8179 -0.1217  1.1029
 2539TIP3    H229177   2.042   1.462   1.442  1.1519  3.0852 -0.8747
 2540TIP3   OH229178   0.003   6.488   9.513  0.0746  0.1634  0.2972
 2540TIP3    H129179  -0.053   6.412   9.530  1.5739 -1.4749 -1.6527
 2540TIP3    H229180  -0.046   6.539   9.448  0.3671 -0.7674 -0.6869
 2541TIP3   OH229181   0.299   0.699   0.371 -1.0375  0.4433 -0.0524
 2541TIP3    H129182   0.210   0.670   0.394 -1.3708  2.5693  1.7413
 2541TIP3    H229183   0.285   0.761   0.300 -0.9051  0.2309 -0.2632
 2542TIP3   OH229184   0.440   1.774   2.550  0.2409  0.3134  0.0588
 2542TIP3    H129185   0.445   1.848   2.490 -2.1815  0.4442 -0.0448
 2542TIP3    H229186   0.517   1.720   2.528 -0.1798  0.6953 -2.6567
 2543TIP3   OH229187   5.432   5.913   8.723  0.1026 -0.1812 -0.0176
 2543TIP3    H129188   5.433   6.008   8.710 -1.0128 -0.3303 -1.2989
 2543TIP3    H229189   5.431   5.902   8.818  1.5057  1.0508  0.1764
 2544TIP3   OH229190   2.142   2.729   1.501 -0.0511 -0.3954  0.4214
 2544TIP3    H129191   2.149   2.634   1.490  1.1539 -0.2246 -0.5874
 2544TIP3    H229192   2.204   2.750   1.571  0.4887 -0.2397 -0.0978
 2545TIP3   OH229193   5.896   1.675   9.054  0.3141  0.1131 -0.1519
 2545TIP3    H129194   5.827   1.733   9.022  1.0116  0.4409 -1.1081
 2545TIP3    H229195   5.978   1.718   9.027  0.8810 -0.4915  0.5713
 2546TIP3   OH229196   2.011   0.375   0.344  0.2670 -0.2590  0.1537
 2546TIP3    H129197   2.058   0.321   0.281  1.1851  1.5537 -0.8186
 2546TIP3    H229198   1.925   0.334   0.353  0.7852 -1.6068 -0.8341
 2547TIP3   OH229199   1.527   0.883   0.618 -0.0725 -0.8567  0.0879
 2547TIP3    H129200   1.526   0.957   0.679  0.5566 -0.8696  0.1183
 2547TIP3    H229201   1.465   0.821   0.655 -0.0683 -0.6521  0.4476
 2548TIP3   OH229202   2.568   5.081   2.140  0.1464  0.1596  0.5974
 2548TIP3    H129203   2.604   5.164   2.110  1.4604 -0.4084  0.5537
 2548TIP3    H229204   2.473   5.091   2.128  0.1291  2.1708  1.9498
 2549TIP3   OH229205   3.916   2.438   6.557 -0.1221  0.7478  0.1602
 2549TIP3    H129206   3.890   2.529   6.544 -0.7871  0.2508 -2.9736
 2549TIP3    H229207   3.852   2.388   6.506  1.3957 -1.3208  0.1473
 2550TIP3   OH229208   3.879   5.381   0.627 -0.5466 -0.4446 -0.8274
 2550TIP3    H129209   3.850   5.342   0.709  0.8495 -0.4861 -0.3362
 2550TIP3    H229210   3.975   5.380   0.631 -0.4509  0.4389 -2.0330
 2551TIP3   OH229211   4.012   3.232   9.546 -0.0779  0.9046 -0.0122
 2551TIP3    H129212   4.056   3.148   9.559 -1.4729 -0.0659 -1.1995
 2551TIP3    H229213   4.005   3.270   9.634  0.6184 -0.2021  0.5377
 2552TIP3   OH229214   5.817   3.144   2.144  0.0463  0.6802  0.6054
 2552TIP3    H129215   5.780   3.059   2.120  3.4665 -1.2639  1.5065
 2552TIP3    H229216   5.756   3.179   2.209 -0.8508 -1.7048  1.1554
 2553TIP3   OH229217   4.695   1.206   9.143 -0.5546 -0.1611 -0.3017
 2553TIP3    H129218   4.660   1.123   9.173  0.4479 -0.8325 -0.9058
 2553TIP3    H229219   4.786   1.206   9.173 -0.1340  0.0688 -1.5143
 2554TIP3   OH229220   2.036   5.826   0.426  0.8936  0.1539 -0.0237
 2554TIP3    H129221   2.073   5.742   0.456 -0.4092 -0.0454  1.1673
 2554TIP3    H229222   2.083   5.892   0.477 -0.8135 -0.1431  2.1169
 2555TIP3   OH229223   0.521   5.127   7.703 -0.3000  0.0547  0.1081
 2555TIP3    H129224   0.459   5.197   7.725 -0.6275 -0.1421 -0.1845
 2555TIP3    H229225   0.598   5.174   7.671 -0.3939  0.2919  0.2241
 2556TIP3   OH229226   4.770   5.232   7.071  0.2666 -0.0288 -0.0251
 2556TIP3    H129227   4.774   5.169   7.143 -0.0056  0.7486  0.6861
 2556TIP3    H229228   4.842   5.292   7.088  1.2152 -0.7646 -1.3098
 2557TIP3   OH229229   5.407   1.948   8.061 -0.9204  0.2859  0.8601
 2557TIP3    H129230   5.399   1.935   7.967 -0.1252  0.0546  0.8133
 2557TIP3    H229231   5.447   2.035   8.070  0.5813 -0.3669  0.9021
 2558TIP3   OH229232   2.283   0.668   9.247 -0.7189  0.3811  0.0922
 2558TIP3    H129233   2.225   0.617   9.190  1.3248 -0.7907 -1.0840
 2558TIP3    H229234   2.338   0.718   9.186  0.4913  0.2807  1.0526
 2559TIP3   OH229235   6.302   2.731   0.135 -0.1700 -0.0526 -0.2809
 2559TIP3    H129236   6.246   2.733   0.056 -0.4522  0.1033 -0.0788
 2559TIP3    H229237   6.360   2.807   0.125 -0.0894 -0.1332 -0.4242
 2560TIP3   OH229238   4.067   2.390   7.057  0.5347  0.1541  0.0587
 2560TIP3    H129239   4.162   2.390   7.067  0.4652 -1.1836  0.9075
 2560TIP3    H229240   4.053   2.387   6.962  1.3142  1.2679 -0.1082
 2561TIP3   OH229241   3.161   0.262   1.121  0.5948 -0.0983 -0.2455
 2561TIP3    H129242   3.153   0.220   1.206 -1.9871  0.4834 -0.1309
 2561TIP3    H229243   3.179   0.354   1.141 -0.7473  0.1844 -0.2795
 2562TIP3   OH229244   5.601   1.591   8.428 -0.0252  0.1453 -0.2088
 2562TIP3    H129245   5.517   1.616   8.468 -0.3363  1.0257 -1.3630
 2562TIP3    H229246   5.602   1.496   8.434 -2.0394 -0.0574 -1.9146
 2563TIP3   OH229247   2.651   6.433   0.758 -0.7038  0.0649  0.5652
 2563TIP3    H129248   2.651   6.461   0.850  0.6876 -0.7881  0.8442
 2563TIP3    H229249   2.733   6.386   0.747 -2.0464 -2.2267 -0.4010
 2564TIP3   OH229250   1.084   6.167   8.461 -0.0786  0.3928  0.2349
 2564TIP3    H129251   1.135   6.131   8.533  0.3271  0.1267 -0.1767
 2564TIP3    H229252   1.016   6.102   8.446  0.8628 -0.4109 -0.7387
 2565TIP3   OH229253   0.688   5.423   1.805 -0.0137 -0.4674 -0.3419
 2565TIP3    H129254   0.766   5.438   1.858 -0.1390 -0.3115 -0.1982
 2565TIP3    H229255   0.623   5.485   1.840 -0.0347 -0.2202 -0.8068
 2566TIP3   OH229256   3.318   6.194   1.568  0.1679  0.4041  0.2287
 2566TIP3    H129257   3.354   6.270   1.523  3.2223  0.2623  2.1477
 2566TIP3    H229258   3.231   6.221   1.596  0.1192  2.1817 -1.4775
 2567TIP3   OH229259   1.537   5.798   0.434 -0.2395  0.5090  0.7281
 2567TIP3    H129260   1.489   5.837   0.507 -0.8342  0.0455  0.5956
 2567TIP3    H229261   1.575   5.718   0.470 -0.6388  0.2128  0.5127
 2568TIP3   OH229262   3.887   2.911   1.882  0.1345 -0.3273 -0.4128
 2568TIP3    H129263   3.909   2.830   1.835  1.4203 -0.7251  0.8001
 2568TIP3    H229264   3.852   2.882   1.966  1.3221  0.3291  0.3477
 2569TIP3   OH229265   2.834   0.884   2.742  0.2410  0.3573 -0.4809
 2569TIP3    H129266   2.860   0.970   2.708  0.5504  0.0406 -1.0484
 2569TIP3    H229267   2.747   0.899   2.780 -0.0948  0.7306 -1.3627
 2570TIP3   OH229268   2.318   0.253   8.200  0.3582 -0.2080 -0.2609
 2570TIP3    H129269   2.265   0.203   8.262  0.7940 -0.4030 -0.0389
 2570TIP3    H229270   2.380   0.300   8.255  0.0574  0.4495 -0.4826
 2571TIP3   OH229271   1.236   5.051   8.881  0.0416  0.0969 -0.1282
 2571TIP3    H129272   1.188   5.076   8.803 -0.1244  0.9624  0.2375
 2571TIP3    H229273   1.307   5.115   8.888 -0.2430  0.3328  0.7012
 2572TIP3   OH229274   2.351   6.453   0.734  0.5060 -0.3550  0.0511
 2572TIP3    H129275   2.366   6.413   0.648 -0.3614 -1.9377  0.5977
 2572TIP3    H229276   2.426   6.426   0.787  1.5790  1.4697 -0.4331
 2573TIP3   OH229277   6.365   3.916   2.215  0.2969  0.5909  0.8760
 2573TIP3    H129278   6.399   3.866   2.289  0.2306 -2.0019 -0.7204
 2573TIP3    H229279   6.278   3.946   2.244  0.8608  0.9104  2.3260
 2574TIP3   OH229280   1.904   4.102   8.661  0.1396 -0.4439  0.2787
 2574TIP3    H129281   1.884   4.045   8.736 -3.6523 -0.6764 -0.6992
 2574TIP3    H229282   1.896   4.191   8.697  0.0038 -0.5547  0.5315
 2575TIP3   OH229283   4.420   4.461   0.088  0.3458 -0.1611 -0.1142
 2575TIP3    H129284   4.430   4.555   0.107 -1.0468 -0.0549  0.2108
 2575TIP3    H229285   4.404   4.422   0.174  2.6742 -0.9787 -0.0105
 2576TIP3   OH229286   0.020   5.830   8.028 -0.3728 -0.0022 -0.0921
 2576TIP3    H129287  -0.070   5.850   8.002 -0.8959  1.1695  2.3769
 2576TIP3    H229288   0.072   5.898   7.984 -0.4130 -1.4749 -2.6363
 2577TIP3   OH229289   3.081   5.866   1.359 -0.6527  0.3924 -0.5872
 2577TIP3    H129290   3.112   5.783   1.395 -0.4772  0.7515  0.1168
 2577TIP3    H229291   2.986   5.863   1.372 -0.5902  0.5260 -0.0539
 2578TIP3   OH229292   4.203   3.928   0.758 -0.1819  0.4835 -0.1779
 2578TIP3    H129293   4.185   3.880   0.839 -4.0996 -0.8264 -1.6251
 2578TIP3    H229294   4.173   4.017   0.776 -1.6791  0.0310 -0.3486
 2579TIP3   OH229295   1.395   4.905   2.384  0.1402  0.5125 -0.3074
 2579TIP3    H129296   1.406   4.951   2.468  1.8736 -0.1599 -0.1171
 2579TIP3    H229297   1.309   4.864   2.390 -0.4345  1.7612  0.4820
 2580TIP3   OH229298   2.294   1.540   0.578 -0.2502 -0.1537 -0.2135
 2580TIP3    H129299   2.285   1.625   0.620 -0.5959 -0.3640  0.1420
 2580TIP3    H229300   2.382   1.510   0.603 -1.2719 -1.3026  2.3145
 2581TIP3   OH229301   2.533   1.917   9.539  0.1150  0.1568  0.7871
 2581TIP3    H129302   2.472   1.855   9.498  1.8888 -0.9817 -0.2521
 2581TIP3    H229303   2.562   1.872   9.618  2.0158 -0.7564 -0.3768
 2582TIP3   OH229304   1.274   3.901   1.559 -0.7044 -0.7383  0.6905
 2582TIP3    H129305   1.199   3.955   1.583 -0.8955 -0.3362 -0.7086
 2582TIP3    H229306   1.248   3.860   1.476  0.8875  0.0007 -0.2195
 2583TIP3   OH229307   4.748   4.644   8.992 -1.1480  0.7334 -0.0213
 2583TIP3    H129308   4.828   4.635   8.941 -1.4297  1.1575 -0.5403
 2583TIP3    H229309   4.678   4.636   8.928 -1.4976  1.8756  0.2074
 2584TIP3   OH229310   3.163   3.190   7.505 -0.3955  0.1925  0.1867
 2584TIP3    H129311   3.154   3.120   7.441 -0.8958 -0.1957  0.6726
 2584TIP3    H229312   3.248   3.231   7.485 -0.2928 -0.2845 -0.3567
 2585TIP3   OH229313   2.711   6.153   1.110 -0.4415 -0.7361 -0.1348
 2585TIP3    H129314   2.756   6.110   1.183 -2.5679  1.7440  2.8772
 2585TIP3    H229315   2.640   6.093   1.087 -0.0105 -1.3459  0.0843
 2586TIP3   OH229316   0.937   0.063   8.112 -0.2568  0.1975  0.5306
 2586TIP3    H129317   0.871   0.078   8.045  0.8480 -1.0209 -0.8976
 2586TIP3    H229318   0.943   0.146   8.160 -0.1205  1.5779 -1.7691
 2587TIP3   OH229319   2.773   4.543   0.967  0.1403 -0.0651 -0.3383
 2587TIP3    H129320   2.770   4.564   1.060  0.5645 -0.2861 -0.2713
 2587TIP3    H229321   2.728   4.458   0.961 -0.2722  0.1561 -0.3990
 2588TIP3   OH229322   1.081   6.006   2.112  0.1068 -0.5348  0.3132
 2588TIP3    H129323   1.084   6.086   2.164 -1.1012  0.3052 -0.8323
 2588TIP3    H229324   1.147   6.019   2.043 -0.9675  0.0831 -0.6403
 2589TIP3   OH229325   5.399   0.798   2.003  0.1491  0.2385 -0.0783
 2589TIP3    H129326   5.355   0.857   2.065 -1.4170 -0.4537 -0.4813
 2589TIP3    H229327   5.366   0.826   1.917  1.0980  0.1839 -0.4683
 2590TIP3   OH229328   6.339   2.507   2.356 -0.3415  0.0204  0.0192
 2590TIP3    H129329   6.418   2.553   2.383  0.1565 -0.6368 -0.3072
 2590TIP3    H229330   6.331   2.434   2.417  0.4443 -1.1065 -1.1681
 2591TIP3   OH229331   5.535   2.062   1.280  0.1682  0.2320  0.1786
 2591TIP3    H129332   5.516   1.976   1.242  1.7556 -0.7586  1.5333
 2591TIP3    H229333   5.615   2.090   1.236 -2.2463  2.9070 -3.1023
 2592TIP3   OH229334   5.367   5.432   1.454  0.2964  0.8496  0.1049
 2592TIP3    H129335   5.419   5.352   1.452 -0.9761 -0.0508  1.4296
 2592TIP3    H229336   5.432   5.502   1.462  1.3449 -0.1769  0.9604
 2593TIP3   OH229337   0.127   0.696   8.314  0.5083 -0.1938  0.6017
 2593TIP3    H129338   0.070   0.705   8.237 -0.2319  0.1074  1.1790
 2593TIP3    H229339   0.195   0.762   8.302  2.1788 -2.0822 -1.2939
 2594TIP3   OH229340   6.412   4.866   2.083 -0.2783  0.5791 -0.3120
 2594TIP3    H129341   6.415   4.791   2.143 -1.4985  1.2427  0.6280
 2594TIP3    H229342   6.445   4.832   2.000  0.7717 -0.5561  0.5407
 2595TIP3   OH229343   0.785   3.505   7.522 -0.2180  0.3249  0.3781
 2595TIP3    H129344   0.713   3.485   7.463  0.1553 -0.8323  0.2861
 2595TIP3    H229345   0.748   3.569   7.584 -0.6548  1.4215 -0.9756
 2596TIP3   OH229346   2.449   4.279   0.216 -0.0987 -0.0047 -1.0465
 2596TIP3    H129347   2.411   4.367   0.208  0.1070  0.1885 -0.0631
 2596TIP3    H229348   2.441   4.241   0.128  0.3830  1.2291 -1.6533
 2597TIP3   OH229349   2.345   3.156   9.331 -0.0786 -0.3160 -0.3645
 2597TIP3    H129350   2.418   3.180   9.274  0.7375  1.9805  1.5369
 2597TIP3    H229351   2.362   3.064   9.352 -0.9449 -1.6426 -4.4291
 2598TIP3   OH229352   4.180   0.193   7.826  0.4724 -0.0911  0.0030
 2598TIP3    H129353   4.112   0.137   7.789 -0.6820  2.1248 -1.4721
 2598TIP3    H229354   4.187   0.165   7.917 -1.1420 -1.5920 -0.2821
 2599TIP3   OH229355   5.603   0.311   8.957  0.5158  0.7139 -0.0261
 2599TIP3    H129356   5.616   0.222   8.989  0.1009  0.8203  0.4531
 2599TIP3    H229357   5.648   0.366   9.021 -1.9396  1.0759  1.5602
 2600TIP3   OH229358   2.503   0.499   0.251 -0.1621  0.3884 -0.4185
 2600TIP3    H129359   2.431   0.562   0.261 -0.0139  0.2632  2.3073
 2600TIP3    H229360   2.578   0.542   0.291  0.5582 -0.5759 -0.6959
 2601TIP3   OH229361   3.695   5.386   8.173 -0.5519 -0.5295  0.2005
 2601TIP3    H129362   3.632   5.372   8.243 -1.5248  2.4367  0.0144
 2601TIP3    H229363   3.769   5.430   8.215 -0.0878 -0.8904 -0.2195
 2602TIP3   OH229364   1.779   1.046   0.470  0.1614 -0.0830 -0.2528
 2602TIP3    H129365   1.706   1.102   0.443 -2.0617 -2.0667  1.1916
 2602TIP3    H229366   1.834   1.102   0.524 -2.0786  0.7309  1.3298
 2603TIP3   OH229367   5.782   3.100   7.617 -0.0806  0.2972  0.3409
 2603TIP3    H129368   5.844   3.071   7.684 -1.2360  0.5213  1.5645
 2603TIP3    H229369   5.748   3.183   7.651  0.4319  1.2321 -1.2961
 2604TIP3   OH229370   6.327   5.051   1.796 -0.0262  0.1482  0.2809
 2604TIP3    H129371   6.355   5.095   1.877 -0.9214  2.4702 -0.5671
 2604TIP3    H229372   6.273   4.979   1.826  0.0671  0.6583  1.7767
 2605TIP3   OH229373   1.267   1.956   8.650  0.0609 -0.1039  0.0665
 2605TIP3    H129374   1.182   1.999   8.662  0.2998  0.4134 -0.0555
 2605TIP3    H229375   1.271   1.936   8.557  0.1526  0.0516  0.0358
 2606TIP3   OH229376   2.836   4.404   2.690  0.3437  0.0054 -0.2467
 2606TIP3    H129377   2.840   4.319   2.733 -1.7299  0.8334  1.7593
 2606TIP3    H229378   2.898   4.459   2.738  1.3215 -0.1917 -1.2325
 2607TIP3   OH229379   1.214   5.003   0.875 -0.0985 -0.3015  1.2013
 2607TIP3    H129380   1.120   5.000   0.891 -0.1035 -0.7528  1.0997
 2607TIP3    H229381   1.223   5.036   0.786 -0.2176 -1.5075  0.7198
 2608TIP3   OH229382   5.529   1.710   1.892 -0.8046 -0.5007  0.3717
 2608TIP3    H129383   5.523   1.733   1.984 -1.3122 -1.3071  0.5479
 2608TIP3    H229384   5.599   1.765   1.858 -1.4768  0.7419  0.9408
 2609TIP3   OH229385   1.207   5.090   0.618  0.1619 -0.3404  0.4096
 2609TIP3    H129386   1.268   5.143   0.566 -0.0749 -0.9048 -0.4731
 2609TIP3    H229387   1.127   5.090   0.566 -0.4453 -0.0047  1.3290
 2610TIP3   OH229388   3.884   2.720   8.810  0.1341  0.1459 -0.2874
 2610TIP3    H129389   3.889   2.628   8.836 -4.5174 -0.6255 -1.3380
 2610TIP3    H229390   3.838   2.763   8.882 -0.6714  0.9309 -1.2595
 2611TIP3   OH229391   3.080   1.139   1.687 -0.5726  0.2654 -0.0761
 2611TIP3    H129392   3.089   1.145   1.591 -1.0843  1.0546 -0.0843
 2611TIP3    H229393   3.137   1.209   1.720  1.2162 -1.3064  0.3034
 2612TIP3   OH229394   3.458   2.970   7.429 -0.2428 -0.1148  0.1401
 2612TIP3    H129395   3.363   2.971   7.418 -0.3879  1.7795  1.1088
 2612TIP3    H229396   3.493   2.988   7.342 -0.7848 -0.0952 -0.0781
 2613TIP3   OH229397   4.938   3.263   0.188 -0.0387  0.2667 -0.0333
 2613TIP3    H129398   4.922   3.345   0.234  1.5346 -0.1892  1.4373
 2613TIP3    H229399   5.018   3.279   0.137  1.0227 -0.6941  1.2685
 2614TIP3   OH229400   2.521   4.508   1.957  1.0632  0.3301 -0.2131
 2614TIP3    H129401   2.465   4.582   1.984  2.5150  0.7351  1.9233
 2614TIP3    H229402   2.553   4.472   2.039 -1.0223 -3.9562 -1.0182
 2615TIP3   OH229403   3.947   4.051   7.989  0.0541  0.2207  0.0009
 2615TIP3    H129404   3.983   4.082   7.906 -0.1914 -0.9093 -0.5561
 2615TIP3    H229405   3.860   4.017   7.966 -1.4242  2.8464  1.3033
 2616TIP3   OH229406   5.654   0.879   9.400  0.5462  0.0439  0.1719
 2616TIP3    H129407   5.673   0.973   9.397  2.5483 -0.2987  0.4071
 2616TIP3    H229408   5.581   0.868   9.340  1.3115  1.5499 -1.1404
 2617TIP3   OH229409   4.371   5.100   8.255 -0.4661 -0.4038 -0.8083
 2617TIP3    H129410   4.339   5.182   8.293  0.1367 -0.0978 -0.9578
 2617TIP3    H229411   4.293   5.044   8.249 -0.8199  0.0444 -0.4173
 2618TIP3   OH229412   3.898   3.759   8.294  0.0873  0.5297  0.4071
 2618TIP3    H129413   3.947   3.683   8.263  1.0362  1.2182  0.1714
 2618TIP3    H229414   3.945   3.834   8.258 -1.8450  1.2154 -0.8702
 2619TIP3   OH229415   2.982   0.805   9.223  0.3068  0.0702  0.1293
 2619TIP3    H129416   3.068   0.840   9.202  1.0011 -0.7028  1.5600
 2619TIP3    H229417   2.943   0.870   9.281  0.1387  0.1533 -0.0733
 2620TIP3   OH229418   2.766   1.317   0.439 -0.1523  0.0595  0.5600
 2620TIP3    H129419   2.813   1.245   0.398 -1.0542  0.1743 -0.7396
 2620TIP3    H229420   2.827   1.391   0.435 -0.5703  0.3726 -1.6822
 2621TIP3   OH229421   3.402   2.317   0.401 -0.0237  0.5592  0.6945
 2621TIP3    H129422   3.306   2.320   0.397 -0.0607 -1.0964 -0.6027
 2621TIP3    H229423   3.427   2.260   0.329  1.9279  0.4712  1.3914
 2622TIP3   OH229424   5.011   3.638   0.420  0.2302 -0.2042  0.1933
 2622TIP3    H129425   5.027   3.659   0.512 -2.5796  0.5101  0.6255
 2622TIP3    H229426   4.993   3.723   0.380  0.4764 -0.6113 -0.8031
 2623TIP3   OH229427   5.486   1.542   9.183 -0.1412  0.1838  0.6599
 2623TIP3    H129428   5.542   1.513   9.254  1.7371  0.1861 -0.7417
 2623TIP3    H229429   5.514   1.491   9.107 -0.6967  1.5722 -0.5498
 2624TIP3   OH229430   1.967   3.202   0.368 -0.0174 -0.3438 -0.3079
 2624TIP3    H129431   1.955   3.170   0.458 -1.1965 -0.2134 -0.3976
 2624TIP3    H229432   1.986   3.295   0.379 -3.0843  0.3985 -0.2223
 2625TIP3   OH229433   0.621   2.953   8.894  0.0307  0.3289 -0.1743
 2625TIP3    H129434   0.593   2.907   8.815  0.1747 -0.5345  0.2663
 2625TIP3    H229435   0.715   2.939   8.898 -0.1553 -0.8763  0.8962
 2626TIP3   OH229436   4.936   5.175   8.110  0.1518  0.0464 -0.2310
 2626TIP3    H129437   5.028   5.149   8.115  0.4483  0.9204 -0.9777
 2626TIP3    H229438   4.927   5.245   8.174  0.3417  0.8659 -1.0721
 2627TIP3   OH229439   1.709   3.371   0.498  0.2151  0.0479 -0.4988
 2627TIP3    H129440   1.614   3.370   0.487  0.1394  0.3269  0.0822
 2627TIP3    H229441   1.733   3.463   0.496  0.4417 -0.0081 -0.4094
 2628TIP3   OH229442   3.508   5.008   2.735  0.0241 -0.1726 -0.5773
 2628TIP3    H129443   3.511   5.085   2.678  3.3418  1.3642  1.3961
 2628TIP3    H229444   3.550   4.939   2.684  0.7282  0.4883 -0.9193
 2629TIP3   OH229445   6.013   1.182   7.474  0.0667  0.0677 -0.1962
 2629TIP3    H129446   6.029   1.111   7.412 -0.0320 -1.3051  1.2947
 2629TIP3    H229447   6.070   1.163   7.548 -0.5929  1.0698  0.6001
 2630TIP3   OH229448   4.809   6.520   0.487 -0.2653  0.5673 -0.7910
 2630TIP3    H129449   4.717   6.536   0.466 -0.7590  1.5669  1.7715
 2630TIP3    H229450   4.858   6.578   0.428 -1.4301  1.9876 -0.3996
 2631TIP3   OH229451   1.430   3.184   0.651 -0.7246 -0.1298  0.2006
 2631TIP3    H129452   1.431   3.252   0.583 -2.6271 -0.6965 -0.4596
 2631TIP3    H229453   1.354   3.129   0.629  0.1819 -1.8947  1.2894
 2632TIP3   OH229454   0.908   0.763   7.114 -0.3445 -0.7048 -0.3300
 2632TIP3    H129455   0.840   0.798   7.058 -0.7594 -1.0775 -0.0640
 2632TIP3    H229456   0.990   0.785   7.069 -0.4700  2.0226  0.6248
 2633TIP3   OH229457   4.995   1.281   9.538 -0.0630 -0.1796  0.5310
 2633TIP3    H129458   4.933   1.208   9.533 -1.7885  1.2060  0.3882
 2633TIP3    H229459   4.972   1.326   9.620 -0.3725  1.2756 -0.3066
 2634TIP3   OH229460   5.695   1.988   8.176  0.3927 -0.3314  0.2179
 2634TIP3    H129461   5.648   2.066   8.149  1.0205 -0.1518 -0.3980
 2634TIP3    H229462   5.630   1.918   8.176  0.0416 -0.0033 -0.1964
 2635TIP3   OH229463   4.974   4.005   8.171  0.0795  0.1585  0.0630
 2635TIP3    H129464   4.985   4.086   8.122 -3.8286  0.2491 -1.0129
 2635TIP3    H229465   4.988   3.936   8.107 -1.2658  0.1895 -0.3069
 2636TIP3   OH229466   3.250   0.916   0.283  1.3021 -0.7437 -0.1782
 2636TIP3    H129467   3.278   0.964   0.205 -1.9063  1.6648 -0.0882
 2636TIP3    H229468   3.278   0.971   0.356 -0.5466  0.0357  0.0157
 2637TIP3   OH229469   0.254   1.153   1.527 -0.1170 -0.4527  0.2133
 2637TIP3    H129470   0.244   1.116   1.615  1.0155 -0.8456  0.1905
 2637TIP3    H229471   0.263   1.076   1.470  0.5179 -0.1730 -0.0689
 2638TIP3   OH229472   2.240   3.442   8.092 -0.0542  0.5729 -0.0823
 2638TIP3    H129473   2.204   3.397   8.168  0.5760 -0.2462 -0.2587
 2638TIP3    H229474   2.333   3.423   8.094 -0.3172 -1.5530 -2.4002
 2639TIP3   OH229475   3.226   5.225   9.360 -0.3324  0.0088  0.5406
 2639TIP3    H129476   3.137   5.202   9.389 -0.6962  0.7615  0.0476
 2639TIP3    H229477   3.268   5.258   9.439 -1.1241  1.4684  0.3866
 2640TIP3   OH229478   1.458   2.454   1.383  0.0676 -0.0441  0.4073
 2640TIP3    H129479   1.489   2.513   1.314 -0.5595  1.4277  1.3331
 2640TIP3    H229480   1.538   2.422   1.425  0.4461 -0.7050 -0.7635
 2641TIP3   OH229481   1.323   1.647   9.030 -0.5632 -0.6219 -0.4793
 2641TIP3    H129482   1.334   1.717   9.094 -1.1342 -1.2173  0.3031
 2641TIP3    H229483   1.307   1.692   8.947 -2.0714  0.2014  0.2135
 2642TIP3   OH229484   5.857   0.560   1.458 -0.4280 -1.2089  0.3816
 2642TIP3    H129485   5.782   0.611   1.429  0.0344 -0.0032  1.2228
 2642TIP3    H229486   5.883   0.509   1.381 -1.7174 -1.1821 -0.0886
 2643TIP3   OH229487   2.304   2.041   0.287 -0.2425  0.3200  0.4366
 2643TIP3    H129488   2.253   2.102   0.341 -0.3395 -0.3937  1.1773
 2643TIP3    H229489   2.386   2.088   0.270  0.4283  0.0232  2.4911
 2644TIP3   OH229490   0.973   4.716   8.323  0.1524 -0.1073 -0.3299
 2644TIP3    H129491   1.055   4.688   8.363  1.3396  0.2892 -2.3047
 2644TIP3    H229492   0.910   4.647   8.344  0.9760 -0.4392  1.2007
 2645TIP3   OH229493   4.021   4.890   7.900  0.4409  0.1810 -0.1711
 2645TIP3    H129494   3.959   4.894   7.973  2.0992  3.0161  1.2605
 2645TIP3    H229495   3.985   4.948   7.833 -0.4536 -1.4551 -1.1846
 2646TIP3   OH229496   2.682   5.096   2.423  0.6302  0.3884  0.0486
 2646TIP3    H129497   2.616   5.163   2.441  1.3137  0.4345  2.8271
 2646TIP3    H229498   2.643   5.041   2.354 -2.6766 -0.0534  2.0697
 2647TIP3   OH229499   5.355   5.889   9.507  0.2415  1.1890 -0.3698
 2647TIP3    H129500   5.339   5.893   9.601  0.7961 -1.4164 -0.0882
 2647TIP3    H229501   5.451   5.894   9.499  0.6330 -3.1321 -0.2994
 2648TIP3   OH229502   5.519   5.287   8.211 -0.2656 -0.0684  0.5144
 2648TIP3    H129503   5.424   5.299   8.210 -0.1984  0.4697 -0.4148
 2648TIP3    H229504   5.535   5.228   8.284 -1.2734  0.1925  0.9576
 2649TIP3   OH229505   2.977   1.833   7.735 -0.1936  0.2184  0.2814
 2649TIP3    H129506   3.053   1.798   7.782 -1.3839 -1.4200  1.0920
 2649TIP3    H229507   2.986   1.798   7.646 -0.3890 -0.6290  0.5871
 2650TIP3   OH229508   0.087   1.903   7.574 -0.0537 -0.3709  0.3407
 2650TIP3    H129509   0.153   1.971   7.591  0.2448 -0.5257 -0.1650
 2650TIP3    H229510   0.087   1.893   7.478 -0.2192 -0.9599  0.3964
 2651TIP3   OH229511   2.608   2.280   0.476  0.0396 -0.1214  0.0697
 2651TIP3    H129512   2.654   2.204   0.439 -2.3885 -1.0693 -1.2456
 2651TIP3    H229513   2.565   2.320   0.401 -0.5566  1.2599  1.1080
 2652TIP3   OH229514   2.028   1.657   0.160 -0.2443  0.3244  0.5876
 2652TIP3    H129515   2.034   1.746   0.125 -1.3840  0.9224  1.8003
 2652TIP3    H229516   2.119   1.631   0.174  0.2784  0.1366 -2.4149
 2653TIP3   OH229517   3.347   4.139   8.901 -0.1151  0.2249  0.3573
 2653TIP3    H129518   3.253   4.127   8.912  0.1257 -1.4684  0.8987
 2653TIP3    H229519   3.369   4.213   8.957 -1.0930  0.5086  0.3734
 2654TIP3   OH229520   1.610   4.205   9.082  0.1230 -0.2451  0.5141
 2654TIP3    H129521   1.584   4.256   9.005  0.4650  0.6263  0.9759
 2654TIP3    H229522   1.620   4.116   9.048  1.4501  0.3334 -0.7185
 2655TIP3   OH229523   4.999   1.747   8.675  0.3987  0.0766 -0.0633
 2655TIP3    H129524   5.072   1.772   8.732 -0.2752  0.5727  0.6027
 2655TIP3    H229525   4.956   1.675   8.722  0.4511 -0.2195 -0.4597
 2656TIP3   OH229526   1.724   5.783   2.425  0.3773 -0.1433 -0.0547
 2656TIP3    H129527   1.659   5.846   2.395 -0.1456 -0.3145  0.7022
 2656TIP3    H229528   1.677   5.726   2.485  1.1915 -0.3702  0.3882
 2657TIP3   OH229529   5.798   4.800   0.946 -0.5290  0.1826  0.5146
 2657TIP3    H129530   5.776   4.883   0.989 -3.0400  0.4931 -1.1323
 2657TIP3    H229531   5.845   4.826   0.867 -2.6265  0.2481 -0.7882
 2658TIP3   OH229532   6.043   3.218   9.293 -0.1301  0.4087  0.2394
 2658TIP3    H129533   5.956   3.185   9.268 -0.6893  1.6650  0.4629
 2658TIP3    H229534   6.095   3.139   9.307 -1.4667 -0.3908  0.8809
 2659TIP3   OH229535   2.969   2.758   1.147 -0.0043 -0.4165 -0.0265
 2659TIP3    H129536   2.911   2.750   1.222 -0.0954  0.1222 -0.0337
 2659TIP3    H229537   2.937   2.835   1.100  2.2098  1.4418  1.3174
 2660TIP3   OH229538   4.663   3.704   1.657  0.0240 -0.3226 -0.1900
 2660TIP3    H129539   4.679   3.797   1.670 -0.2382 -0.2731 -0.2336
 2660TIP3    H229540   4.751   3.667   1.645  0.2432 -0.2723  1.0559
 2661TIP3   OH229541   6.461   4.510   9.553  0.0248  0.0729  0.2695
 2661TIP3    H129542   6.392   4.445   9.546  0.2360 -0.1084 -0.1225
 2661TIP3    H229543   6.494   4.501   9.643 -0.6323  0.3403  0.5476
 2662TIP3   OH229544   4.932   6.491   9.196 -0.3196 -0.0814  0.7573
 2662TIP3    H129545   4.880   6.533   9.265  0.6864  0.6485  1.0926
 2662TIP3    H229546   4.868   6.469   9.128 -1.1347  0.3701  1.3579
 2663TIP3   OH229547   1.483   5.016   8.091  0.0438 -0.4249  0.2572
 2663TIP3    H129548   1.438   5.068   8.025  0.8841 -1.5345 -1.2501
 2663TIP3    H229549   1.456   4.926   8.073  1.1539 -0.8677  0.7207
 2664TIP3   OH229550   1.041   2.106   8.688  0.4051 -0.4694 -0.4322
 2664TIP3    H129551   1.066   2.189   8.647 -0.3501  0.8081  1.5382
 2664TIP3    H229552   0.964   2.127   8.740  0.4689 -2.3125  0.5006
 2665TIP3   OH229553   5.988   5.648   7.878 -0.6168 -0.4735 -0.2949
 2665TIP3    H129554   5.926   5.626   7.947  1.0808  0.3831  1.5884
 2665TIP3    H229555   6.004   5.742   7.889  2.1781 -0.9426  0.3397
 2666TIP3   OH229556   0.144   5.188   1.141  0.0260  0.0283 -0.4302
 2666TIP3    H129557   0.186   5.181   1.055  2.4894  1.5362  0.5203
 2666TIP3    H229558   0.153   5.280   1.164 -0.9385 -0.2629  1.2890
 2667TIP3   OH229559   5.791   4.125   9.343  0.0549 -0.4450  0.1100
 2667TIP3    H129560   5.791   4.221   9.338 -2.4925 -0.2188  2.2438
 2667TIP3    H229561   5.712   4.099   9.295 -1.8786 -0.9993  3.2942
 2668TIP3   OH229562   2.322   0.547   0.696 -0.3143  0.3308 -0.2806
 2668TIP3    H129563   2.259   0.501   0.641 -0.4358 -0.0864  0.1982
 2668TIP3    H229564   2.381   0.478   0.727 -0.2737  0.5515  0.1426
 2669TIP3   OH229565   0.202   6.302   1.254 -0.0407 -0.2658 -0.7502
 2669TIP3    H129566   0.120   6.347   1.273 -0.5216 -1.6075  0.5296
 2669TIP3    H229567   0.239   6.281   1.340  0.6832 -1.3562 -1.2983
 2670TIP3   OH229568   4.890   3.953   9.471  0.3288  0.0583  0.1938
 2670TIP3    H129569   4.867   3.922   9.559  2.2948  2.9922  1.9296
 2670TIP3    H229570   4.977   3.917   9.455 -1.4166 -3.5440 -2.3619
 2671TIP3   OH229571   3.486   1.850   7.317 -0.0786  0.5680  0.1332
 2671TIP3    H129572   3.566   1.821   7.361  0.1177 -0.2963 -0.7564
 2671TIP3    H229573   3.512   1.927   7.266 -0.1995  1.2820  1.1239
 2672TIP3   OH229574   0.070   3.603   7.622  0.3273 -0.2925 -0.2773
 2672TIP3    H129575   0.018   3.597   7.542 -2.2643  0.1393  1.2749
 2672TIP3    H229576   0.114   3.518   7.629 -0.5060 -0.8403 -1.4262
 2673TIP3   OH229577   1.720   3.233   0.734 -0.4821  0.6736  0.3574
 2673TIP3    H129578   1.671   3.182   0.669  0.2513  1.6891 -1.0458
 2673TIP3    H229579   1.737   3.316   0.691  0.4225  1.2161  1.7080
 2674TIP3   OH229580   3.811   2.865   9.480  0.0211  0.2680  0.1662
 2674TIP3    H129581   3.725   2.847   9.442  0.5281 -3.9109  0.5415
 2674TIP3    H229582   3.871   2.864   9.406 -0.0742  2.3236  0.0112
 2675TIP3   OH229583   2.141   2.713   2.795  0.1575 -0.4701  0.0507
 2675TIP3    H129584   2.088   2.699   2.717 -0.7755  3.2304 -0.1637
 2675TIP3    H229585   2.223   2.750   2.762  0.8108 -1.2849  0.7111
 2676TIP3   OH229586   5.242   3.971   8.988  0.3229  0.0562  0.4512
 2676TIP3    H129587   5.275   3.901   9.043  2.7743  0.4133 -0.4300
 2676TIP3    H229588   5.320   4.006   8.944 -1.2042  1.2930 -1.4666
 2677TIP3   OH229589   5.070   4.162   2.182 -0.9689 -0.6002 -0.0595
 2677TIP3    H129590   4.984   4.128   2.156 -1.0695 -1.4610  1.2755
 2677TIP3    H229591   5.051   4.248   2.219 -1.3949 -1.1007  0.9409
 2678TIP3   OH229592   4.529   2.768   7.279  0.2414  0.2074 -0.2992
 2678TIP3    H129593   4.603   2.761   7.220  0.6465  2.4750 -0.1676
 2678TIP3    H229594   4.460   2.808   7.227 -1.4981 -3.1249 -0.8324
 2679TIP3   OH229595   3.205   1.990   9.278 -0.6612  0.2967 -0.5722
 2679TIP3    H129596   3.283   1.943   9.249  1.7301  2.5199  1.6712
 2679TIP3    H229597   3.204   1.978   9.373 -0.7901  3.3252 -0.0778
 2680TIP3   OH229598   3.154   3.930   0.004  0.2644 -0.1569 -0.3078
 2680TIP3    H129599   3.140   3.844  -0.036  2.0558 -0.1657 -1.0400
 2680TIP3    H229600   3.248   3.947  -0.009  0.4901  0.7999  2.0653
 2681TIP3   OH229601   5.665   5.718   9.172  0.5789 -0.0344 -0.4986
 2681TIP3    H129602   5.717   5.655   9.121  0.1828 -1.6027  0.9564
 2681TIP3    H229603   5.719   5.737   9.248  1.0478  2.0918 -1.2907
 2682TIP3   OH229604   2.694   6.132   0.125 -0.3163 -0.0977  0.8353
 2682TIP3    H129605   2.706   6.152   0.218  0.1329  1.9243  0.3851
 2682TIP3    H229606   2.749   6.195   0.080 -1.5857 -0.1399 -0.8565
 2683TIP3   OH229607   4.707   1.789   9.154 -0.4474  0.6857  0.3945
 2683TIP3    H129608   4.718   1.826   9.067  2.2288  0.9729  0.7526
 2683TIP3    H229609   4.693   1.696   9.140  1.6034  0.4319 -0.3986
 2684TIP3   OH229610   3.439   5.738   7.546  0.3402 -0.0621 -0.4855
 2684TIP3    H129611   3.448   5.687   7.465 -1.2835  0.0042 -0.7462
 2684TIP3    H229612   3.458   5.828   7.519 -1.6915  0.2072 -1.1983
 2685TIP3   OH229613   2.597   5.110   9.466  0.3834  0.1003 -0.6665
 2685TIP3    H129614   2.615   5.044   9.533  0.8810  1.3603  0.4936
 2685TIP3    H229615   2.614   5.194   9.510 -3.1099  1.2218 -1.1325
 2686TIP3   OH229616   5.896   5.076   8.452 -0.4028  0.5517  0.7097
 2686TIP3    H129617   5.889   5.079   8.548  2.6865 -0.0425  1.0682
 2686TIP3    H229618   5.927   5.162   8.427  0.4238  0.1850  0.4489
 2687TIP3   OH229619   4.421   0.461   0.127  0.0706 -0.1966 -0.1482
 2687TIP3    H129620   4.516   0.468   0.128  0.1342 -0.8926  0.8644
 2687TIP3    H229621   4.390   0.551   0.142  0.6287 -0.2659  1.7771
 2688TIP3   OH229622   4.550   4.190   8.748  0.0547 -0.2571 -0.3714
 2688TIP3    H129623   4.514   4.138   8.676 -0.6067  0.7733 -0.8073
 2688TIP3    H229624   4.632   4.226   8.714 -0.2658  0.2423 -0.6188
 2689TIP3   OH229625   1.153   3.603   2.198 -0.0755  0.0037  0.0654
 2689TIP3    H129626   1.242   3.620   2.229 -0.2895  1.5084 -0.0887
 2689TIP3    H229627   1.096   3.640   2.265 -0.6224 -1.4601  0.4481
 2690TIP3   OH229628   4.262   5.349   9.586  0.2342  0.6693  0.3088
 2690TIP3    H129629   4.198   5.341   9.656  0.2897 -0.2326  0.2810
 2690TIP3    H229630   4.299   5.260   9.578 -2.0519 -0.1630 -3.0201
 2691TIP3   OH229631   5.165   1.251   7.738 -0.0780  0.5502 -0.3350
 2691TIP3    H129632   5.127   1.338   7.722  0.8451  0.7236 -1.6924
 2691TIP3    H229633   5.135   1.228   7.827 -1.3954  1.6808 -0.4510
 2692TIP3   OH229634   0.295   6.313   8.105  0.2752 -0.5097 -0.4153
 2692TIP3    H129635   0.202   6.326   8.120 -0.0534 -3.1592  0.3493
 2692TIP3    H229636   0.304   6.299   8.011 -0.3043 -1.6024 -0.3102
 2693TIP3   OH229637   1.764   5.046   7.518 -0.4235 -0.5785  0.5655
 2693TIP3    H129638   1.674   5.066   7.492  0.2247 -0.2046 -1.5651
 2693TIP3    H229639   1.784   4.963   7.474  0.2506 -0.7009  1.0823
 2694TIP3   OH229640   5.370   2.429   8.700  0.1921  0.0235 -0.3961
 2694TIP3    H129641   5.350   2.522   8.706  0.4997  0.1856 -1.6334
 2694TIP3    H229642   5.284   2.387   8.695  0.0275  0.4615 -2.2961
 2695TIP3   OH229643   1.465   3.980   8.698  0.5165 -0.2573  0.4515
 2695TIP3    H129644   1.444   4.055   8.754 -0.6611 -0.7405  0.6774
 2695TIP3    H229645   1.532   4.014   8.638 -2.1475  1.9718 -1.5428
 2696TIP3   OH229646   2.595   0.181   7.470 -0.7777 -0.2529 -0.7113
 2696TIP3    H129647   2.639   0.262   7.492 -2.2291  0.4294 -0.1557
 2696TIP3    H229648   2.665   0.121   7.445  0.4311  0.7610  0.1327
 2697TIP3   OH229649   4.263   3.355   0.219 -0.0642 -0.1140  0.6433
 2697TIP3    H129650   4.168   3.362   0.223 -0.2674 -1.0458 -1.4714
 2697TIP3    H229651   4.293   3.401   0.298 -2.2386  0.1102  1.4179
 2698TIP3   OH229652   6.038   4.371   8.177  0.0204 -0.5061 -0.4097
 2698TIP3    H129653   5.959   4.344   8.224 -0.4388 -0.5785 -1.2105
 2698TIP3    H229654   6.011   4.446   8.124  0.2954 -0.9791 -1.2407
 2699TIP3   OH229655   5.645   3.256   1.918 -0.0093 -0.1621 -0.1923
 2699TIP3    H129656   5.628   3.316   1.990  2.5918  1.5043 -0.8466
 2699TIP3    H229657   5.570   3.267   1.859  0.1505  2.1406 -0.0581
 2700TIP3   OH229658   2.617   2.001   1.643  0.4356  0.6957  0.1722
 2700TIP3    H129659   2.535   1.977   1.600 -0.3448  1.5196  1.1523
 2700TIP3    H229660   2.598   2.084   1.686  1.0919 -0.1695  2.2667
 2701TIP3   OH229661   2.270   6.184   3.111  0.8293  0.4497  0.1529
 2701TIP3    H129662   2.360   6.193   3.082  0.9191 -1.1159 -0.1499
 2701TIP3    H229663   2.273   6.117   3.180 -0.0225  0.7875  0.5406
 2702TIP3   OH229664   1.410   5.916   0.659  0.1750 -0.8561 -0.0459
 2702TIP3    H129665   1.325   5.924   0.616  0.5528 -0.0747 -0.6730
 2702TIP3    H229666   1.390   5.877   0.744 -0.5969 -2.2981 -0.8558
 2703TIP3   OH229667   6.015   1.839   7.609 -0.2500  0.2984  0.2963
 2703TIP3    H129668   6.065   1.920   7.611 -2.1657  1.6598 -1.8013
 2703TIP3    H229669   6.005   1.819   7.516  0.8495 -2.8656  0.7294
 2704TIP3   OH229670   4.522   5.642   2.078  0.2054  0.1503  0.4600
 2704TIP3    H129671   4.570   5.724   2.092  0.1483  0.1120  0.8893
 2704TIP3    H229672   4.447   5.648   2.136  0.1847 -0.1959  0.4714
 2705TIP3   OH229673   5.602   5.136   8.411  0.3031 -0.1921  0.3405
 2705TIP3    H129674   5.531   5.159   8.470 -0.2772 -0.3221 -0.3033
 2705TIP3    H229675   5.682   5.155   8.462 -0.1403  1.8773  0.3481
 2706TIP3   OH229676   1.597   5.930   1.311  0.3595 -0.5457 -0.4983
 2706TIP3    H129677   1.682   5.887   1.304  1.2974  1.1512 -0.1195
 2706TIP3    H229678   1.592   5.986   1.234  0.7859  1.3235  0.7665
 2707TIP3   OH229679   0.341   3.541   8.258 -0.0867  0.2602 -0.3863
 2707TIP3    H129680   0.389   3.490   8.323 -0.4029 -0.6943 -0.8847
 2707TIP3    H229681   0.276   3.589   8.309  0.7968  0.8720  0.1920
 2708TIP3   OH229682   3.498   6.015   7.965  0.6454 -0.2722 -0.2936
 2708TIP3    H129683   3.592   6.004   7.949  0.7645 -0.7122  0.6309
 2708TIP3    H229684   3.492   6.095   8.018  0.8833 -2.0580  2.6664
 2709TIP3   OH229685   6.443   5.591   9.109 -0.2202  0.0648 -0.0313
 2709TIP3    H129686   6.442   5.620   9.018 -0.3218 -2.0176 -0.7395
 2709TIP3    H229687   6.434   5.672   9.160 -1.5581  1.1563 -1.8710
 2710TIP3   OH229688   5.158   2.731   1.452  0.3577 -0.4464 -0.2054
 2710TIP3    H129689   5.243   2.770   1.473  1.1559 -1.4863 -1.3925
 2710TIP3    H229690   5.166   2.639   1.478 -0.3678 -0.5885 -0.4389
 2711TIP3   OH229691   6.512   2.191   7.104  0.4015  0.7439 -0.2910
 2711TIP3    H129692   6.422   2.174   7.132  0.6774  0.2906  0.3547
 2711TIP3    H229693   6.503   2.243   7.025 -0.4199  1.4854  0.2664
 2712TIP3   OH229694   5.007   2.669   1.221  0.1560  0.2393 -0.3885
 2712TIP3    H129695   5.040   2.686   1.309  0.3456  0.6130 -0.5313
 2712TIP3    H229696   4.934   2.609   1.235 -0.0569  0.5911  0.0559
 2713TIP3   OH229697   5.955   1.967   1.570  0.4420  0.9254  0.0264
 2713TIP3    H129698   5.953   1.958   1.475  1.3724  2.7636 -0.2004
 2713TIP3    H229699   6.034   1.921   1.597 -0.8981 -1.4560  0.2118
 2714TIP3   OH229700   3.149   3.936   0.789  0.0882 -0.3244  0.3334
 2714TIP3    H129701   3.097   3.999   0.740 -0.2521 -0.6939  0.2153
 2714TIP3    H229702   3.104   3.853   0.777 -0.2752 -0.3368  1.7050
 2715TIP3   OH229703   4.464   3.725   2.193  0.4929 -0.2364 -0.0435
 2715TIP3    H129704   4.371   3.712   2.174  0.6043 -1.2162  0.0266
 2715TIP3    H229705   4.504   3.638   2.180  1.3097  0.0563  0.4182
 2716TIP3   OH229706   5.930   4.312   1.219  0.2571  0.2965 -0.9550
 2716TIP3    H129707   5.991   4.343   1.152  2.5577 -3.2765 -0.7777
 2716TIP3    H229708   5.886   4.238   1.178 -1.4120  0.6445  0.1517
 2717TIP3   OH229709   1.265   0.271   8.336 -0.1921  0.4665  0.9190
 2717TIP3    H129710   1.284   0.338   8.402 -0.8519  1.9038 -0.2812
 2717TIP3    H229711   1.329   0.287   8.266  0.6381 -1.1680  1.2707
 2718TIP3   OH229712   1.881   2.150   1.206 -0.4437 -0.2058 -0.1127
 2718TIP3    H129713   1.881   2.174   1.114 -1.2692 -0.1458 -0.1050
 2718TIP3    H229714   1.943   2.210   1.247 -1.2121  0.8052 -0.3791
 2719TIP3   OH229715   3.872   2.528   2.078  0.5783 -0.0156  0.3942
 2719TIP3    H129716   3.959   2.491   2.068 -0.0928 -1.6427  0.3545
 2719TIP3    H229717   3.814   2.465   2.036 -0.6081  1.1970  0.1253
 2720TIP3   OH229718   5.656   5.494   7.087  0.2663  0.1047 -0.2528
 2720TIP3    H129719   5.634   5.570   7.033  0.5860 -0.8807 -1.8620
 2720TIP3    H229720   5.746   5.509   7.114  0.5207  0.0550 -1.0404
 2721TIP3   OH229721   0.930   1.501   2.155  0.1228 -0.3347 -0.0023
 2721TIP3    H129722   0.977   1.550   2.223  0.7700 -0.5769 -0.2725
 2721TIP3    H229723   0.975   1.417   2.150  1.8383  0.5844 -2.5521
 2722TIP3   OH229724   3.382   1.369   9.140 -0.2341 -0.4140  0.0622
 2722TIP3    H129725   3.434   1.364   9.220 -0.1730 -0.7724  0.0039
 2722TIP3    H229726   3.416   1.445   9.093 -0.0973 -0.3550  0.2567
 2723TIP3   OH229727   1.415   3.662   8.080  0.2473  0.6694 -0.2323
 2723TIP3    H129728   1.506   3.686   8.060  0.7074 -0.1987  0.7259
 2723TIP3    H229729   1.363   3.715   8.020  1.3202  2.1562  0.0827
 2724TIP3   OH229730   4.239   1.285   0.015 -0.2548 -0.1493  0.1245
 2724TIP3    H129731   4.301   1.286   0.088  0.2633  0.7546 -0.2984
 2724TIP3    H229732   4.293   1.267  -0.062 -0.5156  0.5904 -0.2450
 2725TIP3   OH229733   5.546   5.521   0.627  0.2155  0.1976 -0.4209
 2725TIP3    H129734   5.639   5.541   0.634 -0.0441  1.1610  0.5897
 2725TIP3    H229735   5.541   5.426   0.628  1.0431  0.1308  1.8211
 2726TIP3   OH229736   0.564   6.044   1.249 -0.5966  0.4211 -0.0443
 2726TIP3    H129737   0.520   5.973   1.295  0.8525  0.0816  0.8644
 2726TIP3    H229738   0.604   6.097   1.318 -0.1352  1.0965 -0.8046
 2727TIP3   OH229739   1.712   1.025   9.315 -0.0997  0.7581  0.4416
 2727TIP3    H129740   1.654   0.995   9.385 -1.4824 -1.4651 -1.4806
 2727TIP3    H229741   1.655   1.075   9.257  0.8334  1.8853  0.4654
 2728TIP3   OH229742   6.308   4.663   8.726 -0.6083  0.1376 -0.0510
 2728TIP3    H129743   6.355   4.581   8.713 -0.9855  0.0351 -0.8307
 2728TIP3    H229744   6.217   4.643   8.703 -0.7150  0.7580 -0.1933
 2729TIP3   OH229745   0.834   0.555   8.908 -0.2428 -0.1527 -0.6715
 2729TIP3    H129746   0.918   0.566   8.863 -0.1311 -0.6461 -0.5978
 2729TIP3    H229747   0.806   0.644   8.929  1.5207 -0.0273  1.5890
 2730TIP3   OH229748   0.807   3.012   2.122 -0.1473  0.0301  0.0938
 2730TIP3    H129749   0.724   2.964   2.111 -0.3643 -0.3517  2.6531
 2730TIP3    H229750   0.829   3.043   2.035 -2.5325 -0.6280 -0.8173
 2731TIP3   OH229751   0.347   6.110   8.310  0.0497 -0.5033 -0.5507
 2731TIP3    H129752   0.304   6.185   8.268 -2.4235  0.2532  2.9113
 2731TIP3    H229753   0.310   6.034   8.264 -3.8684  0.2165  1.0031
 2732TIP3   OH229754   5.786   2.280   9.357  0.1498  0.0649 -0.3985
 2732TIP3    H129755   5.861   2.299   9.300  0.4724  1.1122  0.3634
 2732TIP3    H229756   5.804   2.192   9.390  0.7107  0.0438 -0.7378
 2733TIP3   OH229757   6.084   2.913   2.189  0.0922  0.2727  0.1659
 2733TIP3    H129758   6.035   2.992   2.168 -2.1176 -1.0697 -0.0066
 2733TIP3    H229759   6.143   2.939   2.260 -0.8238  1.9652  0.3519
 2734TIP3   OH229760   2.118   3.468   7.177  0.4780 -0.2967 -0.0151
 2734TIP3    H129761   2.184   3.412   7.135  0.0878  0.0476 -1.1208
 2734TIP3    H229762   2.144   3.557   7.155  1.4249  0.0541  2.2257
 2735TIP3   OH229763   1.990   1.084   0.095  0.0047 -0.1476  0.0896
 2735TIP3    H129764   1.949   1.150   0.038  0.2090  0.7434  0.9444
 2735TIP3    H229765   1.934   1.083   0.173 -1.2494 -2.5660 -0.7517
 2736TIP3   OH229766   3.082   3.528   1.191 -0.4294  0.7366 -0.0970
 2736TIP3    H129767   3.069   3.615   1.153  0.5405  1.1213  0.4260
 2736TIP3    H229768   3.123   3.478   1.121 -0.4288  0.8804 -0.2016
 2737TIP3   OH229769   0.110   3.920   9.301 -0.1385  0.0597 -0.1729
 2737TIP3    H129770   0.149   3.993   9.349  1.1956 -1.2238  0.7845
 2737TIP3    H229771   0.025   3.907   9.343 -0.4019  1.0476 -0.3648
 2738TIP3   OH229772   4.367   2.824   8.697  0.6372 -0.4503  0.4001
 2738TIP3    H129773   4.415   2.827   8.780  0.1300  1.0243  0.6792
 2738TIP3    H229774   4.278   2.850   8.721  0.8258  1.4868 -0.7995
 2739TIP3   OH229775   5.600   1.034   8.770 -0.6511  0.4022 -0.5070
 2739TIP3    H129776   5.595   1.060   8.862 -0.8217  0.9314 -0.6622
 2739TIP3    H229777   5.684   0.990   8.763 -1.3202 -1.0569  0.2466
 2740TIP3   OH229778   5.600   5.595   0.041 -0.0286 -0.3203 -0.1457
 2740TIP3    H129779   5.639   5.524  -0.010 -0.5472 -0.5368 -0.2417
 2740TIP3    H229780   5.556   5.552   0.114 -2.0936 -0.2976 -1.3027
 2741TIP3   OH229781   1.289   3.436   9.006 -0.1364 -0.2332  0.3947
 2741TIP3    H129782   1.261   3.379   8.934  1.7830 -1.4693  0.5298
 2741TIP3    H229783   1.222   3.425   9.074  0.2007 -2.4641  0.4420
 2742TIP3   OH229784   1.616   5.549   0.205 -0.4729 -0.3355  0.2370
 2742TIP3    H129785   1.698   5.582   0.240 -0.3362  0.6225 -0.8804
 2742TIP3    H229786   1.633   5.458   0.182  0.8003  0.2534 -1.4050
 2743TIP3   OH229787   5.900   4.023   9.076 -0.2157  0.2230 -0.0249
 2743TIP3    H129788   5.973   4.028   9.014 -0.8371 -1.3314 -0.9526
 2743TIP3    H229789   5.891   4.112   9.111  1.7916  0.5526 -0.2412
 2744TIP3   OH229790   1.205   1.328   1.578 -0.1783 -1.2779 -0.6955
 2744TIP3    H129791   1.281   1.270   1.581  0.3012 -0.6290  1.3313
 2744TIP3    H229792   1.239   1.411   1.543  0.0545 -0.9933  0.1941
 2745TIP3   OH229793   0.087   2.873   0.890  0.5557 -0.2113  0.3041
 2745TIP3    H129794   0.141   2.922   0.828  1.4929 -0.8063  0.6149
 2745TIP3    H229795   0.044   2.940   0.943 -0.1543  0.3017 -0.8835
 2746TIP3   OH229796   4.988   3.655   7.750 -0.1972 -0.6319 -0.0682
 2746TIP3    H129797   5.074   3.614   7.755 -0.2238 -0.7100 -0.2475
 2746TIP3    H229798   4.980   3.685   7.659 -0.2292 -0.3414  0.0295
 2747TIP3   OH229799   4.050   4.504   1.194  0.4527 -0.7468 -0.1713
 2747TIP3    H129800   3.988   4.575   1.210  0.2141 -1.0363  0.2379
 2747TIP3    H229801   4.134   4.538   1.224  0.2851 -0.7350  0.3058
 2748TIP3   OH229802   3.296   2.674   2.133  0.5901  0.5667  0.1053
 2748TIP3    H129803   3.240   2.662   2.056  0.9004  1.2917 -0.2448
 2748TIP3    H229804   3.239   2.712   2.199  0.5926  1.0254 -0.1531
 2749TIP3   OH229805   6.420   4.569   1.041 -0.3460  0.0824  0.1035
 2749TIP3    H129806   6.416   4.524   1.126  1.9060 -0.4834 -0.0411
 2749TIP3    H229807   6.336   4.616   1.035 -1.2590 -1.2031  1.8699
 2750TIP3   OH229808   5.468   6.216   1.888  0.0304 -0.2546  0.6080
 2750TIP3    H129809   5.507   6.304   1.892  1.2718 -0.8385  3.2277
 2750TIP3    H229810   5.376   6.229   1.913  0.0958  0.3334  0.5611
 2751TIP3   OH229811   5.553   3.239   8.426 -0.2719  0.6162 -0.3695
 2751TIP3    H129812   5.556   3.326   8.464  3.2061  0.3380  0.3070
 2751TIP3    H229813   5.625   3.238   8.363  0.7280 -2.1311  0.6694
 2752TIP3   OH229814   6.349   6.004   9.301  0.0658  0.0773 -0.5608
 2752TIP3    H129815   6.371   6.010   9.208 -0.8050  0.8974 -0.7319
 2752TIP3    H229816   6.341   5.910   9.317 -0.0912 -0.0663 -1.3977
 2753TIP3   OH229817   4.996   3.012   8.355  1.0477  0.8397  0.4841
 2753TIP3    H129818   4.962   2.956   8.285 -1.0387  0.4398  1.7110
 2753TIP3    H229819   5.081   2.975   8.377  1.6004  0.7837 -1.5829
 2754TIP3   OH229820   4.710   2.620   1.475 -0.2307 -0.0718 -0.1795
 2754TIP3    H129821   4.664   2.581   1.401 -0.2322 -1.0329  0.3097
 2754TIP3    H229822   4.664   2.702   1.491  1.7003  1.7786 -3.2071
 2755TIP3   OH229823   3.579   3.653   0.229 -0.2704  0.2616 -0.7084
 2755TIP3    H129824   3.535   3.639   0.145  0.9869 -0.8579 -1.2137
 2755TIP3    H229825   3.581   3.748   0.240 -1.8045  0.3707 -1.1957
 2756TIP3   OH229826   3.234   4.809   1.077 -0.2187  0.1540 -0.2580
 2756TIP3    H129827   3.140   4.800   1.059  0.1394  1.0896 -3.0528
 2756TIP3    H229828   3.264   4.876   1.016  2.1442  0.5144  1.1747
 2757TIP3   OH229829   3.069   2.104   9.077 -0.0844  0.0131 -0.0338
 2757TIP3    H129830   3.113   2.059   9.149 -1.0827  0.4207  0.8648
 2757TIP3    H229831   3.100   2.060   8.998 -0.1862 -1.5032  0.7421
 2758TIP3   OH229832   1.145   6.356   3.031  0.0657  0.5541 -0.0420
 2758TIP3    H129833   1.203   6.408   2.975  0.3631 -0.6654 -0.8833
 2758TIP3    H229834   1.165   6.265   3.010  0.0482  0.0463  1.9105
 2759TIP3   OH229835   6.453   2.553   7.806 -0.5699 -0.5331  0.1868
 2759TIP3    H129836   6.433   2.583   7.894  0.3438  1.5933 -0.2782
 2759TIP3    H229837   6.440   2.629   7.750  0.9337 -1.2388 -1.2208
 2760TIP3   OH229838   2.296   6.280   0.045  0.6608  0.1360 -0.2293
 2760TIP3    H129839   2.322   6.197   0.006  0.1964  0.7161 -1.8265
 2760TIP3    H229840   2.351   6.345   0.002  0.7779  0.7190  0.7579
 2761TIP3   OH229841   0.378   1.405   8.479  0.8016 -0.1562 -0.1911
 2761TIP3    H129842   0.373   1.501   8.476  2.4329 -0.0358  0.2946
 2761TIP3    H229843   0.289   1.376   8.459  0.0262  1.4844  0.6998
 2762TIP3   OH229844   1.618   3.710   8.814  0.1774  0.0726 -0.0905
 2762TIP3    H129845   1.684   3.767   8.775  1.2038  0.1662  1.6575
 2762TIP3    H229846   1.546   3.769   8.838 -0.7860 -0.0825 -2.3421
 2763TIP3   OH229847   2.026   0.558   8.014  0.4004  0.5347  0.0228
 2763TIP3    H129848   2.097   0.498   7.993  0.5294  1.1800 -1.5542
 2763TIP3    H229849   1.964   0.549   7.941 -0.0016  1.6712  0.1963
 2764TIP3   OH229850   0.829   3.634   0.676  0.5708 -0.4503 -0.1341
 2764TIP3    H129851   0.865   3.648   0.588  0.6678 -0.3837 -0.0841
 2764TIP3    H229852   0.805   3.541   0.677  0.0112 -0.3143 -0.4333
 2765TIP3   OH229853   1.073   6.141   1.620  1.2029  0.0688 -0.1733
 2765TIP3    H129854   1.054   6.048   1.618  5.5611 -1.0616 -0.1154
 2765TIP3    H229855   1.129   6.156   1.543  3.7546  1.6275  1.7880
 2766TIP3   OH229856   5.607   5.737   8.216 -0.1781  0.5567 -0.0183
 2766TIP3    H129857   5.596   5.807   8.152  0.4820  1.6132  0.9985
 2766TIP3    H229858   5.529   5.743   8.271 -0.6176 -0.1857 -0.5312
 2767TIP3   OH229859   2.508   1.234   1.455 -0.0740  0.1871  0.0961
 2767TIP3    H129860   2.539   1.222   1.544  1.0744  0.4144 -0.2595
 2767TIP3    H229861   2.587   1.251   1.404 -0.8907  2.0105 -0.6340
 2768TIP3   OH229862   1.582   4.644   0.944 -0.1819  0.3722 -0.5475
 2768TIP3    H129863   1.551   4.654   1.034  0.1802  1.7901 -0.5527
 2768TIP3    H229864   1.676   4.665   0.949 -0.1230  0.3028 -1.2275
 2769TIP3   OH229865   2.496   0.153   1.740 -0.7951  0.1744 -0.0516
 2769TIP3    H129866   2.526   0.156   1.649  0.6475 -1.0136  0.3335
 2769TIP3    H229867   2.428   0.086   1.740 -0.5729 -0.0561 -0.2123
 2770TIP3   OH229868   1.715   3.449   8.931 -0.5016  0.2536  0.0410
 2770TIP3    H129869   1.665   3.456   9.012 -0.2497 -1.7322  0.4223
 2770TIP3    H229870   1.700   3.532   8.886 -2.6739  0.4339  0.9753
 2771TIP3   OH229871   2.752   4.297   0.107  0.4230  0.2464 -0.1938
 2771TIP3    H129872   2.808   4.271   0.180  0.6427 -0.8855 -0.7556
 2771TIP3    H229873   2.663   4.277   0.137  0.4940  0.0020 -0.1462
 2772TIP3   OH229874   4.637   3.375   1.392  0.1470  0.1964 -0.1039
 2772TIP3    H129875   4.702   3.391   1.460  0.2820  1.6579 -0.5408
 2772TIP3    H229876   4.563   3.335   1.438  0.5072  0.5257  0.7781
 2773TIP3   OH229877   3.331   1.523   0.112 -0.0018 -0.1019  0.1145
 2773TIP3    H129878   3.406   1.501   0.056  2.0149 -0.0012  2.6023
 2773TIP3    H229879   3.278   1.443   0.113  0.1049 -0.2323 -1.5743
 2774TIP3   OH229880   1.329   6.109   1.930  0.4538 -0.5448 -0.2989
 2774TIP3    H129881   1.376   6.037   1.888  2.1867 -0.6763  1.6940
 2774TIP3    H229882   1.390   6.182   1.928 -0.0832 -0.0529  0.4166
 2775TIP3   OH229883   6.067   6.268   2.604 -0.1559  0.1124  0.5684
 2775TIP3    H129884   6.115   6.347   2.580  0.0269  0.1592  1.0649
 2775TIP3    H229885   6.015   6.246   2.527 -0.9915  1.2963  0.7657
 2776TIP3   OH229886   3.322   6.264   8.360 -0.1237 -0.0809 -0.0226
 2776TIP3    H129887   3.269   6.196   8.402  0.6612 -1.7290 -1.5208
 2776TIP3    H229888   3.260   6.312   8.305 -0.1856 -1.9361 -1.6909
 2777TIP3   OH229889   0.812   4.715   9.023 -0.4191 -0.5468 -0.1253
 2777TIP3    H129890   0.761   4.786   9.062 -0.3290 -1.4320  1.7253
 2777TIP3    H229891   0.793   4.720   8.930 -2.3957  0.3365  0.2657
 2778TIP3   OH229892   2.910   6.008   7.989  0.0660 -0.1422  0.0834
 2778TIP3    H129893   2.832   6.010   8.045 -0.6017 -2.2022 -0.6994
 2778TIP3    H229894   2.883   5.961   7.911  2.6655 -3.1185  0.7788
 2779TIP3   OH229895   1.486   3.201   9.097 -0.0943  0.0445 -0.8455
 2779TIP3    H129896   1.467   3.199   9.190 -0.0050 -0.4360 -0.8362
 2779TIP3    H229897   1.481   3.293   9.073  1.0636  0.3170 -0.1200
 2780TIP3   OH229898   5.505   2.004   7.547 -0.4152 -0.7264 -0.6129
 2780TIP3    H129899   5.490   1.945   7.473  0.3939  1.2780 -2.4589
 2780TIP3    H229900   5.564   1.955   7.605 -0.3247 -1.9888 -1.7286
 2781TIP3   OH229901   0.731   0.639   0.952  0.1685  0.0143 -0.0612
 2781TIP3    H129902   0.775   0.652   0.868  0.5590  0.8172  0.2616
 2781TIP3    H229903   0.786   0.575   0.997  0.4519  0.2552 -0.0612
 2782TIP3   OH229904   2.891   5.350   8.285  0.4464  0.1534  0.1948
 2782TIP3    H129905   2.825   5.297   8.331 -0.2548 -0.4432 -1.4233
 2782TIP3    H229906   2.975   5.318   8.316  0.0402 -2.0555 -0.8324
 2783TIP3   OH229907   4.181   4.800   0.572 -0.5688 -0.0847 -0.3831
 2783TIP3    H129908   4.177   4.792   0.668 -1.9364 -0.5692 -0.4461
 2783TIP3    H229909   4.251   4.863   0.556 -2.0952  2.1517  1.0842
 2784TIP3   OH229910   5.060   2.111   8.297 -0.3914  0.4204  0.2540
 2784TIP3    H129911   5.095   2.185   8.247  0.8972  0.0297  0.5330
 2784TIP3    H229912   5.091   2.033   8.250 -1.5088  0.0488  0.1099
 2785TIP3   OH229913   4.525   4.682   1.119 -0.5485  0.0302 -0.0491
 2785TIP3    H129914   4.601   4.732   1.148 -1.3982  1.1312  0.3626
 2785TIP3    H229915   4.490   4.732   1.045 -0.9883 -0.3636 -0.1105
 2786TIP3   OH229916   1.718   3.070   8.775 -0.2827 -0.2047  0.1480
 2786TIP3    H129917   1.703   3.165   8.768 -0.7444 -0.1980  1.0736
 2786TIP3    H229918   1.791   3.062   8.837 -0.9109 -0.4865  0.8604
 2787TIP3   OH229919   5.472   0.388   9.234 -0.0227  0.1425  0.0312
 2787TIP3    H129920   5.533   0.323   9.267 -0.8212 -0.6394  0.0161
 2787TIP3    H229921   5.402   0.336   9.192 -1.8192  0.8585  1.9469
 2788TIP3   OH229922   0.355   1.841   0.770  0.7099  0.7301  0.2865
 2788TIP3    H129923   0.288   1.897   0.809  0.9550  0.6004  0.9074
 2788TIP3    H229924   0.326   1.828   0.680 -2.1720 -2.3682  1.4424
 2789TIP3   OH229925   6.454   3.272   0.339 -0.2084 -0.1389 -0.0189
 2789TIP3    H129926   6.383   3.311   0.288  0.8242  1.9486  0.0745
 2789TIP3    H229927   6.415   3.256   0.426 -1.4351 -2.0234 -0.8385
 2790TIP3   OH229928   1.693   0.845   2.425  0.2692 -0.4625 -0.4699
 2790TIP3    H129929   1.752   0.917   2.444  1.5180 -1.3559 -0.8438
 2790TIP3    H229930   1.676   0.804   2.510 -0.4133  0.2228 -0.2627
 2791TIP3   OH229931   2.920   0.443   1.279  0.2687 -0.0735  0.1833
 2791TIP3    H129932   3.004   0.475   1.248  0.7849 -1.1781  0.4145
 2791TIP3    H229933   2.857   0.508   1.247  1.3717  1.7974  1.5987
 2792TIP3   OH229934   0.225   1.690   7.745 -0.0739 -0.3580  0.0225
 2792TIP3    H129935   0.171   1.760   7.709  1.4689  0.3551 -1.0060
 2792TIP3    H229936   0.170   1.649   7.811 -1.0883  1.7296  0.5624
 2793TIP3   OH229937   2.172   2.588   0.363 -0.7210  0.1226 -0.1772
 2793TIP3    H129938   2.209   2.521   0.306 -1.2542 -0.0114 -0.3689
 2793TIP3    H229939   2.099   2.624   0.314  1.3661  3.0181 -1.3878
 2794TIP3   OH229940   2.762   1.157   7.140  0.2732 -0.0449 -0.6012
 2794TIP3    H129941   2.761   1.241   7.094  0.6942  0.2243 -0.1322
 2794TIP3    H229942   2.732   1.094   7.075 -0.0243  0.4647 -0.9689
 2795TIP3   OH229943   2.298   6.103   8.522 -0.0860  0.5607  0.8792
 2795TIP3    H129944   2.321   6.195   8.524  1.2254  0.4275 -2.4422
 2795TIP3    H229945   2.204   6.102   8.500 -0.1616  1.1004  1.1777
 2796TIP3   OH229946   4.161   2.316   1.432  0.1956  0.7126 -0.5106
 2796TIP3    H129947   4.181   2.399   1.475  0.2894  1.7578 -2.4466
 2796TIP3    H229948   4.082   2.333   1.381 -0.3785 -0.7024 -0.1439
 2797TIP3   OH229949   6.283   2.395   7.391 -0.0122  0.7848  0.5722
 2797TIP3    H129950   6.291   2.305   7.358 -1.6914  1.0242 -0.6060
 2797TIP3    H229951   6.374   2.424   7.400  0.5616 -0.7231  0.0944
 2798TIP3   OH229952   5.321   4.265   6.993 -0.0056  0.3182 -0.4724
 2798TIP3    H129953   5.258   4.195   6.977  1.1704 -0.5519 -1.5941
 2798TIP3    H229954   5.389   4.251   6.926  0.8289  1.8512  0.0114
 2799TIP3   OH229955   6.133   2.450   7.617 -0.1633 -0.2731  0.2391
 2799TIP3    H129956   6.119   2.542   7.594 -1.1334 -0.6491 -0.7711
 2799TIP3    H229957   6.184   2.415   7.544  0.6824 -0.4184  0.8885
 2800TIP3   OH229958   0.289   3.223   0.174 -0.0962 -0.1848  0.6544
 2800TIP3    H129959   0.375   3.194   0.207  0.4132  0.4926 -0.0363
 2800TIP3    H229960   0.226   3.185   0.236  0.6654 -1.0771  0.9161
 2801TIP3   OH229961   2.668   5.975   9.263  0.0361 -0.0925  0.4561
 2801TIP3    H129962   2.713   5.918   9.202 -0.9782 -0.9465  0.4782
 2801TIP3    H229963   2.582   5.936   9.274 -1.3177  2.2943 -0.7644
 2802TIP3   OH229964   1.648   6.088   1.953  0.3809  0.1615 -0.2389
 2802TIP3    H129965   1.596   6.028   1.900  0.7377  1.1980 -1.8162
 2802TIP3    H229966   1.616   6.175   1.929  2.6486  0.8269 -1.0812
 2803TIP3   OH229967   2.668   2.937   8.884  1.1222 -0.2358  0.6038
 2803TIP3    H129968   2.682   3.021   8.840  0.3846 -0.2840  0.2584
 2803TIP3    H229969   2.701   2.951   8.973  2.3481 -0.0392  0.1395
 2804TIP3   OH229970   5.146   3.386   6.880 -0.0125 -0.3433 -0.4464
 2804TIP3    H129971   5.231   3.430   6.884 -0.6704  0.9734 -0.4421
 2804TIP3    H229972   5.107   3.400   6.966 -0.9909  0.6642 -1.0320
 2805TIP3   OH229973   4.704   3.767   2.425 -0.4222 -0.1868  0.4110
 2805TIP3    H129974   4.631   3.726   2.473  0.6430 -0.7994  1.5773
 2805TIP3    H229975   4.781   3.720   2.456  0.2379 -1.9210 -3.2874
 2806TIP3   OH229976   5.601   4.460   7.293 -0.9837  0.5410  0.4043
 2806TIP3    H129977   5.522   4.481   7.242 -1.0314 -1.7836 -0.5674
 2806TIP3    H229978   5.656   4.409   7.234  0.4635  0.5771  1.6545
 2807TIP3   OH229979   5.130   1.644   9.340 -0.4042  0.1515 -0.0265
 2807TIP3    H129980   5.158   1.634   9.249 -3.1216 -1.3459 -0.8111
 2807TIP3    H229981   5.188   1.586   9.389  0.1966 -0.1138 -1.0120
 2808TIP3   OH229982   1.180   2.783   0.134  0.2092  0.2379 -0.4389
 2808TIP3    H129983   1.168   2.710   0.073 -2.5230  0.1467  0.1070
 2808TIP3    H229984   1.103   2.838   0.121  1.2537  2.0316  0.5578
 2809TIP3   OH229985   5.357   2.609   1.241  0.5616  0.3665  0.5495
 2809TIP3    H129986   5.361   2.679   1.176  2.0284  0.4610  0.7047
 2809TIP3    H229987   5.266   2.578   1.238  0.3706  0.9841 -0.8805
 2810TIP3   OH229988   0.254   4.197   9.127 -0.1581 -0.3411 -0.7678
 2810TIP3    H129989   0.341   4.237   9.127 -0.3051  0.0656  0.8549
 2810TIP3    H229990   0.242   4.165   9.216 -2.3566  1.1996 -0.4078
 2811TIP3   OH229991   1.442   0.042   9.084  0.3134  0.0601  0.0376
 2811TIP3    H129992   1.386  -0.035   9.075 -0.3623  0.7258 -1.7965
 2811TIP3    H229993   1.517   0.010   9.135 -0.3259 -1.5939  0.0124
 2812TIP3   OH229994   6.302   5.265   1.029 -0.9285 -0.2093  0.3201
 2812TIP3    H129995   6.396   5.272   1.014 -1.0915 -1.7394 -1.8706
 2812TIP3    H229996   6.271   5.356   1.028  0.1007  0.2258 -2.5315
 2813TIP3   OH229997   2.385   6.161   9.111 -0.2058  0.1056 -0.5543
 2813TIP3    H129998   2.305   6.145   9.162  0.8382  2.8412  2.2386
 2813TIP3    H229999   2.431   6.077   9.111 -1.2788 -0.5291  1.1836
 2814TIP3   OH230000   3.860   4.474   9.283 -0.1669  0.0105  0.2386
 2814TIP3    H130001   3.790   4.415   9.255 -0.8313  1.0155 -0.2840
 2814TIP3    H230002   3.841   4.557   9.238  0.7632  0.6103  0.9101
 2815TIP3   OH230003   1.394   1.277   0.474 -0.0436 -0.3152 -0.3697
 2815TIP3    H130004   1.370   1.358   0.518  0.5112  0.2470 -1.0819
 2815TIP3    H230005   1.313   1.244   0.436 -0.3007 -0.1929  0.0660
 2816TIP3   OH230006   5.554   1.177   7.653  0.1177  0.5860  0.4060
 2816TIP3    H130007   5.560   1.097   7.706  0.3510  0.1191 -0.3087
 2816TIP3    H230008   5.575   1.248   7.714  0.0276  0.0968  1.0216
 2817TIP3   OH230009   1.687   1.342   7.631  0.3658  0.5683  0.3368
 2817TIP3    H130010   1.604   1.297   7.648  0.2887  0.7558  0.4619
 2817TIP3    H230011   1.750   1.296   7.687  0.0316  1.4512  1.4940
 2818TIP3   OH230012   1.892   0.010   8.003  0.0859 -0.0768 -0.4640
 2818TIP3    H130013   1.874   0.009   7.909  0.9648  0.6259 -0.6651
 2818TIP3    H230014   1.974  -0.040   8.012  0.3865  0.4520 -0.1780
 2819TIP3   OH230015   5.583   5.257   1.764  0.4469 -0.3197 -0.2602
 2819TIP3    H130016   5.618   5.231   1.679 -0.7456  0.6039 -1.0718
 2819TIP3    H230017   5.500   5.299   1.744  0.7739  1.1495  1.2616
 2820TIP3   OH230018   3.833   5.178   8.455  0.3254 -0.4973  0.8584
 2820TIP3    H130019   3.797   5.233   8.386  0.7014  0.3876  1.3548
 2820TIP3    H230020   3.889   5.236   8.506  1.0904 -1.4395  1.1330
 2821TIP3   OH230021   5.252   6.385   1.547  0.1558  0.1341 -0.4547
 2821TIP3    H130022   5.277   6.422   1.632  0.8850  2.5878 -1.6336
 2821TIP3    H230023   5.334   6.379   1.498 -0.5999  2.1472 -2.1497
 2822TIP3   OH230024   5.813   5.163   9.306  0.0935 -0.2245  0.1005
 2822TIP3    H130025   5.773   5.104   9.370  1.0356 -1.9245 -0.7926
 2822TIP3    H230026   5.772   5.139   9.223 -2.8183  3.4873  0.1853
 2823TIP3   OH230027   5.268   4.648   2.542  0.0622 -0.9110  0.1015
 2823TIP3    H130028   5.361   4.626   2.553  0.0748 -0.1206  1.8982
 2823TIP3    H230029   5.222   4.592   2.605 -0.5494 -0.4493  0.0716
 2824TIP3   OH230030   4.538   3.800   7.768  0.4834 -0.4028 -0.2076
 2824TIP3    H130031   4.530   3.831   7.678  2.1401 -2.5483 -1.1970
 2824TIP3    H230032   4.555   3.706   7.760 -2.3268 -1.3123  2.4809
 2825TIP3   OH230033   4.496   0.576   0.907 -0.3963  0.2388 -0.1592
 2825TIP3    H130034   4.565   0.628   0.949 -0.4261  0.2665 -0.1442
 2825TIP3    H230035   4.444   0.640   0.859 -1.2535  0.4234  0.9560
 2826TIP3   OH230036   0.963   2.562   1.517  0.2258 -0.5555  0.4668
 2826TIP3    H130037   1.056   2.548   1.531  0.4753  1.6007  1.3557
 2826TIP3    H230038   0.927   2.574   1.605 -1.2158 -2.7465  0.2756
 2827TIP3   OH230039   3.696   1.755   1.093  0.1784  0.0926 -0.1963
 2827TIP3    H130040   3.603   1.743   1.108 -0.0106  0.6218 -0.9281
 2827TIP3    H230041   3.728   1.668   1.068 -0.0609 -0.1439  0.2973
 2828TIP3   OH230042   4.905   1.739   9.433 -0.4010  0.3062 -0.4572
 2828TIP3    H130043   4.989   1.704   9.403 -1.0369 -0.0656 -1.9239
 2828TIP3    H230044   4.900   1.826   9.393 -0.2124  0.7956  0.5736
 2829TIP3   OH230045   4.055   1.587   8.851 -0.1655  0.2676  0.1351
 2829TIP3    H130046   4.000   1.598   8.773 -2.6414  0.2076  1.7704
 2829TIP3    H230047   4.084   1.675   8.873  0.1073  0.3542 -0.5594
 2830TIP3   OH230048   0.904   2.109   9.143 -0.5371 -0.5912  0.6166
 2830TIP3    H130049   0.956   2.031   9.162 -0.8431 -0.2513  3.2523
 2830TIP3    H230050   0.967   2.174   9.113 -0.3516 -1.9227 -2.2934
 2831TIP3   OH230051   6.088   2.907   0.970 -0.4675  0.0783  0.2487
 2831TIP3    H130052   6.018   2.942   0.915 -0.1766 -0.8779 -0.7725
 2831TIP3    H230053   6.115   2.826   0.925  0.1601 -0.4364  1.5102
 2832TIP3   OH230054   0.163   5.800   0.202 -0.1420 -0.2294 -0.2436
 2832TIP3    H130055   0.084   5.803   0.257 -1.7257  0.7162 -2.4131
 2832TIP3    H230056   0.192   5.892   0.197  0.9126 -0.5241  0.2569
 2833TIP3   OH230057   5.380   5.172   1.318  0.0130 -0.1406  0.0447
 2833TIP3    H130058   5.476   5.166   1.319  0.0707  0.2686 -1.5187
 2833TIP3    H230059   5.351   5.084   1.295 -0.0940 -0.6925  2.0297
 2834TIP3   OH230060   0.143   6.407   9.103  0.0536 -0.1662 -0.3484
 2834TIP3    H130061   0.080   6.469   9.140  1.4126  1.7751 -1.1472
 2834TIP3    H230062   0.216   6.406   9.165  1.6711  1.9462 -2.0839
 2835TIP3   OH230063   0.472   0.975   2.072  0.0225  0.4413  0.2650
 2835TIP3    H130064   0.439   0.887   2.092 -1.3175  0.8505 -0.0619
 2835TIP3    H230065   0.558   0.978   2.114  0.4437 -1.2910 -0.3951
 2836TIP3   OH230066   1.867   2.308   1.553 -0.2491  0.8265  0.2499
 2836TIP3    H130067   1.937   2.283   1.493  0.0515  2.6897 -0.2321
 2836TIP3    H230068   1.849   2.400   1.533  0.2668  1.7348  3.4073
 2837TIP3   OH230069   0.966   2.188   7.606  0.1798 -0.4875 -0.8348
 2837TIP3    H130070   1.034   2.234   7.656 -1.0894 -0.0795  0.6065
 2837TIP3    H230071   1.009   2.110   7.572  0.9772 -1.1914  1.5797
 2838TIP3   OH230072   5.442   1.906   7.311 -0.5260  0.2195 -0.3896
 2838TIP3    H130073   5.437   1.972   7.243 -0.7687 -0.5718 -1.1534
 2838TIP3    H230074   5.493   1.835   7.272 -0.6810 -0.2465  0.2437
 2839TIP3   OH230075   4.169   4.348   8.059 -0.3216 -0.5671 -0.1178
 2839TIP3    H130076   4.088   4.389   8.026 -1.0468 -1.0926  0.9520
 2839TIP3    H230077   4.150   4.329   8.150  1.5814  0.7349  0.6130
 2840TIP3   OH230078   3.739   6.302   7.822 -0.6784 -0.2931 -0.1825
 2840TIP3    H130079   3.797   6.358   7.873 -0.3061 -0.0541 -0.8511
 2840TIP3    H230080   3.736   6.220   7.871  1.9114 -1.0604 -1.1650
 2841TIP3   OH230081   0.308   5.085   0.577  0.1312 -0.2245 -0.0727
 2841TIP3    H130082   0.323   5.105   0.669 -0.4319  0.9873 -0.2304
 2841TIP3    H230083   0.385   5.034   0.550  0.2334 -0.6981  1.0937
 2842TIP3   OH230084   3.998   1.853   0.531 -0.2229  0.5501 -0.6763
 2842TIP3    H130085   3.967   1.855   0.621  0.0559  0.7206 -0.5831
 2842TIP3    H230086   4.087   1.819   0.537  0.9784  3.4401 -0.5408
 2843TIP3   OH230087   5.910   0.248   9.563  0.4116 -0.1259  0.2310
 2843TIP3    H130088   5.984   0.259   9.622  0.1849  1.6053  0.2513
 2843TIP3    H230089   5.920   0.160   9.527  1.3823 -0.6568  1.7044
 2844TIP3   OH230090   3.156   6.333   8.168  0.2627  0.5713  0.0482
 2844TIP3    H130091   3.071   6.375   8.160 -0.0014  0.1052  0.3410
 2844TIP3    H230092   3.149   6.255   8.113 -0.3030 -0.6899  1.8180
 2845TIP3   OH230093   4.516   1.242   8.349 -0.3037  0.2847 -0.3314
 2845TIP3    H130094   4.465   1.161   8.355  2.1206 -1.2020  3.4110
 2845TIP3    H230095   4.480   1.298   8.417  0.6273  0.7196 -0.1862
 2846TIP3   OH230096   1.225   5.735   3.090  0.1764 -0.2475 -0.0796
 2846TIP3    H130097   1.286   5.679   3.041  0.2117  0.1310 -0.4704
 2846TIP3    H230098   1.281   5.796   3.137  0.1554 -0.7890  0.6661
 2847TIP3   OH230099   1.972   1.566   1.254 -0.2159 -0.4942 -0.0798
 2847TIP3    H130100   2.046   1.550   1.195 -0.3355  0.0837 -0.3931
 2847TIP3    H230101   1.970   1.661   1.265 -0.9395 -0.5003 -0.1081
 2848TIP3   OH230102   5.440   4.816   7.267 -0.2402 -0.0992 -0.2877
 2848TIP3    H130103   5.400   4.753   7.207 -1.4714  0.5839 -0.2146
 2848TIP3    H230104   5.501   4.865   7.212 -0.5160 -0.2371 -0.7251
 2849TIP3   OH230105   0.668   0.163   0.220  0.7117  0.6668  0.2602
 2849TIP3    H130106   0.685   0.185   0.129 -0.2012 -1.7189 -0.5740
 2849TIP3    H230107   0.749   0.186   0.266  2.8244 -1.7689 -1.8869
 2850TIP3   OH230108   5.784   4.391   9.306 -0.2994 -0.0529 -0.1919
 2850TIP3    H130109   5.806   4.484   9.317 -1.7891  0.3267 -0.1638
 2850TIP3    H230110   5.751   4.385   9.216 -2.0707 -0.1057  0.4052
 2851TIP3   OH230111   2.206   1.896   2.121 -0.4718 -0.2352  0.5492
 2851TIP3    H130112   2.219   1.942   2.204 -2.5790  1.1452  0.2195
 2851TIP3    H230113   2.225   1.962   2.054 -0.5747 -0.7650 -0.0139
 2852TIP3   OH230114   5.646   2.710   9.169  0.0276 -0.2862  0.3437
 2852TIP3    H130115   5.725   2.732   9.121  0.0932 -0.7108  0.2608
 2852TIP3    H230116   5.671   2.638   9.226  0.4004  1.2516  2.2396
 2853TIP3   OH230117   0.829   0.403   1.050  0.1320 -0.1087 -0.2373
 2853TIP3    H130118   0.892   0.337   1.021  0.4328 -0.0549  0.2697
 2853TIP3    H230119   0.746   0.357   1.055 -0.4481  0.3958 -3.3564
 2854TIP3   OH230120   4.748   1.065   7.219  0.4060  0.5461 -0.4449
 2854TIP3    H130121   4.735   0.973   7.197 -0.3171 -0.0078  1.9895
 2854TIP3    H230122   4.717   1.113   7.143  0.7448 -1.2027 -1.7340
 2855TIP3   OH230123   4.474   4.133   0.875  0.3041 -0.0503 -0.5820
 2855TIP3    H130124   4.533   4.059   0.862 -0.0863 -0.4700  0.0222
 2855TIP3    H230125   4.411   4.103   0.940  0.6492  1.1152  0.3181
 2856TIP3   OH230126   3.752   3.441   0.112  0.1165  0.0545  0.1156
 2856TIP3    H130127   3.753   3.461   0.019  1.7978  1.6165  0.4116
 2856TIP3    H230128   3.700   3.511   0.152 -1.1821 -0.9808  0.3251
 2857TIP3   OH230129   0.771   0.941   9.566 -0.6330 -0.8874 -0.2087
 2857TIP3    H130130   0.772   1.006   9.496  1.5925  0.3714  0.8725
 2857TIP3    H230131   0.831   0.873   9.536 -0.0879 -0.6042  0.2255
 2858TIP3   OH230132   0.769   4.589   8.464 -0.2898  0.1699 -0.2069
 2858TIP3    H130133   0.682   4.584   8.504 -1.2150  1.7451 -1.8474
 2858TIP3    H230134   0.822   4.527   8.514 -2.1255 -0.2316  1.3883
 2859TIP3   OH230135   5.642   2.320   1.285  0.0801 -0.3225  0.1479
 2859TIP3    H130136   5.664   2.372   1.207 -0.1708 -0.1784  0.1740
 2859TIP3    H230137   5.575   2.259   1.255  0.8555 -1.1016 -0.0577
 2860TIP3   OH230138   4.649   2.013   9.584  0.2847  0.3872 -0.0129
 2860TIP3    H130139   4.678   1.925   9.562  0.0719  0.1674  0.5761
 2860TIP3    H230140   4.691   2.032   9.668  0.9437  1.1485 -0.4995
 2861TIP3   OH230141   0.083   4.324   1.544  0.1231  0.4313  0.0763
 2861TIP3    H130142   0.047   4.320   1.632  0.6607  0.9314  0.3306
 2861TIP3    H230143   0.178   4.330   1.558  0.1968  0.7394 -0.5276
 2862TIP3   OH230144   1.854   3.919   8.867  0.0343  0.0274  0.0424
 2862TIP3    H130145   1.917   3.847   8.872 -0.7731 -0.7186 -0.2119
 2862TIP3    H230146   1.857   3.960   8.954 -0.7049 -1.3814  0.7652
 2863TIP3   OH230147   4.334   0.950   8.597 -0.3871  0.7413  0.0735
 2863TIP3    H130148   4.264   1.009   8.571  0.6827  0.8096 -2.9763
 2863TIP3    H230149   4.415   0.998   8.578  0.4948 -0.5051  0.5420
 2864TIP3   OH230150   2.072   5.067   8.530 -0.0086 -0.1313 -0.2077
 2864TIP3    H130151   2.062   5.110   8.445 -1.2674 -2.3563 -1.2649
 2864TIP3    H230152   2.151   5.107   8.568 -0.8851  2.8079 -1.1951
 2865TIP3   OH230153   0.076   2.473   8.333 -0.7496  0.6508 -0.4669
 2865TIP3    H130154  -0.004   2.448   8.379 -0.7940  0.5534 -0.5946
 2865TIP3    H230155   0.138   2.495   8.402 -0.3751 -0.8253 -0.2958
 2866TIP3   OH230156   0.566   1.974   1.082 -0.5060 -0.0686  0.2884
 2866TIP3    H130157   0.560   2.069   1.092 -0.4256 -0.0178 -0.1021
 2866TIP3    H230158   0.487   1.941   1.124  0.9926 -0.0829  3.3205
 2867TIP3   OH230159   2.669   4.522   2.493  0.1763 -0.0262  0.1405
 2867TIP3    H130160   2.725   4.486   2.562  0.4470 -0.1714 -0.1536
 2867TIP3    H230161   2.580   4.508   2.525  0.3063  0.7375  0.8828
 2868TIP3   OH230162   0.498   5.186   8.621  0.1936 -0.6219 -0.3319
 2868TIP3    H130163   0.568   5.158   8.562  0.7538  0.3133 -0.1416
 2868TIP3    H230164   0.438   5.234   8.564  0.1294 -0.7262 -0.3513
 2869TIP3   OH230165   6.197   0.533   2.888  0.8191 -0.3152 -0.3193
 2869TIP3    H130166   6.212   0.480   2.966  1.2328 -0.6208 -0.6083
 2869TIP3    H230167   6.148   0.609   2.921  0.8167 -0.5364  0.2029
 2870TIP3   OH230168   4.851   3.100   0.673  0.3983  0.0749 -0.4525
 2870TIP3    H130169   4.758   3.116   0.693  0.1268 -0.5965 -1.1135
 2870TIP3    H230170   4.850   3.061   0.585  1.2277 -0.8364 -0.0771
 2871TIP3   OH230171   0.687   2.792   1.216 -0.2057 -0.3211  0.0624
 2871TIP3    H130172   0.618   2.742   1.171 -0.3878 -0.7644  0.8250
 2871TIP3    H230173   0.760   2.729   1.224  0.3066  0.1481 -0.7550
 2872TIP3   OH230174   4.272   4.749   7.082 -0.2687  0.0733  0.2195
 2872TIP3    H130175   4.326   4.683   7.126  2.9162  1.7590 -0.7871
 2872TIP3    H230176   4.267   4.719   6.991 -0.0777  0.4705  0.0760
 2873TIP3   OH230177   3.462   3.136   9.454 -0.0381  0.1704  0.1478
 2873TIP3    H130178   3.371   3.161   9.438 -0.8012 -2.2547  0.3510
 2873TIP3    H230179   3.513   3.200   9.404 -1.9214  0.5813 -1.3764
 2874TIP3   OH230180   1.127   3.128   1.183  0.9613  0.1554  0.1000
 2874TIP3    H130181   1.128   3.210   1.133  2.3792 -1.3729 -2.5705
 2874TIP3    H230182   1.035   3.102   1.185  0.8434  0.3797 -1.5408
 2875TIP3   OH230183   4.780   2.579   8.812  0.0685  0.6666  0.4690
 2875TIP3    H130184   4.755   2.520   8.741  1.1290  2.0495 -1.1369
 2875TIP3    H230185   4.697   2.607   8.850 -0.5894  0.5790 -0.8301
 2876TIP3   OH230186   5.915   2.980   1.547  0.3679  0.5658  0.2981
 2876TIP3    H130187   5.941   2.903   1.597  1.3834  0.7316  0.0590
 2876TIP3    H230188   5.971   2.978   1.469 -0.3236  0.9825 -0.2220
 2877TIP3   OH230189   0.386   2.444   1.238 -0.4675 -0.1777 -0.6807
 2877TIP3    H130190   0.350   2.508   1.300  0.5332  0.4155 -0.6934
 2877TIP3    H230191   0.408   2.495   1.161  0.9842 -0.3910 -0.4398
 2878TIP3   OH230192   3.922   6.059   0.971 -0.0430 -0.4152 -0.0857
 2878TIP3    H130193   3.895   6.122   1.038  0.2028  1.5072 -1.7062
 2878TIP3    H230194   3.865   5.984   0.985 -0.2597  0.0700  2.0055
 2879TIP3   OH230195   6.149   1.124   2.604 -0.5733  0.3448 -0.3159
 2879TIP3    H130196   6.075   1.149   2.549 -0.2041  0.1935 -0.8975
 2879TIP3    H230197   6.117   1.131   2.693 -1.4403 -0.2032 -0.5759
 2880TIP3   OH230198   6.458   1.238   1.701 -0.4144 -0.6515  0.2899
 2880TIP3    H130199   6.547   1.233   1.735  0.2101  1.2010 -0.9450
 2880TIP3    H230200   6.414   1.303   1.755 -0.5283 -0.3967 -0.1027
 2881TIP3   OH230201   0.758   2.825   0.248 -0.0274 -1.2315 -0.0856
 2881TIP3    H130202   0.820   2.766   0.291  0.7096 -0.0456  0.5514
 2881TIP3    H230203   0.810   2.869   0.180 -0.9693 -2.4737 -1.6999
 2882TIP3   OH230204   1.246   2.983   0.577  0.4418 -0.6272 -0.3373
 2882TIP3    H130205   1.220   2.959   0.665  0.0263  1.1622  0.0655
 2882TIP3    H230206   1.189   2.932   0.519  0.0489 -1.0643  0.4328
 2883TIP3   OH230207   0.343   3.017   1.825  0.1678 -0.0446 -0.0142
 2883TIP3    H130208   0.328   2.938   1.875  1.2966 -1.5008 -1.8537
 2883TIP3    H230209   0.274   3.017   1.758 -0.8488  1.4639  0.9533
 2884TIP3   OH230210   5.444   0.048   8.800 -0.3896  0.2785  0.2378
 2884TIP3    H130211   5.420   0.009   8.884 -1.1588  1.5903  0.6647
 2884TIP3    H230212   5.361   0.080   8.764  0.0584  0.5375 -0.5872
 2885TIP3   OH230213   6.005   5.074   1.246  0.2171 -0.0667  0.4725
 2885TIP3    H130214   6.100   5.084   1.249  0.4453 -1.3455 -1.1640
 2885TIP3    H230215   5.986   5.003   1.308  0.6087 -1.1881 -0.6347
 2886TIP3   OH230216   2.906   2.931   0.945  0.5458 -0.1406 -0.5262
 2886TIP3    H130217   2.986   2.963   0.904  0.3222  1.2476  0.0699
 2886TIP3    H230218   2.837   2.988   0.913 -0.1465 -1.0339 -0.6740
 2887TIP3   OH230219   2.810   2.833   8.664 -0.1210  0.0446  0.2176
 2887TIP3    H130220   2.858   2.750   8.669 -1.0021 -0.4793  0.1717
 2887TIP3    H230221   2.748   2.828   8.737 -1.9707 -0.4960 -1.3191
 2888TIP3   OH230222   2.788   2.163   7.202  0.3572  0.1916  0.8472
 2888TIP3    H130223   2.803   2.182   7.294 -0.0686 -2.0317  1.4282
 2888TIP3    H230224   2.862   2.108   7.176  1.2352  1.9221 -0.5822
 2889TIP3   OH230225   2.497   4.755   0.344  0.3223  0.2935 -0.2921
 2889TIP3    H130226   2.425   4.696   0.318  0.8561 -0.7688  0.5793
 2889TIP3    H230227   2.546   4.769   0.263  1.6051 -2.4856 -0.1046
 2890TIP3   OH230228   1.381   4.715   0.777  0.1335  0.2157 -0.1147
 2890TIP3    H130229   1.458   4.669   0.809 -1.2097 -3.1445 -1.1834
 2890TIP3    H230230   1.372   4.791   0.834  1.3684 -2.0081  3.3565
 2891TIP3   OH230231   0.980   6.412   0.985  0.4661  0.0791 -0.5633
 2891TIP3    H130232   1.041   6.343   0.959 -0.1196 -0.3105 -0.9108
 2891TIP3    H230233   1.028   6.462   1.051  0.9332 -0.5991 -0.3775
 2892TIP3   OH230234   5.319   4.252   8.702  0.3258 -0.2522  0.3045
 2892TIP3    H130235   5.383   4.203   8.753  0.2411  1.0653  1.7643
 2892TIP3    H230236   5.234   4.224   8.736  0.2813  1.0189  1.3329
 2893TIP3   OH230237   4.798   5.235   7.848 -0.3362  0.1237 -0.2878
 2893TIP3    H130238   4.726   5.181   7.818 -1.3791  0.8827  0.7519
 2893TIP3    H230239   4.839   5.183   7.917 -1.3775  0.6349  0.7557
 2894TIP3   OH230240   5.527   3.300   9.086 -0.2954  0.7514  0.3848
 2894TIP3    H130241   5.492   3.319   8.999 -1.2393  0.7469  0.7545
 2894TIP3    H230242   5.497   3.212   9.106  0.5994  0.4374  0.3889
 2895TIP3   OH230243   6.442   3.663   1.631 -0.0658  0.6930  0.0759
 2895TIP3    H130244   6.387   3.592   1.598 -0.8893  1.4686 -0.2560
 2895TIP3    H230245   6.494   3.622   1.700 -1.3140  0.0027  0.6464
 2896TIP3   OH230246   1.176   3.224   8.839 -0.3258  0.4376 -0.6480
 2896TIP3    H130247   1.094   3.255   8.800 -1.1930 -0.1214  0.6697
 2896TIP3    H230248   1.245   3.262   8.784 -1.3654  3.3248 -0.1478
 2897TIP3   OH230249   5.888   3.760   0.970  0.1180  0.3614  0.2044
 2897TIP3    H130250   5.848   3.692   1.024  0.1227 -0.3644 -0.6806
 2897TIP3    H230251   5.914   3.828   1.033  1.8648 -1.2749  1.3866
 2898TIP3   OH230252   3.113   4.043   1.092  0.3843 -0.0891  0.6660
 2898TIP3    H130253   3.068   4.115   1.048  0.3936  0.4052  1.4649
 2898TIP3    H230254   3.124   4.072   1.182  2.1263 -0.2790  0.5575
 2899TIP3   OH230255   3.689   4.382   0.810  0.6666 -0.7856 -0.3793
 2899TIP3    H130256   3.685   4.313   0.875  0.8796 -0.8641 -0.4496
 2899TIP3    H230257   3.725   4.340   0.732 -1.0655 -1.0866 -1.0681
 2900TIP3   OH230258   2.036   0.915   8.142  0.2362  0.7516  0.3263
 2900TIP3    H130259   2.024   0.882   8.053  0.0339 -1.0836  0.9779
 2900TIP3    H230260   1.989   0.998   8.144  1.7633  1.7364 -1.7506
 2901TIP3   OH230261   0.927   2.630   0.402  0.0573 -0.3114 -0.6873
 2901TIP3    H130262   0.863   2.582   0.454 -0.3015  1.0612  0.1764
 2901TIP3    H230263   0.992   2.564   0.377 -0.1746 -1.1498  0.8354
 2902TIP3   OH230264   1.524   1.800   7.963 -0.1385 -0.0399  0.0624
 2902TIP3    H130265   1.429   1.794   7.969 -0.1454  0.7606  0.9382
 2902TIP3    H230266   1.544   1.775   7.872 -1.1321 -0.6403 -0.0098
 2903TIP3   OH230267   0.377   0.705   2.098 -0.2929  0.1366  0.0930
 2903TIP3    H130268   0.286   0.703   2.129 -0.0361 -1.0786  0.8500
 2903TIP3    H230269   0.423   0.644   2.156  0.5305 -1.0807 -1.7652
 2904TIP3   OH230270   2.803   2.656   9.259  0.0017 -0.8202 -0.3018
 2904TIP3    H130271   2.846   2.571   9.270  1.3952 -0.0703  0.3484
 2904TIP3    H230272   2.862   2.705   9.202 -0.9539 -0.3813 -0.9302
 2905TIP3   OH230273   1.104   5.555   1.630  0.2565 -0.9492  0.5990
 2905TIP3    H130274   1.152   5.591   1.704 -1.2459  0.5705  0.8943
 2905TIP3    H230275   1.161   5.569   1.555  0.2923  0.8892  0.9259
 2906TIP3   OH230276   4.989   4.222   8.021  0.3075 -0.8145 -0.4878
 2906TIP3    H130277   5.045   4.205   7.945  0.0216  0.9768 -1.1529
 2906TIP3    H230278   4.991   4.318   8.031  0.7768 -1.0414  2.1248
 2907TIP3   OH230279   3.198   3.463   9.425  0.4361  0.5971  0.3263
 2907TIP3    H130280   3.229   3.426   9.342  0.4616  1.1597  0.0839
 2907TIP3    H230281   3.152   3.543   9.400 -0.3412  0.3023  0.7772
 2908TIP3   OH230282   1.633   1.148   1.341  0.3112  0.2862  0.1481
 2908TIP3    H130283   1.562   1.211   1.330 -2.5547 -2.6057  0.5445
 2908TIP3    H230284   1.672   1.140   1.254 -1.1922  0.5180 -0.5703
 2909TIP3   OH230285   1.713   0.267   8.024  0.5771 -0.4939 -0.0592
 2909TIP3    H130286   1.687   0.271   8.116  1.0160 -0.3342  0.0600
 2909TIP3    H230287   1.752   0.180   8.014  0.2495 -0.6297 -0.1718
 2910TIP3   OH230288   5.009   4.283   8.425  0.1113  0.1304  0.2847
 2910TIP3    H130289   5.010   4.371   8.463 -2.2134 -1.0880  3.5974
 2910TIP3    H230290   4.936   4.284   8.364  0.8272  0.7556 -0.5951
 2911TIP3   OH230291   3.640   3.632   9.008  0.0553  0.8877 -0.4822
 2911TIP3    H130292   3.617   3.660   8.919 -1.5103 -2.0680 -1.1452
 2911TIP3    H230293   3.559   3.641   9.058 -0.1486 -1.0553 -0.4042
 2912TIP3   OH230294   5.407   3.042   9.049  0.7692 -0.3370  0.2694
 2912TIP3    H130295   5.409   2.946   9.054 -1.2853 -0.5762 -1.8948
 2912TIP3    H230296   5.323   3.066   9.089  0.1791  0.3418 -1.3235
 2913TIP3   OH230297   6.461   3.667   0.156  0.5076 -0.5734 -0.4853
 2913TIP3    H130298   6.489   3.600   0.217  0.2292 -1.0077 -0.8305
 2913TIP3    H230299   6.476   3.750   0.202 -2.1424 -0.9447  1.2256
 2914TIP3   OH230300   1.764   2.032   2.550  0.3720 -0.0379 -0.2996
 2914TIP3    H130301   1.671   2.009   2.541 -0.3385  2.8246 -1.4400
 2914TIP3    H230302   1.783   2.021   2.643 -1.7108  1.1697  0.3335
 2915TIP3   OH230303   3.018   1.760   2.101  0.2521 -0.0628 -0.0766
 2915TIP3    H130304   2.962   1.808   2.162  1.1470  0.9369 -0.0136
 2915TIP3    H230305   3.063   1.695   2.155  0.3933  0.2405  0.1736
 2916TIP3   OH230306   4.493   5.631   1.387 -0.0834 -0.0813  0.1489
 2916TIP3    H130307   4.496   5.568   1.315  0.5916 -0.2376  0.3016
 2916TIP3    H230308   4.526   5.713   1.349 -0.9018  0.1729 -0.0336
 2917TIP3   OH230309   0.996   1.703   8.656  0.2255 -0.2520  0.1458
 2917TIP3    H130310   0.953   1.738   8.734  1.0366 -0.8517  0.8903
 2917TIP3    H230311   0.927   1.657   8.609 -0.3156  0.2883  0.4057
 2918TIP3   OH230312   2.084   5.741   9.195 -0.4092 -0.3226 -0.1520
 2918TIP3    H130313   2.126   5.705   9.117  0.1155  1.1770 -0.5995
 2918TIP3    H230314   2.020   5.805   9.161 -1.6403 -1.1163  0.5900
 2919TIP3   OH230315   3.587   2.928   7.927  0.2695  0.0586  0.9245
 2919TIP3    H130316   3.590   2.929   7.832  1.4565  0.9526  0.9547
 2919TIP3    H230317   3.494   2.924   7.948 -0.1584  2.0873 -0.2810
 2920TIP3   OH230318   2.383   1.824   2.341 -0.7282 -0.6191 -0.8575
 2920TIP3    H130319   2.330   1.890   2.386 -0.3342  0.2820 -1.6723
 2920TIP3    H230320   2.363   1.742   2.385  1.1719  0.4686  2.3956
 2921TIP3   OH230321   1.725   1.097   7.780 -0.0380 -0.3199 -0.0177
 2921TIP3    H130322   1.688   1.080   7.867 -2.4307  1.0501 -0.6868
 2921TIP3    H230323   1.799   1.156   7.797  0.2807 -1.0241  1.1675
 2922TIP3   OH230324   5.133   4.898   2.039  0.2797 -0.7723  0.2068
 2922TIP3    H130325   5.206   4.894   2.101  0.7132  1.1792 -0.1096
 2922TIP3    H230326   5.064   4.944   2.086  1.1977  2.2892 -1.1759
 2923TIP3   OH230327   2.975   0.191   2.197 -0.1689 -0.1769 -0.0698
 2923TIP3    H130328   2.961   0.135   2.274  1.7397  0.9329  1.1771
 2923TIP3    H230329   3.036   0.258   2.227 -0.1093  0.8763 -2.3237
 2924TIP3   OH230330   4.212   4.321   8.648 -0.3960 -0.3494  0.4542
 2924TIP3    H130331   4.139   4.261   8.662 -0.5191 -0.2353  0.3044
 2924TIP3    H230332   4.265   4.314   8.728 -0.3906 -0.6809  0.4212
 2925TIP3   OH230333   2.676   2.389   8.475  0.2850 -0.5183 -0.3492
 2925TIP3    H130334   2.762   2.427   8.494 -0.3072  0.3625  0.6491
 2925TIP3    H230335   2.675   2.377   8.380  0.1152  2.9811 -0.9083
 2926TIP3   OH230336   3.890   5.968   7.129 -0.5079  0.1981  0.3738
 2926TIP3    H130337   3.827   6.038   7.111  0.4459  1.2593  1.0022
 2926TIP3    H230338   3.927   5.946   7.044  0.7152  1.9919  0.3778
 2927TIP3   OH230339   5.615   0.826   8.246  0.4362 -0.4653  0.6693
 2927TIP3    H130340   5.646   0.832   8.155  0.8794 -1.1396  0.7689
 2927TIP3    H230341   5.638   0.737   8.273  0.1627 -0.3188  1.3951
 2928TIP3   OH230342   4.642   4.449   9.498 -0.5624  0.5407  0.3448
 2928TIP3    H130343   4.702   4.520   9.473 -0.2103 -0.5089 -2.0723
 2928TIP3    H230344   4.651   4.443   9.593  1.9082  1.5309  0.2542
 2929TIP3   OH230345   6.018   0.972   9.349 -0.2388  0.2112 -0.0351
 2929TIP3    H130346   6.042   0.888   9.387  0.2025  0.5367  0.4257
 2929TIP3    H230347   6.012   1.032   9.424  1.0693  0.9591 -0.4863
 2930TIP3   OH230348   3.680   2.022   7.742  0.0707  0.3544 -0.0225
 2930TIP3    H130349   3.731   2.078   7.684  0.7869  2.9421  2.8272
 2930TIP3    H230350   3.736   1.947   7.758 -0.3663 -0.7362 -2.9203
 2931TIP3   OH230351   5.865   2.607   7.632 -0.3714  0.1420  0.2543
 2931TIP3    H130352   5.939   2.667   7.642  0.0640 -0.4877  0.9040
 2931TIP3    H230353   5.879   2.566   7.548 -0.6733  0.9390 -0.2008
 2932TIP3   OH230354   6.390   1.732   8.427 -0.0876 -0.0259 -0.0380
 2932TIP3    H130355   6.323   1.799   8.438  0.4255  0.7473 -1.4502
 2932TIP3    H230356   6.453   1.750   8.497 -0.1577  0.7102 -0.1551
 2933TIP3   OH230357   2.560   5.610   8.757  0.2704  0.2369  0.5463
 2933TIP3    H130358   2.518   5.625   8.842  1.3356  1.4349  0.8954
 2933TIP3    H230359   2.599   5.694   8.735  0.6403 -0.2675 -0.7920
 2934TIP3   OH230360   1.807   1.856   9.069  0.0526 -0.0721 -0.1264
 2934TIP3    H130361   1.726   1.906   9.084 -1.0834 -1.4017 -1.4764
 2934TIP3    H230362   1.848   1.899   8.994  0.7641  0.7418  0.6987
 2935TIP3   OH230363   0.163   5.870   1.006 -0.0017  0.1938 -0.4740
 2935TIP3    H130364   0.126   5.903   1.088 -0.9562 -1.4855 -0.1700
 2935TIP3    H230365   0.131   5.780   1.001  1.8628 -0.4554 -1.5949
 2936TIP3   OH230366   0.496   1.140   9.575  0.1493 -0.5224  0.0576
 2936TIP3    H130367   0.419   1.192   9.553  1.1701  1.2638  0.4893
 2936TIP3    H230368   0.559   1.160   9.505  0.8532 -0.5136  0.6823
 2937TIP3   OH230369   6.406   2.343   8.906  0.0028  0.5350 -0.4827
 2937TIP3    H130370   6.420   2.269   8.848 -2.8605 -1.4796  1.1768
 2937TIP3    H230371   6.327   2.386   8.873 -0.6588  0.4113  0.8525
 2938TIP3   OH230372   0.001   3.454   8.954  0.5127 -0.2087 -0.1243
 2938TIP3    H130373   0.065   3.522   8.976 -1.7948  1.6402  1.4745
 2938TIP3    H230374  -0.049   3.442   9.035 -0.7196 -2.1008 -1.0936
 2939TIP3   OH230375   1.050   1.259   2.636  0.0607 -0.1406  0.2705
 2939TIP3    H130376   1.136   1.286   2.666  0.2236  0.7724 -0.9464
 2939TIP3    H230377   1.054   1.163   2.634  1.3503 -0.0925 -0.5845
 2940TIP3   OH230378   1.512   6.327   0.181  0.5235 -0.1424  0.0872
 2940TIP3    H130379   1.585   6.313   0.121 -0.0504  0.5452 -0.8084
 2940TIP3    H230380   1.552   6.332   0.267  1.4964 -0.0895 -0.3602
 2941TIP3   OH230381   2.700   0.023   1.018 -0.3194  0.2356 -0.4299
 2941TIP3    H130382   2.692   0.112   1.051  1.5217  0.4198 -0.3362
 2941TIP3    H230383   2.640  -0.029   1.071  0.6629  0.9591  1.4748
 2942TIP3   OH230384   2.226   1.692   1.782 -0.6968 -0.0262  0.0021
 2942TIP3    H130385   2.292   1.750   1.745  0.4408 -1.7006 -0.7081
 2942TIP3    H230386   2.158   1.687   1.715  0.7190 -1.9673 -1.4121
 2943TIP3   OH230387   6.096   0.694   9.167  0.3682  0.2672  0.2113
 2943TIP3    H130388   6.015   0.743   9.155  0.1566  0.0402  0.6546
 2943TIP3    H230389   6.100   0.679   9.262 -1.3325 -3.4588 -0.1246
 2944TIP3   OH230390   4.119   4.783   7.681 -0.1617 -0.1485  0.3607
 2944TIP3    H130391   4.031   4.780   7.643 -0.2066 -1.9564  0.5170
 2944TIP3    H230392   4.104   4.791   7.775 -0.1775 -0.8517  0.4211
 2945TIP3   OH230393   5.582   4.658   0.282 -0.1492 -0.2420  0.2280
 2945TIP3    H130394   5.553   4.567   0.275 -0.1637 -0.1576 -1.2082
 2945TIP3    H230395   5.506   4.705   0.316 -0.3097 -0.6894  0.4936
 2946TIP3   OH230396   3.119   1.589   7.504 -0.1437 -0.0642  0.0372
 2946TIP3    H130397   3.042   1.593   7.448  0.5652 -0.1809 -0.9847
 2946TIP3    H230398   3.087   1.559   7.589 -1.3299  0.6544 -0.1439
 2947TIP3   OH230399   1.935   0.215   8.359 -0.1531 -0.1587 -0.4708
 2947TIP3    H130400   1.849   0.214   8.400  0.5919  0.0449  1.1578
 2947TIP3    H230401   1.948   0.307   8.333 -1.0164 -0.4641 -2.0710
 2948TIP3   OH230402   0.608   2.710   9.023 -0.2973  0.9304  0.0759
 2948TIP3    H130403   0.556   2.664   8.957 -0.3024  0.4207  0.4295
 2948TIP3    H230404   0.614   2.800   8.990 -2.0221  1.1929  0.3915
 2949TIP3   OH230405   4.461   4.885   9.520  0.5925 -0.4634  0.5127
 2949TIP3    H130406   4.549   4.907   9.550  0.5818  0.9200 -0.4068
 2949TIP3    H230407   4.453   4.927   9.435 -0.7737 -1.0153  0.3427
 2950TIP3   OH230408   0.441   4.086   1.761  0.2192 -0.4046  0.1401
 2950TIP3    H130409   0.380   4.149   1.797  0.6430  0.1937 -0.1689
 2950TIP3    H230410   0.461   4.027   1.834  0.3265  0.2109  0.6113
 2951TIP3   OH230411   4.364   5.052   7.525  0.7981 -0.0426 -0.1927
 2951TIP3    H130412   4.339   5.071   7.615  3.0912  0.8173  0.3161
 2951TIP3    H230413   4.366   4.956   7.520  0.5185 -0.0958  0.6107
 2952TIP3   OH230414   4.833   2.644   0.129  0.0603  0.1440 -0.3325
 2952TIP3    H130415   4.925   2.626   0.107  0.9111 -0.4597  3.1996
 2952TIP3    H230416   4.836   2.681   0.217 -3.0875  0.7504 -0.3628
 2953TIP3   OH230417   3.648   0.982   9.340 -0.4482  0.5861  0.0056
 2953TIP3    H130418   3.648   0.949   9.251 -2.8624 -0.6942  0.3888
 2953TIP3    H230419   3.729   0.950   9.378 -1.5587 -3.1182 -0.3442
 2954TIP3   OH230420   0.076   6.104   7.922 -0.0894  0.1499  0.4201
 2954TIP3    H130421   0.055   6.127   8.013 -1.9222  1.9523 -0.3901
 2954TIP3    H230422   0.097   6.187   7.880 -0.0490 -0.5522 -1.0139
 2955TIP3   OH230423   1.204   2.628   2.515  0.3458  0.2432 -0.0953
 2955TIP3    H130424   1.231   2.654   2.603  1.6229 -1.1361 -0.0438
 2955TIP3    H230425   1.195   2.710   2.467 -1.6081  1.1274  1.6169
 2956TIP3   OH230426   1.144   3.323   2.006 -0.1687  0.8299 -0.4592
 2956TIP3    H130427   1.175   3.280   2.086 -0.6958 -1.1157 -1.2520
 2956TIP3    H230428   1.061   3.363   2.031 -1.6287 -1.9110 -0.5503
 2957TIP3   OH230429   3.870   3.531   0.680  0.5387  0.2040 -0.0512
 2957TIP3    H130430   3.802   3.520   0.613  1.6698  0.5820 -1.3085
 2957TIP3    H230431   3.938   3.581   0.636  0.7487  1.6401  1.8128
 2958TIP3   OH230432   5.582   0.090   1.690  0.0392 -0.1827 -0.2666
 2958TIP3    H130433   5.554   0.173   1.652  1.5447 -0.2375 -1.5726
 2958TIP3    H230434   5.658   0.064   1.638  0.8866 -1.3320  1.4568
 2959TIP3   OH230435   3.929   2.517   0.289  0.0257  0.2931  0.2488
 2959TIP3    H130436   3.955   2.573   0.216  0.9063  1.9930  1.7772
 2959TIP3    H230437   4.011   2.497   0.334 -0.4540 -1.0303  0.5828
 2960TIP3   OH230438   3.153   4.240   1.663 -0.1974  0.3826 -0.1071
 2960TIP3    H130439   3.122   4.275   1.580  0.4668  2.6601  0.5103
 2960TIP3    H230440   3.188   4.317   1.709 -0.5402 -0.7814  2.2666
 2961TIP3   OH230441   2.708   4.723   7.779 -0.5413 -0.1058 -0.1536
 2961TIP3    H130442   2.630   4.746   7.831 -0.6356 -0.3252 -0.1998
 2961TIP3    H230443   2.690   4.760   7.693  0.3575  1.7875  0.4091
 2962TIP3   OH230444   0.731   3.372   0.630 -0.0942 -0.4202  0.3118
 2962TIP3    H130445   0.708   3.290   0.587 -2.4549  0.1727  0.3330
 2962TIP3    H230446   0.738   3.349   0.723 -3.6091 -0.1868  0.7584
 2963TIP3   OH230447   5.886   3.810   9.243 -0.3063 -0.2399 -0.0375
 2963TIP3    H130448   5.905   3.900   9.215 -0.6967  0.0325  0.5593
 2963TIP3    H230449   5.796   3.794   9.212 -0.7882  0.1063  1.1401
 2964TIP3   OH230450   0.641   0.099   7.737  0.2686  0.2693  0.5971
 2964TIP3    H130451   0.630   0.179   7.685  1.9199  0.6586  0.7935
 2964TIP3    H230452   0.685   0.128   7.817 -1.2068 -0.5019  1.7387
 2965TIP3   OH230453   0.268   3.008   9.313  0.1842  0.0026  0.2637
 2965TIP3    H130454   0.273   3.097   9.279  0.2844 -0.7030 -1.7467
 2965TIP3    H230455   0.331   2.959   9.259  1.3902 -0.9862  2.4301
 2966TIP3   OH230456   5.733   1.740   7.337 -0.0814 -0.2459  0.0912
 2966TIP3    H130457   5.823   1.770   7.326  0.2828  1.0316  4.4509
 2966TIP3    H230458   5.703   1.721   7.248  2.6681  4.4457 -2.2826
 2967TIP3   OH230459   3.315   5.225   2.501  0.1897  0.4278 -0.1538
 2967TIP3    H130460   3.401   5.266   2.490 -0.8089  2.3350 -1.4691
 2967TIP3    H230461   3.300   5.227   2.595  1.0438  1.2712 -0.0147
 2968TIP3   OH230462   2.657   3.451   2.363 -0.2133  0.3240  0.2469
 2968TIP3    H130463   2.652   3.357   2.383  0.0342  0.1553 -0.4732
 2968TIP3    H230464   2.741   3.462   2.318 -0.7202  0.7098 -0.6319
 2969TIP3   OH230465   1.016   4.208   1.240 -0.1332  0.9215 -0.5052
 2969TIP3    H130466   0.945   4.184   1.299  0.7086 -2.0886 -0.5657
 2969TIP3    H230467   0.982   4.189   1.152  0.5347 -0.0328 -0.5680
 2970TIP3   OH230468   4.222   2.913   9.124 -0.6769  0.0708  0.0877
 2970TIP3    H130469   4.195   2.825   9.099  0.1935 -0.2561  0.2640
 2970TIP3    H230470   4.157   2.970   9.084  0.0311 -0.4848 -1.9948
 2971TIP3   OH230471   3.895   0.212   1.062 -0.1367 -0.5280 -0.2384
 2971TIP3    H130472   3.935   0.292   1.027  0.1844  0.7312  2.6870
 2971TIP3    H230473   3.966   0.148   1.063  0.5821  0.2454  0.4996
 2972TIP3   OH230474   6.139   6.093   7.196  0.3972 -0.5337 -0.3567
 2972TIP3    H130475   6.045   6.107   7.210  0.1705  0.3172 -2.3917
 2972TIP3    H230476   6.144   6.043   7.115  1.7238  1.0049 -1.2866
 2973TIP3   OH230477   0.360   4.675   9.260 -0.2521  0.1454 -0.1404
 2973TIP3    H130478   0.450   4.696   9.287 -0.0748 -0.8574  0.0846
 2973TIP3    H230479   0.363   4.674   9.164  0.1275 -0.4742 -0.1280
 2974TIP3   OH230480   2.008   3.692   8.877 -0.4197  0.2090 -0.0204
 2974TIP3    H130481   2.090   3.645   8.891 -0.2157  0.6453  0.2537
 2974TIP3    H230482   1.967   3.646   8.803  0.0593 -0.0224 -0.1475
 2975TIP3   OH230483   2.241   5.575   2.057  0.0774  0.1998 -0.0705
 2975TIP3    H130484   2.238   5.666   2.083 -5.0875  0.4182 -0.3646
 2975TIP3    H230485   2.229   5.526   2.138  0.8902 -0.1375 -0.1450
 2976TIP3   OH230486   3.401   4.743   0.073  0.0068  0.3227 -0.4818
 2976TIP3    H130487   3.345   4.741  -0.005  0.0073  0.6867 -0.4948
 2976TIP3    H230488   3.480   4.790   0.044  0.1451  0.1714 -0.3507
 2977TIP3   OH230489   6.451   2.087   1.657  0.7743 -0.0116  0.8509
 2977TIP3    H130490   6.439   2.045   1.741 -0.3208 -2.0905 -0.2717
 2977TIP3    H230491   6.491   2.020   1.602 -1.6415  0.0615 -1.1912
 2978TIP3   OH230492   3.063   5.705   9.130 -0.6121  0.7529  0.2337
 2978TIP3    H130493   3.094   5.654   9.205 -0.4316  1.1803  0.4516
 2978TIP3    H230494   3.087   5.652   9.054 -1.2193  0.0987  0.4925
 2979TIP3   OH230495   0.541   1.657   0.866 -0.8394 -0.3581 -0.0903
 2979TIP3    H130496   0.502   1.743   0.847  0.6753  0.8299  1.7022
 2979TIP3    H230497   0.606   1.644   0.797 -0.9822  0.0318 -0.3011
 2980TIP3   OH230498   3.378   2.907   1.514  0.3255 -0.1438 -0.1422
 2980TIP3    H130499   3.375   2.860   1.431  0.2838 -1.8933  0.8060
 2980TIP3    H230500   3.463   2.884   1.552 -0.6980 -1.5347  1.4626
 2981TIP3   OH230501   3.408   4.204   1.180 -0.2357 -0.0244  0.3345
 2981TIP3    H130502   3.314   4.217   1.177 -0.1478  0.4325 -0.7463
 2981TIP3    H230503   3.429   4.199   1.274 -1.5474 -1.9347  0.5760
 2982TIP3   OH230504   5.041   6.220   1.478  0.2738 -0.0072 -0.3692
 2982TIP3    H130505   5.045   6.151   1.545  0.4475  0.9516  0.6359
 2982TIP3    H230506   5.119   6.274   1.495 -0.0461  0.6336 -0.9128
 2983TIP3   OH230507   5.220   5.936   7.912 -0.1937 -0.0065  0.0719
 2983TIP3    H130508   5.177   5.981   7.985  1.8488 -0.6136  1.7760
 2983TIP3    H230509   5.162   5.863   7.891 -1.0178  0.4051  0.8457
 2984TIP3   OH230510   4.816   3.244   7.148 -0.1806 -0.7541 -0.3821
 2984TIP3    H130511   4.728   3.209   7.162 -0.1285 -0.5256  0.6032
 2984TIP3    H230512   4.874   3.169   7.161 -0.1710 -0.6706  0.0949
 2985TIP3   OH230513   3.818   5.756   7.919 -0.1249 -0.6556 -0.4290
 2985TIP3    H130514   3.746   5.693   7.906 -1.1937  0.3240  0.4815
 2985TIP3    H230515   3.895   5.711   7.885 -1.1778 -1.7106 -1.5574
 2986TIP3   OH230516   0.887   5.060   7.906  0.9127 -0.5911 -0.2197
 2986TIP3    H130517   0.879   5.145   7.863 -2.7943  0.6852  2.4230
 2986TIP3    H230518   0.969   5.066   7.956  0.1706  2.0637  0.8703
 2987TIP3   OH230519   3.031   5.474   9.292  0.0195  0.0271 -0.3394
 2987TIP3    H130520   3.100   5.416   9.322  1.0029  2.6487  2.9282
 2987TIP3    H230521   2.959   5.459   9.353 -0.7534  0.3408 -1.1470
 2988TIP3   OH230522   6.249   3.025   7.891 -0.4037  0.3549  0.0434
 2988TIP3    H130523   6.184   2.982   7.946 -0.6880  0.2307 -0.3807
 2988TIP3    H230524   6.272   3.105   7.938 -0.0839 -0.1109  0.7014
 2989TIP3   OH230525   5.849   5.873   6.852  0.0974  0.3178 -0.4216
 2989TIP3    H130526   5.906   5.803   6.821  0.3838  0.9684 -1.4273
 2989TIP3    H230527   5.802   5.902   6.774  1.8329  2.9162 -0.6434
 2990TIP3   OH230528   4.845   3.681   1.292  0.1682  0.3675 -0.3760
 2990TIP3    H130529   4.754   3.669   1.319 -0.0585 -1.5371 -1.7863
 2990TIP3    H230530   4.892   3.696   1.374 -0.9013 -2.1138  0.7946
 2991TIP3   OH230531   4.752   3.329   1.652 -0.3482 -1.0132 -0.3949
 2991TIP3    H130532   4.776   3.371   1.735  0.0388 -2.9393  0.5253
 2991TIP3    H230533   4.676   3.275   1.674 -0.6126 -1.1002 -1.4644
 2992TIP3   OH230534   3.447   5.916   0.274  0.0745 -0.4150 -0.4232
 2992TIP3    H130535   3.391   5.980   0.317 -0.4430 -0.5060 -0.9417
 2992TIP3    H230536   3.434   5.931   0.180  0.9147 -0.4466 -0.5510
 2993TIP3   OH230537   2.759   4.738   1.488  0.2757  0.2956 -0.0654
 2993TIP3    H130538   2.687   4.675   1.490  0.5977 -0.0869 -0.0814
 2993TIP3    H230539   2.809   4.719   1.568 -0.0080  0.9981  0.2801
 2994TIP3   OH230540   1.877   0.028   7.735 -0.4607  0.3719 -0.0362
 2994TIP3    H130541   1.972   0.034   7.727 -0.4432  2.6158  1.0151
 2994TIP3    H230542   1.845   0.111   7.699 -1.8422  0.5996  1.5987
 2995TIP3   OH230543   2.945   3.644   1.704  0.0722  0.5849 -0.2645
 2995TIP3    H130544   2.888   3.710   1.666  0.2971  0.6443 -0.5037
 2995TIP3    H230545   2.978   3.684   1.785  1.5540  1.4674 -1.2540
 2996TIP3   OH230546   3.142   1.458   1.052 -0.6087  0.1077 -0.2330
 2996TIP3    H130547   3.154   1.411   1.134  1.4003  0.9186  0.0143
 2996TIP3    H230548   3.101   1.541   1.077  1.5797  1.1143  0.2944
 2997TIP3   OH230549   1.684   0.803   1.909  0.1993  0.3294 -0.0999
 2997TIP3    H130550   1.701   0.867   1.979  2.6653 -1.1159  0.7232
 2997TIP3    H230551   1.699   0.852   1.829  0.0126  1.3187  0.4481
 2998TIP3   OH230552   3.761   5.654   0.097  0.2523 -0.2443  0.1295
 2998TIP3    H130553   3.738   5.716   0.166  0.3692 -1.6528  1.4698
 2998TIP3    H230554   3.831   5.601   0.134  0.2626 -1.0872 -1.0437
 2999TIP3   OH230555   1.078   0.192   9.089 -0.1361 -0.3693 -0.2634
 2999TIP3    H130556   1.015   0.228   9.152  0.2219 -1.8689  1.0229
 2999TIP3    H230557   1.043   0.106   9.067  0.4400 -0.3916 -1.1257
 3000TIP3   OH230558   3.319   5.645   9.576  0.2144 -0.3140 -0.4678
 3000TIP3    H130559   3.406   5.607   9.588  0.5662  0.2640 -1.1348
 3000TIP3    H230560   3.260   5.582   9.618  0.9360 -0.7590 -0.0878
 3001TIP3   OH230561   4.319   2.081   9.152 -0.1110 -0.2168  0.1234
 3001TIP3    H130562   4.370   2.158   9.179 -0.8669  0.1712  0.4849
 3001TIP3    H230563   4.247   2.077   9.215 -2.0190  0.7898 -1.8642
 3002TIP3   OH230564   5.265   2.826   7.503  0.2913  0.4758  0.1918
 3002TIP3    H130565   5.228   2.807   7.416  0.9203 -1.1667  0.2386
 3002TIP3    H230566   5.352   2.860   7.484 -0.2639  1.9375  0.1528
 3003TIP3   OH230567   3.906   0.998   1.003  0.3165 -0.9435 -0.6068
 3003TIP3    H130568   3.849   0.962   1.072  0.0216  0.0177 -0.3328
 3003TIP3    H230569   3.994   0.968   1.028  0.0483 -1.7408 -0.5719
 3004TIP3   OH230570   3.606   3.176   8.539  0.0795  0.5217 -0.1242
 3004TIP3    H130571   3.582   3.133   8.456 -2.0300 -0.6164  0.9930
 3004TIP3    H230572   3.671   3.118   8.578 -0.1004  0.2238 -0.2622
 3005TIP3   OH230573   0.324   0.866   8.211  0.0098  0.1261  0.3001
 3005TIP3    H130574   0.386   0.848   8.141  0.1107  1.9687 -0.1326
 3005TIP3    H230575   0.352   0.950   8.248 -1.9601  0.8320  0.3428
 3006TIP3   OH230576   4.709   1.207   6.992 -0.5483 -0.2318  0.5567
 3006TIP3    H130577   4.736   1.298   6.981 -0.4516 -0.1834  1.1777
 3006TIP3    H230578   4.615   1.212   7.009 -0.9724 -0.3894 -1.4441
 3007TIP3   OH230579   1.063   2.857   7.826  0.1977 -0.6889  0.0792
 3007TIP3    H130580   1.142   2.911   7.816 -0.1406 -0.1975  0.0200
 3007TIP3    H230581   0.998   2.917   7.861 -0.5994 -0.6863 -1.3277
 3008TIP3   OH230582   0.172   1.049   8.978 -0.5773  0.4424  0.3985
 3008TIP3    H130583   0.171   1.091   8.892 -0.2558  0.5709  0.4567
 3008TIP3    H230584   0.151   0.957   8.960 -0.1923  0.4020  0.1434
 3009TIP3   OH230585   5.505   5.580   2.523  0.1414  0.3267  0.7142
 3009TIP3    H130586   5.563   5.649   2.556  1.7241 -1.8911  2.9602
 3009TIP3    H230587   5.447   5.561   2.596 -2.1344  1.0572 -0.8086
 3010TIP3   OH230588   6.403   2.698   9.347  0.6410 -0.1423  0.1275
 3010TIP3    H130589   6.496   2.696   9.372  1.5243  2.9646 -2.2939
 3010TIP3    H230590   6.405   2.697   9.251 -1.7888  0.6953  0.0237
 3011TIP3   OH230591   1.953   4.414   8.267  0.2449 -0.8743 -0.1556
 3011TIP3    H130592   1.930   4.423   8.360 -2.2371 -0.2335 -0.7526
 3011TIP3    H230593   2.027   4.353   8.267  1.6948  0.6644  2.3570
 3012TIP3   OH230594   3.573   4.891   1.148 -0.0707 -0.0067 -0.0719
 3012TIP3    H130595   3.643   4.925   1.204 -0.2813  0.1542  0.0971
 3012TIP3    H230596   3.494   4.897   1.202 -0.0231 -1.3489  0.1820
 3013TIP3   OH230597   5.690   1.250   2.319  0.6327 -0.2577  0.6398
 3013TIP3    H130598   5.690   1.323   2.381 -0.0864  0.0259  0.3182
 3013TIP3    H230599   5.708   1.173   2.373  1.3746  0.1434  0.9884
 3014TIP3   OH230600   0.754   1.649   1.946 -0.2156 -1.0158 -0.1013
 3014TIP3    H130601   0.838   1.693   1.953 -0.8903  1.0782 -3.1331
 3014TIP3    H230602   0.771   1.572   1.891 -0.5075  0.5105 -2.4612
 3015TIP3   OH230603   5.316   6.263   2.568  0.0912  0.3679 -0.0412
 3015TIP3    H130604   5.357   6.229   2.647  0.9217  0.1417 -0.5584
 3015TIP3    H230605   5.363   6.220   2.496  0.3361  1.6722 -0.6888
 3016TIP3   OH230606   3.469   1.545   9.379  0.0493  0.5875 -0.7116
 3016TIP3    H130607   3.503   1.457   9.398 -0.9980  0.3852  0.3500
 3016TIP3    H230608   3.536   1.604   9.413 -0.0291  0.1887  0.1768
 3017TIP3   OH230609   4.461   5.701   7.465 -0.4478 -0.2920 -0.6807
 3017TIP3    H130610   4.425   5.740   7.385 -1.3521  2.7901  1.0566
 3017TIP3    H230611   4.530   5.762   7.492  0.2562 -1.5912  0.5733
 3018TIP3   OH230612   5.931   5.336   1.327  0.1705  0.4161 -0.6606
 3018TIP3    H130613   5.972   5.334   1.413 -0.0323  1.2096 -0.5370
 3018TIP3    H230614   5.962   5.256   1.284 -0.6399 -0.5928  0.5494
 3019TIP3   OH230615   1.807   2.156   0.586  0.0804 -0.5197 -0.8846
 3019TIP3    H130616   1.824   2.067   0.556  0.0943 -0.6895 -0.3882
 3019TIP3    H230617   1.756   2.197   0.516  1.1236 -0.5280 -1.6608
 3020TIP3   OH230618   4.338   0.478   7.224 -0.4270 -0.3461 -0.0747
 3020TIP3    H130619   4.320   0.564   7.263 -1.6698  0.1066 -1.5225
 3020TIP3    H230620   4.263   0.463   7.166  1.1422 -1.1237 -1.9884
 3021TIP3   OH230621   4.396   5.544   8.950  0.0532  0.3316  1.4630
 3021TIP3    H130622   4.472   5.597   8.975 -0.2229  0.2461  2.5605
 3021TIP3    H230623   4.334   5.606   8.912  1.3270  0.1447 -1.1072
 3022TIP3   OH230624   5.754   6.195   1.896  0.0127 -0.9987 -0.4758
 3022TIP3    H130625   5.785   6.282   1.871 -0.1875 -0.1528  1.9831
 3022TIP3    H230626   5.659   6.199   1.888  0.0554 -1.2894 -1.1917
 3023TIP3   OH230627   2.030   0.508   0.851  0.0748 -0.0335 -0.2936
 3023TIP3    H130628   2.030   0.473   0.762 -0.2789 -1.3413  0.2048
 3023TIP3    H230629   2.078   0.444   0.903 -1.6478 -0.4673  0.8743
 3024TIP3   OH230630   5.888   4.626   7.727 -0.1003 -0.2247  0.1697
 3024TIP3    H130631   5.854   4.705   7.685 -1.5883 -1.0737 -0.2889
 3024TIP3    H230632   5.879   4.557   7.661 -1.8999 -1.4533  1.5933
 3025TIP3   OH230633   3.002   2.344   8.955 -0.8405 -0.0688  0.2512
 3025TIP3    H130634   3.032   2.261   8.993 -0.4584  0.4282  1.0687
 3025TIP3    H230635   2.913   2.354   8.989 -0.6219  0.2075  0.7565
 3026TIP3   OH230636   6.490   0.871   1.120  0.3760  0.2237  0.3442
 3026TIP3    H130637   6.401   0.872   1.156 -0.3051 -1.0270 -1.1982
 3026TIP3    H230638   6.492   0.945   1.059  0.4736  0.3652  0.5158
 3027TIP3   OH230639   3.041   4.425   0.306  0.0853  0.5249  0.1711
 3027TIP3    H130640   3.004   4.341   0.333  0.6729 -0.1023 -0.9045
 3027TIP3    H230641   3.092   4.454   0.381  2.3106 -1.5424 -0.4216
 3028TIP3   OH230642   5.964   0.141   9.166 -0.1587  0.0620  0.5966
 3028TIP3    H130643   5.977   0.228   9.204 -0.6596  1.3004 -1.8175
 3028TIP3    H230644   6.042   0.126   9.112 -0.1442 -0.9355  0.8738
 3029TIP3   OH230645   4.713   0.153   9.260 -0.3846  0.0721 -0.2401
 3029TIP3    H130646   4.764   0.227   9.230 -0.3636 -0.8488 -2.6757
 3029TIP3    H230647   4.623   0.173   9.234 -1.2933  1.2993  3.2694
 3030TIP3   OH230648   1.725   2.535   1.538 -0.5870 -0.7172 -0.5492
 3030TIP3    H130649   1.737   2.582   1.621 -1.9649 -0.3701 -0.5271
 3030TIP3    H230650   1.670   2.593   1.485 -1.2138 -1.7190 -1.0278
 3031TIP3   OH230651   0.432   3.000   8.030  0.2095 -0.0056 -0.2444
 3031TIP3    H130652   0.468   2.915   8.055  0.2125  0.0918  0.0946
 3031TIP3    H230653   0.496   3.036   7.969  0.9371  0.3600  0.6950
 3032TIP3   OH230654   4.804   2.758   7.836 -0.0632 -0.0498 -0.3461
 3032TIP3    H130655   4.761   2.842   7.851  0.2238 -0.0816  0.7055
 3032TIP3    H230656   4.876   2.779   7.776 -0.2795  0.3700 -0.4652
 3033TIP3   OH230657   1.216   0.732   7.923  0.1092  0.0053 -0.4047
 3033TIP3    H130658   1.167   0.651   7.940  1.4810 -0.3485  2.3596
 3033TIP3    H230659   1.308   0.705   7.927  0.6014  1.7483  0.9360
 3034TIP3   OH230660   3.254   0.193   9.152 -0.5516  0.3346 -0.0369
 3034TIP3    H130661   3.310   0.235   9.217 -0.4843  0.5278 -0.2177
 3034TIP3    H230662   3.167   0.196   9.191 -0.0032 -2.9208  1.7466
 3035TIP3   OH230663   2.163   5.413   3.080 -0.3278 -0.1716 -0.1664
 3035TIP3    H130664   2.191   5.350   3.014 -0.5882 -1.2237  0.6953
 3035TIP3    H230665   2.070   5.395   3.093 -0.1620 -0.3427  0.8552
 3036TIP3   OH230666   5.363   3.365   1.642  0.0172 -0.0322  0.9431
 3036TIP3    H130667   5.312   3.414   1.578  1.4608  1.4765  0.8683
 3036TIP3    H230668   5.422   3.430   1.680 -0.1893 -1.0603  3.1946
 3037TIP3   OH230669   1.381   6.319   8.492  0.1683  0.4735  0.2275
 3037TIP3    H130670   1.348   6.344   8.406 -0.0307 -0.0930  0.1384
 3037TIP3    H230671   1.464   6.275   8.475 -1.7613 -3.4096 -0.0804
 3038TIP3   OH230672   3.251   6.062   0.420  0.0092  0.1193 -0.0714
 3038TIP3    H130673   3.277   6.067   0.512  2.1492 -0.7734 -0.5665
 3038TIP3    H230674   3.165   6.021   0.422  0.5324 -1.0011  1.4766
 3039TIP3   OH230675   0.025   1.290   8.927 -0.1560 -0.0601 -0.5208
 3039TIP3    H130676   0.080   1.233   8.874  0.2046 -0.0676 -0.1352
 3039TIP3    H230677  -0.054   1.238   8.944 -1.0562  0.5399 -2.4991
 3040TIP3   OH230678   2.272   2.494   7.846  0.2725  0.1011 -0.5510
 3040TIP3    H130679   2.200   2.474   7.787  0.4454  0.3062 -0.8354
 3040TIP3    H230680   2.303   2.580   7.818  1.4671 -0.5396 -1.2852
 3041TIP3   OH230681   6.315   5.958   8.270  0.6090 -0.9402  0.6527
 3041TIP3    H130682   6.237   5.920   8.230 -1.5038  1.7280  1.8922
 3041TIP3    H230683   6.334   5.901   8.345 -0.2821 -1.5532  0.4281
 3042TIP3   OH230684   5.397   6.341   0.582  0.4805 -0.5637 -0.4316
 3042TIP3    H130685   5.368   6.374   0.666  2.1451 -1.2060  0.4390
 3042TIP3    H230686   5.493   6.342   0.587  0.6095 -1.7984 -1.8334
 3043TIP3   OH230687   0.040   2.425   0.014 -0.0405  0.5784  0.3487
 3043TIP3    H130688   0.096   2.499   0.041  0.3726  1.3447 -2.3493
 3043TIP3    H230689   0.101   2.356  -0.009 -0.4106 -0.2947  1.8337
 3044TIP3   OH230690   4.355   4.794   7.573 -0.4322  0.4554  0.4319
 3044TIP3    H130691   4.265   4.794   7.607 -0.7425  1.7073 -0.3391
 3044TIP3    H230692   4.360   4.714   7.521 -1.1942  0.5111  0.2598
 3045TIP3   OH230693   2.875   5.020   1.905 -0.0194 -0.4169 -0.4711
 3045TIP3    H130694   2.873   4.924   1.910 -0.2482 -0.3782  0.4261
 3045TIP3    H230695   2.790   5.048   1.938  0.9043  0.1388  1.6669
 3046TIP3   OH230696   3.146   6.046   2.213 -0.0028 -0.3245  0.3185
 3046TIP3    H130697   3.075   6.101   2.179 -0.3481 -0.5103  0.7201
 3046TIP3    H230698   3.101   5.980   2.267  0.3246 -1.5495 -0.8506
 3047TIP3   OH230699   4.777   2.406   8.178 -0.1407  0.2891 -0.4167
 3047TIP3    H130700   4.872   2.413   8.176 -0.2200  1.5694 -1.2517
 3047TIP3    H230701   4.747   2.494   8.201 -1.1194 -0.0933 -0.1807
 3048TIP3   OH230702   5.905   6.164   7.924 -0.4840 -0.0998 -0.3381
 3048TIP3    H130703   5.848   6.150   7.849 -0.7940 -2.0211  0.1927
 3048TIP3    H230704   5.848   6.203   7.991 -0.7521 -0.4111 -0.3851
 3049TIP3   OH230705   3.503   2.998   8.881  0.2618 -0.0544  0.1842
 3049TIP3    H130706   3.462   3.013   8.966 -1.2275  1.6942 -0.7585
 3049TIP3    H230707   3.579   3.056   8.880  0.8207 -0.7730  0.6643
 3050TIP3   OH230708   1.520   2.385   2.409  0.1158 -0.1684  0.3618
 3050TIP3    H130709   1.434   2.352   2.382  0.2079 -0.2245  0.1407
 3050TIP3    H230710   1.562   2.412   2.327  0.9472 -1.6212  0.2940
 3051TIP3   OH230711   4.185   1.192   8.560  0.3718 -0.1059 -0.3671
 3051TIP3    H130712   4.155   1.283   8.551  1.7367  0.5413  1.2037
 3051TIP3    H230713   4.109   1.145   8.595  0.0774  0.7381  0.1683
 3052TIP3   OH230714   4.062   4.837   1.762 -0.6942  0.0144 -0.0843
 3052TIP3    H130715   4.000   4.872   1.827 -1.2339 -0.7393 -0.1876
 3052TIP3    H230716   4.010   4.829   1.682 -0.0908  0.7135 -0.5588
 3053TIP3   OH230717   2.147   2.866   8.931 -0.0454 -0.2369 -0.0084
 3053TIP3    H130718   2.095   2.901   8.859 -0.2390 -0.2848  0.1074
 3053TIP3    H230719   2.238   2.878   8.903 -0.0789  1.1993  0.4274
 3054TIP3   OH230720   5.105   1.829   1.669  0.6722 -0.1058 -0.6460
 3054TIP3    H130721   5.055   1.776   1.607  1.0410 -1.5692  0.2727
 3054TIP3    H230722   5.191   1.788   1.673  0.2908 -0.8056  1.7250
 3055TIP3   OH230723   1.645   1.188   8.899 -0.0626 -0.0571 -0.1591
 3055TIP3    H130724   1.689   1.215   8.979  0.0154 -0.1123 -0.1832
 3055TIP3    H230725   1.570   1.247   8.891  0.9246  1.1380 -0.9855
 3056TIP3   OH230726   0.366   5.957   1.837 -0.0911 -0.4554  0.7544
 3056TIP3    H130727   0.434   6.012   1.797  0.9617 -1.5344  1.0290
 3056TIP3    H230728   0.287   5.978   1.787  0.1052  1.7843  1.2646
 3057TIP3   OH230729   6.159   6.336   7.834 -0.8333 -0.4563 -0.0501
 3057TIP3    H130730   6.083   6.391   7.852 -0.4438  0.2399 -0.5251
 3057TIP3    H230731   6.157   6.322   7.739 -0.2928 -0.3313 -0.0807
 3058TIP3   OH230732   2.883   4.154   8.853  0.2166 -0.5001  0.0018
 3058TIP3    H130733   2.867   4.146   8.947  0.8179 -0.5628  0.1059
 3058TIP3    H230734   2.901   4.247   8.839  0.6045 -0.5653  0.0365
 3059TIP3   OH230735   1.760   1.371   0.726  0.2915  0.7136 -0.6106
 3059TIP3    H130736   1.745   1.383   0.820 -0.5163  1.3790 -0.8066
 3059TIP3    H230737   1.846   1.330   0.720  0.3971  0.7578  0.4144
 3060TIP3   OH230738   4.314   5.140   2.550 -0.1835 -0.1037 -0.0302
 3060TIP3    H130739   4.337   5.073   2.615 -2.6112  0.1267  1.2011
 3060TIP3    H230740   4.332   5.223   2.594 -0.7279  0.0421 -0.0687
 3061TIP3   OH230741   6.499   6.364   0.606  0.6152 -0.4465  0.0908
 3061TIP3    H130742   6.486   6.365   0.511  0.6946 -4.8906 -0.1711
 3061TIP3    H230743   6.595   6.363   0.617  0.6058 -0.9655  0.1425
 3062TIP3   OH230744   4.133   0.584   2.431 -0.0991  0.1536  0.5421
 3062TIP3    H130745   4.186   0.569   2.508  0.1579  2.1364  0.7908
 3062TIP3    H230746   4.129   0.679   2.422 -0.0239 -0.0139 -1.9469
 3063TIP3   OH230747   4.985   5.262   0.999  0.0316 -0.5121 -0.2138
 3063TIP3    H130748   5.020   5.176   0.976 -0.3095 -0.8255  0.3975
 3063TIP3    H230749   5.019   5.278   1.087 -0.1525 -0.1566 -0.2083
 3064TIP3   OH230750   2.424   3.286   1.892  0.2798  0.5047 -0.1009
 3064TIP3    H130751   2.433   3.358   1.830 -2.6105 -0.2008 -1.5097
 3064TIP3    H230752   2.393   3.327   1.973 -2.8858  0.8328 -1.3539
 3065TIP3   OH230753   4.434   3.384   8.867 -0.6335 -0.1493  0.1980
 3065TIP3    H130754   4.479   3.379   8.951 -3.0954  1.0200  1.7071
 3065TIP3    H230755   4.402   3.296   8.851  1.8501 -0.9642 -0.8258
 3066TIP3   OH230756   0.281   3.323   8.643  0.0653  0.9956 -0.0835
 3066TIP3    H130757   0.203   3.274   8.621 -0.4899  2.9222 -2.8898
 3066TIP3    H230758   0.248   3.401   8.689  0.6951  0.2499  1.7415
 3067TIP3   OH230759   1.274   3.300   0.035 -0.0567 -0.4276  0.1784
 3067TIP3    H130760   1.296   3.344   0.117 -0.5457  2.1308 -0.9462
 3067TIP3    H230761   1.350   3.315  -0.021 -0.9953  0.7714 -0.8488
 3068TIP3   OH230762   5.826   1.299   0.036  0.0560 -0.3598 -0.3831
 3068TIP3    H130763   5.834   1.359  -0.039  0.8311  0.7081  0.5207
 3068TIP3    H230764   5.793   1.354   0.107 -2.8526 -1.8139 -0.4464
 3069TIP3   OH230765   5.380   1.758   2.162  0.2768  0.2904  0.3363
 3069TIP3    H130766   5.467   1.774   2.199  0.5779 -0.5293  0.0227
 3069TIP3    H230767   5.367   1.828   2.099  1.5277 -0.5956 -0.9796
 3070TIP3   OH230768   4.081   0.734   0.330 -0.0636 -0.0822  0.5350
 3070TIP3    H130769   4.090   0.763   0.420  0.2464  1.3265  0.0713
 3070TIP3    H230770   4.049   0.810   0.282  1.1626 -0.3404 -0.7995
 3071TIP3   OH230771   6.447   0.123   7.990  0.5493 -0.2513  0.3271
 3071TIP3    H130772   6.511   0.175   7.941 -0.9212  0.9878 -0.3681
 3071TIP3    H230773   6.378   0.104   7.926 -2.0557  2.4739  2.0890
 3072TIP3   OH230774   5.719   2.660   0.231  0.2343 -0.3963 -0.7453
 3072TIP3    H130775   5.709   2.614   0.148  0.4557 -1.6948 -0.0695
 3072TIP3    H230776   5.630   2.669   0.265  0.2287 -0.7388 -0.6669
 3073TIP3   OH230777   5.338   4.601   8.218  0.1032  0.5295 -0.2384
 3073TIP3    H130778   5.324   4.669   8.152  0.9448  0.6140 -0.3505
 3073TIP3    H230779   5.273   4.534   8.199  2.2078 -0.9086 -3.1299
 3074TIP3   OH230780   2.643   4.675   8.893 -0.0048  0.1037  0.2954
 3074TIP3    H130781   2.674   4.731   8.965 -0.2761 -1.8569  2.0537
 3074TIP3    H230782   2.701   4.696   8.820  0.5354  1.9242  1.1878
 3075TIP3   OH230783   4.299   1.757   7.414  0.8276  0.0362 -0.7318
 3075TIP3    H130784   4.368   1.807   7.457  0.8138  0.2811 -0.9898
 3075TIP3    H230785   4.346   1.696   7.357  0.8439 -0.2348 -0.4339
 3076TIP3   OH230786   3.217   3.331   1.723 -0.2734 -0.6365  0.2623
 3076TIP3    H130787   3.167   3.361   1.648 -2.3663 -0.6870  1.5724
 3076TIP3    H230788   3.279   3.268   1.686  1.6471  2.2755 -1.9818
 3077TIP3   OH230789   4.676   2.683   8.438 -0.6371  0.4934  0.1090
 3077TIP3    H130790   4.628   2.617   8.487 -0.6144  0.4189  0.0312
 3077TIP3    H230791   4.647   2.672   8.347 -0.9240  0.8471  0.1537
 3078TIP3   OH230792   5.612   5.443   8.923  0.1041 -0.4244 -0.0121
 3078TIP3    H130793   5.689   5.485   8.962 -0.5601 -0.7095  1.6798
 3078TIP3    H230794   5.634   5.350   8.921 -0.0554 -0.4658  0.1425
 3079TIP3   OH230795   0.218   5.158   2.106  0.0480 -0.5912  0.1685
 3079TIP3    H130796   0.258   5.093   2.163 -1.4814 -0.1884  1.8073
 3079TIP3    H230797   0.174   5.218   2.166 -0.9692  0.3198 -1.4216
 3080TIP3   OH230798   1.121   6.066   8.975  0.2071  0.4376 -0.3575
 3080TIP3    H130799   1.082   6.016   9.047  1.3657 -1.0717 -0.7191
 3080TIP3    H230800   1.215   6.056   8.987  0.4675 -1.1699 -2.8914
 3081TIP3   OH230801   1.050   0.784   1.190  0.0035 -0.1032  0.1037
 3081TIP3    H130802   1.119   0.814   1.250 -0.8455  1.0471  0.5363
 3081TIP3    H230803   1.044   0.690   1.207  1.1214 -0.1347  0.4128
 3082TIP3   OH230804   4.134   1.464   2.080  0.1567 -0.4241 -0.6430
 3082TIP3    H130805   4.157   1.557   2.082  1.2741 -0.6810 -1.2116
 3082TIP3    H230806   4.140   1.440   1.987 -1.4626 -0.7484 -0.6923
 3083TIP3   OH230807   3.143   0.301   0.819 -0.2669 -0.5442 -0.7532
 3083TIP3    H130808   3.168   0.393   0.817  0.4741 -0.7399 -1.1831
 3083TIP3    H230809   3.133   0.277   0.726  0.3513 -1.0887 -0.6970
 3084TIP3   OH230810   4.779   3.036   1.584  0.6723 -0.1484 -0.3305
 3084TIP3    H130811   4.689   3.052   1.612  0.0736 -3.4230  0.1187
 3084TIP3    H230812   4.776   3.040   1.489  0.3413  0.8521 -0.2917
 3085TIP3   OH230813   1.723   2.633   0.629 -0.3992 -0.9638  0.7300
 3085TIP3    H130814   1.786   2.598   0.566  0.3497  0.9306  0.3466
 3085TIP3    H230815   1.655   2.672   0.574  0.6660  1.4333  0.9735
 3086TIP3   OH230816   3.926   4.218   0.772 -0.1889  0.1439  0.0805
 3086TIP3    H130817   3.986   4.269   0.825 -1.1102  0.0750  1.2459
 3086TIP3    H230818   3.896   4.148   0.830 -1.4076  0.1973 -0.4354
 3087TIP3   OH230819   0.643   1.972   0.075  0.4677  0.3464  0.4612
 3087TIP3    H130820   0.628   2.066   0.088  2.2397  1.0319 -1.7112
 3087TIP3    H230821   0.559   1.939   0.042 -0.1364  1.1847  1.1046
 3088TIP3   OH230822   0.483   0.832   8.489 -0.1860 -0.5830 -0.7748
 3088TIP3    H130823   0.513   0.772   8.422 -0.1886 -2.6780  1.0031
 3088TIP3    H230824   0.489   0.783   8.571  0.0091  1.9143  0.8272
 3089TIP3   OH230825   0.453   5.839   2.839  0.0722 -0.1704  0.3089
 3089TIP3    H130826   0.363   5.846   2.871  0.0053  1.3608 -0.1252
 3089TIP3    H230827   0.474   5.746   2.846 -1.7750 -0.6671 -0.1843
 3090TIP3   OH230828   3.636   3.352   7.737  0.8584  0.1291 -0.1784
 3090TIP3    H130829   3.670   3.325   7.652  1.4381 -2.2006  0.7211
 3090TIP3    H230830   3.541   3.359   7.725  0.3986 -3.9063 -0.2341
 3091TIP3   OH230831   3.845   6.212   1.191  0.1418 -0.2653 -0.1941
 3091TIP3    H130832   3.758   6.178   1.214  0.6109 -0.1333  1.9647
 3091TIP3    H230833   3.837   6.306   1.201  0.5969 -0.2713  0.2262
 3092TIP3   OH230834   4.293   3.706   9.456  0.3566  0.6239  0.0673
 3092TIP3    H130835   4.312   3.796   9.431 -0.6213  1.1051  0.9479
 3092TIP3    H230836   4.351   3.688   9.530 -0.6770  1.1881  1.0610
 3093TIP3   OH230837   4.310   5.546   1.582 -0.5121  0.2755  0.1353
 3093TIP3    H130838   4.373   5.573   1.515  0.4098 -1.1889  0.3600
 3093TIP3    H230839   4.345   5.581   1.664  0.3855 -1.0735  0.3499
 3094TIP3   OH230840   1.305   0.062   2.556  0.8768 -0.6617 -0.0868
 3094TIP3    H130841   1.269   0.150   2.542  0.2939 -0.7932  0.5230
 3094TIP3    H230842   1.346   0.039   2.473 -0.9790 -0.7510 -1.0035
 3095TIP3   OH230843   5.957   6.401   9.022  0.4499 -0.2317 -0.0016
 3095TIP3    H130844   6.034   6.345   9.030 -0.0899 -0.7713  2.4934
 3095TIP3    H230845   5.984   6.483   9.064 -0.0553 -0.1257  0.1188
 3096TIP3   OH230846   1.677   2.899   1.329 -0.0285  0.2601  0.2676
 3096TIP3    H130847   1.751   2.893   1.389  0.3278  0.5484 -0.1346
 3096TIP3    H230848   1.663   2.993   1.317 -0.1651  0.2045 -0.0153
 3097TIP3   OH230849   3.035   6.126   7.628 -0.0242  0.0695 -0.2852
 3097TIP3    H130850   3.115   6.075   7.635 -0.8526 -1.1173  1.4333
 3097TIP3    H230851   2.985   6.084   7.558 -0.0547 -0.5579  0.1072
 3098TIP3   OH230852   0.282   1.951   8.945 -0.0744  0.3954  0.3449
 3098TIP3    H130853   0.224   2.019   8.909 -1.5598 -1.7312 -1.6037
 3098TIP3    H230854   0.352   1.943   8.880  0.1115  0.0722  0.5840
 3099TIP3   OH230855   3.787   2.921   1.047 -0.4514  0.9213 -0.2526
 3099TIP3    H130856   3.767   2.856   0.981 -0.5928  2.6608 -2.0239
 3099TIP3    H230857   3.875   2.952   1.026 -0.4399  1.4124  0.4438
 3100TIP3   OH230858   2.546   6.126   2.818 -0.5027  0.4300  0.5592
 3100TIP3    H130859   2.572   6.162   2.903 -2.3396  0.6846  1.0638
 3100TIP3    H230860   2.543   6.031   2.831 -0.2681  0.4303  0.6170
 3101TIP3   OH230861   6.190   1.560   8.548 -0.3616 -0.0777  0.0935
 3101TIP3    H130862   6.235   1.600   8.474  0.1424  0.8398  0.8746
 3101TIP3    H230863   6.098   1.584   8.536 -0.3017 -0.0322 -0.2904
 3102TIP3   OH230864   0.887   4.429   2.733 -0.1551  0.3150 -0.0021
 3102TIP3    H130865   0.803   4.432   2.688  0.2121  1.5369 -0.6558
 3102TIP3    H230866   0.929   4.350   2.700 -1.5563 -1.0733  1.3409
 3103TIP3   OH230867   6.023   1.750   8.416 -0.0640  0.4628  0.0266
 3103TIP3    H130868   5.945   1.695   8.425  0.9355 -0.9772  0.2783
 3103TIP3    H230869   6.034   1.763   8.322 -0.7105  0.8505  0.0014
 3104TIP3   OH230870   3.059   1.687   1.168  0.6479  0.0222 -0.6308
 3104TIP3    H130871   3.119   1.759   1.146  2.3890 -0.6504  1.4892
 3104TIP3    H230872   2.973   1.717   1.138  1.3351  2.8896 -0.0211
 3105TIP3   OH230873   0.943   3.971   9.019 -0.6155  0.3383  0.5256
 3105TIP3    H130874   0.909   3.930   8.940  1.6971  1.7010 -1.3037
 3105TIP3    H230875   1.027   3.926   9.034  0.4860  2.2100  0.2754
 3106TIP3   OH230876   2.559   1.948   2.155  0.2479  0.2981 -0.3190
 3106TIP3    H130877   2.524   1.887   2.221  1.9101  0.3779  0.7077
 3106TIP3    H230878   2.549   1.901   2.072  0.8631 -1.1247  0.3677
 3107TIP3   OH230879   2.506   4.528   9.569  0.1505 -0.0066  0.3161
 3107TIP3    H130880   2.419   4.556   9.597 -0.0369  1.5518 -1.5834
 3107TIP3    H230881   2.492   4.444   9.525 -0.1387 -0.4836  1.2929
 3108TIP3   OH230882   6.149   4.592   9.091 -0.3592  0.4232  0.5958
 3108TIP3    H130883   6.206   4.517   9.108 -2.0261 -1.1239 -0.2401
 3108TIP3    H230884   6.124   4.624   9.177  0.7160  0.3099  0.9606
 3109TIP3   OH230885   4.861   1.680   7.794 -0.1486  0.4284 -0.3328
 3109TIP3    H130886   4.776   1.672   7.837  0.5384 -0.4899  0.9415
 3109TIP3    H230887   4.887   1.589   7.777  0.5510  0.7016 -0.7514
 3110TIP3   OH230888   5.769   2.477   0.016  0.0441 -0.7048  0.0191
 3110TIP3    H130889   5.818   2.441  -0.058 -0.1354 -0.2502 -0.3205
 3110TIP3    H230890   5.678   2.453  -0.000 -0.4279  1.6821 -1.3295
 3111TIP3   OH230891   3.769   0.859   7.668 -0.5024 -0.1899  0.1185
 3111TIP3    H130892   3.689   0.912   7.664 -0.9075 -0.7572  0.5172
 3111TIP3    H230893   3.783   0.831   7.578 -0.9754 -0.3972  0.1023
 3112TIP3   OH230894   0.916   0.977   1.900 -0.5736 -0.2424  0.6995
 3112TIP3    H130895   0.938   1.013   1.814  0.0409 -1.2404  0.4217
 3112TIP3    H230896   0.995   0.988   1.952 -1.2206  1.1456  1.4265
 3113TIP3   OH230897   5.639   0.033   8.194 -0.2077  0.5430  0.0448
 3113TIP3    H130898   5.654   0.040   8.100  0.2472  1.3732  0.1770
 3113TIP3    H230899   5.566   0.093   8.211 -1.1183 -0.5167  0.0414
 3114TIP3   OH230900   6.377   1.214   1.009 -0.5212  0.8416  0.4745
 3114TIP3    H130901   6.408   1.286   1.063  1.4180  0.2750  0.1749
 3114TIP3    H230902   6.454   1.161   0.992 -2.1028 -2.2486  2.0285
 3115TIP3   OH230903   2.058   2.252   8.251 -0.0980 -0.5503  0.0895
 3115TIP3    H130904   2.008   2.170   8.249 -0.2915 -0.4482  0.6754
 3115TIP3    H230905   2.122   2.238   8.321  1.5486 -1.1745 -1.4566
 3116TIP3   OH230906   5.625   5.120   9.039 -0.1806  0.2924 -0.1596
 3116TIP3    H130907   5.698   5.176   9.012  0.0249  0.6157  1.0195
 3116TIP3    H230908   5.653   5.031   9.019  0.6913  0.3875  0.6137
 3117TIP3   OH230909   0.974   0.980   7.719 -0.1013 -0.1804 -0.4793
 3117TIP3    H130910   0.939   1.015   7.637  1.9733 -0.6751 -1.6333
 3117TIP3    H230911   1.069   0.981   7.708  0.2206 -0.8666  1.6795
 3118TIP3   OH230912   3.059   1.893   8.736 -0.4058  0.4017 -0.2082
 3118TIP3    H130913   2.990   1.949   8.700  1.1847  2.7149  0.1046
 3118TIP3    H230914   3.102   1.857   8.659 -0.2743  1.1521 -0.4994
 3119TIP3   OH230915   5.194   0.396   1.995 -0.3374  0.7980 -0.4415
 3119TIP3    H130916   5.209   0.338   2.070  1.8133  1.1678 -0.5115
 3119TIP3    H230917   5.099   0.398   1.985 -0.5510 -1.6116  0.4198
 3120TIP3   OH230918   2.261   2.870   1.070  0.0308  0.4133 -0.2441
 3120TIP3    H130919   2.320   2.827   1.007  1.0677  0.8320  0.4157
 3120TIP3    H230920   2.184   2.892   1.018  0.0446 -0.9889 -0.9193
 3121TIP3   OH230921   5.594   5.976   0.468 -0.3806  0.4174  0.2419
 3121TIP3    H130922   5.539   5.902   0.441  2.6644 -2.0298  0.2723
 3121TIP3    H230923   5.673   5.969   0.415  0.9844  2.3287  1.8394
 3122TIP3   OH230924   2.979   4.702   0.250 -0.4787  0.3694  0.3731
 3122TIP3    H130925   2.902   4.700   0.307 -0.7295 -0.1927  0.0241
 3122TIP3    H230926   3.003   4.610   0.239 -1.3726  0.3247 -1.6702
 3123TIP3   OH230927   0.741   4.235   1.631 -0.1583 -0.1508  0.0393
 3123TIP3    H130928   0.690   4.161   1.665  0.0447 -0.8424 -1.1321
 3123TIP3    H230929   0.797   4.261   1.705 -1.5666  0.0865  1.0780
 3124TIP3   OH230930   2.216   2.574   8.446 -0.5881  0.0058 -0.7629
 3124TIP3    H130931   2.229   2.623   8.528  1.2652 -1.4606 -0.0732
 3124TIP3    H230932   2.299   2.585   8.399 -1.2612 -0.0111 -1.9647
 3125TIP3   OH230933   3.273   5.572   7.708 -0.2874 -0.1432  0.4858
 3125TIP3    H130934   3.280   5.610   7.621 -0.2784 -1.8664 -0.3089
 3125TIP3    H230935   3.338   5.619   7.760 -1.4503  2.0726  0.0492
 3126TIP3   OH230936   3.861   2.998   8.574  0.3533 -0.3924 -0.2154
 3126TIP3    H130937   3.889   3.034   8.490 -0.6358  2.2068  0.4622
 3126TIP3    H230938   3.905   3.053   8.640 -2.2774  0.5813  0.8717
 3127TIP3   OH230939   0.475   3.706   6.941 -0.5355 -0.1286 -0.6630
 3127TIP3    H130940   0.548   3.757   6.975 -2.2184  0.8737  1.7050
 3127TIP3    H230941   0.409   3.770   6.915 -1.9217 -1.0035  0.5196
 3128TIP3   OH230942   3.002   6.272   0.120 -0.5757  0.0133 -0.1249
 3128TIP3    H130943   2.938   6.305   0.183 -2.2902 -1.0765 -1.2147
 3128TIP3    H230944   3.048   6.351   0.090 -1.0169  0.7605  1.0739
 3129TIP3   OH230945   1.591   6.394   8.245 -0.7572  0.3662  0.1796
 3129TIP3    H130946   1.562   6.469   8.297 -0.4440  0.1702  0.6326
 3129TIP3    H230947   1.553   6.410   8.158  0.8968  2.0343 -0.2839
 3130TIP3   OH230948   5.252   4.392   9.140  0.1459 -0.3741 -0.4323
 3130TIP3    H130949   5.189   4.340   9.090 -0.3609  0.7229 -0.9871
 3130TIP3    H230950   5.309   4.431   9.073 -0.6303  1.2314 -0.2143
 3131TIP3   OH230951   2.034   2.884   0.937  0.2171 -0.5849 -0.1983
 3131TIP3    H130952   1.985   2.818   0.887 -0.2670  0.9389 -1.8591
 3131TIP3    H230953   1.967   2.936   0.981  0.3509  0.7180 -1.4514
 3132TIP3   OH230954   5.082   2.820   1.018 -0.0382  0.5619  0.7915
 3132TIP3    H130955   5.035   2.767   1.083  0.7980  0.3709  1.2597
 3132TIP3    H230956   5.014   2.868   0.972 -0.8251 -0.9308  0.3439
 3133TIP3   OH230957   2.871   2.506   0.383  0.3364  0.0353 -0.3753
 3133TIP3    H130958   2.846   2.487   0.292 -0.0371 -0.9027 -0.0869
 3133TIP3    H230959   2.791   2.538   0.424  0.0254 -1.2418  0.0724
 3134TIP3   OH230960   3.662   1.162   1.240 -0.3927 -0.2156  0.1391
 3134TIP3    H130961   3.678   1.256   1.244  0.6491 -0.3405 -0.6607
 3134TIP3    H230962   3.654   1.143   1.147  3.7577 -1.5272 -0.1738
 3135TIP3   OH230963   1.042   5.309   1.811 -0.6030  0.1488 -0.1770
 3135TIP3    H130964   0.974   5.375   1.830 -0.0472  0.8188 -0.4521
 3135TIP3    H230965   1.081   5.339   1.729  0.6647  0.3106  0.4658
 3136TIP3   OH230966   3.850   0.511   2.419  0.2411 -0.2986  0.2003
 3136TIP3    H130967   3.937   0.543   2.440 -0.9825  1.5729  3.0136
 3136TIP3    H230968   3.831   0.547   2.332  0.7276  2.8987  1.3089
 3137TIP3   OH230969   0.538   0.919   9.330  0.0273 -0.0840  0.2722
 3137TIP3    H130970   0.503   0.873   9.407  1.4776 -0.0761  0.9558
 3137TIP3    H230971   0.631   0.929   9.348  0.0505  1.6324 -0.6360
 3138TIP3   OH230972   2.066   1.772   7.574 -0.9676 -0.8519  0.3578
 3138TIP3    H130973   2.029   1.856   7.548 -1.1759 -1.0207  0.0934
 3138TIP3    H230974   2.002   1.708   7.543 -0.6063 -1.1300  0.1842
 3139TIP3   OH230975   5.281   0.982   2.160 -0.9279 -0.8645  0.2665
 3139TIP3    H130976   5.208   1.003   2.218  0.0782 -0.0657  1.3081
 3139TIP3    H230977   5.346   1.050   2.178  0.4651 -2.0922  0.0892
 3140TIP3   OH230978   2.319   4.478   1.420 -0.0316 -0.2393  0.8292
 3140TIP3    H130979   2.249   4.433   1.374 -0.0186 -0.1055  0.6774
 3140TIP3    H230980   2.323   4.436   1.506 -0.4940 -0.0564  0.9446
 3141TIP3   OH230981   3.936   0.118   2.873  0.0707 -0.2199 -0.2638
 3141TIP3    H130982   3.981   0.082   2.948  1.1472  1.0012 -0.2954
 3141TIP3    H230983   3.973   0.205   2.861 -1.3385  0.3106 -1.1274
 3142TIP3   OH230984   5.496   0.138   7.258  0.0184  0.1702  0.0566
 3142TIP3    H130985   5.557   0.077   7.216  0.1513  0.3290  0.0181
 3142TIP3    H230986   5.456   0.186   7.186 -0.6862 -0.4311  0.0375
 3143TIP3   OH230987   4.751   2.841   9.509 -0.0489  0.4865  0.2573
 3143TIP3    H130988   4.764   2.795   9.592  0.6733 -1.9901 -1.1482
 3143TIP3    H230989   4.659   2.827   9.488 -0.1000  0.6530  0.3675
 3144TIP3   OH230990   2.604   3.601   9.288 -0.2539  0.1342  0.2105
 3144TIP3    H130991   2.515   3.567   9.288 -0.4611  0.6560 -0.4611
 3144TIP3    H230992   2.620   3.626   9.197  0.4338  0.4195  0.4035
 3145TIP3   OH230993   3.448   6.326   0.651  0.0965 -0.4763  0.4936
 3145TIP3    H130994   3.494   6.353   0.730 -1.0590 -0.2588  1.1045
 3145TIP3    H230995   3.398   6.248   0.677  1.3398 -1.6813 -0.5749
 3146TIP3   OH230996   3.387   4.951   1.361  0.1133 -0.4239  0.2524
 3146TIP3    H130997   3.426   5.005   1.430  1.9033  0.8079 -1.5937
 3146TIP3    H230998   3.302   4.991   1.344  0.4589  0.4148  0.4537
 3147TIP3   OH230999   4.483   4.321   9.249 -0.5728 -0.1062 -0.2334
 3147TIP3    H131000   4.533   4.354   9.323  0.9357 -1.5545 -0.5443
 3147TIP3    H231001   4.549   4.301   9.182 -1.8387  0.6397 -1.7813
 3148TIP3   OH231002   1.185   5.044   0.303 -0.1506 -0.3802 -0.4723
 3148TIP3    H131003   1.196   5.139   0.297 -0.1715 -0.4085 -0.9491
 3148TIP3    H231004   1.271   5.012   0.330 -0.6196 -0.0605  1.6144
 3149TIP3   OH231005   4.039   6.193   0.767  0.0245 -0.0223 -0.4636
 3149TIP3    H131006   4.013   6.161   0.854  1.0160 -1.2930 -0.6114
 3149TIP3    H231007   4.131   6.168   0.759 -0.5796 -1.8664 -2.7110
 3150TIP3   OH231008   3.654   6.051   1.772  0.2518 -0.3735 -0.0896
 3150TIP3    H131009   3.726   5.996   1.804  0.2215 -0.8813 -0.8823
 3150TIP3    H231010   3.697   6.115   1.716 -0.0238 -1.3791 -1.4827
 3151TIP3   OH231011   4.241   3.889   8.597  0.4048  0.3292 -0.3936
 3151TIP3    H131012   4.239   3.947   8.673  1.4123  0.5116 -0.4943
 3151TIP3    H231013   4.169   3.827   8.612 -0.4331  1.3465 -0.0875
 3152TIP3   OH231014   2.336   1.469   9.272  0.2916  0.3809 -0.5244
 3152TIP3    H131015   2.278   1.479   9.347  0.5674 -0.2780 -0.2181
 3152TIP3    H231016   2.396   1.544   9.278  0.3634  0.2846 -0.0443
 3153TIP3   OH231017   0.684   3.114   0.511 -0.0771  0.3998 -0.7208
 3153TIP3    H131018   0.752   3.081   0.451 -1.5290  0.8663 -2.7291
 3153TIP3    H231019   0.639   3.035   0.540  0.2274  0.2042 -0.7732
 3154TIP3   OH231020   5.018   5.629   0.612  0.3726 -0.0626 -0.0715
 3154TIP3    H131021   5.058   5.608   0.697 -0.9373  1.1016  0.8799
 3154TIP3    H231022   5.015   5.724   0.609 -1.6396 -0.0843 -0.3823
 3155TIP3   OH231023   2.841   2.976   7.087 -0.2922  0.2224  0.0247
 3155TIP3    H131024   2.806   2.931   7.010  0.9249  0.4606 -0.6941
 3155TIP3    H231025   2.845   2.909   7.155  0.5663 -0.5253 -0.7393
 3156TIP3   OH231026   4.660   0.077   0.831  0.3312  0.5378 -0.0637
 3156TIP3    H131027   4.595   0.139   0.866  0.2846  0.6767 -0.3895
 3156TIP3    H231028   4.626  -0.009   0.855  0.2007  0.6224  0.0639
 3157TIP3   OH231029   4.567   5.497   7.248 -0.1493 -0.3209  0.1580
 3157TIP3    H131030   4.563   5.467   7.157  0.5976 -0.3359  0.1253
 3157TIP3    H231031   4.661   5.499   7.269 -0.1315  1.9266  0.1804
 3158TIP3   OH231032   3.488   2.523   0.688  0.0433  0.1941  0.4293
 3158TIP3    H131033   3.560   2.475   0.729 -0.2213  0.0491  0.7317
 3158TIP3    H231034   3.421   2.456   0.673 -1.2712  0.8089  2.9497
 3159TIP3   OH231035   5.590   1.002   7.385  0.3286  0.2272  0.0161
 3159TIP3    H131036   5.534   1.076   7.362 -0.3137 -0.3746 -0.3852
 3159TIP3    H231037   5.534   0.944   7.436  0.9401  0.1905  0.6703
 3160TIP3   OH231038   2.479   3.567   0.565  0.6094  0.0357  0.3553
 3160TIP3    H131039   2.522   3.526   0.490  0.2893 -1.3369  0.8752
 3160TIP3    H231040   2.387   3.544   0.555  0.1112  2.0795 -0.2030
 3161TIP3   OH231041   1.924   6.026   9.546  0.2015 -0.3447  0.8305
 3161TIP3    H131042   1.990   6.094   9.561 -0.5532  0.4133  0.8186
 3161TIP3    H231043   1.861   6.038   9.617  1.0107 -2.2810  1.9674
 3162TIP3   OH231044   1.935   6.294   8.675 -0.7798  0.0135 -0.1305
 3162TIP3    H131045   2.009   6.349   8.648  0.5438 -2.5284 -2.1518
 3162TIP3    H231046   1.861   6.328   8.626 -0.0488  0.1674 -1.1564
 3163TIP3   OH231047   4.455   1.194   1.974  0.6978 -0.2988 -0.3496
 3163TIP3    H131048   4.544   1.215   2.004  0.9630  0.2400 -1.4449
 3163TIP3    H231049   4.398   1.232   2.040  1.2821 -0.7070  0.4032
 3164TIP3   OH231050   1.943   2.115   2.359 -0.1474 -0.3976  0.4757
 3164TIP3    H131051   1.897   2.079   2.435  0.1094 -5.0221 -1.1925
 3164TIP3    H231052   1.873   2.130   2.294  0.0614 -3.1752 -0.5469
 3165TIP3   OH231053   5.373   5.907   1.634 -0.3364 -0.4191  0.0455
 3165TIP3    H131054   5.324   5.838   1.679 -0.8614 -0.7625 -1.0278
 3165TIP3    H231055   5.464   5.877   1.635 -0.8576 -2.4924 -2.7054
 3166TIP3   OH231056   4.666   1.477   8.198  0.3229  0.0501 -0.0177
 3166TIP3    H131057   4.648   1.384   8.186 -0.5574  0.2776 -0.5840
 3166TIP3    H231058   4.683   1.486   8.292  0.5657 -0.7043  0.0158
 3167TIP3   OH231059   6.041   5.698   9.111  0.1949 -0.0020  0.0743
 3167TIP3    H131060   5.979   5.691   9.183 -0.2885  0.1648 -0.3240
 3167TIP3    H231061   6.094   5.774   9.133 -2.1033  2.1531 -1.3611
 3168TIP3   OH231062   3.855   1.345   8.565 -0.6486  0.2666 -0.4035
 3168TIP3    H131063   3.779   1.368   8.512  1.6390  2.3698 -3.0764
 3168TIP3    H231064   3.860   1.414   8.631 -1.0513  0.1071 -0.2033
 3169TIP3   OH231065   1.512   3.370   1.662  0.0384 -0.5456 -0.2135
 3169TIP3    H131066   1.432   3.325   1.689  0.0940 -1.1043 -0.9154
 3169TIP3    H231067   1.541   3.321   1.584  0.5190  0.2560 -0.5515
 3170TIP3   OH231068   1.966   5.276   9.085 -0.5441 -0.0152 -0.7183
 3170TIP3    H131069   2.012   5.339   9.140  0.5428 -0.0751 -1.5152
 3170TIP3    H231070   2.016   5.275   9.003 -0.9658 -1.3723 -0.9840
 3171TIP3   OH231071   4.201   6.443   1.441  0.2686  0.4818  0.1164
 3171TIP3    H131072   4.202   6.537   1.421  0.2158  0.5426  0.3915
 3171TIP3    H231073   4.284   6.427   1.487  0.4110  0.3354 -0.1916
 3172TIP3   OH231074   3.911   4.518   8.664  0.3294  0.2390 -0.1194
 3172TIP3    H131075   3.867   4.485   8.586  1.5448 -0.1050 -0.6885
 3172TIP3    H231076   3.840   4.545   8.722 -0.5973  1.7900 -1.8662
 3173TIP3   OH231077   3.733   2.795   1.285 -0.4381 -0.1660  0.0810
 3173TIP3    H131078   3.756   2.828   1.198  1.6236  0.9354  0.9868
 3173TIP3    H231079   3.652   2.842   1.308 -0.2375  0.5655 -0.6692
 3174TIP3   OH231080   4.448   2.031   6.542  0.3187  0.6398  0.1549
 3174TIP3    H131081   4.485   2.092   6.606 -0.3986  1.8020 -0.5141
 3174TIP3    H231082   4.512   1.959   6.539  2.2801  2.2971 -0.5237
 3175TIP3   OH231083   3.567   5.055   9.590  0.0388 -0.0465  0.2388
 3175TIP3    H131084   3.543   5.100   9.509 -0.8032 -0.5691  0.1916
 3175TIP3    H231085   3.519   5.102   9.658 -0.8115 -0.8221  0.1934
 3176TIP3   OH231086   3.458   5.719   7.890 -0.5290 -0.1691  0.5995
 3176TIP3    H131087   3.523   5.651   7.907 -0.9445 -0.8074 -0.3329
 3176TIP3    H231088   3.493   5.796   7.935  0.2354 -0.8305  1.1785
 3177TIP3   OH231089   0.485   1.308   9.176  0.0507  0.6234  0.1061
 3177TIP3    H131090   0.395   1.280   9.193  0.3953 -0.1164  0.8304
 3177TIP3    H231091   0.481   1.354   9.093 -1.1404  1.3282  0.5311
 3178TIP3   OH231092   5.269   4.328   8.242  0.0295  0.6536 -0.1777
 3178TIP3    H131093   5.181   4.325   8.281  0.9989  1.8899  2.3110
 3178TIP3    H231094   5.321   4.269   8.296  1.0790  1.1110 -0.6694
 3179TIP3   OH231095   5.061   2.866   8.834  0.1791 -0.2207 -0.1361
 3179TIP3    H131096   5.033   2.815   8.909 -0.9793  0.5991  0.0179
 3179TIP3    H231097   4.980   2.902   8.797  0.7480 -0.3226 -1.5724
 3180TIP3   OH231098   3.868   3.031   7.660  0.1949  0.1625  0.6683
 3180TIP3    H131099   3.848   3.000   7.749  0.3260  1.2737  1.1107
 3180TIP3    H231100   3.948   3.083   7.671 -1.1121  2.3251  0.3476
 3181TIP3   OH231101   5.517   3.189   1.223  0.0183  0.0192  0.2893
 3181TIP3    H131102   5.531   3.282   1.207 -0.1805  0.0215  0.1192
 3181TIP3    H231103   5.459   3.161   1.152  0.5257 -0.3581  0.0215
 3182TIP3   OH231104   3.796   3.802   9.341  0.0504  0.1027 -1.0154
 3182TIP3    H131105   3.830   3.798   9.251  2.2011  0.4267 -0.2766
 3182TIP3    H231106   3.863   3.849   9.390 -3.1554  4.2671 -0.0795
 3183TIP3   OH231107   1.971   0.449   8.655  0.0717 -0.2065 -0.0135
 3183TIP3    H131108   1.992   0.535   8.693 -1.0665  0.7038 -1.3474
 3183TIP3    H231109   1.902   0.467   8.592  0.0423 -2.0799 -0.5686
 3184TIP3   OH231110   1.506   3.041   0.877  0.0367  0.2423 -0.0905
 3184TIP3    H131111   1.588   3.091   0.878  0.4652 -0.4026 -1.2232
 3184TIP3    H231112   1.459   3.073   0.800 -0.7623  0.5699  0.5224
 3185TIP3   OH231113   1.852   2.037   8.323 -0.4794 -0.1361 -1.0019
 3185TIP3    H131114   1.797   2.033   8.401  0.2811 -0.4369 -0.4741
 3185TIP3    H231115   1.796   2.005   8.252 -1.4235  0.8597 -0.7379
 3186TIP3   OH231116   2.965   5.961   0.382  0.0064 -0.4727  0.4401
 3186TIP3    H131117   2.999   5.969   0.293  2.4375  0.5237  1.3718
 3186TIP3    H231118   2.885   6.014   0.382  0.8262  0.8298 -0.7521
 3187TIP3   OH231119   1.282   0.885   1.307 -0.0606 -0.1165 -0.1694
 3187TIP3    H131120   1.295   0.944   1.233  0.0911  0.6112  0.4185
 3187TIP3    H231121   1.364   0.837   1.315  1.4859  2.5500  1.8721
 3188TIP3   OH231122   3.363   1.046   0.987  0.1201  0.7074  0.1484
 3188TIP3    H131123   3.355   0.987   0.912  0.0618 -0.1834  0.8376
 3188TIP3    H231124   3.441   1.098   0.969  1.0403 -0.6027  0.1974
 3189TIP3   OH231125   0.630   2.401   7.675 -0.4452  0.3930 -0.2170
 3189TIP3    H131126   0.657   2.487   7.642  1.0000 -0.3373 -1.0172
 3189TIP3    H231127   0.652   2.340   7.604  2.4663 -1.2273  1.8719
 3190TIP3   OH231128   0.163   4.641   1.002  0.1396 -0.5501 -0.0050
 3190TIP3    H131129   0.129   4.555   1.026 -0.6403 -0.8724 -2.0779
 3190TIP3    H231130   0.096   4.702   1.033 -0.6184 -0.9128 -0.8940
 3191TIP3   OH231131   3.012   1.951   7.123 -0.2366 -0.7643 -0.6075
 3191TIP3    H131132   3.075   1.880   7.131  0.8021  0.1776 -0.1057
 3191TIP3    H231133   2.998   1.980   7.214  0.4836  0.6029 -0.9056
 3192TIP3   OH231134   0.186   3.099   8.042  0.1852  0.4298 -0.4440
 3192TIP3    H131135   0.279   3.077   8.041  0.3899  1.2014 -2.4085
 3192TIP3    H231136   0.181   3.187   8.006 -1.2592  0.7270  0.3865
 3193TIP3   OH231137   5.010   1.937   7.322  0.3269 -0.3867  0.2035
 3193TIP3    H131138   5.076   1.985   7.272 -0.9206 -0.5730 -1.7646
 3193TIP3    H231139   5.059   1.890   7.389  2.1841 -0.3964 -1.0833
 3194TIP3   OH231140   1.014   4.570   0.553  0.3051  0.4620 -0.5618
 3194TIP3    H131141   1.095   4.617   0.533  0.6743  0.4209  0.7583
 3194TIP3    H231142   1.039   4.507   0.621 -0.0931 -1.9260 -2.4812
 3195TIP3   OH231143   6.138   4.855   2.467 -0.1931 -0.1762 -0.1216
 3195TIP3    H131144   6.077   4.865   2.541 -0.4301 -0.8468 -0.2208
 3195TIP3    H231145   6.084   4.818   2.397  0.2919 -0.6284 -0.2615
 3196TIP3   OH231146   5.239   0.231   0.162  0.3923  0.5012 -0.1298
 3196TIP3    H131147   5.264   0.215   0.253  0.3261 -3.0898 -0.6023
 3196TIP3    H231148   5.162   0.288   0.168  0.7753  0.8818  2.0010
 3197TIP3   OH231149   4.952   6.456   1.969  0.3330  0.5496  1.0444
 3197TIP3    H131150   4.890   6.387   1.994 -1.2778  1.3407 -0.5710
 3197TIP3    H231151   4.931   6.529   2.027 -1.1023  1.2211 -0.2679
 3198TIP3   OH231152   4.949   3.415   8.635 -0.5586  0.5639  0.3609
 3198TIP3    H131153   4.957   3.510   8.627  1.3279  0.4389  0.2614
 3198TIP3    H231154   5.038   3.385   8.653 -0.8945 -1.2938 -0.8048
 3199TIP3   OH231155   5.378   5.554   8.569  0.0614 -0.0322 -0.6218
 3199TIP3    H131156   5.316   5.610   8.523 -0.9240  0.0517  0.7294
 3199TIP3    H231157   5.452   5.546   8.510 -1.0245  0.2905 -2.0700
 3200TIP3   OH231158   5.176   4.765   0.884 -0.0677 -0.4059 -0.4362
 3200TIP3    H131159   5.119   4.841   0.891  0.4387 -0.0987  0.3931
 3200TIP3    H231160   5.211   4.770   0.795  0.5454  0.7596 -0.1505
 3201TIP3   OH231161   0.063   0.675   2.460 -0.0306  0.4568 -0.5393
 3201TIP3    H131162   0.101   0.749   2.507  0.4999  0.9018 -1.6476
 3201TIP3    H231163   0.094   0.598   2.508  0.5659  0.8965 -0.2063
 3202TIP3   OH231164   2.066   2.345   1.301 -0.0951 -0.5698 -0.2042
 3202TIP3    H131165   2.014   2.423   1.320 -1.0368 -1.4329  0.8913
 3202TIP3    H231166   2.113   2.367   1.221  0.0713  1.3224  0.3560
 3203TIP3   OH231167   6.330   3.189   0.712 -0.1466 -0.4934  0.2298
 3203TIP3    H131168   6.288   3.103   0.712  0.3304 -0.7426 -0.5818
 3203TIP3    H231169   6.422   3.171   0.729 -0.2513 -0.0129  1.3369
 3204TIP3   OH231170   4.616   3.659   6.799 -0.2808 -0.3139 -0.3833
 3204TIP3    H131171   4.668   3.730   6.836  0.5089 -0.9054 -0.3311
 3204TIP3    H231172   4.680   3.589   6.782 -0.4685  0.1357 -3.4399
 3205TIP3   OH231173   1.874   1.203   1.159 -0.1024  0.3407  0.1577
 3205TIP3    H131174   1.873   1.133   1.225 -2.2871 -0.4507 -0.6232
 3205TIP3    H231175   1.963   1.202   1.124 -0.0703 -2.1349  0.1277
 3206TIP3   OH231176   2.210   4.687   0.005  0.1859 -0.3620  0.1571
 3206TIP3    H131177   2.124   4.724   0.021  0.7111  1.3114 -0.6494
 3206TIP3    H231178   2.236   4.722  -0.080  1.2674 -1.6018 -0.0513
 3207TIP3   OH231179   1.249   3.884   8.586 -0.4721  0.0849  0.0700
 3207TIP3    H131180   1.268   3.909   8.496 -1.4617  0.9040  0.0728
 3207TIP3    H231181   1.331   3.899   8.634  0.9853 -2.9795 -1.1598
 3208TIP3   OH231182   4.364   1.051   9.067 -0.3476 -0.8958  0.6604
 3208TIP3    H131183   4.389   1.142   9.079  0.4294 -0.6501 -2.0795
 3208TIP3    H231184   4.268   1.052   9.069 -0.4097  0.2866 -0.7844
 3209TIP3   OH231185   6.242   3.602   8.004 -0.4423 -0.2762 -0.0676
 3209TIP3    H131186   6.209   3.688   7.977  0.9317 -0.2989 -1.9908
 3209TIP3    H231187   6.322   3.621   8.053  0.3512 -0.4529 -1.2541
 3210TIP3   OH231188   3.216   5.063   2.204 -0.2089 -0.5641 -0.0393
 3210TIP3    H131189   3.199   5.123   2.132  1.3547  0.6556  0.5592
 3210TIP3    H231190   3.303   5.026   2.185  0.3580 -0.0054  1.3262
 3211TIP3   OH231191   1.911   3.700   1.742  0.0322 -0.1982 -1.0005
 3211TIP3    H131192   1.844   3.651   1.790  0.8280 -1.3702 -1.0461
 3211TIP3    H231193   1.924   3.780   1.793 -0.5467 -0.5092 -0.3543
 3212TIP3   OH231194   6.021   6.415   8.099  0.3404 -0.2223 -0.0193
 3212TIP3    H131195   5.954   6.473   8.062  1.7557  0.9142 -0.9199
 3212TIP3    H231196   5.991   6.396   8.188 -0.9931  0.5256 -0.2885
 3213TIP3   OH231197   1.968   0.165   1.672 -0.5478  0.1439 -0.1631
 3213TIP3    H131198   1.978   0.101   1.601  1.3090  1.6504 -1.3381
 3213TIP3    H231199   1.875   0.160   1.696 -0.7311 -2.0207 -1.1029
 3214TIP3   OH231200   5.935   1.074   1.408  0.0509 -0.1125  0.3990
 3214TIP3    H131201   5.868   1.028   1.459 -0.4811  0.8813  0.6187
 3214TIP3    H231202   6.017   1.052   1.451 -0.0099 -1.9785 -0.3313
 3215TIP3   OH231203   4.624   1.894   7.967 -0.2988  0.2915  0.0959
 3215TIP3    H131204   4.672   1.909   8.048 -1.4878 -0.9456  1.0838
 3215TIP3    H231205   4.594   1.981   7.941 -0.0739  0.6882  1.1156
 3216TIP3   OH231206   5.821   3.111   0.593 -0.1236 -0.1073 -0.3311
 3216TIP3    H131207   5.762   3.185   0.604  0.1233 -0.0311  0.5967
 3216TIP3    H231208   5.889   3.143   0.534 -1.2107 -0.3371 -1.7612
 3217TIP3   OH231209   2.036   1.137   7.381 -0.3573 -0.3574 -0.1829
 3217TIP3    H131210   2.070   1.074   7.318 -1.8548 -0.7291 -0.6828
 3217TIP3    H231211   2.002   1.209   7.327 -1.2066 -0.4531  0.1954
 3218TIP3   OH231212   2.454   6.192   8.757 -0.6665  0.1379  0.0673
 3218TIP3    H131213   2.493   6.118   8.803 -0.2892 -0.8721 -1.7810
 3218TIP3    H231214   2.360   6.184   8.773 -0.7733 -1.5352 -1.1337
 3219TIP3   OH231215   2.736   0.705   9.101  0.2385  0.1185  0.5465
 3219TIP3    H131216   2.830   0.717   9.116  0.4642  0.7269 -1.0756
 3219TIP3    H231217   2.715   0.769   9.033 -1.2744 -0.2882  0.5974
 3220TIP3   OH231218   3.126   2.942   7.078  0.4364 -0.1533  0.0080
 3220TIP3    H131219   3.183   3.019   7.075 -1.0165  0.9692 -0.0670
 3220TIP3    H231220   3.041   2.975   7.048 -0.4225 -1.6079  0.7791
 3221TIP3   OH231221   5.895   6.531   9.408  0.1767 -0.0442 -0.0658
 3221TIP3    H131222   5.908   6.567   9.320 -0.1876 -1.4815 -0.7494
 3221TIP3    H231223   5.947   6.451   9.409 -0.9680 -0.8148  0.5054
 3222TIP3   OH231224   6.044   0.123   2.285 -0.2994 -0.8303 -0.6624
 3222TIP3    H131225   6.014   0.181   2.215 -3.4554  3.0711  3.3606
 3222TIP3    H231226   6.132   0.153   2.305 -0.0016 -0.8898 -1.8065
 3223TIP3   OH231227   5.192   4.135   9.374 -0.2489 -0.1778 -0.0767
 3223TIP3    H131228   5.216   4.131   9.281 -2.0978  0.1986 -0.6095
 3223TIP3    H231229   5.150   4.220   9.385 -0.1360 -0.2586  1.0873
 3224TIP3   OH231230   2.301   5.627   3.184  0.0229  0.4394 -0.2766
 3224TIP3    H131231   2.232   5.689   3.212 -1.9301 -2.2057  1.2410
 3224TIP3    H231232   2.257   5.569   3.122  0.7613 -1.4612  0.9047
 3225TIP3   OH231233   3.234   1.802   6.439  0.0344 -0.4399 -0.1589
 3225TIP3    H131234   3.319   1.767   6.467 -0.8665 -0.2574  3.2237
 3225TIP3    H231235   3.170   1.743   6.477 -1.3921  1.4362  0.5060
 3226TIP3   OH231236   3.027   0.508   1.642 -0.4311 -0.2267 -0.0845
 3226TIP3    H131237   2.940   0.491   1.606 -0.8145  0.5039  0.4781
 3226TIP3    H231238   3.077   0.543   1.569 -0.8112 -0.0015 -0.2370
 3227TIP3   OH231239   3.231   3.806   9.088 -0.0415  0.4664  0.2270
 3227TIP3    H131240   3.261   3.826   8.999  1.1958 -2.0831 -0.0225
 3227TIP3    H231241   3.136   3.811   9.083  0.0493  2.0605 -0.7512
 3228TIP3   OH231242   1.839   4.351   8.767 -0.6466  0.3917  0.1886
 3228TIP3    H131243   1.753   4.371   8.806 -0.5438  1.4606 -0.0999
 3228TIP3    H231244   1.847   4.412   8.694 -0.1357 -0.5046 -0.5280
 3229TIP3   OH231245   2.040   2.415   8.040  0.0623  0.1117  0.6943
 3229TIP3    H131246   2.046   2.333   8.089  0.2058  0.9813  2.2226
 3229TIP3    H231247   2.000   2.391   7.957 -1.6253 -1.2324  1.8183
 3230TIP3   OH231248   0.431   3.454   1.760  0.2460  0.4090  0.2175
 3230TIP3    H131249   0.496   3.494   1.702  0.5878 -1.1315 -0.5233
 3230TIP3    H231250   0.363   3.422   1.701  0.5886 -1.1653  0.6397
 3231TIP3   OH231251   0.271   3.306   7.329  0.6559  0.5442 -0.1079
 3231TIP3    H131252   0.264   3.234   7.267 -2.1713  2.5872 -2.4648
 3231TIP3    H231253   0.307   3.379   7.277  0.5182  1.6862  1.3296
 3232TIP3   OH231254   3.491   0.423   8.115  0.4845  0.3455  0.6358
 3232TIP3    H131255   3.501   0.478   8.038  0.7222  2.1412  1.8965
 3232TIP3    H231256   3.571   0.370   8.118 -1.2842 -2.9970 -2.6644
 3233TIP3   OH231257   0.876   6.343   9.542 -0.3099  0.2786  0.4111
 3233TIP3    H131258   0.935   6.269   9.555 -1.3636 -0.3246  1.9470
 3233TIP3    H231259   0.878   6.390   9.625 -0.8506  1.1259 -0.0355
 3234TIP3   OH231260   2.970   6.529   1.035 -0.7736  0.3054  0.4108
 3234TIP3    H131261   2.963   6.502   1.127 -1.8372  0.5421  0.4118
 3234TIP3    H231262   2.880   6.529   1.003 -0.6704  2.2745 -0.0275
 3235TIP3   OH231263   4.707   0.790   8.069 -0.1465  0.3158  0.5551
 3235TIP3    H131264   4.760   0.725   8.024 -0.4541 -0.9783  1.9928
 3235TIP3    H231265   4.727   0.872   8.025  2.7732 -0.1623  0.8187
 3236TIP3   OH231266   0.540   4.285   9.120 -0.2134  0.1511  0.4797
 3236TIP3    H131267   0.590   4.345   9.175 -1.4957  0.3702  1.4552
 3236TIP3    H231268   0.596   4.208   9.111  0.3702  0.4520  1.3963
 3237TIP3   OH231269   0.610   5.579   8.218 -0.3765  0.2810 -0.5160
 3237TIP3    H131270   0.648   5.523   8.151 -1.6514 -0.4438 -0.6737
 3237TIP3    H231271   0.680   5.640   8.241  1.6718 -2.3275  0.7977
 3238TIP3   OH231272   2.774   3.920   7.383 -0.3810  0.4146  0.3623
 3238TIP3    H131273   2.771   3.940   7.290 -0.1110 -0.8223  0.0689
 3238TIP3    H231274   2.856   3.961   7.414  0.8385 -1.2795 -0.4963
 3239TIP3   OH231275   5.168   5.704   1.591 -0.4011  0.5393  0.7550
 3239TIP3    H131276   5.109   5.639   1.553 -1.6593  1.3093  1.3299
 3239TIP3    H231277   5.201   5.753   1.515 -1.8911  1.2280  0.5151
 3240TIP3   OH231278   1.483   4.777   1.699  0.4716  0.1138  0.3076
 3240TIP3    H131279   1.435   4.790   1.781  1.2126  1.0678  0.6041
 3240TIP3    H231280   1.439   4.703   1.658  0.4802 -0.7925  1.8555
 3241TIP3   OH231281   3.924   1.639   0.918 -0.2333  0.3610  0.0711
 3241TIP3    H131282   3.864   1.575   0.955 -0.8058  1.0195  0.3084
 3241TIP3    H231283   3.999   1.588   0.888 -0.0670 -0.2718  1.4859
 3242TIP3   OH231284   5.498   6.378   1.399 -0.2733  0.3091  0.0529
 3242TIP3    H131285   5.474   6.469   1.381 -1.0593  0.1577  0.3102
 3242TIP3    H231286   5.562   6.356   1.331 -1.9768  0.2489 -1.6011
 3243TIP3   OH231287   5.207   0.839   8.305  0.0540  0.0696  0.1503
 3243TIP3    H131288   5.245   0.765   8.352  0.5878  0.6046  0.5694
 3243TIP3    H231289   5.228   0.823   8.213  2.0027  0.7487  0.4378
 3244TIP3   OH231290   0.611   4.888   8.509 -0.0107 -0.1705 -0.2647
 3244TIP3    H131291   0.703   4.862   8.501 -1.0001 -3.7938 -1.9198
 3244TIP3    H231292   0.582   4.901   8.419 -1.2317  0.6311  0.2208
 3245TIP3   OH231293   3.954   3.254   1.322 -0.2010 -0.7130  0.6848
 3245TIP3    H131294   3.994   3.327   1.369  0.1129 -1.0074  0.8861
 3245TIP3    H231295   3.896   3.213   1.386 -0.5185 -0.5312  0.5156
 3246TIP3   OH231296   1.191   2.363   7.569  0.0486 -0.1578 -0.0043
 3246TIP3    H131297   1.264   2.313   7.531  0.6717  0.5792  0.2124
 3246TIP3    H231298   1.133   2.380   7.495 -1.5728 -3.4594  0.3109
 3247TIP3   OH231299   2.300   1.647   0.193 -0.3489  0.0101 -0.5076
 3247TIP3    H131300   2.297   1.563   0.239 -0.0670  0.4403  0.3202
 3247TIP3    H231301   2.357   1.631   0.118  0.7564 -0.2144  0.3521
 3248TIP3   OH231302   3.770   5.848   0.659 -0.5342  0.0867  0.3768
 3248TIP3    H131303   3.817   5.849   0.742 -0.5122 -0.7088  0.3796
 3248TIP3    H231304   3.704   5.780   0.669 -1.1072  0.5833  0.0513
 3249TIP3   OH231305   6.481   3.749   9.046 -0.0692 -0.3428  0.3148
 3249TIP3    H131306   6.428   3.697   9.106 -0.9985  1.2722  0.9562
 3249TIP3    H231307   6.422   3.771   8.974  0.2447  0.0219  0.1647
 3250TIP3   OH231308   2.902   4.196   0.364  0.7461  0.4553 -0.4067
 3250TIP3    H131309   2.956   4.128   0.325  1.2621  0.7088 -0.1354
 3250TIP3    H231310   2.814   4.158   0.367  1.0814 -0.3093  0.0160
 3251TIP3   OH231311   5.579   4.482   8.319 -0.0981 -0.5865 -0.5024
 3251TIP3    H131312   5.546   4.462   8.407 -0.3230 -0.6904 -0.6099
 3251TIP3    H231313   5.505   4.524   8.274  0.2227  0.0702 -0.4325
 3252TIP3   OH231314   0.008   5.035   9.251  0.5699 -0.6045  0.3691
 3252TIP3    H131315   0.000   5.097   9.324  0.6851  0.1855 -0.2759
 3252TIP3    H231316  -0.078   4.991   9.248  0.1741  0.1598  0.2737
 3253TIP3   OH231317   1.270   5.935   8.354 -0.5480 -0.0093  0.6647
 3253TIP3    H131318   1.222   5.970   8.279 -0.5479 -0.5963  0.3804
 3253TIP3    H231319   1.265   5.840   8.342  0.7296 -0.0849  0.6039
 3254TIP3   OH231320   6.504   0.760   8.083  0.0037 -0.3017 -0.3205
 3254TIP3    H131321   6.578   0.729   8.030  0.6311 -2.3706  1.6111
 3254TIP3    H231322   6.451   0.682   8.099 -1.5537  0.7715 -0.0196
 3255TIP3   OH231323   3.002   0.846   0.110  0.3951  0.0612  0.0266
 3255TIP3    H131324   3.037   0.779   0.051  0.9531  0.9639 -0.7010
 3255TIP3    H231325   3.073   0.909   0.121  0.5423 -0.4259  2.2549
 3256TIP3   OH231326   6.204   3.658   1.041  0.1465  0.3005 -0.2344
 3256TIP3    H131327   6.112   3.647   1.016 -0.0568 -1.8594  1.1946
 3256TIP3    H231328   6.252   3.606   0.977  0.0315 -1.3063  0.9215
 3257TIP3   OH231329   5.176   3.469   7.618  0.0206 -0.2290 -0.1016
 3257TIP3    H131330   5.108   3.422   7.571  1.1443 -1.6497 -0.3479
 3257TIP3    H231331   5.258   3.424   7.596  1.4061  2.7191 -1.5607
 3258TIP3   OH231332   1.717   5.021   0.217 -0.2554 -0.6389  0.1692
 3258TIP3    H131333   1.635   4.974   0.211 -0.6577 -0.2225  1.8484
 3258TIP3    H231334   1.764   4.980   0.290 -0.3616  1.1161  1.2823
 3259TIP3   OH231335   5.371   0.605   9.428 -0.2130  0.5732  0.0217
 3259TIP3    H131336   5.401   0.514   9.428 -2.0685 -0.0990 -1.1701
 3259TIP3    H231337   5.417   0.645   9.502  2.4465 -0.6890 -0.8045
 3260TIP3   OH231338   4.746   2.772   7.118  0.2617 -1.1045 -0.0754
 3260TIP3    H131339   4.736   2.797   7.026 -2.6743 -0.3058  0.3500
 3260TIP3    H231340   4.810   2.834   7.153 -0.7647  0.5181 -0.9649
 3261TIP3   OH231341   5.575   4.009   9.142 -0.2567 -0.2924 -0.7447
 3261TIP3    H131342   5.585   3.930   9.089 -0.0588 -0.4334 -0.4989
 3261TIP3    H231343   5.517   3.983   9.213  0.2639 -0.3743 -0.3463
 3262TIP3   OH231344   5.435   6.374   7.182  0.4042  0.2403 -0.1600
 3262TIP3    H131345   5.489   6.443   7.145 -0.4644  1.2292  0.3625
 3262TIP3    H231346   5.469   6.293   7.143  1.7427  0.9034 -0.4173
 3263TIP3   OH231347   2.356   5.459   0.100  0.5313 -0.7589  0.3530
 3263TIP3    H131348   2.452   5.462   0.101  0.5422  1.0283  2.2504
 3263TIP3    H231349   2.334   5.390   0.162  0.6458  0.0506  1.3292
 3264TIP3   OH231350   5.688   4.321   8.817 -0.1773 -0.1156  0.4708
 3264TIP3    H131351   5.762   4.311   8.877 -1.6642  0.1973  2.4441
 3264TIP3    H231352   5.691   4.413   8.791  0.3352 -0.1958  0.2348
 3265TIP3   OH231353   2.679   2.999   1.585  0.4932  0.1611  0.4232
 3265TIP3    H131354   2.700   3.069   1.524  1.9639 -0.3929  0.2345
 3265TIP3    H231355   2.617   3.037   1.647  1.8438  1.8768  0.7899
 3266TIP3   OH231356   2.469   2.082   7.794 -0.5624  0.2161  0.2709
 3266TIP3    H131357   2.538   2.048   7.737 -0.0919  1.8609 -0.2239
 3266TIP3    H231358   2.408   2.009   7.806  0.9779 -1.1248  0.2852
 3267TIP3   OH231359   1.907   4.646   0.201 -0.1317  0.0341 -0.1807
 3267TIP3    H131360   1.941   4.570   0.248 -0.6915 -0.7773 -1.0514
 3267TIP3    H231361   1.869   4.702   0.268 -0.3743 -0.8083  0.3849
 3268TIP3   OH231362   3.474   5.576   1.175 -0.1770 -0.0854 -0.5672
 3268TIP3    H131363   3.568   5.580   1.191 -0.3683 -0.2779  0.6362
 3268TIP3    H231364   3.440   5.517   1.242 -1.1704  0.0136 -0.9654
 3269TIP3   OH231365   0.562   1.074   2.456 -0.2380  0.0357 -0.3762
 3269TIP3    H131366   0.472   1.066   2.426 -0.0928  0.1565 -0.8460
 3269TIP3    H231367   0.614   1.024   2.393  0.0305  0.0080 -0.1369
 3270TIP3   OH231368   2.399   6.375   8.411 -0.2884 -0.1610  0.2297
 3270TIP3    H131369   2.422   6.467   8.428 -1.3419  0.9706 -3.4719
 3270TIP3    H231370   2.441   6.356   8.327 -1.4808 -2.5531  0.1053
 3271TIP3   OH231371   5.471   4.070   8.850  0.0265  0.0843 -0.0877
 3271TIP3    H131372   5.566   4.068   8.854  0.1163 -0.2739 -1.7303
 3271TIP3    H231373   5.448   3.999   8.791 -1.2407  0.3953  0.0068
 3272TIP3   OH231374   3.425   1.678   0.509 -0.2625  0.4627  0.0621
 3272TIP3    H131375   3.479   1.741   0.556 -0.9139  0.8004  0.3707
 3272TIP3    H231376   3.413   1.716   0.422  0.3007  0.2049 -0.1361
 3273TIP3   OH231377   3.861   0.489   0.551  0.2680  0.1218  0.5000
 3273TIP3    H131378   3.886   0.525   0.466  0.4618  1.3296  1.0402
 3273TIP3    H231379   3.874   0.394   0.543  0.0931  0.2032 -0.8610
 3274TIP3   OH231380   0.943   3.412   1.817 -0.1307  0.8967  0.3773
 3274TIP3    H131381   1.035   3.439   1.817  0.1047  0.1132  0.5857
 3274TIP3    H231382   0.923   3.394   1.725  0.6752 -1.3924  0.6077
 3275TIP3   OH231383   4.804   2.027   8.946 -0.3690 -0.0802 -0.0153
 3275TIP3    H131384   4.779   1.940   8.915 -2.1994  0.9043 -1.4438
 3275TIP3    H231385   4.895   2.038   8.917 -0.2000 -1.3884 -0.0330
 3276TIP3   OH231386   6.295   3.332   7.189 -0.0485 -0.3316  0.1941
 3276TIP3    H131387   6.273   3.326   7.096 -0.8839  0.9477  0.2810
 3276TIP3    H231388   6.211   3.337   7.233  0.3509  0.1391  0.9299
 3277TIP3   OH231389   1.701   2.183   2.187 -0.2293 -0.4898  0.3355
 3277TIP3    H131390   1.704   2.279   2.190  1.1862 -0.5376  1.7719
 3277TIP3    H231391   1.612   2.160   2.212 -0.2231  0.4354  1.2693
 3278TIP3   OH231392   0.943   5.837   9.076  0.0335 -0.1613 -0.3024
 3278TIP3    H131393   0.880   5.904   9.050  1.1697  1.0268 -0.1082
 3278TIP3    H231394   0.891   5.758   9.089 -1.2260  0.4630 -1.3641
 3279TIP3   OH231395   5.035   3.894   1.220 -0.4108 -0.3353  0.3185
 3279TIP3    H131396   4.970   3.825   1.205 -1.4346  0.3159  1.5634
 3279TIP3    H231397   5.032   3.911   1.314  2.4278 -1.0677  0.6319
 3280TIP3   OH231398   5.446   1.403   0.667  0.0964 -0.4108  0.5128
 3280TIP3    H131399   5.374   1.435   0.721 -0.1738 -1.3344  0.7162
 3280TIP3    H231400   5.406   1.335   0.612  0.3868  0.4035 -0.7672
 3281TIP3   OH231401   5.621   4.860   1.511 -0.1319 -0.1282 -0.2399
 3281TIP3    H131402   5.562   4.785   1.517 -0.9842  0.5593  0.2722
 3281TIP3    H231403   5.644   4.881   1.601 -0.5522  0.7125 -0.3167
 3282TIP3   OH231404   3.899   1.223   7.395 -1.1459 -0.3189 -0.1871
 3282TIP3    H131405   3.955   1.273   7.336 -0.3013 -3.0221 -1.8567
 3282TIP3    H231406   3.956   1.154   7.429 -2.5585 -0.9380  1.0442
 3283TIP3   OH231407   0.119   0.737   9.190  0.7902  0.2411  0.0645
 3283TIP3    H131408   0.197   0.696   9.229  0.5200 -1.5290 -1.1324
 3283TIP3    H231409   0.141   0.746   9.098 -0.0672  0.6478 -0.1027
 3284TIP3   OH231410   2.351   6.136   2.288 -0.1084  0.4251 -0.2053
 3284TIP3    H131411   2.390   6.062   2.243 -3.7561 -2.5998  1.1269
 3284TIP3    H231412   2.415   6.160   2.356  1.0707 -1.6745 -0.5167
 3285TIP3   OH231413   3.244   1.434   7.162 -0.1347  1.2058  0.3164
 3285TIP3    H131414   3.218   1.496   7.094 -0.9615 -0.1828 -0.6766
 3285TIP3    H231415   3.161   1.405   7.200  0.2142  0.3597  0.4488
 3286TIP3   OH231416   6.298   0.165   8.585 -0.0781 -0.3016  0.2754
 3286TIP3    H131417   6.357   0.115   8.641  0.9624 -2.0367 -2.2522
 3286TIP3    H231418   6.225   0.106   8.567  0.8475 -0.7771 -2.2218
 3287TIP3   OH231419   2.366   1.310   7.348  0.2049  0.5859  0.3018
 3287TIP3    H131420   2.341   1.218   7.357 -1.0457  0.7913 -0.7079
 3287TIP3    H231421   2.418   1.329   7.426 -0.6826 -0.6098  1.2227
 3288TIP3   OH231422   4.366   5.133   0.135 -0.2972 -0.5544 -0.0662
 3288TIP3    H131423   4.277   5.129   0.169 -0.7161 -3.3079 -1.2513
 3288TIP3    H231424   4.394   5.042   0.129  2.5781  0.2230  0.1286
 3289TIP3   OH231425   1.169   2.291   0.576  0.1964  0.3538  0.5614
 3289TIP3    H131426   1.190   2.331   0.660  0.4723  0.0642  0.6307
 3289TIP3    H231427   1.185   2.197   0.589 -1.4860  0.0607  0.7354
 3290TIP3   OH231428   5.423   5.310   9.134 -0.1455  0.5479  0.5049
 3290TIP3    H131429   5.510   5.275   9.115 -0.5851 -0.0528 -0.4614
 3290TIP3    H231430   5.415   5.388   9.079  0.1653  1.2034  1.3642
 3291TIP3   OH231431   5.182   3.728   1.011 -0.5428 -0.0349  0.1815
 3291TIP3    H131432   5.110   3.787   0.990 -1.8930 -0.9998  1.8035
 3291TIP3    H231433   5.149   3.641   0.990  0.5744 -0.4119 -0.0863
 3292TIP3   OH231434   0.125   3.923   0.166 -0.2801 -0.4863 -0.3433
 3292TIP3    H131435   0.044   3.933   0.116  0.5654  1.3685 -1.4538
 3292TIP3    H231436   0.120   3.990   0.234 -0.9247 -2.2802  1.4803
 3293TIP3   OH231437   3.776   1.894   7.359  0.3630 -0.3625  1.3434
 3293TIP3    H131438   3.767   1.988   7.370  1.0717 -0.3754  2.1520
 3293TIP3    H231439   3.871   1.879   7.353  0.2224 -0.8778 -0.2465
 3294TIP3   OH231440   4.128   1.737   2.058 -0.5561  0.4376  0.1237
 3294TIP3    H131441   4.102   1.794   2.130 -0.5944 -1.3335  1.5991
 3294TIP3    H231442   4.113   1.789   1.979 -1.0012  2.2665  1.3552
 3295TIP3   OH231443   3.616   4.979   9.118 -0.0179  0.2921 -0.5723
 3295TIP3    H131444   3.559   4.996   9.043  0.2888  1.6491 -0.5251
 3295TIP3    H231445   3.705   4.988   9.083  0.1325  0.6021 -0.1228
 3296TIP3   OH231446   4.850   1.101   1.195 -0.1204  0.4190 -0.0117
 3296TIP3    H131447   4.771   1.072   1.240  0.6430  1.0377  1.8459
 3296TIP3    H231448   4.858   1.194   1.218  0.9339  0.4645 -0.4834
 3297TIP3   OH231449   2.055   0.904   8.560  0.1214  0.2115 -0.6753
 3297TIP3    H131450   1.991   0.841   8.528 -0.5142  1.4462 -1.9512
 3297TIP3    H231451   2.122   0.908   8.492  0.3737  0.6061 -0.4132
 3298TIP3   OH231452   3.109   6.399   9.280  0.2319 -0.0782  0.3446
 3298TIP3    H131453   3.127   6.437   9.193  0.6703 -0.0730  0.4319
 3298TIP3    H231454   3.060   6.319   9.261 -0.3288  0.3090  0.1363
 3299TIP3   OH231455   5.762   6.185   9.469  0.1386 -0.2398  0.2455
 3299TIP3    H131456   5.678   6.170   9.426  0.6442  2.8663 -2.2065
 3299TIP3    H231457   5.748   6.263   9.523  0.8195 -1.2973  2.0750
 3300TIP3   OH231458   4.628   6.477   2.283  0.3206 -0.3051 -0.1828
 3300TIP3    H131459   4.650   6.570   2.287  2.1257 -0.7213  3.0715
 3300TIP3    H231460   4.539   6.472   2.316 -0.2142  0.2921 -1.4444
 3301TIP3   OH231461   1.331   3.784   1.947  0.6675 -0.2803 -0.8369
 3301TIP3    H131462   1.401   3.762   2.008 -1.5109 -0.2563  1.8632
 3301TIP3    H231463   1.260   3.724   1.970 -1.7442  2.5483 -0.3419
 3302TIP3   OH231464   0.226   5.983   0.611  0.4920  0.1257 -0.1602
 3302TIP3    H131465   0.154   6.041   0.636  2.4921  2.1186  1.3593
 3302TIP3    H231466   0.238   5.997   0.518 -1.5175 -0.8463 -0.6262
 3303TIP3   OH231467   6.378   1.030   0.573  0.1663  0.5989 -0.4573
 3303TIP3    H131468   6.446   1.048   0.638  0.2181 -0.4139 -0.2176
 3303TIP3    H231469   6.349   1.116   0.545  2.2691  1.0972 -1.3432
 3304TIP3   OH231470   4.904   0.072   0.711 -0.2336 -0.2269 -0.0507
 3304TIP3    H131471   4.828   0.092   0.765 -0.1736  1.1468 -0.4443
 3304TIP3    H231472   4.869   0.024   0.636 -0.3886 -1.6270  0.8683
 3305TIP3   OH231473   4.175   4.990   1.394 -0.8276  0.3680  0.2725
 3305TIP3    H131474   4.137   4.909   1.428  1.1801 -0.8215 -0.1907
 3305TIP3    H231475   4.187   4.974   1.301 -0.7203  1.3271  0.1112
 3306TIP3   OH231476   6.337   2.902   1.543 -0.0153 -0.1212  0.0341
 3306TIP3    H131477   6.389   2.876   1.467 -0.6278  1.5179 -0.9922
 3306TIP3    H231478   6.263   2.950   1.507  0.5320  2.1834  1.6794
 3307TIP3   OH231479   6.089   4.255   7.457 -0.2448 -0.0147 -0.1461
 3307TIP3    H131480   6.170   4.206   7.441  0.6107  1.1771  0.3977
 3307TIP3    H231481   6.030   4.226   7.388  0.6537 -0.8769 -0.5889
 3308TIP3   OH231482   0.199   1.051   8.055  0.1561  0.1961 -0.2673
 3308TIP3    H131483   0.210   0.984   8.122  2.0885  2.0114  1.3929
 3308TIP3    H231484   0.119   1.098   8.080 -1.0814 -1.2480 -1.3151
 3309TIP3   OH231485   0.806   4.034   8.041  0.1592  0.3521  0.1241
 3309TIP3    H131486   0.741   4.040   8.111 -1.6978  0.6896 -1.5418
 3309TIP3    H231487   0.872   4.100   8.063 -0.1593  0.1742  1.7261
 3310TIP3   OH231488   3.620   1.182   8.806  0.0294  0.4710 -0.4895
 3310TIP3    H131489   3.626   1.149   8.896  0.3021  0.8384 -0.3670
 3310TIP3    H231490   3.674   1.261   8.807 -0.3024  0.7052 -0.8728
 3311TIP3   OH231491   4.126   1.482   0.831  0.0938 -0.7076 -0.3538
 3311TIP3    H131492   4.151   1.398   0.868 -0.9329 -0.8361  0.0918
 3311TIP3    H231493   4.065   1.459   0.760 -2.6754 -0.2985  1.7370
 3312TIP3   OH231494   0.628   4.735   9.304 -0.0462 -0.0460 -0.1267
 3312TIP3    H131495   0.634   4.798   9.231  0.3878 -1.0116 -0.9444
 3312TIP3    H231496   0.663   4.782   9.379  1.5322  0.2581 -1.0164
 3313TIP3   OH231497   3.194   2.950   7.357 -0.3163 -0.9267 -0.1953
 3313TIP3    H131498   3.168   2.860   7.339  0.4425 -1.4305  1.0654
 3313TIP3    H231499   3.171   2.999   7.278 -1.4400 -2.0733 -0.5973
 3314TIP3   OH231500   3.228   3.284   8.952  0.2722  0.4902 -0.9944
 3314TIP3    H131501   3.194   3.357   9.004  0.0056  0.5382 -1.2351
 3314TIP3    H231502   3.307   3.256   8.998 -0.4981 -0.1222 -0.0037
 3315TIP3   OH231503   3.214   4.989   7.244 -0.2158  0.3132  0.6032
 3315TIP3    H131504   3.147   4.945   7.192  1.0291  0.3778 -1.1646
 3315TIP3    H231505   3.288   4.927   7.245  0.7134  1.3827  0.0564
 3316TIP3   OH231506   0.027   1.624   8.886  0.4225 -0.0646 -0.2056
 3316TIP3    H131507  -0.064   1.652   8.895  0.1435  0.4164 -3.4436
 3316TIP3    H231508   0.023   1.529   8.890  0.2699 -0.0296  2.5984
 3317TIP3   OH231509   3.219   4.490   0.078  0.3342  0.0294 -0.1238
 3317TIP3    H131510   3.274   4.554   0.122  0.4701 -0.3964  0.3387
 3317TIP3    H231511   3.184   4.435   0.149  0.5745 -0.6775 -0.5384
 3318TIP3   OH231512   6.393   4.531   7.769  0.2243  0.6129 -0.1943
 3318TIP3    H131513   6.485   4.524   7.746  0.3507 -1.8497  0.7068
 3318TIP3    H231514   6.391   4.525   7.864 -0.9284 -4.0837 -0.2326
 3319TIP3   OH231515   6.219   5.218   9.092  0.1290  0.2063  0.4610
 3319TIP3    H131516   6.229   5.300   9.043  1.6819 -0.9384 -1.2731
 3319TIP3    H231517   6.168   5.162   9.033  1.3749 -0.9527  0.4578
 3320TIP3   OH231518   0.039   4.967   1.713  0.4396 -0.1292 -0.4603
 3320TIP3    H131519   0.014   4.968   1.805  0.0811  4.2024 -0.4280
 3320TIP3    H231520  -0.043   4.974   1.665  0.7041 -1.2966 -1.1410
 3321TIP3   OH231521   0.249   4.486   8.450  0.2646 -0.2659 -0.2298
 3321TIP3    H131522   0.207   4.550   8.394 -1.3636 -1.7847 -0.8335
 3321TIP3    H231523   0.212   4.502   8.537  1.3474  0.8498  0.0442
 3322TIP3   OH231524   3.163   4.178   9.319 -0.0642 -0.4657 -0.4343
 3322TIP3    H131525   3.212   4.096   9.316 -1.0511 -1.0892  0.0485
 3322TIP3    H231526   3.077   4.156   9.282 -0.1978  0.4564 -0.7026
 3323TIP3   OH231527   3.528   5.486   2.455 -0.9569 -0.0776 -0.2808
 3323TIP3    H131528   3.527   5.417   2.521  2.2113  0.6452  0.6806
 3323TIP3    H231529   3.515   5.567   2.504  3.2732  0.6618 -0.0134
 3324TIP3   OH231530   2.869   3.397   8.795 -0.0699  0.0806  0.1906
 3324TIP3    H131531   2.891   3.465   8.732 -0.4552  1.9527  1.9614
 3324TIP3    H231532   2.895   3.432   8.879 -0.1065 -2.0830  1.1866
 3325TIP3   OH231533   3.797   4.531   7.318  0.9905 -0.5327 -0.2294
 3325TIP3    H131534   3.763   4.468   7.254 -1.6435 -0.2711  0.7576
 3325TIP3    H231535   3.744   4.610   7.304  0.1078 -0.5741  2.4136
 3326TIP3   OH231536   0.881   5.073   1.803 -0.3005 -0.0438 -0.3905
 3326TIP3    H131537   0.814   5.112   1.858 -0.4196 -1.0055  0.1645
 3326TIP3    H231538   0.945   5.143   1.790 -1.8869  1.2382 -1.7943
 3327TIP3   OH231539   6.361   3.921   0.262  0.1480 -0.2554 -0.7572
 3327TIP3    H131540   6.316   3.922   0.346  1.1715 -1.2867 -0.1610
 3327TIP3    H231541   6.311   3.980   0.207 -0.4140  0.6196  0.6444
 3328TIP3   OH231542   6.179   1.382   0.691  0.0290 -0.0120  0.1657
 3328TIP3    H131543   6.198   1.324   0.617  0.1619  0.1817  0.0488
 3328TIP3    H231544   6.087   1.406   0.680 -0.1736 -0.5986  0.4899
 3329TIP3   OH231545   1.111   1.748   1.396 -0.4575 -0.3582 -0.3137
 3329TIP3    H131546   1.161   1.810   1.343 -1.2578  1.2793  0.7878
 3329TIP3    H231547   1.087   1.797   1.474 -0.1304 -2.4243  1.1614
 3330TIP3   OH231548   6.532   5.107   1.356  0.0085  0.2724  0.0368
 3330TIP3    H131549   6.593   5.133   1.287 -0.4243 -1.2017 -0.9750
 3330TIP3    H231550   6.575   5.035   1.401 -0.9446 -0.8261 -0.7277
 3331TIP3   OH231551   1.705   5.257   8.925  0.1103  0.0987 -0.1739
 3331TIP3    H131552   1.736   5.308   8.850  0.3157  0.0316 -0.1367
 3331TIP3    H231553   1.783   5.245   8.979  0.9896 -3.3878 -1.9604
 3332TIP3   OH231554   6.528   5.835   1.258 -0.1114  0.0926  0.6728
 3332TIP3    H131555   6.521   5.919   1.213 -0.7963  0.3310  1.2032
 3332TIP3    H231556   6.439   5.818   1.290  0.1356 -0.5900  1.0012
 3333TIP3   OH231557   1.469   2.504   7.626  0.6832  0.1172  0.4682
 3333TIP3    H131558   1.453   2.439   7.557 -1.1468  1.5239 -0.5413
 3333TIP3    H231559   1.526   2.568   7.585  0.6768  0.2791  0.7117
 3334TIP3   OH231560   1.770   6.160   8.290 -0.5560 -0.2319  0.0216
 3334TIP3    H131561   1.708   6.227   8.259 -1.3346 -0.8242  0.2622
 3334TIP3    H231562   1.714   6.089   8.320  0.2288 -0.3119  1.3368
 3335TIP3   OH231563   0.152   2.935   1.307 -0.0846 -0.3214  0.0891
 3335TIP3    H131564   0.114   2.874   1.244 -2.1571  0.8301  0.1412
 3335TIP3    H231565   0.204   2.996   1.254  1.9271 -1.9860  0.0301
 3336TIP3   OH231566   0.426   2.978   7.419 -0.2702 -0.7151  0.1714
 3336TIP3    H131567   0.380   3.016   7.344 -1.4606  0.8809  1.6328
 3336TIP3    H231568   0.490   3.045   7.445  0.0540 -1.1953  0.6572
 3337TIP3   OH231569   2.062   0.747   2.820 -0.3823 -0.1658  0.1814
 3337TIP3    H131570   1.992   0.685   2.798 -0.4258  0.1338 -0.5538
 3337TIP3    H231571   2.143   0.699   2.806 -0.3921 -1.1528  2.8591
 3338TIP3   OH231572   6.528   1.486   7.655 -0.2203 -0.1768 -0.0030
 3338TIP3    H131573   6.601   1.529   7.609 -0.0690  0.2835  0.6629
 3338TIP3    H231574   6.555   1.394   7.661  1.9063  0.4970  3.1751
 3339TIP3   OH231575   3.275   3.931   9.316 -0.4249 -0.1032 -0.5500
 3339TIP3    H131576   3.370   3.918   9.317 -0.5693 -1.1732 -0.0041
 3339TIP3    H231577   3.243   3.871   9.249 -0.8079 -0.4185 -0.0845
 3340TIP3   OH231578   0.750   2.607   8.418  0.3639  0.4292 -0.4087
 3340TIP3    H131579   0.753   2.584   8.511 -2.4659 -1.4694 -0.6764
 3340TIP3    H231580   0.713   2.695   8.416 -0.2741  0.1887  0.2772
 3341TIP3   OH231581   6.047   0.923   1.760 -0.1287 -0.0745 -0.0580
 3341TIP3    H131582   6.093   0.990   1.810  2.8552 -1.9638  0.0044
 3341TIP3    H231583   6.068   0.942   1.668  0.4549 -0.6819 -0.0610
 3342TIP3   OH231584   2.170   5.783   8.328  0.4256 -0.8794  0.3895
 3342TIP3    H131585   2.224   5.762   8.405  0.8103 -1.4731 -0.0323
 3342TIP3    H231586   2.080   5.771   8.359  0.5053  0.4105  1.1851
 3343TIP3   OH231587   1.808   2.800   0.387  0.1939 -0.3455  0.4349
 3343TIP3    H131588   1.752   2.849   0.328  2.5631 -0.1716 -1.8491
 3343TIP3    H231589   1.779   2.826   0.475  0.1268  3.8250 -0.5968
 3344TIP3   OH231590   4.392   0.903   0.707  0.3151 -0.8124  0.2743
 3344TIP3    H131591   4.329   0.965   0.671  0.1549  0.0913  2.0204
 3344TIP3    H231592   4.468   0.909   0.649 -0.4638 -0.4963 -0.7357
 3345TIP3   OH231593   5.598   5.604   7.639  0.2684 -0.2198 -0.1233
 3345TIP3    H131594   5.639   5.688   7.660  2.4264 -0.5346 -2.5107
 3345TIP3    H231595   5.583   5.609   7.544 -1.2097 -1.8762 -0.0125
 3346TIP3   OH231596   6.465   4.218   9.115 -0.5424 -0.0403 -0.6947
 3346TIP3    H131597   6.554   4.193   9.142 -0.6568  1.0569  0.8924
 3346TIP3    H231598   6.408   4.158   9.162 -0.7278  1.6118  1.3782
 3347TIP3   OH231599   3.511   6.308   8.173  0.5276 -0.5561 -0.3015
 3347TIP3    H131600   3.452   6.287   8.100  1.6646 -0.4474 -1.2701
 3347TIP3    H231601   3.455   6.299   8.251 -0.9389  0.1733 -1.2139
 3348TIP3   OH231602   3.312   5.791   1.090 -0.1841  0.4017  0.4939
 3348TIP3    H131603   3.385   5.753   1.139 -0.2667 -0.7218 -0.2149
 3348TIP3    H231604   3.235   5.775   1.144 -0.5608 -2.4870 -0.7270
 3349TIP3   OH231605   5.288   1.986   9.527 -0.3817  0.2056 -0.6745
 3349TIP3    H131606   5.291   1.940   9.444  0.9061  0.4335 -0.7802
 3349TIP3    H231607   5.380   2.006   9.547 -0.7373  0.9134  0.3719
 3350TIP3   OH231608   6.103   2.165   0.416 -0.8238  0.1359  0.0751
 3350TIP3    H131609   6.168   2.230   0.445  1.1159 -2.3429  1.6669
 3350TIP3    H231610   6.131   2.141   0.327  0.1994 -0.5919  0.5842
 3351TIP3   OH231611   4.531   4.360   1.225  0.1141  0.2753  0.3236
 3351TIP3    H131612   4.600   4.345   1.289 -1.6305 -1.1578  2.0164
 3351TIP3    H231613   4.474   4.425   1.267 -1.1472 -0.8121  0.3763
 3352TIP3   OH231614   6.441   0.168   0.842 -0.3751 -0.2670 -0.3723
 3352TIP3    H131615   6.521   0.120   0.864 -0.7851 -0.3107  1.1787
 3352TIP3    H231616   6.405   0.194   0.927 -0.7813  1.7880 -1.1036
 3353TIP3   OH231617   1.363   4.762   8.115 -0.4295 -0.1258 -0.2955
 3353TIP3    H131618   1.333   4.769   8.205  1.5734 -0.1566  0.4190
 3353TIP3    H231619   1.362   4.668   8.097 -0.1326 -0.1804 -0.0401
 3354TIP3   OH231620   4.600   0.691   0.055  0.5448 -0.5068  0.0301
 3354TIP3    H131621   4.571   0.706   0.146 -1.6754 -1.3710 -0.4585
 3354TIP3    H231622   4.608   0.779   0.018 -1.8143 -0.1555  0.1880
 3355TIP3   OH231623   1.097   1.705   1.059 -0.0099 -0.1607  0.2799
 3355TIP3    H131624   1.037   1.664   1.122  0.0576  0.4605  0.7541
 3355TIP3    H231625   1.073   1.666   0.975  0.3909 -1.5388  0.7924
 3356TIP3   OH231626   1.626   4.983   1.542  0.2569 -0.6630  0.3570
 3356TIP3    H131627   1.562   5.042   1.503 -0.2932 -2.3506 -1.4182
 3356TIP3    H231628   1.574   4.924   1.597  0.5525 -0.6783  0.6224
 3357TIP3   OH231629   2.461   2.162   0.060 -0.2240  0.5045 -0.0271
 3357TIP3    H131630   2.553   2.179   0.038 -0.3252 -0.1136 -0.9885
 3357TIP3    H231631   2.440   2.081   0.013 -1.4173  0.9418 -0.2714
 3358TIP3   OH231632   0.994   4.210   2.074  0.2616 -0.4738 -0.0153
 3358TIP3    H131633   1.001   4.132   2.129  1.3124  0.0010  0.5625
 3358TIP3    H231634   0.955   4.277   2.130  0.2995 -0.3022 -0.1884
 3359TIP3   OH231635   5.608   1.406   1.633 -0.0048 -0.3095 -0.0971
 3359TIP3    H131636   5.576   1.329   1.585  0.7313 -2.0635  2.0593
 3359TIP3    H231637   5.693   1.426   1.593 -0.0349 -0.8514 -0.4377
 3360TIP3   OH231638   2.993   0.872   1.055  0.6067  0.0521 -1.5915
 3360TIP3    H131639   3.001   0.832   1.142  1.1252 -2.7075 -2.7838
 3360TIP3    H231640   2.912   0.923   1.059 -0.4007 -1.5303  0.0023
 3361TIP3   OH231641   1.082   4.219   2.766 -0.0073 -0.4117 -0.2690
 3361TIP3    H131642   1.138   4.212   2.843 -1.4029  1.7907  1.0629
 3361TIP3    H231643   0.995   4.196   2.799 -0.5688  0.2192 -1.2803
 3362TIP3   OH231644   2.775   4.612   1.232 -0.2371 -0.3104  0.2255
 3362TIP3    H131645   2.694   4.627   1.280  0.3123 -0.4794  1.2334
 3362TIP3    H231646   2.809   4.529   1.266  0.6701  0.0644  0.2873
 3363TIP3   OH231647   4.242   6.310   1.750  0.3312  0.1508 -0.4440
 3363TIP3    H131648   4.221   6.224   1.712 -0.0001  0.1337 -0.2173
 3363TIP3    H231649   4.190   6.315   1.830 -0.4834  1.0206 -1.0085
 3364TIP3   OH231650   0.254   3.050   1.554  0.0870  0.4205  0.1956
 3364TIP3    H131651   0.287   3.137   1.530  0.3029  0.9076  2.0937
 3364TIP3    H231652   0.186   3.032   1.488  0.2954  1.8558 -0.4665
 3365TIP3   OH231653   2.120   1.937   0.109  0.4082 -0.6347  0.1137
 3365TIP3    H131654   2.202   1.945   0.157  0.7682 -1.3361 -0.3560
 3365TIP3    H231655   2.147   1.928   0.017 -0.1919 -0.9119 -0.0424
 3366TIP3   OH231656   3.348   0.831   8.583  0.6215 -0.4419 -0.5902
 3366TIP3    H131657   3.369   0.920   8.554 -1.6772  0.8096  1.2224
 3366TIP3    H231658   3.265   0.810   8.541  0.4509 -1.1704  0.0735
 3367TIP3   OH231659   1.631   1.779   9.478  0.4229  0.9367 -0.2889
 3367TIP3    H131660   1.546   1.734   9.476  1.5577 -1.5894  1.7953
 3367TIP3    H231661   1.616   1.854   9.536 -1.1401  2.6044 -2.6635
 3368TIP3   OH231662   4.257   1.636   0.603 -0.4534  0.1104  0.5160
 3368TIP3    H131663   4.234   1.565   0.663 -0.3985 -0.2801  0.0734
 3368TIP3    H231664   4.228   1.607   0.517 -0.0427  0.4339  0.2593
 3369TIP3   OH231665   3.036   2.901   1.540 -0.0464  0.2257  0.6067
 3369TIP3    H131666   3.041   2.914   1.446 -1.3750  0.4663  0.5503
 3369TIP3    H231667   3.049   2.807   1.553  0.2768  0.2150  0.2046
 3370TIP3   OH231668   2.910   3.446   8.139  0.0606  0.1395 -0.1844
 3370TIP3    H131669   2.959   3.493   8.206  0.0634  0.7469 -0.6090
 3370TIP3    H231670   2.928   3.354   8.156 -0.4065  0.2561  1.0080
 3371TIP3   OH231671   5.242   5.441   8.766 -0.4116  0.2638 -0.0494
 3371TIP3    H131672   5.234   5.357   8.721  1.0174  0.3648 -0.5706
 3371TIP3    H231673   5.273   5.501   8.698 -0.5135  0.9904  0.5359
 3372TIP3   OH231674   1.085   3.635   1.084  0.0736 -0.1869  0.5369
 3372TIP3    H131675   1.003   3.683   1.076 -0.6281 -1.2597  1.0134
 3372TIP3    H231676   1.153   3.698   1.059 -0.8630  0.8154  0.4616
 3373TIP3   OH231677   4.529   0.824   1.432 -0.0860  0.2558 -0.0719
 3373TIP3    H131678   4.581   0.759   1.384 -0.2845 -0.1851  0.2968
 3373TIP3    H231679   4.570   0.828   1.519 -1.3552 -0.9716  0.6215
 3374TIP3   OH231680   4.544   4.413   1.555 -0.2990 -0.1226 -0.0742
 3374TIP3    H131681   4.605   4.339   1.562 -0.3776 -0.2535 -0.6945
 3374TIP3    H231682   4.505   4.421   1.642 -2.0051 -2.3007 -0.5505
 3375TIP3   OH231683   4.639   2.374   8.663  0.4194  0.5531 -0.4671
 3375TIP3    H131684   4.684   2.329   8.592 -0.5547 -0.9234 -0.2111
 3375TIP3    H231685   4.559   2.407   8.624 -0.6216 -1.1589  0.1003
 3376TIP3   OH231686   4.089   4.617   8.438 -0.3653  0.3165 -0.2916
 3376TIP3    H131687   4.031   4.571   8.377  0.2739 -0.2162 -0.5118
 3376TIP3    H231688   4.169   4.630   8.388  0.0156  0.2545  0.3027
 3377TIP3   OH231689   0.549   3.953   0.583 -0.6969  0.5046  0.7711
 3377TIP3    H131690   0.565   3.887   0.515 -2.5139  0.3268  0.4500
 3377TIP3    H231691   0.634   3.966   0.625  0.3601  0.1759 -1.1368
 3378TIP3   OH231692   5.629   0.741   7.979  0.2980 -0.2270  0.3993
 3378TIP3    H131693   5.547   0.694   7.993 -1.3873  2.6299  0.7511
 3378TIP3    H231694   5.623   0.773   7.889  1.5480 -0.8367  0.0723
 3379TIP3   OH231695   3.369   0.475   0.957 -0.1138 -0.3893  0.2359
 3379TIP3    H131696   3.325   0.496   0.875 -0.5543  2.1229  1.0243
 3379TIP3    H231697   3.454   0.518   0.950 -0.5275  0.6688  1.4450
 3380TIP3   OH231698   3.797   2.194   8.573  0.1222  0.1497  0.1593
 3380TIP3    H131699   3.768   2.106   8.599  0.3663  0.0757  0.1931
 3380TIP3    H231700   3.730   2.225   8.513  1.1910 -1.0357 -1.7571
 3381TIP3   OH231701   3.965   1.179   2.146 -0.1133  0.1873 -0.0759
 3381TIP3    H131702   4.024   1.138   2.208 -1.0808 -0.9926  0.0941
 3381TIP3    H231703   4.022   1.216   2.079  0.9439  1.4166  1.4458
 3382TIP3   OH231704   2.633   3.640   9.011  0.5912 -0.1309  0.7349
 3382TIP3    H131705   2.594   3.590   8.940  0.0379 -0.7199  1.4452
 3382TIP3    H231706   2.674   3.715   8.968 -0.4288 -0.0537 -0.1241
 3383TIP3   OH231707   6.064   0.421   0.293 -0.1108 -0.1925 -0.0106
 3383TIP3    H131708   5.982   0.449   0.252 -0.8166 -3.7744 -1.4731
 3383TIP3    H231709   6.046   0.421   0.387 -0.1092  3.4942  0.1134
 3384TIP3   OH231710   3.698   5.818   0.344 -0.1109  0.3474 -0.4373
 3384TIP3    H131711   3.695   5.856   0.432  0.5121  0.1388 -0.3266
 3384TIP3    H231712   3.608   5.827   0.311 -0.1664  1.1386 -0.0834
 3385TIP3   OH231713   2.933   3.655   8.505 -0.3925 -1.1439 -0.6619
 3385TIP3    H131714   2.942   3.745   8.473 -0.4783 -0.2544  1.6252
 3385TIP3    H231715   3.022   3.626   8.520 -0.4106 -0.7892  0.2001
 3386TIP3   OH231716   5.744   1.019   0.049  0.0466 -0.0999 -0.9123
 3386TIP3    H131717   5.777   1.109   0.040 -1.0147  0.7986  2.3758
 3386TIP3    H231718   5.651   1.030   0.071 -0.6285 -2.1611 -2.4644
 3387TIP3   OH231719   4.690   5.543   2.380 -0.6377  0.0119  0.2362
 3387TIP3    H131720   4.690   5.616   2.443 -0.7013  0.4993 -0.3124
 3387TIP3    H231721   4.771   5.554   2.331 -0.1661 -0.8736  0.7883
 3388TIP3   OH231722   3.029   4.820   7.596 -0.4241  0.0089 -0.1131
 3388TIP3    H131723   2.943   4.846   7.562 -0.5776  0.2048  0.4245
 3388TIP3    H231724   3.083   4.899   7.585 -0.2413 -0.1871 -0.6725
 3389TIP3   OH231725   1.802   4.613   2.989 -0.0959 -0.0733  0.0077
 3389TIP3    H131726   1.802   4.661   2.907 -0.8224  1.7091  1.0077
 3389TIP3    H231727   1.724   4.642   3.035  1.1847  0.3481  2.0943
 3390TIP3   OH231728   5.037   0.910   7.968  0.6586  0.2834  0.0021
 3390TIP3    H131729   4.983   0.967   8.024  0.8829 -0.5177  1.0458
 3390TIP3    H231730   4.979   0.837   7.946  0.9596 -0.0065  0.1792
 3391TIP3   OH231731   4.986   1.759   8.407 -0.2788 -0.1530 -0.1293
 3391TIP3    H131732   5.070   1.732   8.370  0.5290  1.3368  0.4879
 3391TIP3    H231733   5.009   1.792   8.494 -1.4133  0.8331 -0.1860
 3392TIP3   OH231734   5.671   5.590   1.837  0.1146  0.4814  0.5180
 3392TIP3    H131735   5.681   5.677   1.800  0.9991  0.1059 -0.1510
 3392TIP3    H231736   5.724   5.533   1.781  0.0772 -0.3847  1.3330
 3393TIP3   OH231737   2.443   5.455   9.171 -0.2154  0.0090 -0.3502
 3393TIP3    H131738   2.434   5.522   9.103 -1.5247  0.6279  0.4044
 3393TIP3    H231739   2.499   5.495   9.237 -1.2184  0.4875  0.2285
 3394TIP3   OH231740   0.823   1.864   1.179  0.1507  0.4358 -0.1881
 3394TIP3    H131741   0.892   1.931   1.173  1.0915 -0.4937  0.0510
 3394TIP3    H231742   0.742   1.913   1.167  0.7238  1.8444  1.2787
 3395TIP3   OH231743   1.325   5.445   8.202  0.0460  0.1372 -0.3988
 3395TIP3    H131744   1.281   5.380   8.257 -0.7973  0.7477 -0.3307
 3395TIP3    H231745   1.279   5.439   8.118 -0.8960  1.5224 -0.0050
 3396TIP3   OH231746   2.502   4.009   1.149  0.2292 -0.1160  0.1792
 3396TIP3    H131747   2.548   3.962   1.219 -0.0431  0.1724  0.5531
 3396TIP3    H231748   2.503   4.101   1.177  2.0819  0.3780 -1.2470
 3397TIP3   OH231749   2.857   4.100   1.401  0.2774 -0.1367 -0.1190
 3397TIP3    H131750   2.863   4.101   1.497  1.3962  0.0946 -0.1822
 3397TIP3    H231751   2.934   4.148   1.372 -0.0115 -0.2828 -1.1468
 3398TIP3   OH231752   2.915   0.523   0.316  0.2576  0.2705  0.6047
 3398TIP3    H131753   2.888   0.443   0.362  0.0160 -0.3820 -0.6243
 3398TIP3    H231754   3.007   0.535   0.340  1.3508 -2.3021 -1.7270
 3399TIP3   OH231755   3.209   3.253   8.652 -0.1618  0.8962 -0.0288
 3399TIP3    H131756   3.233   3.162   8.639 -1.9262  0.4059 -0.1104
 3399TIP3    H231757   3.233   3.272   8.743  0.4435  0.4401 -0.0869
 3400TIP3   OH231758   2.286   5.566   9.406 -0.0646  0.1814 -0.0226
 3400TIP3    H131759   2.346   5.610   9.466  0.6752  0.3716 -0.8842
 3400TIP3    H231760   2.343   5.523   9.342 -0.8311 -0.0162 -0.5846
 3401TIP3   OH231761   5.399   6.429   0.852  0.0077 -0.7146 -0.2152
 3401TIP3    H131762   5.494   6.422   0.866 -0.0571 -1.3120 -0.0761
 3401TIP3    H231763   5.383   6.524   0.853  0.4301 -0.6290  0.9360
 3402TIP3   OH231764   1.881   6.030   9.193 -0.5213 -0.4120 -0.6559
 3402TIP3    H131765   1.835   6.100   9.239 -0.2729 -0.4895 -0.2845
 3402TIP3    H231766   1.876   6.054   9.100  0.2633  0.5172 -0.4711
 3403TIP3   OH231767   1.997   4.710   2.300  0.1975 -0.5520 -0.0083
 3403TIP3    H131768   1.903   4.700   2.284  0.1765  1.1028 -1.1613
 3403TIP3    H231769   2.010   4.682   2.391 -1.6150  0.3091  0.5546
 3404TIP3   OH231770   1.314   5.635   1.442 -0.6282 -0.3507  0.9830
 3404TIP3    H131771   1.361   5.551   1.441  1.2076  0.6195  0.1207
 3404TIP3    H231772   1.313   5.663   1.351 -1.7595  0.2911  1.1759
 3405TIP3   OH231773   3.539   5.278   0.436 -0.1056  0.3600  0.3060
 3405TIP3    H131774   3.531   5.213   0.506  0.7776 -1.0168 -0.8217
 3405TIP3    H231775   3.575   5.356   0.478  2.6023 -1.1845  1.0147
 3406TIP3   OH231776   2.375   1.877   1.136 -0.6538  0.3420 -0.4414
 3406TIP3    H131777   2.375   1.940   1.064 -0.2637  0.0047 -0.7372
 3406TIP3    H231778   2.426   1.803   1.104  0.3587  0.5860  0.5315
 3407TIP3   OH231779   3.438   2.019   8.427 -0.5022 -0.1672 -0.1580
 3407TIP3    H131780   3.468   2.067   8.350  0.2873  0.4970  0.5417
 3407TIP3    H231781   3.492   1.940   8.428  1.8644  1.3436  1.4796
 3408TIP3   OH231782   2.939   2.897   9.537  0.3109 -0.6109  0.2439
 3408TIP3    H131783   2.953   2.985   9.573 -2.9293  0.2191 -0.2158
 3408TIP3    H231784   2.990   2.896   9.456  2.9406 -0.4161  1.7544
 3409TIP3   OH231785   5.307   0.197   1.161 -0.0369  0.0901  0.5953
 3409TIP3    H131786   5.225   0.233   1.195  0.3119  0.6299  0.8762
 3409TIP3    H231787   5.352   0.163   1.238 -0.0183 -0.2533  0.4344
 3410TIP3   OH231788   3.582   3.735   7.644 -0.7512  0.0085 -0.1331
 3410TIP3    H131789   3.573   3.823   7.681  1.5143 -0.1137  0.9191
 3410TIP3    H231790   3.502   3.721   7.594 -0.8459  2.9679 -0.9781
 3411TIP3   OH231791   6.018   3.437   6.846 -0.5821 -0.3855  0.2061
 3411TIP3    H131792   5.971   3.454   6.928 -0.9774 -1.2673  0.1732
 3411TIP3    H231793   5.951   3.447   6.778 -0.2060  0.5617 -0.0428
 3412TIP3   OH231794   4.832   4.360   0.825 -0.6432  0.0754 -0.5154
 3412TIP3    H131795   4.752   4.313   0.848 -0.1229 -1.1834 -1.1664
 3412TIP3    H231796   4.861   4.400   0.907 -1.3378 -0.4031 -0.0269
 3413TIP3   OH231797   0.326   3.678   0.682 -0.1077  0.1035  0.1502
 3413TIP3    H131798   0.304   3.765   0.715 -0.9239  0.0705 -0.3061
 3413TIP3    H231799   0.340   3.690   0.588  3.9111  0.5499  0.5957
 3414TIP3   OH231800   1.934   6.525   1.443 -0.2932 -0.6003 -0.5591
 3414TIP3    H131801   1.883   6.448   1.469 -0.9638 -0.5669 -1.6651
 3414TIP3    H231802   1.867   6.590   1.418  0.2631  0.3497  0.3802
 3415TIP3   OH231803   1.586   2.957   8.173 -0.0914 -0.0114  0.0532
 3415TIP3    H131804   1.590   2.979   8.079 -0.1726  3.3362  0.7140
 3415TIP3    H231805   1.676   2.960   8.203 -0.2059  0.2943  0.3646
 3416TIP3   OH231806   1.348   0.344   1.579  0.4932 -0.3071 -0.7973
 3416TIP3    H131807   1.443   0.337   1.566  0.2380 -0.7301 -2.5835
 3416TIP3    H231808   1.338   0.414   1.643  1.9997 -0.0704 -0.7915
 3417TIP3   OH231809   4.034   1.356   1.104  0.5487  0.3431  0.7070
 3417TIP3    H131810   3.991   1.365   1.189  0.5592 -0.2292  0.7783
 3417TIP3    H231811   3.964   1.374   1.041  0.2096 -0.4943  0.8246
 3418TIP3   OH231812   6.167   6.019   7.834 -0.3659  0.0851  0.3488
 3418TIP3    H131813   6.155   6.049   7.744  0.2309  0.1057  0.2713
 3418TIP3    H231814   6.221   5.941   7.826  0.0011  0.3017  0.7168
 3419TIP3   OH231815   2.197   3.580   1.726  0.1410  0.0747  0.0182
 3419TIP3    H131816   2.196   3.519   1.652 -0.1470 -1.7475  1.4493
 3419TIP3    H231817   2.165   3.663   1.689  1.7385 -0.2379 -2.2688
 3420TIP3   OH231818   0.176   1.119   1.804 -0.0244  0.4647 -0.4994
 3420TIP3    H131819   0.145   1.141   1.892  0.4455  0.0823 -0.2301
 3420TIP3    H231820   0.255   1.067   1.819 -0.8582 -1.0232 -1.1185
 3421TIP3   OH231821   3.054   1.280   7.252  0.1347 -0.0741 -0.0946
 3421TIP3    H131822   3.044   1.209   7.189 -1.1810  0.7440 -0.8347
 3421TIP3    H231823   3.062   1.236   7.337  3.2659 -1.2645 -0.8697
 3422TIP3   OH231824   2.382   2.136   0.636 -0.1416 -0.4115 -0.1148
 3422TIP3    H131825   2.316   2.180   0.690  0.8772  0.9742  0.0461
 3422TIP3    H231826   2.355   2.154   0.546 -0.8496 -1.2092 -0.0751
 3423TIP3   OH231827   1.974   2.811   8.592  0.2577  0.4663 -0.3301
 3423TIP3    H131828   1.891   2.836   8.552  0.5292 -0.0708 -1.2508
 3423TIP3    H231829   2.013   2.894   8.619  0.8841  1.0669 -2.8192
 3424TIP3   OH231830   2.518   0.378   6.896 -0.1305 -0.4875 -0.0717
 3424TIP3    H131831   2.463   0.337   6.829  0.3001  1.7115 -1.8866
 3424TIP3    H231832   2.591   0.317   6.908 -0.3007 -1.0139 -1.4875
 3425TIP3   OH231833   3.348   6.273   7.940  0.3040  0.0526 -0.7447
 3425TIP3    H131834   3.257   6.271   7.910 -0.7630  0.7049  2.1454
 3425TIP3    H231835   3.400   6.265   7.860 -2.2764 -1.2195 -2.4182
 3426TIP3   OH231836   0.933   5.311   2.328 -0.4884 -0.0696 -0.5206
 3426TIP3    H131837   0.839   5.298   2.319 -0.9770  2.2310  0.3833
 3426TIP3    H231838   0.941   5.387   2.387  1.8852  0.7423 -1.7438
 3427TIP3   OH231839   4.372   1.793   7.725 -0.0285 -0.0578 -0.0688
 3427TIP3    H131840   4.357   1.886   7.706 -1.8512 -0.2793  0.1644
 3427TIP3    H231841   4.463   1.778   7.699  0.5580  1.9714  0.6469
 3428TIP3   OH231842   3.569   1.320   0.832  0.6117 -0.2889  0.3075
 3428TIP3    H131843   3.569   1.345   0.739  0.4176  0.6819  0.5575
 3428TIP3    H231844   3.499   1.373   0.871  0.4971 -0.9036  0.9557
 3429TIP3   OH231845   0.472   1.625   7.701  0.6201  0.0908 -0.1757
 3429TIP3    H131846   0.377   1.639   7.713  0.7504  1.7609 -0.8059
 3429TIP3    H231847   0.499   1.697   7.645  2.3128 -0.2711  0.1427
 3430TIP3   OH231848   2.914   5.962   1.568 -0.4336  0.3652  0.5253
 3430TIP3    H131849   2.899   5.998   1.655 -2.4748  0.9130  0.0150
 3430TIP3    H231850   2.977   5.891   1.581  1.1252  1.9601  2.0545
 3431TIP3   OH231851   6.227   3.238   8.044 -0.2391 -0.8111 -0.1441
 3431TIP3    H131852   6.263   3.327   8.042 -1.7833 -0.1071  0.8224
 3431TIP3    H231853   6.194   3.228   8.133 -2.4096 -1.3515 -0.9322
 3432TIP3   OH231854   1.925   3.034   2.077  0.4373 -0.6016  0.0437
 3432TIP3    H131855   1.963   3.098   2.138  0.8074 -1.2346  0.4970
 3432TIP3    H231856   1.913   2.955   2.130 -2.5866 -0.1186  0.2031
 3433TIP3   OH231857   4.139   6.417   8.547 -0.2819 -0.1809  0.5597
 3433TIP3    H131858   4.126   6.400   8.454  0.1839 -0.2954  0.5146
 3433TIP3    H231859   4.154   6.330   8.585  0.1289 -0.0737  0.6445
 3434TIP3   OH231860   6.062   0.413   0.759 -0.3413  0.0298  0.2747
 3434TIP3    H131861   6.048   0.461   0.840 -1.5762  0.5105 -0.1864
 3434TIP3    H231862   6.148   0.441   0.728 -0.0681  0.1918  1.1764
 3435TIP3   OH231863   1.019   4.704   9.225 -0.2489  0.5462 -0.2939
 3435TIP3    H131864   0.959   4.697   9.151 -0.7051 -0.3987  0.1462
 3435TIP3    H231865   1.006   4.792   9.259 -2.5143 -0.0809  0.6886
 3436TIP3   OH231866   1.707   3.715   8.059  0.2165  0.6088  0.3238
 3436TIP3    H131867   1.721   3.658   8.134 -3.1185 -2.3137 -0.9674
 3436TIP3    H231868   1.789   3.709   8.009  0.4385 -2.2035  0.8543
 3437TIP3   OH231869   0.162   4.177   9.399 -0.5377 -0.2831  0.3019
 3437TIP3    H131870   0.169   4.272   9.387 -0.1271 -0.2785  0.5378
 3437TIP3    H231871   0.076   4.164   9.438  0.0488  0.1804  1.8696
 3438TIP3   OH231872   3.109   2.200   2.166  0.0873  0.1838  0.4651
 3438TIP3    H131873   3.054   2.263   2.120  1.9079  0.6544 -1.2013
 3438TIP3    H231874   3.150   2.251   2.236  0.1764  0.4206  0.2421
 3439TIP3   OH231875   4.065   5.654   7.821 -0.6393  0.1067  0.6566
 3439TIP3    H131876   4.141   5.702   7.790 -0.8635  0.9062  1.2960
 3439TIP3    H231877   4.084   5.563   7.801  0.8841  0.1952  1.5807
 3440TIP3   OH231878   2.838   5.005   1.464  0.5699  0.0643  0.6239
 3440TIP3    H131879   2.796   4.920   1.477 -0.9296  0.8009  0.7763
 3440TIP3    H231880   2.915   4.986   1.410  0.7784 -1.5042  1.4088
 3441TIP3   OH231881   1.674   1.287   8.571 -0.6869  0.2500 -0.0484
 3441TIP3    H131882   1.681   1.335   8.653  0.1752  1.0123 -0.5546
 3441TIP3    H231883   1.580   1.271   8.561 -0.9370  1.3240  0.4167
 3442TIP3   OH231884   1.635   2.013   0.039 -0.3250  0.2900 -0.2858
 3442TIP3    H131885   1.586   2.025   0.120  0.6962 -0.9086  0.5428
 3442TIP3    H231886   1.715   2.064   0.052  0.1939 -0.5271 -0.1991
 3443TIP3   OH231887   1.665   3.911   1.092  0.1192 -0.0199  0.2841
 3443TIP3    H131888   1.629   3.822   1.092 -0.2658  0.1054  1.9742
 3443TIP3    H231889   1.760   3.898   1.091  0.0846 -0.4882  1.6739
 3444TIP3   OH231890   0.439   2.756   9.491  0.4028 -0.3847  0.5124
 3444TIP3    H131891   0.441   2.824   9.558 -0.3478  0.3267 -0.1464
 3444TIP3    H231892   0.515   2.775   9.436 -1.1379  1.5403 -1.1271
 3445TIP3   OH231893   2.961   5.679   9.533  0.0337 -0.2216  0.1621
 3445TIP3    H131894   2.899   5.617   9.494  1.1978 -0.9221 -0.6327
 3445TIP3    H231895   3.012   5.712   9.459  2.4756 -1.7742  1.0275
 3446TIP3   OH231896   0.155   1.969   1.555 -0.1554 -0.2992  0.1827
 3446TIP3    H131897   0.119   2.005   1.474  1.1307  0.2450 -0.1718
 3446TIP3    H231898   0.242   2.009   1.562 -0.6218  0.4331  2.3498
 3447TIP3   OH231899   4.036   2.641   2.422 -0.4692 -0.6120 -0.4915
 3447TIP3    H131900   4.079   2.630   2.507 -0.1769 -0.3265 -0.5977
 3447TIP3    H231901   3.945   2.661   2.444 -0.2887 -0.0606 -0.2307
 3448TIP3   OH231902   2.633   5.645   1.349  0.2000  0.1773 -0.3775
 3448TIP3    H131903   2.683   5.585   1.405 -1.8442  0.7096  2.2278
 3448TIP3    H231904   2.562   5.591   1.314 -0.5158  0.6082  0.3846
 3449TIP3   OH231905   2.427   4.009   0.129  0.1370  0.0715  0.0300
 3449TIP3    H131906   2.336   4.017   0.102  1.0211  3.5353 -2.8454
 3449TIP3    H231907   2.468   3.960   0.058  0.7716 -0.1048  0.5123
 3450TIP3   OH231908   2.974   0.149   9.179  0.1359 -0.4544  0.7743
 3450TIP3    H131909   2.919   0.104   9.243  0.1468 -1.1338  0.3150
 3450TIP3    H231910   2.989   0.084   9.110  1.7949 -0.3894  1.0435
 3451TIP3   OH231911   6.151   2.243   9.031 -0.0957 -0.5507  0.1740
 3451TIP3    H131912   6.101   2.309   8.983  0.7419  0.0267  0.0697
 3451TIP3    H231913   6.153   2.167   8.973 -1.9915 -1.0883  0.7377
 3452TIP3   OH231914   1.245   1.854   1.786 -0.2489  0.6157 -0.3126
 3452TIP3    H131915   1.268   1.806   1.866 -0.8119 -0.1875 -0.6255
 3452TIP3    H231916   1.223   1.942   1.817 -2.1872 -0.1503  0.6660
 3453TIP3   OH231917   5.201   3.172   8.009 -0.1889 -0.4125 -0.1657
 3453TIP3    H131918   5.107   3.158   7.998 -1.1562  1.8409  3.3417
 3453TIP3    H231919   5.231   3.095   8.057 -0.8083 -0.1819  0.6283
 3454TIP3   OH231920   0.934   3.112   1.891 -0.0506  0.0455 -0.0430
 3454TIP3    H131921   0.927   3.198   1.851 -0.8666 -0.7039 -1.5991
 3454TIP3    H231922   1.027   3.104   1.914  0.1894  1.0123 -0.6168
 3455TIP3   OH231923   2.375   5.448   1.274  0.3438  0.1629 -0.0065
 3455TIP3    H131924   2.433   5.456   1.199 -0.6338 -0.7928 -0.8882
 3455TIP3    H231925   2.305   5.512   1.258  0.6038  0.5963  0.5472
 3456TIP3   OH231926   4.607   6.387   9.305  0.4320 -0.3700  0.0420
 3456TIP3    H131927   4.674   6.366   9.370  0.4636  0.0592  0.1521
 3456TIP3    H231928   4.639   6.468   9.264  1.1044 -1.3630 -1.4590
 3457TIP3   OH231929   4.985   2.459   2.026  0.5506 -0.2199 -0.3483
 3457TIP3    H131930   4.918   2.427   2.087  2.9562 -1.8435  1.6286
 3457TIP3    H231931   5.045   2.385   2.015  2.8385  1.5977 -0.8558
 3458TIP3   OH231932   2.684   4.250   8.050 -0.4183  0.0573 -0.0625
 3458TIP3    H131933   2.762   4.221   8.003 -0.7176 -1.3468  0.2698
 3458TIP3    H231934   2.638   4.306   7.987 -0.6747 -1.5694 -1.4060
 3459TIP3   OH231935   4.511   2.819   1.530 -0.3492 -0.3715 -0.5528
 3459TIP3    H131936   4.443   2.866   1.482 -0.5095  0.4644  0.4597
 3459TIP3    H231937   4.488   2.831   1.622 -0.2957 -2.3123 -0.2462
 3460TIP3   OH231938   0.960   3.067   0.664 -0.3934  0.4822 -0.4904
 3460TIP3    H131939   1.031   3.092   0.723 -1.4004  2.9680 -0.2206
 3460TIP3    H231940   0.907   3.146   0.656 -2.0150 -0.7145 -2.2865
 3461TIP3   OH231941   3.636   1.095   8.303  0.5236  0.2899 -0.0253
 3461TIP3    H131942   3.582   1.158   8.255  0.6491  0.7943  0.4907
 3461TIP3    H231943   3.605   1.100   8.393  1.8498  1.0625  0.4188
 3462TIP3   OH231944   1.325   4.227   9.346 -0.1293  0.2134 -0.0627
 3462TIP3    H131945   1.316   4.310   9.393 -2.6766  0.5536 -0.9856
 3462TIP3    H231946   1.418   4.208   9.349  0.3532  2.3883  1.3819
 3463TIP3   OH231947   0.145   2.035   8.413 -0.2836  0.1419 -0.8733
 3463TIP3    H131948   0.178   2.097   8.348  2.1460 -0.0578  0.0408
 3463TIP3    H231949   0.112   1.962   8.362  2.9229 -0.6867 -2.0291
 3464TIP3   OH231950   4.240   2.213   7.214 -0.0578 -0.0870  0.4932
 3464TIP3    H131951   4.289   2.280   7.261 -0.2906  1.9405 -1.9450
 3464TIP3    H231952   4.302   2.178   7.149 -0.9300  0.3557 -0.6136
 3465TIP3   OH231953   5.985   4.569   0.729  0.0963  0.0513  0.0209
 3465TIP3    H131954   6.065   4.543   0.683 -0.2360 -1.4845  0.2505
 3465TIP3    H231955   5.915   4.542   0.670 -0.2822  1.6293 -0.3020
 3466TIP3   OH231956   4.184   6.434   7.583  0.3328 -0.1846  0.0689
 3466TIP3    H131957   4.195   6.454   7.490 -0.9546 -0.8101 -0.2367
 3466TIP3    H231958   4.273   6.418   7.615  0.8797  0.9075 -0.8377
 3467TIP3   OH231959   0.788   5.713   1.832  0.1783  0.2750  0.0922
 3467TIP3    H131960   0.763   5.756   1.750 -0.4175  0.3520  0.3074
 3467TIP3    H231961   0.774   5.779   1.899  0.4599  0.1434  0.2826
 3468TIP3   OH231962   3.244   5.316   1.485  0.6038 -0.1873  0.1980
 3468TIP3    H131963   3.300   5.360   1.549  0.0970 -0.3296  0.7555
 3468TIP3    H231964   3.155   5.336   1.514  0.3663 -0.0854 -0.5889
 3469TIP3   OH231965   4.629   2.478   9.502 -0.3200 -0.7732 -0.1533
 3469TIP3    H131966   4.626   2.573   9.491  0.2863 -0.8446 -1.0904
 3469TIP3    H231967   4.721   2.460   9.522 -0.4091 -1.1687 -0.1048
 3470TIP3   OH231968   0.469   3.977   0.249 -0.4327  0.1380 -0.6273
 3470TIP3    H131969   0.560   4.006   0.246 -0.6356  1.3080  1.7824
 3470TIP3    H231970   0.419   4.058   0.263 -1.9597 -0.3944 -2.5353
 3471TIP3   OH231971   1.024   1.016   1.041  0.0084 -0.3274  0.1887
 3471TIP3    H131972   1.034   0.936   1.092 -0.8520 -0.3842  0.2827
 3471TIP3    H231973   0.930   1.033   1.041 -0.3182 -1.4427 -3.0629
 3472TIP3   OH231974   5.236   1.574   7.665 -0.3679 -0.2710 -0.1272
 3472TIP3    H131975   5.261   1.613   7.748  0.9647 -1.3791  0.0305
 3472TIP3    H231976   5.144   1.549   7.677 -0.8591  1.5636  0.2045
 3473TIP3   OH231977   0.100   0.443   2.602 -0.2403 -0.2567  0.4946
 3473TIP3    H131978   0.019   0.448   2.653 -0.4818  0.2865  0.0649
 3473TIP3    H231979   0.170   0.454   2.667 -0.5467  0.4485  0.7154
 3474TIP3   OH231980   4.212   2.588   8.427  0.3007  0.0660 -0.2373
 3474TIP3    H131981   4.176   2.564   8.513 -2.2283 -0.4309 -1.3475
 3474TIP3    H231982   4.177   2.675   8.410 -0.7161 -0.5609 -1.5012
 3475TIP3   OH231983   5.203   1.071   0.750 -0.6319  0.7281  1.0075
 3475TIP3    H131984   5.140   1.001   0.767 -0.5570  0.7334  1.3053
 3475TIP3    H231985   5.286   1.037   0.784 -0.6565  1.0821  1.4298
 3476TIP3   OH231986   1.664   4.525   7.874 -0.0627  0.1491  0.5343
 3476TIP3    H131987   1.658   4.617   7.846 -1.2862 -0.3346 -0.9124
 3476TIP3    H231988   1.755   4.514   7.902  0.0285  1.8748  1.0389
 3477TIP3   OH231989   4.191   5.950   8.320 -0.0520 -0.2739 -0.3115
 3477TIP3    H131990   4.245   5.972   8.395  0.2852 -0.6716 -0.4313
 3477TIP3    H231991   4.236   5.876   8.279  0.3531  0.6207 -1.5335
 3478TIP3   OH231992   1.631   2.185   1.557  0.0324 -0.1189  0.0168
 3478TIP3    H131993   1.642   2.146   1.470 -0.8664  1.3919 -0.8190
 3478TIP3    H231994   1.705   2.245   1.566 -0.9835  1.2917 -0.6383
 3479TIP3   OH231995   5.973   3.359   8.624  0.5229  0.0265 -0.7490
 3479TIP3    H131996   5.896   3.414   8.608  1.4234  1.3399 -0.8082
 3479TIP3    H231997   5.967   3.337   8.717 -0.1214 -0.2198 -0.8408
 3480TIP3   OH231998   2.976   5.946   8.879  0.1720  0.2877  0.3804
 3480TIP3    H131999   2.984   6.017   8.815  1.0761 -0.8210 -0.7691
 3480TIP3    H232000   3.006   5.868   8.834 -0.6472 -0.8375  1.6754
 3481TIP3   OH232001   0.329   0.491   9.314  0.5250 -1.1759 -0.3881
 3481TIP3    H132002   0.406   0.494   9.257  0.4669  0.6406 -0.4567
 3481TIP3    H232003   0.327   0.578   9.355 -1.0582 -1.4515  0.2017
 3482TIP3   OH232004   5.299   0.977   0.998 -0.2037  0.0589 -0.0898
 3482TIP3    H132005   5.297   0.971   1.093 -2.8208  1.2405  0.0401
 3482TIP3    H232006   5.256   1.061   0.979 -1.8810 -1.1817 -2.3118
 3483TIP3   OH232007   5.453   6.018   0.933 -0.4126  0.0196 -0.2602
 3483TIP3    H132008   5.469   6.107   0.905  1.8585  0.1384  1.1805
 3483TIP3    H232009   5.528   5.968   0.901 -0.3235 -0.8257  1.1811
 3484TIP3   OH232010   0.728   5.855   2.711 -0.3004 -0.4543 -0.3438
 3484TIP3    H132011   0.762   5.779   2.759 -0.8979 -0.8338 -0.5035
 3484TIP3    H232012   0.638   5.865   2.743 -0.8536 -0.9698 -1.6677
 3485TIP3   OH232013   0.283   2.749   7.504  0.8711 -0.2147  0.1508
 3485TIP3    H132014   0.296   2.727   7.596  1.6763 -0.1273  0.0618
 3485TIP3    H232015   0.334   2.829   7.491 -1.1180  1.1431  0.2012
 3486TIP3   OH232016   4.123   6.170   8.708  0.0584 -0.0915  0.0602
 3486TIP3    H132017   4.212   6.171   8.674  0.3175 -1.1049  0.6494
 3486TIP3    H232018   4.089   6.083   8.684  0.1429 -0.7183  2.0252
 3487TIP3   OH232019   2.028   5.454   9.349 -0.1994 -0.0650 -0.0772
 3487TIP3    H132020   2.013   5.421   9.438  1.5297 -1.3537 -0.1948
 3487TIP3    H232021   2.110   5.503   9.356 -0.7987  1.0466 -0.6887
 3488TIP3   OH232022   3.816   4.962   1.591  0.2058 -0.4597  0.2281
 3488TIP3    H132023   3.733   4.947   1.635 -1.5907  0.7110 -2.5148
 3488TIP3    H232024   3.828   5.057   1.593 -0.1810 -0.3157 -2.0932
 3489TIP3   OH232025   0.341   3.679   7.404 -0.7293 -0.0438 -0.0636
 3489TIP3    H132026   0.339   3.638   7.490  1.0533  0.1800  0.1101
 3489TIP3    H232027   0.298   3.764   7.416 -1.1807 -0.3382  0.4125
 3490TIP3   OH232028   4.323   0.868   7.726  0.2677 -0.0825 -0.2453
 3490TIP3    H132029   4.234   0.865   7.761  0.1363  0.8522 -0.4812
 3490TIP3    H232030   4.315   0.920   7.646  1.2122  0.9552  0.3147
 3491TIP3   OH232031   1.246   1.104   1.139 -0.4288 -0.2447 -0.1898
 3491TIP3    H132032   1.172   1.071   1.088 -2.2022 -0.8134  2.5314
 3491TIP3    H232033   1.229   1.198   1.147  0.2533 -0.0190 -1.1866
 3492TIP3   OH232034   1.398   2.961   9.006 -0.2931 -0.0248 -0.5195
 3492TIP3    H132035   1.422   2.907   9.081 -0.8008  0.7251  0.1932
 3492TIP3    H232036   1.414   3.051   9.034 -2.4941  0.4228 -0.5218
 3493TIP3   OH232037   6.387   2.831   1.275  0.4277 -0.3124  0.1456
 3493TIP3    H132038   6.333   2.904   1.245 -1.6308 -1.1309  1.6294
 3493TIP3    H232039   6.439   2.806   1.198 -1.5645  0.3150 -1.4811
 3494TIP3   OH232040   6.341   0.136   1.308 -0.3685  0.5031  0.4850
 3494TIP3    H132041   6.413   0.198   1.294 -0.8942  0.9279 -0.5027
 3494TIP3    H232042   6.306   0.159   1.394  1.3316 -0.4300  1.4797
 3495TIP3   OH232043   1.331   5.585   8.642  0.2942 -0.4062  0.4742
 3495TIP3    H132044   1.283   5.661   8.674 -0.7667 -0.6315 -0.5539
 3495TIP3    H232045   1.322   5.520   8.711 -1.8377 -0.8286 -0.1343
 3496TIP3   OH232046   5.040   4.185   1.318  0.3932  0.1546 -0.2112
 3496TIP3    H132047   5.054   4.164   1.410 -1.0474 -2.0145 -0.4218
 3496TIP3    H232048   5.125   4.172   1.276  0.7826  0.0320  0.6041
 3497TIP3   OH232049   3.030   5.229   2.033  0.0443  0.6168  0.0115
 3497TIP3    H132050   2.993   5.150   1.995  0.3548  0.7944 -0.6814
 3497TIP3    H232051   2.975   5.300   1.998  0.9146  0.8671 -0.9087
 3498TIP3   OH232052   6.081   2.132   2.178 -0.6981 -0.1400  0.4384
 3498TIP3    H132053   6.159   2.185   2.161 -1.9702  1.6108 -0.2617
 3498TIP3    H232054   6.108   2.070   2.246  2.4181 -2.3134 -2.4501
 3499TIP3   OH232055   2.595   5.116   0.766  0.2951  0.0691  0.3375
 3499TIP3    H132056   2.625   5.152   0.682  0.8970 -0.5621  0.2723
 3499TIP3    H232057   2.511   5.159   0.782 -0.5839 -0.8941 -1.3485
 3500TIP3   OH232058   6.301   0.827   0.782  0.7188  0.4083  0.3368
 3500TIP3    H132059   6.321   0.891   0.713  1.0902  1.7779  1.6549
 3500TIP3    H232060   6.310   0.876   0.863 -1.3238 -0.7234  1.3229
 3501TIP3   OH232061   6.211   4.504   7.539 -0.1650  0.3470  0.5120
 3501TIP3    H132062   6.161   4.423   7.536  0.5073 -0.0839  0.6172
 3501TIP3    H232063   6.265   4.496   7.618 -1.6471  1.8512  1.7421
 3502TIP3   OH232064   2.825   0.922   9.430 -0.3642  0.2294 -0.2167
 3502TIP3    H132065   2.733   0.930   9.458 -1.0280 -2.2014 -1.4694
 3502TIP3    H232066   2.863   0.860   9.492  0.1419  0.3678 -0.3879
 3503TIP3   OH232067   6.461   2.318   6.847 -0.3542  0.2284  0.1817
 3503TIP3    H132068   6.366   2.313   6.840 -0.2348 -1.2885 -0.8596
 3503TIP3    H232069   6.485   2.398   6.801 -0.9239 -1.0396 -2.5244
 3504TIP3   OH232070   5.818   3.697   8.140 -0.0229  0.4884  0.1706
 3504TIP3    H132071   5.755   3.628   8.162  0.4062 -0.5807 -1.7155
 3504TIP3    H232072   5.891   3.684   8.200 -0.3145 -0.1791  0.3847
 3505TIP3   OH232073   1.248   2.810   0.816  0.0664 -0.0534  0.8052
 3505TIP3    H132074   1.290   2.737   0.770 -0.6216 -0.2408  0.4658
 3505TIP3    H232075   1.242   2.782   0.907  1.0811  0.1605  0.9566
 3506TIP3   OH232076   0.165   4.370   0.971  0.2653 -0.1384 -0.1971
 3506TIP3    H132077   0.188   4.290   1.018  4.2350  0.4065 -0.8760
 3506TIP3    H232078   0.177   4.347   0.879 -2.4189  0.2547 -0.7347
 3507TIP3   OH232079   5.831   3.000   8.466  0.3833  0.2565  0.5136
 3507TIP3    H132080   5.754   3.057   8.469 -0.4584 -0.8631  0.9628
 3507TIP3    H232081   5.828   2.950   8.548  0.7548 -0.8489 -0.1140
 3508TIP3   OH232082   1.002   1.254   2.177  0.0444 -0.3128 -0.2453
 3508TIP3    H132083   1.095   1.231   2.186 -0.2791 -1.5540  0.1274
 3508TIP3    H232084   0.962   1.223   2.258 -0.5298  1.2540  0.1186
 3509TIP3   OH232085   4.365   0.370   9.013  0.0805 -0.5979  0.5609
 3509TIP3    H132086   4.340   0.462   9.006  0.3843 -0.6251 -1.7019
 3509TIP3    H232087   4.283   0.322   8.995  0.3635 -0.7272 -0.4513
 3510TIP3   OH232088   3.630   3.928   7.320  0.2217  0.0516 -0.2635
 3510TIP3    H132089   3.713   3.890   7.291 -0.5688 -0.3461 -2.1269
 3510TIP3    H232090   3.569   3.911   7.248 -1.2410  1.1790  0.6517
 3511TIP3   OH232091   2.442   2.131   7.406 -0.4769 -0.5912  0.0438
 3511TIP3    H132092   2.394   2.065   7.455 -0.8766 -0.8777 -0.7154
 3511TIP3    H232093   2.509   2.082   7.357  0.6292 -0.1961  1.1062
 3512TIP3   OH232094   4.316   2.017   2.164 -0.1565 -0.8006 -0.2282
 3512TIP3    H132095   4.321   1.992   2.256 -0.1630 -1.7967 -0.4865
 3512TIP3    H232096   4.251   2.088   2.161  2.0028  1.3660  0.9392
 3513TIP3   OH232097   1.737   4.607   1.742  0.1990  0.0016 -0.0531
 3513TIP3    H132098   1.715   4.583   1.832 -1.1296 -3.9120 -1.2194
 3513TIP3    H232099   1.652   4.612   1.698  0.8023  2.2302 -1.1102
 3514TIP3   OH232100   6.180   3.608   0.477  0.0680  0.0272  0.3874
 3514TIP3    H132101   6.210   3.698   0.490 -2.7668  1.1293 -0.1373
 3514TIP3    H232102   6.088   3.615   0.454  0.4516 -2.8122 -2.9842
 3515TIP3   OH232103   0.631   5.089   0.189 -0.2563  0.0224 -0.9198
 3515TIP3    H132104   0.640   5.084   0.094 -0.1725 -0.6085 -0.8847
 3515TIP3    H232105   0.691   5.158   0.216 -0.2790  0.2034 -1.3242
 3516TIP3   OH232106   6.089   6.529   0.107  0.0402  0.1520 -0.2440
 3516TIP3    H132107   6.037   6.477   0.169 -0.7785  0.3911 -0.7170
 3516TIP3    H232108   6.126   6.465   0.047 -0.4492  0.0489 -0.4439
 3517TIP3   OH232109   1.072   4.135   8.521  0.2950  0.3435  0.5480
 3517TIP3    H132110   1.072   4.095   8.608  1.9735  0.1485  0.4897
 3517TIP3    H232111   1.013   4.080   8.469  0.5972 -0.5414  1.1190
 3518TIP3   OH232112   0.586   3.121   2.318  0.1582  0.3144 -0.1814
 3518TIP3    H132113   0.564   3.030   2.300 -1.5721  0.3129  1.5969
 3518TIP3    H232114   0.631   3.118   2.403  1.1786  1.0233 -0.6700
 3519TIP3   OH232115   6.349   5.743   9.369  0.0538 -0.0546 -0.4444
 3519TIP3    H132116   6.263   5.701   9.369 -0.4890  0.9939 -1.1588
 3519TIP3    H232117   6.406   5.682   9.414 -1.1047 -0.6999  0.1870
 3520TIP3   OH232118   2.749   1.944   1.896  0.6139  0.1244 -0.8350
 3520TIP3    H132119   2.676   2.003   1.913  0.0324 -0.7921 -0.0586
 3520TIP3    H232120   2.775   1.963   1.806  0.4760  1.5856 -0.5887
 3521TIP3   OH232121   4.772   6.173   1.554 -0.2555  0.3336  0.0137
 3521TIP3    H132122   4.861   6.199   1.530 -0.0326  0.3169  0.8006
 3521TIP3    H232123   4.750   6.104   1.491 -0.3685  1.5043 -1.2659
 3522TIP3   OH232124   3.995   3.329   0.819 -0.1069 -0.3578 -0.2278
 3522TIP3    H132125   3.933   3.399   0.801  2.1072  1.5580 -0.8474
 3522TIP3    H232126   4.029   3.303   0.733 -0.1908 -1.5428  0.0735
 3523TIP3   OH232127   2.218   4.127   8.569  0.6158 -0.3461 -0.0993
 3523TIP3    H132128   2.170   4.044   8.574  0.1672 -0.0714  0.2410
 3523TIP3    H232129   2.291   4.108   8.510  0.4156 -0.9328 -0.1735
 3524TIP3   OH232130   6.319   1.712   2.579 -0.2679  0.2570 -0.5028
 3524TIP3    H132131   6.361   1.764   2.647 -1.5305 -0.4353  0.8478
 3524TIP3    H232132   6.265   1.775   2.531 -2.0525  0.2393  1.3290
 3525TIP3   OH232133   3.497   4.463   2.762 -0.9821  0.8557 -0.4776
 3525TIP3    H132134   3.569   4.524   2.777 -0.8240  0.2405  1.5544
 3525TIP3    H232135   3.418   4.512   2.785 -0.8433  0.3086  1.3019
 3526TIP3   OH232136   0.676   4.614   7.613 -0.1465 -0.1009  0.0688
 3526TIP3    H132137   0.711   4.604   7.524 -0.6970  0.1849 -0.1768
 3526TIP3    H232138   0.649   4.705   7.619  0.6968  0.1229  0.8314
 3527TIP3   OH232139   5.860   5.831   0.647 -0.1774  0.0684  0.3891
 3527TIP3    H132140   5.847   5.875   0.563  1.5409  0.9919  0.5805
 3527TIP3    H232141   5.872   5.739   0.623  1.7634  0.5290 -0.5438
 3528TIP3   OH232142   4.426   5.286   2.730  0.9194 -0.3344 -0.0949
 3528TIP3    H132143   4.435   5.355   2.664  0.2921 -1.4959 -1.4203
 3528TIP3    H232144   4.507   5.292   2.781  0.0775  2.6618  1.1313
 3529TIP3   OH232145   3.268   6.426   8.848 -0.0974 -0.4181  0.5313
 3529TIP3    H132146   3.309   6.414   8.762  1.1253 -0.6477  1.1266
 3529TIP3    H232147   3.342   6.430   8.909 -0.9903 -1.3515  1.7090
 3530TIP3   OH232148   6.312   4.305   8.860 -0.2003  0.3284 -0.1630
 3530TIP3    H132149   6.356   4.259   8.932  2.9062 -1.4281 -2.8914
 3530TIP3    H232150   6.232   4.254   8.846 -0.5906  0.3628  1.6018
 3531TIP3   OH232151   5.255   2.982   7.758 -0.2236 -0.6825  0.3802
 3531TIP3    H132152   5.315   3.035   7.810  1.2787 -2.1693  0.2515
 3531TIP3    H232153   5.307   2.906   7.732 -1.6061 -1.0653 -1.4261
 3532TIP3   OH232154   5.244   6.326   1.192 -0.1901 -0.0582  0.0840
 3532TIP3    H132155   5.211   6.349   1.105 -4.6494  1.0584  1.8112
 3532TIP3    H232156   5.290   6.405   1.221  0.2975 -0.0065 -0.7888
 3533TIP3   OH232157   0.942   2.947   0.056  0.2163  0.1517 -0.2841
 3533TIP3    H132158   0.861   2.965   0.008 -0.8313 -0.1764  1.3017
 3533TIP3    H232159   1.008   3.001   0.012 -1.0183  1.0677 -1.0935
 3534TIP3   OH232160   5.261   5.044   7.366 -0.1867 -0.3611  0.5665
 3534TIP3    H132161   5.199   5.072   7.298 -2.2369 -0.5853  2.2257
 3534TIP3    H232162   5.306   4.968   7.328 -0.1561  0.4485 -1.0824
 3535TIP3   OH232163   5.075   0.480   8.068  0.1944 -0.2406 -0.4711
 3535TIP3    H132164   5.092   0.436   7.985  0.1860 -0.4242 -0.3760
 3535TIP3    H232165   4.988   0.450   8.095 -1.4917  2.5805 -2.1782
 3536TIP3   OH232166   5.475   1.939   1.731  0.3455  0.1584 -0.1098
 3536TIP3    H132167   5.486   2.015   1.788 -1.7507 -0.0531  0.6831
 3536TIP3    H232168   5.457   1.867   1.791  1.7797 -0.8915 -0.8857
 3537TIP3   OH232169   6.176   2.025   0.765  0.3796  0.6966 -0.0195
 3537TIP3    H132170   6.205   1.992   0.679 -1.3455 -0.7590 -0.0985
 3537TIP3    H232171   6.156   2.117   0.749 -2.1645 -0.0507 -1.8738
 3538TIP3   OH232172   0.185   1.177   0.503 -0.0280 -0.2485 -0.0148
 3538TIP3    H132173   0.124   1.188   0.575  0.8086  1.4820  0.4737
 3538TIP3    H232174   0.217   1.265   0.484 -0.4367 -0.5824 -2.7234
 3539TIP3   OH232175   6.192   3.013   7.327 -0.7313  0.5419  0.2056
 3539TIP3    H132176   6.261   2.948   7.340 -0.9972  0.1972 -0.0804
 3539TIP3    H232177   6.238   3.098   7.332 -0.4904  0.3655  1.2101
 3540TIP3   OH232178   3.553   5.373   0.743 -0.3634  0.0942  0.2172
 3540TIP3    H132179   3.635   5.351   0.786 -0.3704  2.0889  1.3611
 3540TIP3    H232180   3.499   5.411   0.812 -2.1718 -0.9098 -0.5670
 3541TIP3   OH232181   4.107   4.832   8.678 -0.2120 -0.2284 -0.6141
 3541TIP3    H132182   4.140   4.917   8.648 -1.6835  0.6674  0.2025
 3541TIP3    H232183   4.015   4.832   8.654 -0.9744 -0.2845  2.0312
 3542TIP3   OH232184   1.300   4.115   8.373  0.2328  0.1558  0.1308
 3542TIP3    H132185   1.356   4.191   8.357  1.1794 -0.7146 -0.8348
 3542TIP3    H232186   1.225   4.150   8.422 -1.2984  2.4810 -3.4977
 3543TIP3   OH232187   5.821   5.446   1.662 -0.2519 -0.2652  0.4207
 3543TIP3    H132188   5.834   5.362   1.618  0.5216  0.5147 -0.9313
 3543TIP3    H232189   5.909   5.484   1.667 -0.4613  0.1132  1.8001
 3544TIP3   OH232190   5.042   1.692   1.127  0.3035  0.1180  0.2424
 3544TIP3    H132191   5.081   1.693   1.215  2.0252 -0.1835 -0.4819
 3544TIP3    H232192   5.060   1.605   1.093 -1.2672 -0.1264 -0.0618
 3545TIP3   OH232193   5.296   3.388   7.900  0.3874 -0.4927  0.1597
 3545TIP3    H132194   5.234   3.396   7.827  1.9339 -0.0593 -1.1613
 3545TIP3    H232195   5.268   3.310   7.948  0.4061 -1.8695 -1.9724
 3546TIP3   OH232196   6.315   6.294   8.084  0.1920  0.7512  0.2623
 3546TIP3    H132197   6.325   6.383   8.118 -0.5159  1.7920 -2.0876
 3546TIP3    H232198   6.377   6.242   8.135 -0.8854  2.0980  3.2225
 3547TIP3   OH232199   4.078   2.519   8.647  0.3968  0.3962 -0.2903
 3547TIP3    H132200   4.033   2.441   8.615  0.7948  0.1573 -0.2742
 3547TIP3    H232201   4.024   2.550   8.720  1.3543 -1.1002  1.1163
 3548TIP3   OH232202   3.631   6.377   2.952 -0.2384 -0.5701  0.2886
 3548TIP3    H132203   3.644   6.458   2.903 -0.8752 -0.7645 -0.2093
 3548TIP3    H232204   3.717   6.335   2.953 -0.3666 -0.9317 -1.3274
 3549TIP3   OH232205   2.993   3.727   1.043 -0.0775  0.0880 -0.6920
 3549TIP3    H132206   3.013   3.819   1.056 -1.2944  0.3772 -0.7304
 3549TIP3    H232207   2.985   3.716   0.949  0.8799 -0.2545 -0.7463
 3550TIP3   OH232208   5.994   3.060   7.770 -0.4950 -0.0657  0.0266
 3550TIP3    H132209   6.011   2.970   7.743  0.5557  0.1868 -0.1952
 3550TIP3    H232210   6.081   3.099   7.782 -0.9039  1.2382 -0.9476
 3551TIP3   OH232211   1.132   4.505   8.021  0.0707  0.2803 -0.0753
 3551TIP3    H132212   1.068   4.438   7.996  0.7873 -0.4326 -0.0145
 3551TIP3    H232213   1.196   4.459   8.074  0.9358  0.8679 -0.5826
 3552TIP3   OH232214   3.243   4.777   1.797  0.2998  0.1028  0.3342
 3552TIP3    H132215   3.255   4.712   1.727  0.9511  0.2685  0.2863
 3552TIP3    H232216   3.187   4.844   1.758 -0.9956 -0.7857  0.6198
 3553TIP3   OH232217   1.314   5.673   8.379  0.3122  0.3897 -0.0093
 3553TIP3    H132218   1.340   5.599   8.324 -1.0479 -0.1327  0.0150
 3553TIP3    H232219   1.278   5.633   8.458 -0.3869  1.0771  0.0297
 3554TIP3   OH232220   0.575   4.976   0.498  0.0605  0.4523  0.1462
 3554TIP3    H132221   0.665   4.966   0.530  0.6712  1.3284 -1.2094
 3554TIP3    H232222   0.583   5.035   0.423 -1.6531  0.5095 -0.0214
 3555TIP3   OH232223   5.169   4.298   6.722  0.4526 -0.1498  0.2293
 3555TIP3    H132224   5.098   4.330   6.777 -0.4740 -1.8638  0.1009
 3555TIP3    H232225   5.247   4.344   6.755 -0.1301 -0.7521  2.6843
 3556TIP3   OH232226   5.960   1.013   1.134 -0.0794  0.4540 -0.1743
 3556TIP3    H132227   5.874   0.972   1.122  1.1130 -2.1060 -0.6213
 3556TIP3    H232228   5.967   1.027   1.228  0.0655 -1.9734  0.2394
 3557TIP3   OH232229   4.909   6.142   9.053 -0.0696  0.1700 -0.0600
 3557TIP3    H132230   4.978   6.174   9.111 -0.2319 -0.3397  0.4310
 3557TIP3    H232231   4.861   6.220   9.027 -0.4990  0.3364  1.1650
 3558TIP3   OH232232   3.632   0.129   1.043  0.1878  0.1305  0.3104
 3558TIP3    H132233   3.562   0.194   1.053 -0.4156 -0.7227  1.9526
 3558TIP3    H232234   3.713   0.179   1.052 -0.2475  0.8578  0.2429
 3559TIP3   OH232235   6.054   6.088   0.162  0.3488  0.3285 -0.2872
 3559TIP3    H132236   6.137   6.123   0.130  1.3845 -0.0876  1.7441
 3559TIP3    H232237   6.080   6.020   0.224 -1.5605 -1.1064 -0.9916
 3560TIP3   OH232238   2.511   2.291   1.501 -0.0883 -0.1437 -1.0000
 3560TIP3    H132239   2.600   2.257   1.494  0.0785  0.4125 -1.7339
 3560TIP3    H232240   2.485   2.274   1.591  0.1323 -1.8519 -1.2243
 3561TIP3   OH232241   4.490   0.327   9.371 -0.3395 -0.1476  0.2923
 3561TIP3    H132242   4.475   0.275   9.450 -2.5838  0.5967  0.4287
 3561TIP3    H232243   4.556   0.392   9.397  1.1218 -1.6932  0.6502
 3562TIP3   OH232244   0.589   5.674   7.710 -0.1022 -0.3756  0.2795
 3562TIP3    H132245   0.631   5.619   7.643  1.3082 -1.1912  1.7659
 3562TIP3    H232246   0.646   5.666   7.786 -2.2351 -0.3597  1.9611
 3563TIP3   OH232247   1.208   6.237   9.318 -0.5133 -0.3408 -0.3026
 3563TIP3    H132248   1.151   6.165   9.292  2.1529 -2.3611 -1.0975
 3563TIP3    H232249   1.230   6.282   9.237 -0.6641  0.1559 -0.0704
 3564TIP3   OH232250   0.653   1.212   9.380 -0.1613  0.6666  0.2234
 3564TIP3    H132251   0.697   1.185   9.299  1.2262  0.6341  0.9659
 3564TIP3    H232252   0.575   1.259   9.349  0.4207  0.8056 -1.1398
 3565TIP3   OH232253   2.062   2.555   7.683 -0.2057 -0.0577  0.0591
 3565TIP3    H132254   2.045   2.649   7.680  0.4578  0.0731  0.2306
 3565TIP3    H232255   1.976   2.515   7.692 -0.4843  0.5382  0.0733
 3566TIP3   OH232256   1.028   2.842   1.421 -0.0963  0.2588  0.2156
 3566TIP3    H132257   1.099   2.870   1.363 -0.2539 -0.4133 -0.3172
 3566TIP3    H232258   1.042   2.748   1.433  0.8390  0.6407  2.5527
 3567TIP3   OH232259   4.631   1.829   6.588 -0.0823 -0.0423  0.5793
 3567TIP3    H132260   4.693   1.784   6.530 -1.0748  0.1626 -0.6863
 3567TIP3    H232261   4.613   1.766   6.657  0.7168 -0.5073  0.3805
 3568TIP3   OH232262   3.513   2.187   1.479  0.4552  0.3770  0.3723
 3568TIP3    H132263   3.475   2.156   1.561  0.3801 -0.1013  0.1620
 3568TIP3    H232264   3.527   2.280   1.492 -0.4185  0.4858  0.5947
 3569TIP3   OH232265   0.406   1.427   7.414  0.5303 -0.2731 -0.3212
 3569TIP3    H132266   0.433   1.338   7.436  0.7066  0.0801  0.9655
 3569TIP3    H232267   0.445   1.482   7.482  0.3412  0.7803 -1.0383
 3570TIP3   OH232268   3.774   5.138   0.251 -0.0254 -0.2965 -0.0747
 3570TIP3    H132269   3.687   5.162   0.284  0.6397  2.0056  0.2365
 3570TIP3    H232270   3.824   5.119   0.330  0.4078  0.9519 -0.0207
 3571TIP3   OH232271   0.474   2.397   2.841 -0.0394 -0.0637  0.3054
 3571TIP3    H132272   0.474   2.320   2.898 -1.3495  0.0151  0.4351
 3571TIP3    H232273   0.394   2.388   2.789  1.2248 -0.2582 -1.7243
 3572TIP3   OH232274   3.591   0.603   2.767 -0.2571 -0.0304  0.4421
 3572TIP3    H132275   3.586   0.640   2.679 -0.6752 -1.6776 -0.2692
 3572TIP3    H232276   3.560   0.673   2.825 -0.1887  0.9981 -0.7344
 3573TIP3   OH232277   0.576   0.274   8.666 -0.0814 -0.2286 -0.7830
 3573TIP3    H132278   0.572   0.346   8.603  0.2973  0.9703  0.4911
 3573TIP3    H232279   0.485   0.248   8.678 -0.4583  1.4173  0.2049
 3574TIP3   OH232280   4.037   5.788   0.545 -0.5199  0.4162 -0.1323
 3574TIP3    H132281   4.075   5.835   0.619  0.2194 -0.0300 -0.2093
 3574TIP3    H232282   3.943   5.803   0.552 -0.5377 -0.1482  1.2846
 3575TIP3   OH232283   3.512   2.541   0.197  0.3130 -0.6896  0.0835
 3575TIP3    H132284   3.516   2.464   0.253 -0.7027  0.0564  1.2405
 3575TIP3    H232285   3.543   2.613   0.253 -2.8092  0.4619  0.4977
 3576TIP3   OH232286   2.675   3.749   0.381  0.0792 -0.7200 -0.4805
 3576TIP3    H132287   2.767   3.745   0.358  0.0414 -2.4510 -0.4433
 3576TIP3    H232288   2.636   3.671   0.341 -0.6854 -1.8523  2.2368
 3577TIP3   OH232289   1.845   4.483   7.491 -0.2483 -0.0123 -0.3630
 3577TIP3    H132290   1.906   4.421   7.451  3.0900 -0.1454  4.1559
 3577TIP3    H232291   1.776   4.428   7.528  0.9138 -0.8035  0.7395
 3578TIP3   OH232292   1.275   4.070   1.257 -0.1870 -0.1803 -0.4005
 3578TIP3    H132293   1.214   4.105   1.322  0.0048 -0.1485 -0.2340
 3578TIP3    H232294   1.259   4.122   1.178  1.6006  1.8405  0.4481
 3579TIP3   OH232295   2.936   1.562   0.169  0.4185 -0.0873  0.4621
 3579TIP3    H132296   2.888   1.619   0.109  0.7341  0.1404  0.4256
 3579TIP3    H232297   2.899   1.475   0.153  1.1594 -0.1998 -0.7543
 3580TIP3   OH232298   6.373   3.765   8.667 -0.3492  0.0345  0.4929
 3580TIP3    H132299   6.442   3.829   8.683 -0.4874  0.3721 -0.2212
 3580TIP3    H232300   6.307   3.784   8.734 -0.2552  0.4441  0.4717
 3581TIP3   OH232301   3.002   2.607   7.736  0.7246  0.1412 -0.6683
 3581TIP3    H132302   2.963   2.670   7.675 -1.2752 -0.4364 -0.0629
 3581TIP3    H232303   3.096   2.615   7.722  0.5164  2.8106 -1.0564
 3582TIP3   OH232304   1.633   1.993   8.501 -0.0564  0.1214 -0.1433
 3582TIP3    H132305   1.643   1.898   8.507 -1.4638 -0.0084  0.4919
 3582TIP3    H232306   1.646   2.024   8.590 -0.5906  0.4206 -0.1691
 3583TIP3   OH232307   5.838   5.101   1.955  0.5778  0.1168 -0.5701
 3583TIP3    H132308   5.868   5.050   2.030 -1.2354  1.7251  1.3709
 3583TIP3    H232309   5.743   5.097   1.959  0.3146  3.3057 -0.4265
 3584TIP3   OH232310   3.444   5.548   8.894  0.4625  0.1503 -0.3912
 3584TIP3    H132311   3.478   5.563   8.983  2.4973 -2.9729 -0.4892
 3584TIP3    H232312   3.360   5.505   8.908  0.9202 -0.6219  0.0770
 3585TIP3   OH232313   3.018   0.135   7.958 -0.0152  0.1211  0.0180
 3585TIP3    H132314   3.023   0.228   7.977  3.4175 -0.1936  1.5126
 3585TIP3    H232315   2.974   0.097   8.034  1.4239  0.2860  0.9831
 3586TIP3   OH232316   3.683   1.711   9.455 -0.0604 -0.1212 -0.0089
 3586TIP3    H132317   3.764   1.663   9.437 -0.8816 -1.1517 -1.0960
 3586TIP3    H232318   3.680   1.780   9.389  0.0131  0.0469  0.1595
 3587TIP3   OH232319   1.061   3.987   0.606  0.1269  0.0731 -0.0687
 3587TIP3    H132320   1.102   3.936   0.536 -1.6360 -3.2530  1.0843
 3587TIP3    H232321   1.132   4.003   0.669  0.9253 -0.2173 -0.8773
 3588TIP3   OH232322   3.435   2.155   1.747  0.0744 -0.2625  0.0439
 3588TIP3    H132323   3.439   2.077   1.803  0.3305 -0.4049 -0.1672
 3588TIP3    H232324   3.381   2.217   1.796 -0.2698 -0.6314  0.1426
 3589TIP3   OH232325   0.879   4.633   1.642  0.1008 -0.5309 -0.3928
 3589TIP3    H132326   0.953   4.644   1.702  0.9660  0.8688 -1.6282
 3589TIP3    H232327   0.817   4.701   1.667 -0.0524 -0.6787 -0.3690
 3590TIP3   OH232328   2.187   0.995   0.460  0.7177 -0.0040 -0.6339
 3590TIP3    H132329   2.242   1.074   0.463  0.2169  0.3856 -1.4669
 3590TIP3    H232330   2.211   0.953   0.377  0.2511 -0.1966 -0.6700
 3591TIP3   OH232331   5.707   3.289   2.349 -0.0797 -0.5794  0.0980
 3591TIP3    H132332   5.624   3.336   2.351 -0.0597 -0.5600  0.6536
 3591TIP3    H232333   5.696   3.217   2.410  0.5645 -0.1339  0.7615
 3592TIP3   OH232334   0.324   1.898   7.983  0.2314  0.0059 -0.0717
 3592TIP3    H132335   0.346   1.950   7.906  0.8437 -0.8071 -0.4600
 3592TIP3    H232336   0.381   1.932   8.052  0.1897  0.2538 -0.1574
 3593TIP3   OH232337   5.984   5.705   7.600  0.2274 -0.3522 -0.6992
 3593TIP3    H132338   5.924   5.780   7.603  2.1703  1.2741  1.1572
 3593TIP3    H232339   5.952   5.646   7.668 -0.4741 -0.5235 -1.1678
 3594TIP3   OH232340   4.915   0.672   7.940 -0.0675 -0.3435 -0.2431
 3594TIP3    H132341   4.948   0.612   8.006  0.8195  1.1715  0.7355
 3594TIP3    H232342   4.963   0.648   7.860  2.2746  0.7573  0.7639
 3595TIP3   OH232343   0.707   4.408   2.523  0.2314 -0.0992  1.3876
 3595TIP3    H132344   0.660   4.354   2.460 -0.0130  1.0743  0.5228
 3595TIP3    H232345   0.734   4.485   2.473  1.2780  0.2069  2.3832
 3596TIP3   OH232346   0.175   2.479   7.717  0.2233  0.1291 -0.6165
 3596TIP3    H132347   0.087   2.504   7.745  0.1353  0.7124 -1.3786
 3596TIP3    H232348   0.234   2.527   7.775  0.0422  1.0504 -1.1843
 3597TIP3   OH232349   1.939   2.996   7.503 -0.2779  0.3438  0.4917
 3597TIP3    H132350   1.937   2.953   7.417  1.8306  0.7442  0.1855
 3597TIP3    H232351   1.896   2.935   7.562  1.9829 -1.9200 -0.0680
 3598TIP3   OH232352   2.389   5.997   2.608  0.0917  0.0121 -0.1028
 3598TIP3    H132353   2.421   5.929   2.549 -1.6768  1.6302 -3.1779
 3598TIP3    H232354   2.438   6.075   2.585  0.7576  0.2928  2.0482
 3599TIP3   OH232355   2.831   0.579   9.349 -0.0966  0.3283 -0.3935
 3599TIP3    H132356   2.869   0.579   9.437 -0.6611 -0.9167 -0.1341
 3599TIP3    H232357   2.878   0.649   9.303  2.8456 -1.3555 -0.2121
 3600TIP3   OH232358   0.081   0.879   8.727 -0.5017  0.0601 -0.3009
 3600TIP3    H132359   0.065   0.938   8.653 -0.4666 -1.3369 -1.4669
 3600TIP3    H232360   0.003   0.824   8.731  0.1939 -0.9525 -0.3548
 3601TIP3   OH232361   4.702   5.752   2.551 -0.0396  0.1492  0.1570
 3601TIP3    H132362   4.713   5.846   2.545  1.3416  0.0687  0.9884
 3601TIP3    H232363   4.645   5.739   2.627  0.3256  0.2883  0.4555
 3602TIP3   OH232364   0.017   2.802   1.692  0.1330  0.5537 -0.3368
 3602TIP3    H132365  -0.056   2.843   1.645  0.7143  1.3851 -0.5368
 3602TIP3    H232366  -0.026   2.744   1.756 -0.6894  0.6909 -0.7404
 3603TIP3   OH232367   5.392   1.808   9.330  0.3847 -0.0584 -0.4111
 3603TIP3    H132368   5.409   1.715   9.344 -1.3926 -0.6701 -1.9031
 3603TIP3    H232369   5.476   1.844   9.302  2.6426  0.0680  5.2892
 3604TIP3   OH232370   1.161   4.093   0.345  0.3902 -0.1533  0.6063
 3604TIP3    H132371   1.144   4.188   0.346 -0.2958 -0.2537  2.2102
 3604TIP3    H232372   1.244   4.084   0.299  0.7920  1.2998  0.9857
 3605TIP3   OH232373   0.582   5.403   8.832 -0.2432  0.2931  0.4330
 3605TIP3    H132374   0.598   5.497   8.845 -0.0403  0.3583 -0.2557
 3605TIP3    H232375   0.668   5.362   8.845 -0.1301  0.3121 -0.2160
 3606TIP3   OH232376   5.722   0.886   1.082 -0.6769 -0.2428  0.5136
 3606TIP3    H132377   5.679   0.972   1.073  0.8871  0.5168 -0.1360
 3606TIP3    H232378   5.650   0.823   1.083 -1.8724  1.0822  1.1369
 3607TIP3   OH232379   4.976   3.899   0.899 -0.0300 -0.0081 -0.2140
 3607TIP3    H132380   4.967   3.903   0.804  0.3737  2.0285 -0.2210
 3607TIP3    H232381   4.966   3.990   0.928 -1.4524 -0.7518  1.8394
 3608TIP3   OH232382   0.709   6.370   2.191 -0.6006  0.5673  0.1015
 3608TIP3    H132383   0.650   6.297   2.178 -0.2774  0.4325 -0.6745
 3608TIP3    H232384   0.688   6.432   2.121 -0.4050  0.9028  0.3313
 3609TIP3   OH232385   6.365   2.723   9.071  0.8933 -0.0441 -0.0502
 3609TIP3    H132386   6.391   2.815   9.080 -1.5290  0.5604  1.5300
 3609TIP3    H232387   6.415   2.692   8.995  2.6952  2.2039  0.1021
 3610TIP3   OH232388   1.710   1.544   0.149 -0.4008 -0.0788 -0.0417
 3610TIP3    H132389   1.781   1.603   0.125 -0.5483  0.1918  0.1792
 3610TIP3    H232390   1.678   1.510   0.065 -0.0740 -0.1341 -0.1472
 3611TIP3   OH232391   5.655   0.333   0.101 -0.2020 -0.6004  0.0701
 3611TIP3    H132392   5.727   0.331   0.038  0.7250  0.6448  1.0375
 3611TIP3    H232393   5.579   0.301   0.052  1.1203 -2.6269 -0.7941
 3612TIP3   OH232394   1.293   6.505   1.114 -0.3830 -0.0655  0.5379
 3612TIP3    H132395   1.249   6.575   1.163  0.6826  1.9873 -1.2903
 3612TIP3    H232396   1.279   6.527   1.022  2.2514 -0.7308 -0.1077
 3613TIP3   OH232397   4.591   2.868   1.231 -0.4109 -0.5592 -0.2236
 3613TIP3    H132398   4.593   2.780   1.268  1.6438 -0.2677  0.5163
 3613TIP3    H232399   4.543   2.921   1.294  1.0172 -0.5665  0.9317
 3614TIP3   OH232400   6.501   0.389   1.748 -0.4547 -0.2572 -0.6381
 3614TIP3    H132401   6.554   0.466   1.769 -0.4188  0.1688 -2.1737
 3614TIP3    H232402   6.480   0.400   1.656 -0.7573 -1.9185 -0.7843
 3615TIP3   OH232403   5.599   1.811   0.230  0.5408  0.1578 -0.0373
 3615TIP3    H132404   5.628   1.724   0.257  0.2491 -0.3755 -1.3786
 3615TIP3    H232405   5.680   1.863   0.226  1.0784 -0.7336 -1.6407
 3616TIP3   OH232406   3.585   0.048   8.253  0.7048 -0.4795  0.3708
 3616TIP3    H132407   3.680   0.064   8.257  0.6826  0.9983 -2.5435
 3616TIP3    H232408   3.577  -0.039   8.214  0.8258 -0.8915  1.2372
 3617TIP3   OH232409   4.154   2.764   7.482 -0.4174  0.5444  0.4714
 3617TIP3    H132410   4.061   2.780   7.494 -0.6477 -0.0270 -0.4716
 3617TIP3    H232411   4.159   2.696   7.415  0.5693 -1.7409  2.7013
 3618TIP3   OH232412   0.647   0.355   8.902 -0.2464  0.2912 -0.0229
 3618TIP3    H132413   0.642   0.304   8.821 -1.0917 -2.2393  1.5046
 3618TIP3    H232414   0.721   0.415   8.888 -1.6316  1.4379 -3.3855
 3619TIP3   OH232415   1.248   2.357   1.083  0.3406  0.2429 -0.2254
 3619TIP3    H132416   1.331   2.313   1.095 -0.6668 -1.4733  0.8165
 3619TIP3    H232417   1.197   2.335   1.162 -0.8593  1.7984 -0.5108
 3620TIP3   OH232418   2.258   2.290   1.103 -0.1341 -0.0094 -0.5363
 3620TIP3    H132419   2.305   2.220   1.057  0.1916 -0.5984  0.6565
 3620TIP3    H232420   2.323   2.325   1.165 -0.5700  0.7521 -0.5014
 3621TIP3   OH232421   4.681   1.636   7.987 -0.3010  0.5270 -0.1838
 3621TIP3    H132422   4.646   1.725   7.994 -0.1527  0.5517  0.2494
 3621TIP3    H232423   4.714   1.616   8.074  0.3081  0.3106 -0.4622
 3622TIP3   OH232424   0.936   2.044   0.709 -0.2186  0.0447 -0.3898
 3622TIP3    H132425   0.847   2.064   0.740 -0.4415 -2.2502  0.6189
 3622TIP3    H232426   0.980   2.004   0.784  1.1124 -0.4083 -1.3674
 3623TIP3   OH232427   6.424   0.601   7.204  0.0721 -0.0533 -0.1609
 3623TIP3    H132428   6.494   0.573   7.145 -0.5937 -1.5322 -0.2846
 3623TIP3    H232429   6.364   0.527   7.208 -0.8237  0.6886  0.9830
 3624TIP3   OH232430   0.568   3.684   8.153  0.7268 -0.0373 -0.2705
 3624TIP3    H132431   0.520   3.722   8.080 -0.8340 -0.7275  0.3390
 3624TIP3    H232432   0.505   3.625   8.195  0.7122  2.0661  3.0394
 3625TIP3   OH232433   2.420   4.891   0.615  0.5271  0.2183 -0.4009
 3625TIP3    H132434   2.507   4.914   0.648  0.7542 -2.1703  0.8401
 3625TIP3    H232435   2.436   4.849   0.531  0.7115 -1.1307  0.2818
 3626TIP3   OH232436   2.996   0.536   7.792  0.5350 -0.0479 -0.2227
 3626TIP3    H132437   2.979   0.508   7.702 -1.0488 -0.2332  0.0986
 3626TIP3    H232438   3.058   0.609   7.783  0.2288  0.0863 -1.4743
 3627TIP3   OH232439   6.497   1.558   0.977  0.3828  0.5095 -0.5096
 3627TIP3    H132440   6.499   1.484   1.038 -1.5860  1.2675  0.5765
 3627TIP3    H232441   6.588   1.571   0.952  1.5777  1.0755  3.4698
 3628TIP3   OH232442   3.973   1.381   0.630 -0.3294  0.8188  0.1571
 3628TIP3    H132443   3.894   1.327   0.626  0.3043 -0.0766 -1.5982
 3628TIP3    H232444   3.979   1.420   0.543  2.1154 -0.6444 -0.4414
 3629TIP3   OH232445   0.116   6.381   7.838 -0.3923 -0.1910  0.4661
 3629TIP3    H132446   0.025   6.397   7.815  0.1337  1.9786 -0.3753
 3629TIP3    H232447   0.166   6.422   7.767  1.2464 -0.2969  1.5141
 3630TIP3   OH232448   1.932   1.649   0.859 -0.5440  0.1074 -0.4110
 3630TIP3    H132449   1.985   1.728   0.872 -0.5878 -0.0625  0.9075
 3630TIP3    H232450   1.842   1.682   0.852 -0.6921  0.1315  1.1990
 3631TIP3   OH232451   4.268   1.140   0.600  0.0827 -0.0785 -0.4318
 3631TIP3    H132452   4.248   1.160   0.691 -0.6318 -0.7300 -0.4328
 3631TIP3    H232453   4.241   1.218   0.552 -0.5548 -0.1479 -0.1966
 3632TIP3   OH232454   4.004   5.800   7.309  0.0654 -0.4785  0.0558
 3632TIP3    H132455   4.011   5.705   7.296  1.4204 -0.2963 -0.6455
 3632TIP3    H232456   3.961   5.832   7.230 -0.5427 -0.5024  0.3634
 3633TIP3   OH232457   2.211   2.211   8.916  0.1213  0.2969  0.5259
 3633TIP3    H132458   2.272   2.275   8.879 -0.3602  0.0141 -0.8208
 3633TIP3    H232459   2.229   2.130   8.867  1.6517 -1.0630  3.0860
 3634TIP3   OH232460   0.436   6.217   1.107 -0.1659  0.3276 -0.3127
 3634TIP3    H132461   0.474   6.138   1.145 -0.3488  0.3937  0.0103
 3634TIP3    H232462   0.358   6.234   1.159 -2.0100 -1.1468 -2.4024
 3635TIP3   OH232463   0.338   3.099   1.171  0.2664  0.5892  0.5079
 3635TIP3    H132464   0.315   3.163   1.104  1.3881  0.3541 -0.1365
 3635TIP3    H232465   0.400   3.144   1.227 -0.2527  0.6074  1.0740
 3636TIP3   OH232466   1.048   5.997   9.254 -0.2312 -0.7873 -0.2171
 3636TIP3    H132467   1.038   5.914   9.207 -1.2559 -0.8451  0.0885
 3636TIP3    H232468   0.994   5.987   9.332 -2.5600  1.1395 -1.4673
 3637TIP3   OH232469   2.420   2.743   0.311  0.4352 -0.0091  0.5574
 3637TIP3    H132470   2.341   2.694   0.334  1.6480 -1.5885  1.5791
 3637TIP3    H232471   2.474   2.740   0.390  0.3425  3.5994  0.9002
 3638TIP3   OH232472   2.514   6.131   1.658  0.1395 -0.0663 -0.8559
 3638TIP3    H132473   2.528   6.073   1.582 -0.2032  0.9111 -1.6843
 3638TIP3    H232474   2.475   6.074   1.724 -0.2748 -0.7751 -1.6841
 3639TIP3   OH232475   6.310   3.452   1.507 -0.5093 -0.0395  0.1322
 3639TIP3    H132476   6.255   3.496   1.442  0.4297  3.7031  1.6107
 3639TIP3    H232477   6.262   3.371   1.527 -1.3378 -0.9463 -4.3067
 3640TIP3   OH232478   0.124   4.122   1.112  0.3217  0.6191  0.1910
 3640TIP3    H132479   0.181   4.078   1.049 -2.3183 -2.5682 -0.2385
 3640TIP3    H232480   0.156   4.093   1.197  0.0418 -0.2762  0.0011
 3641TIP3   OH232481   2.452   5.968   0.807 -0.5116  0.0972  0.2035
 3641TIP3    H132482   2.383   5.904   0.790  0.6847 -1.3354  0.4992
 3641TIP3    H232483   2.529   5.934   0.760  0.1115  1.4438  0.1846
 3642TIP3   OH232484   2.889   4.868   7.918  0.6433  0.2549 -0.1821
 3642TIP3    H132485   2.928   4.929   7.855 -0.8732  0.0041 -1.4366
 3642TIP3    H232486   2.830   4.814   7.865  1.3650 -1.8204  0.9992
 3643TIP3   OH232487   1.021   4.375   8.418  0.3734  0.7090  0.1890
 3643TIP3    H132488   0.982   4.345   8.336 -0.5354  1.5782  0.2854
 3643TIP3    H232489   1.017   4.299   8.476  0.6057  0.2252 -0.4193
 3644TIP3   OH232490   1.738   4.746   8.709  0.1916  0.3986  0.1932
 3644TIP3    H132491   1.720   4.758   8.802 -0.7116  0.5378  0.0103
 3644TIP3    H232492   1.826   4.781   8.696  0.5398 -0.1111  1.0908
 3645TIP3   OH232493   3.585   4.930   1.723  0.2710  0.4480  0.0082
 3645TIP3    H132494   3.543   4.887   1.796 -0.7530  2.6590  0.8174
 3645TIP3    H232495   3.530   5.006   1.704  2.6162  2.2037 -0.3944
 3646TIP3   OH232496   0.612   3.721   0.204  0.2763 -0.3641 -0.1295
 3646TIP3    H132497   0.639   3.640   0.247  0.6766  0.3958  1.1098
 3646TIP3    H232498   0.545   3.758   0.262  1.7604  1.3396  0.5699
 3647TIP3   OH232499   0.286   1.380   1.739 -0.0349 -0.4286  0.7506
 3647TIP3    H132500   0.292   1.295   1.696  1.4466  0.4553 -0.9016
 3647TIP3    H232501   0.193   1.390   1.760 -0.7275 -1.2124 -1.7004
 3648TIP3   OH232502   1.336   0.618   9.545  0.3596  0.4431 -0.2553
 3648TIP3    H132503   1.316   0.549   9.608 -0.8403  0.4574 -0.5981
 3648TIP3    H232504   1.274   0.688   9.565 -0.9526 -0.0730 -2.2512
 3649TIP3   OH232505   5.563   5.216   0.616 -0.0837 -0.1088 -0.0424
 3649TIP3    H132506   5.645   5.193   0.658  0.4430 -0.2376 -1.1098
 3649TIP3    H232507   5.571   5.182   0.527 -0.3591  1.8393 -0.8706
 3650TIP3   OH232508   1.153   2.772   1.756  0.3364  0.3244 -1.3449
 3650TIP3    H132509   1.086   2.707   1.778  2.3719 -1.1752  0.9389
 3650TIP3    H232510   1.170   2.759   1.663 -3.1589  1.4913 -2.3230
 3651TIP3   OH232511   6.144   6.341   1.988 -0.0008  0.3262 -0.1658
 3651TIP3    H132512   6.120   6.399   2.060  0.8343  2.5849 -1.6283
 3651TIP3    H232513   6.238   6.356   1.974 -0.2795  0.5021 -2.1800
 3652TIP3   OH232514   2.063   0.449   0.599 -0.1508 -0.7007 -0.0215
 3652TIP3    H132515   2.068   0.418   0.509  0.7964 -1.2075  0.1978
 3652TIP3    H232516   2.015   0.532   0.593 -0.5327 -0.9747 -0.9222
 3653TIP3   OH232517   4.611   6.376   8.101 -0.1729  0.6984 -0.1470
 3653TIP3    H132518   4.628   6.468   8.081 -2.0633  0.9716 -0.6364
 3653TIP3    H232519   4.570   6.341   8.022  0.7896 -0.6734 -0.0836
 3654TIP3   OH232520   0.199   0.895   7.788 -0.0187 -0.7658 -0.2919
 3654TIP3    H132521   0.283   0.852   7.803 -0.3223 -0.6988  1.8704
 3654TIP3    H232522   0.195   0.965   7.853 -2.1609 -1.4069  0.3578
 3655TIP3   OH232523   2.920   2.174   0.030  0.1998 -0.0034 -0.3414
 3655TIP3    H132524   2.847   2.132  -0.015 -0.0305 -0.3145  0.3067
 3655TIP3    H232525   2.985   2.105   0.040 -0.0928 -0.1682  0.5391
 3656TIP3   OH232526   4.213   0.198   1.509  0.2904 -0.5779  0.2291
 3656TIP3    H132527   4.143   0.159   1.458  0.7145 -1.9701  0.6578
 3656TIP3    H232528   4.173   0.274   1.552 -1.1224 -1.6981  0.9670
 3657TIP3   OH232529   5.750   2.540   1.137  0.2342 -0.5630 -0.7195
 3657TIP3    H132530   5.838   2.569   1.160  0.3054 -0.9812 -0.4471
 3657TIP3    H232531   5.711   2.614   1.091  0.5553 -0.1964 -0.4040
 3658TIP3   OH232532   1.051   1.277   1.904 -0.4711  0.7499 -0.2074
 3658TIP3    H132533   1.059   1.265   1.998  0.1949  0.4287 -0.2988
 3658TIP3    H232534   1.083   1.195   1.866 -2.5983  0.0725 -0.6842
 3659TIP3   OH232535   0.755   5.338   8.035  0.0540 -0.3624  0.4775
 3659TIP3    H132536   0.802   5.319   7.954  0.2378 -1.0018  0.7323
 3659TIP3    H232537   0.666   5.360   8.006  0.0868 -0.6933  0.1117
 3660TIP3   OH232538   0.853   3.438   0.119 -0.5102  0.0151  0.3068
 3660TIP3    H132539   0.767   3.412   0.153 -0.9484 -0.0500 -0.8166
 3660TIP3    H232540   0.910   3.364   0.138 -0.7866 -0.0921  0.7268
 3661TIP3   OH232541   3.175   2.198   7.770  0.3177  0.2237 -0.1351
 3661TIP3    H132542   3.191   2.253   7.847 -0.9629  0.0437  0.2812
 3661TIP3    H232543   3.244   2.131   7.774  0.2856  0.2312  0.8364
 3662TIP3   OH232544   3.734   4.705   1.848 -0.0877  0.5859  0.8155
 3662TIP3    H132545   3.652   4.732   1.888  1.0095  0.7303  3.1900
 3662TIP3    H232546   3.796   4.774   1.873  1.1520 -0.4535  0.7236
 3663TIP3   OH232547   1.460   2.646   7.855  0.4470 -0.0178  0.9097
 3663TIP3    H132548   1.434   2.586   7.785 -0.2117  0.0975  1.0550
 3663TIP3    H232549   1.378   2.675   7.895  0.7597  0.8589  0.9482
 3664TIP3   OH232550   2.566   0.288   0.978  0.4034  0.5345  0.6672
 3664TIP3    H132551   2.584   0.328   0.893 -0.4149 -1.5230 -0.5342
 3664TIP3    H232552   2.480   0.247   0.969  1.3409 -1.8595  1.6114
 3665TIP3   OH232553   1.469   3.716   9.447 -0.3012  0.5747 -0.4222
 3665TIP3    H132554   1.561   3.731   9.425  0.0750 -1.8488 -0.7278
 3665TIP3    H232555   1.426   3.701   9.363 -0.5271 -0.4338 -0.1393
 3666TIP3   OH232556   6.231   3.352   9.045  0.6295 -0.1075  0.2394
 3666TIP3    H132557   6.237   3.417   8.975  1.5303 -0.9916 -0.5306
 3666TIP3    H232558   6.138   3.330   9.048  0.5750 -0.0665 -0.6908
 3667TIP3   OH232559   0.329   4.326   2.211 -0.1235  0.2373 -0.1416
 3667TIP3    H132560   0.290   4.295   2.292  0.9952  0.7889  0.6282
 3667TIP3    H232561   0.254   4.343   2.153 -0.9403  0.0266  0.8324
 3668TIP3   OH232562   2.305   2.243   2.038  0.6173 -0.2733 -0.2015
 3668TIP3    H132563   2.388   2.260   2.084  1.0753 -1.8956 -0.3472
 3668TIP3    H232564   2.242   2.302   2.080  1.9109  1.3352 -0.3834
 3669TIP3   OH232565   4.513   4.655   1.430 -0.0766  0.2737  0.1496
 3669TIP3    H132566   4.513   4.584   1.494  0.2457  0.6950  0.6226
 3669TIP3    H232567   4.600   4.651   1.390  0.4901  1.3119  1.2156
 3670TIP3   OH232568   6.217   0.139   9.089  1.0199  0.6323  0.2808
 3670TIP3    H132569   6.232   0.111   8.998 -2.0276  2.1611 -0.8052
 3670TIP3    H232570   6.213   0.235   9.084  0.8455  0.7429  2.0558
 3671TIP3   OH232571   0.531   4.994   7.201 -0.1315 -0.1832 -0.4768
 3671TIP3    H132572   0.450   4.963   7.241  0.0992 -1.5563 -0.9920
 3671TIP3    H232573   0.599   4.974   7.265 -0.1810  0.8588 -0.0943
 3672TIP3   OH232574   3.053   3.973   8.009 -0.0529  0.2024  0.2273
 3672TIP3    H132575   3.129   3.984   7.953  0.3285 -0.7481  0.5407
 3672TIP3    H232576   3.068   3.890   8.055  0.5413  1.7558  3.1291
 3673TIP3   OH232577   0.341   2.270   6.656  0.1781  0.2814  0.3314
 3673TIP3    H132578   0.339   2.352   6.705 -0.7547 -0.1713  1.0929
 3673TIP3    H232579   0.285   2.210   6.707  0.8224 -0.8185 -0.2116
 3674TIP3   OH232580   4.819   2.806   8.663 -0.0407  0.1322 -0.0411
 3674TIP3    H132581   4.830   2.730   8.720  0.1696  0.4241  0.3100
 3674TIP3    H232582   4.794   2.769   8.579  1.0884 -0.4077 -0.1644
 3675TIP3   OH232583   0.294   5.273   7.766 -0.4667  0.3693 -0.2368
 3675TIP3    H132584   0.227   5.318   7.715 -1.7856  1.9133  2.6044
 3675TIP3    H232585   0.255   5.188   7.786 -1.4564  1.0816  1.0038
 3676TIP3   OH232586   5.261   4.065   1.172  0.2152  0.4896  0.2306
 3676TIP3    H132587   5.194   4.005   1.139  0.7489  1.4070 -2.8851
 3676TIP3    H232588   5.325   4.009   1.214 -0.9641 -0.7288  0.4796
 3677TIP3   OH232589   1.196   2.796   1.081 -0.1408 -0.2492 -0.1371
 3677TIP3    H132590   1.244   2.835   1.154 -2.4449  0.0074  1.3491
 3677TIP3    H232591   1.190   2.703   1.103  1.9311 -0.8141 -1.6934
 3678TIP3   OH232592   3.223   0.131   0.102 -0.2991 -0.1126  0.3327
 3678TIP3    H132593   3.271   0.055   0.135  2.3206  0.5774 -1.5510
 3678TIP3    H232594   3.144   0.095   0.063  1.0907 -1.9984 -0.9155
 3679TIP3   OH232595   1.719   2.695   1.776  0.0792  0.2030 -0.5351
 3679TIP3    H132596   1.654   2.676   1.843 -0.8380 -0.1382 -1.4906
 3679TIP3    H232597   1.803   2.694   1.823 -0.5594  0.2872  0.6456
 3680TIP3   OH232598   5.502   2.670   0.008 -0.5511 -0.1735 -0.3950
 3680TIP3    H132599   5.474   2.681  -0.083 -0.0906 -0.9572 -0.6409
 3680TIP3    H232600   5.566   2.740   0.022  0.6898 -1.0899 -1.2348
 3681TIP3   OH232601   2.223   3.074   6.972 -0.4538  0.0978  0.0413
 3681TIP3    H132602   2.206   3.163   7.005 -2.5431 -0.7317  1.4336
 3681TIP3    H232603   2.299   3.045   7.021 -0.0402  0.9289 -0.0792
 3682TIP3   OH232604   3.363   3.303   1.339  0.2620  0.0665 -0.0482
 3682TIP3    H132605   3.341   3.394   1.359 -0.1652 -0.1291  0.3949
 3682TIP3    H232606   3.422   3.308   1.263  0.3906  0.7175  0.0929
 3683TIP3   OH232607   0.775   4.179   1.375  0.6295  0.0794  0.2139
 3683TIP3    H132608   0.779   4.205   1.467 -1.6215 -2.6531  1.2269
 3683TIP3    H232609   0.715   4.242   1.335  2.0311  1.6084  0.4150
 3684TIP3   OH232610   0.131   3.359   7.994 -0.2035  0.2264  0.6251
 3684TIP3    H132611   0.059   3.356   7.930  0.5836 -1.3325 -0.2495
 3684TIP3    H232612   0.089   3.387   8.075 -1.3287  1.8213 -0.4349
 3685TIP3   OH232613   4.264   5.526   8.261  0.6875  0.0308  0.5392
 3685TIP3    H132614   4.285   5.546   8.170  2.5250  0.2133  0.9628
 3685TIP3    H232615   4.220   5.605   8.293  0.3264  0.0909 -0.1070
 3686TIP3   OH232616   3.175   1.282   0.122 -1.1615 -0.2192 -0.1981
 3686TIP3    H132617   3.086   1.292   0.087 -1.5985 -2.1586  0.2477
 3686TIP3    H232618   3.205   1.198   0.087 -0.4999 -0.8167  1.6658
 3687TIP3   OH232619   2.275   2.028   1.891  0.2284  0.6191 -0.0235
 3687TIP3    H132620   2.277   2.121   1.914 -1.7312  0.2992  1.6885
 3687TIP3    H232621   2.315   2.025   1.804 -1.0473  3.3056 -0.8292
 3688TIP3   OH232622   1.669   1.675   2.760  0.1955 -0.3220  0.1653
 3688TIP3    H132623   1.734   1.614   2.796 -0.6752 -1.2370  0.2468
 3688TIP3    H232624   1.595   1.619   2.736 -0.1467  0.5571 -0.9264
 3689TIP3   OH232625   3.405   5.150   8.176  0.4774 -0.6077  0.4380
 3689TIP3    H132626   3.435   5.071   8.132  0.6229 -0.3902  0.1406
 3689TIP3    H232627   3.478   5.174   8.234  1.6401  0.8678 -1.5143
 3690TIP3   OH232628   6.462   4.965   7.656  0.9106 -0.3135  0.0898
 3690TIP3    H132629   6.504   5.007   7.580  1.8338  1.9243  1.7362
 3690TIP3    H232630   6.388   5.022   7.676  0.2031 -1.3312  0.4350
 3691TIP3   OH232631   4.168   0.313   0.041  0.1267  0.4643  0.4401
 3691TIP3    H132632   4.261   0.328   0.053 -0.1344  1.9383  0.8000
 3691TIP3    H232633   4.158   0.287  -0.051  0.7954  1.1194  0.1800
 3692TIP3   OH232634   2.447   4.421   8.251 -0.0574  0.3312  0.2255
 3692TIP3    H132635   2.516   4.370   8.208  0.0255 -1.0613  1.9171
 3692TIP3    H232636   2.369   4.404   8.198  0.8207  1.8967 -1.6923
 3693TIP3   OH232637   1.766   3.995   0.675 -1.0246  0.0989  0.4704
 3693TIP3    H132638   1.849   4.027   0.640 -0.2787  0.7412  2.7023
 3693TIP3    H232639   1.739   4.061   0.739 -1.4052 -1.8129  2.4014
 3694TIP3   OH232640   2.714   0.313   9.202 -0.0568 -0.2376  0.2421
 3694TIP3    H132641   2.751   0.247   9.261 -1.0218  0.9762  2.3403
 3694TIP3    H232642   2.645   0.266   9.155  0.7588 -1.2533  0.0182
 3695TIP3   OH232643   3.200   1.051   1.207  0.2001  0.3684  0.2677
 3695TIP3    H132644   3.254   1.080   1.134  0.1794  0.5049  0.3070
 3695TIP3    H232645   3.172   0.963   1.183 -1.2177  1.0403 -0.6933
 3696TIP3   OH232646   6.056   0.148   0.620 -0.0822 -0.2502  0.0861
 3696TIP3    H132647   6.107   0.212   0.670 -1.7563  0.2191  1.2622
 3696TIP3    H232648   6.091   0.063   0.649 -0.9723  0.0101  2.0731
 3697TIP3   OH232649   3.111   2.385   0.364  0.5372 -0.5550  0.0858
 3697TIP3    H132650   3.020   2.415   0.374 -0.0651 -2.0617 -0.6485
 3697TIP3    H232651   3.109   2.293   0.390  1.6833 -0.8461 -0.7683
 3698TIP3   OH232652   2.941   0.322   7.145  0.2228  0.4379  0.6792
 3698TIP3    H132653   3.020   0.335   7.092 -0.1653 -0.7144 -0.2111
 3698TIP3    H232654   2.973   0.313   7.235  0.9293  1.9240  0.6114
 3699TIP3   OH232655   2.785   0.495   7.988  0.3313  0.2977  0.4226
 3699TIP3    H132656   2.826   0.567   7.940  0.0789  0.8353  1.0082
 3699TIP3    H232657   2.857   0.458   8.041  0.1694  0.9610  1.1165
 3700TIP3   OH232658   0.435   0.327   2.479  0.4711 -0.4923 -0.1452
 3700TIP3    H132659   0.440   0.259   2.547  1.3287  1.3747  1.7608
 3700TIP3    H232660   0.526   0.338   2.449  0.6646  1.0518  0.9057
 3701TIP3   OH232661   6.308   2.269   7.768 -0.1259  0.1245  0.7542
 3701TIP3    H132662   6.281   2.359   7.750 -0.1549 -0.2459 -1.3520
 3701TIP3    H232663   6.331   2.268   7.861 -4.2759  1.2383  1.9704
 3702TIP3   OH232664   0.280   6.252   1.540 -0.6568  0.4023 -0.6209
 3702TIP3    H132665   0.263   6.190   1.611  0.2807 -2.6576 -2.8514
 3702TIP3    H232666   0.338   6.318   1.579  0.4886 -1.6025  1.2949
 3703TIP3   OH232667   4.837   3.519   0.248  0.0064  0.4858 -0.3046
 3703TIP3    H132668   4.861   3.554   0.162 -1.5021  1.7011 -0.2739
 3703TIP3    H232669   4.868   3.584   0.310 -1.4338  1.0698 -0.1468
 3704TIP3   OH232670   2.846   2.094   8.351 -0.3812  0.0672  0.5451
 3704TIP3    H132671   2.765   2.082   8.303 -0.8439  0.2315  1.2641
 3704TIP3    H232672   2.906   2.136   8.290 -0.0821 -2.0418 -0.7328
 3705TIP3   OH232673   0.248   5.759   9.131 -0.1844  0.1281  0.2125
 3705TIP3    H132674   0.236   5.774   9.225 -1.2936  0.4329  0.0455
 3705TIP3    H232675   0.333   5.798   9.111 -0.1756  0.5306  0.9902
 3706TIP3   OH232676   0.108   4.778   0.118  0.2555 -0.2638 -0.0267
 3706TIP3    H132677   0.154   4.727   0.051  0.7973  0.5792 -0.3288
 3706TIP3    H232678   0.171   4.784   0.190  0.7877  1.1409 -0.5558
 3707TIP3   OH232679   2.558   2.823   0.865 -0.1517 -0.3130 -0.2728
 3707TIP3    H132680   2.479   2.778   0.835  0.0061 -0.2380 -0.8104
 3707TIP3    H232681   2.554   2.909   0.822 -0.5945  0.3158  0.9586
 3708TIP3   OH232682   5.191   3.462   1.921  0.3250 -0.2690  0.0273
 3708TIP3    H132683   5.169   3.372   1.898 -0.0724 -0.6829  1.8109
 3708TIP3    H232684   5.287   3.463   1.926  0.3602 -0.4231 -0.6051
 3709TIP3   OH232685   3.716   1.573   8.313  0.1611  0.2842 -0.3737
 3709TIP3    H132686   3.718   1.558   8.219  0.7974 -0.6898 -0.2237
 3709TIP3    H232687   3.710   1.485   8.351 -0.3184  0.6738  0.4894
 3710TIP3   OH232688   0.229   3.643   8.941  0.3734  0.0481 -0.4773
 3710TIP3    H132689   0.238   3.667   8.849  0.6438 -1.1740 -0.7830
 3710TIP3    H232690   0.268   3.556   8.948  0.3721  0.1239  0.8013
 3711TIP3   OH232691   6.395   3.416   1.035  0.5264 -0.1061 -0.8324
 3711TIP3    H132692   6.464   3.394   1.098  0.0451 -1.8541 -0.8454
 3711TIP3    H232693   6.314   3.405   1.085  0.2278  1.9182 -0.8230
 3712TIP3   OH232694   0.828   5.790   8.470  0.4947  0.4047  0.5079
 3712TIP3    H132695   0.850   5.699   8.490 -0.9014  0.2749  1.6078
 3712TIP3    H232696   0.793   5.825   8.552  0.8168  1.8835  0.0428
 3713TIP3   OH232697   0.983   6.352   0.347 -0.5252  0.5960  0.6106
 3713TIP3    H132698   0.931   6.390   0.276 -1.2896 -1.3421  0.0571
 3713TIP3    H232699   1.073   6.353   0.315 -0.6713  1.0056  0.2036
 3714TIP3   OH232700   1.917   5.736   0.827 -0.6362 -0.4011 -0.0298
 3714TIP3    H132701   1.942   5.644   0.820 -1.1927 -0.4257 -2.7927
 3714TIP3    H232702   1.822   5.736   0.813 -1.0175  0.4281  2.2144
 3715TIP3   OH232703   6.007   3.469   8.081  0.3500  0.7056 -0.7369
 3715TIP3    H132704   6.089   3.482   8.034  1.6203  1.6014  1.5404
 3715TIP3    H232705   5.946   3.531   8.041  1.1036  0.8096 -1.7539
 3716TIP3   OH232706   4.514   5.080   1.836  0.2027  0.0989 -0.2718
 3716TIP3    H132707   4.436   5.045   1.880  0.7119 -1.1366 -0.3122
 3716TIP3    H232708   4.545   5.149   1.894 -0.1319 -0.3475  0.4608
 3717TIP3   OH232709   4.311   6.146   8.090  0.5499 -0.3327 -0.4080
 3717TIP3    H132710   4.366   6.207   8.042 -0.4903  1.4281  0.5194
 3717TIP3    H232711   4.294   6.074   8.029  0.8704  0.8725 -1.9471
 3718TIP3   OH232712   1.033   3.022   1.635  0.2312  0.4008  0.2772
 3718TIP3    H132713   1.011   2.951   1.575 -0.5196  0.1091  0.8859
 3718TIP3    H232714   0.972   3.012   1.708 -1.3661  2.9333 -0.5610
 3719TIP3   OH232715   5.728   5.146   0.028  0.1060 -0.1256  0.0546
 3719TIP3    H132716   5.682   5.227   0.007  0.8034  0.9171  2.2236
 3719TIP3    H232717   5.666   5.096   0.081 -0.1620 -0.8609 -0.9153
 3720TIP3   OH232718   3.869   0.080   7.703  0.5618 -0.3308 -0.1191
 3720TIP3    H132719   3.855   0.065   7.609 -0.8311  0.2016 -0.0140
 3720TIP3    H232720   3.809   0.151   7.725  0.2879 -0.9861  1.3463
 3721TIP3   OH232721   3.228   2.250   1.447 -0.3900  0.0023 -0.5769
 3721TIP3    H132722   3.240   2.317   1.380 -2.8272 -1.1833 -2.3446
 3721TIP3    H232723   3.261   2.170   1.406 -0.1524 -0.4078  0.3940
 3722TIP3   OH232724   5.450   2.465   7.360  0.3025 -0.0576  0.1554
 3722TIP3    H132725   5.372   2.520   7.353  0.0058 -0.5198 -0.1693
 3722TIP3    H232726   5.418   2.380   7.389  0.7888 -0.0083  0.8635
 3723TIP3   OH232727   0.848   0.725   8.053  0.1421  0.0238  0.0833
 3723TIP3    H132728   0.910   0.652   8.050 -0.2196 -0.3069  0.5201
 3723TIP3    H232729   0.903   0.804   8.045  0.5729 -0.2788  0.0286
 3724TIP3   OH232730   2.964   3.159   7.997  0.0053  0.0537  0.0862
 3724TIP3    H132731   3.003   3.160   7.910  0.0196 -0.3705  0.0871
 3724TIP3    H232732   3.037   3.176   8.057 -0.0327  0.5049  0.0057
 3725TIP3   OH232733   4.963   2.259   0.857  0.5102  0.1080  0.3573
 3725TIP3    H132734   5.034   2.269   0.794  0.5730  1.2199  0.5866
 3725TIP3    H232735   4.998   2.198   0.923  0.9052 -0.0631 -0.0060
 3726TIP3   OH232736   3.415   4.269   2.606  0.0270  0.5121  0.1508
 3726TIP3    H132737   3.319   4.270   2.610 -0.2652 -1.5582 -2.6674
 3726TIP3    H232738   3.443   4.324   2.679 -3.2771  0.8289  1.3628
 3727TIP3   OH232739   5.371   3.195   2.064  0.0629 -0.3080 -0.5190
 3727TIP3    H132740   5.282   3.182   2.033 -0.0153 -0.0406 -0.4174
 3727TIP3    H232741   5.411   3.108   2.062  0.2552 -0.2083 -1.9609
 3728TIP3   OH232742   4.326   3.572   7.521  0.2076 -0.0783  0.5479
 3728TIP3    H132743   4.373   3.654   7.506  0.9694 -0.3054  1.5978
 3728TIP3    H232744   4.249   3.598   7.571  1.8555 -0.2704  3.3691
 3729TIP3   OH232745   4.572   3.657   1.352 -0.2069 -0.8468 -0.7568
 3729TIP3    H132746   4.573   3.669   1.447  1.1476 -0.4039 -0.7966
 3729TIP3    H232747   4.570   3.562   1.339  2.7498 -1.0974 -0.1849
 3730TIP3   OH232748   5.636   2.217   7.671 -0.0673 -0.3935 -0.4865
 3730TIP3    H132749   5.595   2.137   7.640 -1.1238 -1.1125  2.4545
 3730TIP3    H232750   5.676   2.194   7.754  1.0713  1.7634 -0.3443
 3731TIP3   OH232751   1.272   2.435   8.068  0.2652 -0.3336 -0.0023
 3731TIP3    H132752   1.247   2.528   8.069 -1.3548 -0.7442  1.5785
 3731TIP3    H232753   1.316   2.421   8.152 -0.0042 -1.1164  0.0153
 3732TIP3   OH232754   2.448   1.333   0.291 -0.8579  0.2001  0.0875
 3732TIP3    H132755   2.411   1.279   0.221  1.4216 -3.3646  1.4190
 3732TIP3    H232756   2.418   1.292   0.372  1.3465  0.5691  1.1630
 3733TIP3   OH232757   6.219   5.810   7.543  0.5852 -0.5853 -0.5722
 3733TIP3    H132758   6.257   5.729   7.576 -0.1239 -0.3552  0.9618
 3733TIP3    H232759   6.125   5.801   7.561  0.4062  0.2956 -0.9866
 3734TIP3   OH232760   3.485   5.964   2.171  0.4740  0.2029 -0.5508
 3734TIP3    H132761   3.518   5.953   2.082 -0.2988 -1.2988 -0.6912
 3734TIP3    H232762   3.396   5.997   2.160 -0.1861 -1.4451 -0.4332
 3735TIP3   OH232763   2.229   5.554   8.670  0.0200 -0.5143 -0.0176
 3735TIP3    H132764   2.251   5.625   8.730  2.3070 -1.0765 -0.1029
 3735TIP3    H232765   2.133   5.556   8.664 -0.1864  0.5239  2.4580
 3736TIP3   OH232766   1.954   5.570   8.657 -0.7290  0.0128 -0.4549
 3736TIP3    H132767   1.897   5.614   8.594 -1.3327  0.7974  0.5973
 3736TIP3    H232768   1.910   5.582   8.741  1.4757  1.5936  0.5849
 3737TIP3   OH232769   0.175   3.094   7.669  0.0218 -0.1925 -0.5719
 3737TIP3    H132770   0.207   3.039   7.740  0.5818  1.7982  0.8165
 3737TIP3    H232771   0.081   3.078   7.666 -0.1104  0.1383  1.0769
 3738TIP3   OH232772   6.199   2.991   9.411 -0.0281  0.1640 -0.0533
 3738TIP3    H132773   6.281   3.035   9.434  0.2079 -0.0358 -0.5112
 3738TIP3    H232774   6.193   2.918   9.473  1.1789 -1.0597 -1.3122
 3739TIP3   OH232775   4.320   6.524   0.229 -0.4314 -0.1854  0.4150
 3739TIP3    H132776   4.227   6.533   0.207 -0.8157  1.5978  2.4129
 3739TIP3    H232777   4.366   6.543   0.147 -1.7714 -2.4099 -0.9538
 3740TIP3   OH232778   1.636   0.339   8.724  0.4548 -0.0700 -0.2179
 3740TIP3    H132779   1.571   0.284   8.767 -0.3839 -0.1385 -1.5441
 3740TIP3    H232780   1.649   0.412   8.785 -0.3149 -0.4247  0.3822
 3741TIP3   OH232781   4.478   4.436   8.231 -0.0059 -0.2175  0.0464
 3741TIP3    H132782   4.389   4.415   8.259 -0.4703 -0.6648 -1.6414
 3741TIP3    H232783   4.512   4.494   8.299 -1.5003 -0.2251  0.8297
 3742TIP3   OH232784   3.976   1.579   0.170  0.7013 -0.5940  0.2102
 3742TIP3    H132785   3.882   1.558   0.170 -0.4834  3.5614 -1.0395
 3742TIP3    H232786   4.003   1.570   0.079  0.1792  2.3502 -0.3512
 3743TIP3   OH232787   2.844   0.223   0.780  0.3716  0.3059 -0.4528
 3743TIP3    H132788   2.761   0.217   0.733 -0.0629 -0.5784  0.3916
 3743TIP3    H232789   2.905   0.262   0.717 -0.5266  0.4059 -1.2814
 3744TIP3   OH232790   3.919   0.679   8.704  0.2829 -0.3930  0.3179
 3744TIP3    H132791   3.869   0.654   8.782  0.4436 -0.6896  0.3278
 3744TIP3    H232792   3.925   0.598   8.653 -0.1607 -0.1045 -0.1930
 3745TIP3   OH232793   0.987   4.759   8.057  0.2623  0.3047 -0.1429
 3745TIP3    H132794   1.012   4.666   8.061  1.1231  0.5714  1.3742
 3745TIP3    H232795   0.980   4.786   8.148  2.0080  2.2460 -0.5084
 3746TIP3   OH232796   0.891   1.203   0.614  0.5516 -0.7495  0.4559
 3746TIP3    H132797   0.960   1.258   0.577  0.5736 -1.2025 -0.1994
 3746TIP3    H232798   0.936   1.127   0.650  0.3224 -1.8156 -1.3577
 3747TIP3   OH232799   0.398   1.643   8.081 -0.1092  0.1229 -0.2521
 3747TIP3    H132800   0.371   1.692   8.003  1.8814  1.8836  0.0668
 3747TIP3    H232801   0.481   1.682   8.106  0.2596 -1.6938  1.6626
 3748TIP3   OH232802   1.371   6.364   2.103 -0.4106 -0.3041  0.5532
 3748TIP3    H132803   1.424   6.351   2.024  2.2210  1.2024  1.8914
 3748TIP3    H232804   1.404   6.299   2.165 -1.3849 -0.4855  0.8951
 3749TIP3   OH232805   0.958   1.112   1.671 -0.7848 -0.0835 -0.0403
 3749TIP3    H132806   1.027   1.177   1.653 -0.7574  0.0513  0.5174
 3749TIP3    H232807   0.965   1.049   1.599  0.7856 -0.7906  0.6755
 3750TIP3   OH232808   5.645   5.145   1.536  0.1514 -0.1311  0.3346
 3750TIP3    H132809   5.619   5.055   1.518  0.1666  0.1809 -1.4189
 3750TIP3    H232810   5.635   5.190   1.452  0.3350  1.4564  1.1305
 3751TIP3   OH232811   5.457   2.385   1.100  0.1261  0.4018  0.0949
 3751TIP3    H132812   5.492   2.458   1.151  0.1159 -1.0187  2.2369
 3751TIP3    H232813   5.429   2.426   1.018  0.8252  2.6637  0.8839
 3752TIP3   OH232814   3.499   6.284   7.686 -0.2671  0.0705 -0.3148
 3752TIP3    H132815   3.498   6.254   7.595  1.4223 -0.8206 -0.0898
 3752TIP3    H232816   3.592   6.288   7.709 -0.6577 -0.8412  1.7152
 3753TIP3   OH232817   1.492   0.095   2.312 -0.5274  0.0155 -0.2329
 3753TIP3    H132818   1.449   0.128   2.234 -0.8289 -1.2379 -0.6216
 3753TIP3    H232819   1.582   0.125   2.305 -1.1294  2.0932  0.2497
 3754TIP3   OH232820   0.545   3.406   7.383  0.6659 -0.2422 -0.3465
 3754TIP3    H132821   0.530   3.405   7.288 -0.0932 -1.6249 -0.2429
 3754TIP3    H232822   0.492   3.333   7.416  0.1216  0.8447  1.2811
 3755TIP3   OH232823   4.163   5.795   9.229  0.2092  0.2567  0.0929
 3755TIP3    H132824   4.087   5.850   9.250  1.3715  1.7403  0.5343
 3755TIP3    H232825   4.181   5.748   9.310 -0.1306  0.0305  0.0396
 3756TIP3   OH232826   1.266   1.498   9.591  0.2391  0.8579 -0.1365
 3756TIP3    H132827   1.218   1.545   9.660  0.9586  0.6609  0.5074
 3756TIP3    H232828   1.253   1.551   9.512 -0.5670  1.1038  0.1537
 3757TIP3   OH232829   1.188   2.999   1.929 -0.3402  0.4211  0.1576
 3757TIP3    H132830   1.178   2.954   2.013 -0.6635  2.1819  1.1079
 3757TIP3    H232831   1.153   2.938   1.864  0.3049 -1.1450  1.2370
 3758TIP3   OH232832   2.061   6.499   1.219  0.0717  0.2599  0.3661
 3758TIP3    H132833   2.148   6.477   1.252  0.2307  1.9880  1.2251
 3758TIP3    H232834   2.010   6.518   1.297 -1.3051 -1.3138 -0.0842
 3759TIP3   OH232835   1.213   1.105   8.668  0.1812  0.6000  0.7809
 3759TIP3    H132836   1.217   1.039   8.737 -0.0208 -0.3446 -0.0934
 3759TIP3    H232837   1.130   1.088   8.623  0.6198  0.7748 -0.1103
 3760TIP3   OH232838   4.780   2.507   1.096 -0.0149  0.2870 -0.1424
 3760TIP3    H132839   4.730   2.557   1.032 -1.0940 -0.0191  0.4413
 3760TIP3    H232840   4.863   2.487   1.052 -0.9099 -0.3251 -1.6247
 3761TIP3   OH232841   6.224   2.291   1.473  0.5224  0.5038 -0.3223
 3761TIP3    H132842   6.134   2.284   1.443  0.1735 -1.6472  1.0056
 3761TIP3    H232843   6.272   2.229   1.418  0.5082 -0.8902  1.1675
 3762TIP3   OH232844   2.537   5.400   0.401  0.5520  0.8078 -0.1590
 3762TIP3    H132845   2.557   5.408   0.308 -0.4113  4.0126 -0.2268
 3762TIP3    H232846   2.576   5.478   0.441 -0.9212  0.6618  1.7175
 3763TIP3   OH232847   3.289   4.336   2.305 -0.3996 -0.0659  0.3109
 3763TIP3    H132848   3.238   4.416   2.289  0.7540  0.6955  0.3619
 3763TIP3    H232849   3.364   4.365   2.357  0.1593 -1.1472  0.1339
 3764TIP3   OH232850   0.765   5.043   0.674 -0.2454 -0.6147  0.2226
 3764TIP3    H132851   0.697   5.092   0.721  0.9743  0.8322  0.5516
 3764TIP3    H232852   0.792   4.975   0.736 -2.4902 -2.3244 -0.5206
 3765TIP3   OH232853   3.974   2.170   0.608 -0.2370 -0.6339 -0.4386
 3765TIP3    H132854   3.885   2.175   0.573  0.0780 -0.6213 -1.2411
 3765TIP3    H232855   4.030   2.200   0.537  0.4687 -1.2867 -0.1767
 3766TIP3   OH232856   5.590   2.949   1.729 -0.1670 -0.0902  0.0904
 3766TIP3    H132857   5.602   2.961   1.823  0.7545 -0.8753  0.0916
 3766TIP3    H232858   5.628   3.028   1.689 -0.3005  0.1119  0.3665
 3767TIP3   OH232859   4.995   1.444   7.700 -0.4042 -0.2292 -0.1592
 3767TIP3    H132860   4.952   1.409   7.622 -1.4415 -3.6345  1.7154
 3767TIP3    H232861   4.968   1.385   7.771  1.7571  1.7085  2.5172
 3768TIP3   OH232862   0.632   6.225   2.539 -0.3388  0.1056 -0.3337
 3768TIP3    H132863   0.668   6.138   2.521 -1.6280 -0.1443 -1.9374
 3768TIP3    H232864   0.562   6.210   2.601  0.9279  0.3379  1.2126
 3769TIP3   OH232865   1.363   4.403   0.228 -0.2097  0.3147 -0.4218
 3769TIP3    H132866   1.400   4.336   0.170  0.6681 -2.1230  2.6958
 3769TIP3    H232867   1.274   4.416   0.194  0.9377  0.8294 -3.6252
 3770TIP3   OH232868   4.866   5.796   1.611  0.0725 -0.9596 -0.9577
 3770TIP3    H132869   4.948   5.754   1.636  0.1786 -0.3892 -0.3057
 3770TIP3    H232870   4.882   5.831   1.523  0.4999 -0.9149 -0.8636
 3771TIP3   OH232871   1.748   1.157   6.933  0.1764 -1.0785 -0.5531
 3771TIP3    H132872   1.834   1.115   6.935  0.4143 -0.6824 -1.7086
 3771TIP3    H232873   1.750   1.212   6.855 -0.5483  0.1798  0.2681
 3772TIP3   OH232874   0.976   0.425   1.614  0.3606 -0.5270  0.1750
 3772TIP3    H132875   1.032   0.501   1.595  1.0289 -0.8902  0.6747
 3772TIP3    H232876   0.900   0.462   1.659  0.1706 -0.0265 -0.5400
 3773TIP3   OH232877   2.062   6.319   9.286 -0.0227  0.1987  0.1643
 3773TIP3    H132878   2.059   6.365   9.202  1.3424 -0.4783 -0.2922
 3773TIP3    H232879   2.113   6.240   9.268 -1.3448 -0.9390  1.1995
 3774TIP3   OH232880   0.417   5.870   0.790  0.0603  0.0747  0.0063
 3774TIP3    H132881   0.373   5.911   0.715  0.1236  1.2061  0.5733
 3774TIP3    H232882   0.352   5.871   0.860 -0.2034 -1.5300 -0.1780
 3775TIP3   OH232883   5.201   5.845   0.913  0.6195 -0.7331 -0.1248
 3775TIP3    H132884   5.142   5.920   0.904  0.8692 -0.5702 -0.4592
 3775TIP3    H232885   5.276   5.867   0.856  0.8390 -1.0914  0.0229
 3776TIP3   OH232886   6.389   6.141   9.576  0.0380  0.1218 -0.3531
 3776TIP3    H132887   6.444   6.067   9.602 -1.6600 -1.2664 -0.5815
 3776TIP3    H232888   6.388   6.138   9.480 -0.1174  0.3956 -0.3624
 3777TIP3   OH232889   6.100   3.719   0.777  0.0844  0.2771  0.3745
 3777TIP3    H132890   6.096   3.623   0.779  0.3442  0.2270 -0.8768
 3777TIP3    H232891   6.012   3.747   0.799 -0.0376 -0.2512  0.5751
 3778TIP3   OH232892   2.496   4.559   1.684 -0.4120 -0.6327 -0.3504
 3778TIP3    H132893   2.509   4.527   1.773  0.9330  0.6090 -0.0591
 3778TIP3    H232894   2.573   4.530   1.636  0.0083  0.6406 -0.4991
 3779TIP3   OH232895   2.268   1.942   8.819  0.1050  0.9275 -0.1503
 3779TIP3    H132896   2.195   1.935   8.881  1.4906 -0.3614  1.4227
 3779TIP3    H232897   2.232   1.909   8.736 -1.5604  1.9641  0.1009
 3780TIP3   OH232898   1.160   3.512   1.309 -0.5166 -0.4838 -0.1356
 3780TIP3    H132899   1.114   3.573   1.251 -0.9648  0.3516  1.0433
 3780TIP3    H232900   1.096   3.492   1.378  0.5473 -0.0485  1.0253
 3781TIP3   OH232901   1.816   5.394   7.583  0.2784  0.2326  0.1232
 3781TIP3    H132902   1.870   5.444   7.522 -0.8599  0.9626 -0.3006
 3781TIP3    H232903   1.730   5.390   7.542 -0.2567 -0.0921  1.2359
 3782TIP3   OH232904   2.443   4.119   2.189 -0.2990  0.0130  0.8510
 3782TIP3    H132905   2.373   4.176   2.221  1.1523  1.1587  2.1587
 3782TIP3    H232906   2.524   4.168   2.205  0.7560 -0.4273 -2.3698
 3783TIP3   OH232907   3.690   2.379   7.597 -0.3780  0.0087  0.3165
 3783TIP3    H132908   3.716   2.464   7.562 -1.3009  0.6696  1.1936
 3783TIP3    H232909   3.753   2.317   7.559 -1.0100  0.7359 -2.1354
 3784TIP3   OH232910   4.215   4.065   7.606  0.3805 -0.5973  0.3925
 3784TIP3    H132911   4.192   4.122   7.533  0.3688 -0.6607  0.3469
 3784TIP3    H232912   4.305   4.089   7.627  1.0897 -1.9466 -0.9352
 3785TIP3   OH232913   0.932   1.862   1.617  0.4094 -0.0049 -0.4004
 3785TIP3    H132914   0.869   1.827   1.555 -0.4703 -1.6697  1.3470
 3785TIP3    H232915   0.984   1.787   1.645  0.4664  0.5722  1.2016
 3786TIP3   OH232916   5.434   5.687   2.242  0.6613 -0.1828 -0.0704
 3786TIP3    H132917   5.488   5.765   2.235 -0.2066  0.5487  1.0491
 3786TIP3    H232918   5.455   5.651   2.329  1.0859 -1.2405 -0.5845
 3787TIP3   OH232919   2.629   0.649   0.443  0.5137  0.2137 -0.2574
 3787TIP3    H132920   2.573   0.654   0.521  0.5405  2.4192 -0.3236
 3787TIP3    H232921   2.709   0.607   0.474 -0.2041 -0.7280  0.4093
 3788TIP3   OH232922   3.379   6.318   2.986  0.3740  0.3937  0.2951
 3788TIP3    H132923   3.370   6.413   2.988  0.9724  0.4493  1.3333
 3788TIP3    H232924   3.474   6.303   2.988  0.2828 -0.2321  0.2174
 3789TIP3   OH232925   5.986   6.185   8.282 -0.3778 -0.2332  0.2637
 3789TIP3    H132926   5.919   6.251   8.297 -1.0228 -0.8926  0.3767
 3789TIP3    H232927   5.936   6.105   8.262  0.2805 -1.2316  2.3123
 3790TIP3   OH232928   2.841   1.793   1.048 -0.3945  0.3358 -0.2656
 3790TIP3    H132929   2.831   1.819   0.956  0.0975  1.8299  0.0694
 3790TIP3    H232930   2.825   1.874   1.097 -1.5173 -0.6280  1.0266
 3791TIP3   OH232931   3.302   4.750   0.329 -0.0372 -0.4747 -0.0872
 3791TIP3    H132932   3.294   4.658   0.355  0.7552 -0.2978  0.8418
 3791TIP3    H232933   3.332   4.747   0.239  0.7728 -1.1439  0.1895
 3792TIP3   OH232934   0.567   0.327   1.069 -0.7257  0.4009  0.0208
 3792TIP3    H132935   0.472   0.326   1.063 -0.6379  1.1707 -2.2265
 3792TIP3    H232936   0.593   0.237   1.048 -0.9412  0.0070  1.3273
 3793TIP3   OH232937   2.178   2.410   0.107 -0.1690  0.0613  0.0022
 3793TIP3    H132938   2.085   2.387   0.112  0.0236 -1.3988 -2.0349
 3793TIP3    H232939   2.179   2.491   0.056 -0.3075 -0.0355 -0.1557
 3794TIP3   OH232940   1.345   0.127   2.088 -0.5710 -0.6878  0.0418
 3794TIP3    H132941   1.373   0.038   2.067  0.9222  0.2602 -2.3532
 3794TIP3    H232942   1.266   0.140   2.034 -0.7348 -0.5218  0.3207
 3795TIP3   OH232943   3.524   6.308   0.373 -0.1692 -0.7933  0.0457
 3795TIP3    H132944   3.596   6.246   0.388 -1.3557 -2.2327  0.0918
 3795TIP3    H232945   3.495   6.333   0.461 -0.0688 -0.6436  0.0356
 3796TIP3   OH232946   5.115   3.461   0.948 -0.0101 -0.2392 -0.5355
 3796TIP3    H132947   5.033   3.417   0.924  0.5831 -1.3841 -0.4809
 3796TIP3    H232948   5.182   3.420   0.894  0.7487 -0.2534  0.3847
 3797TIP3   OH232949   4.895   3.870   0.178 -0.0124 -0.6691 -0.4357
 3797TIP3    H132950   4.801   3.854   0.185  0.0579 -0.5085  1.3630
 3797TIP3    H232951   4.930   3.790   0.138 -0.7776 -1.2518  0.0185
 3798TIP3   OH232952   2.993   0.807   0.389  0.3005 -0.1833 -0.0961
 3798TIP3    H132953   2.904   0.780   0.368  0.6114 -1.6633  0.3770
 3798TIP3    H232954   3.043   0.792   0.308  0.2559  0.0562 -0.1703
 3799TIP3   OH232955   1.230   1.270   9.347  0.6313  0.0292 -0.0062
 3799TIP3    H132956   1.237   1.355   9.391 -1.1722 -0.0213  0.4880
 3799TIP3    H232957   1.146   1.274   9.301  1.2176 -0.9532 -1.2218
 3800TIP3   OH232958   0.958   2.915   7.382 -0.3135  0.0673  0.1397
 3800TIP3    H132959   0.961   2.848   7.450  0.2516 -0.1268 -0.0708
 3800TIP3    H232960   1.047   2.951   7.380 -1.0435  2.2453  1.6548
 3801TIP3   OH232961   6.084   0.604   0.984  0.1115  0.1075 -1.2300
 3801TIP3    H132962   6.114   0.636   1.069 -0.2520 -0.4065 -0.9041
 3801TIP3    H232963   6.041   0.680   0.943 -0.7948  0.0300 -0.4452
 3802TIP3   OH232964   2.915   1.021   1.442 -0.0368  0.0121 -0.1537
 3802TIP3    H132965   2.973   0.982   1.376 -1.2793 -1.4252 -0.4373
 3802TIP3    H232966   2.863   0.948   1.475 -1.9183  1.2988 -0.1483
 3803TIP3   OH232967   2.209   6.134   7.579  0.5108  0.1884  0.1420
 3803TIP3    H132968   2.120   6.109   7.605 -0.3469  2.7945 -0.0118
 3803TIP3    H232969   2.203   6.146   7.484  1.2783 -0.4668  0.0001
 3804TIP3   OH232970   3.685   6.330   2.331  0.3079  0.0131  0.4366
 3804TIP3    H132971   3.608   6.297   2.377  0.5511 -0.7408  0.3230
 3804TIP3    H232972   3.715   6.255   2.279  0.9247  0.3971  0.2325
 3805TIP3   OH232973   5.358   5.348   7.508  0.0735 -0.4812  0.1573
 3805TIP3    H132974   5.338   5.413   7.575 -1.7439 -0.4220 -0.3737
 3805TIP3    H232975   5.412   5.282   7.552  0.1828  0.3191  1.2495
 3806TIP3   OH232976   6.041   1.269   0.293 -0.0226  0.1218  0.1715
 3806TIP3    H132977   6.048   1.341   0.230 -1.2752  0.3470  0.2713
 3806TIP3    H232978   5.953   1.278   0.330  1.0636  0.7687  2.8554
 3807TIP3   OH232979   6.330   5.516   0.512 -0.0778  0.1963  0.5420
 3807TIP3    H132980   6.425   5.522   0.499 -0.3129  0.3806 -1.3903
 3807TIP3    H232981   6.308   5.428   0.480 -0.7568  0.7641 -0.5928
 3808TIP3   OH232982   0.584   6.399   8.005  0.1687  0.0077  0.3107
 3808TIP3    H132983   0.516   6.336   8.031  1.4273 -0.7641  1.8831
 3808TIP3    H232984   0.659   6.378   8.061  0.9501  2.3293  0.2309
 3809TIP3   OH232985   0.118   5.606   1.370  0.2520  0.6209 -0.0188
 3809TIP3    H132986   0.060   5.675   1.337 -0.4653  0.4020  0.7423
 3809TIP3    H232987   0.058   5.538   1.401  0.9205  0.4051  0.8301
 3810TIP3   OH232988   5.508   3.889   1.578  0.2197 -0.7126 -0.5365
 3810TIP3    H132989   5.574   3.920   1.640 -3.0357  1.9571  1.9959
 3810TIP3    H232990   5.516   3.947   1.503 -0.7263  1.3485  0.8515
 3811TIP3   OH232991   2.413   2.399   7.343  0.0906  0.4105 -0.1234
 3811TIP3    H132992   2.389   2.307   7.335  1.1829  0.0759  0.3928
 3811TIP3    H232993   2.333   2.442   7.375 -0.1209 -0.5168  0.6200
 3812TIP3   OH232994   6.148   3.349   1.189 -0.5752 -0.1212 -0.2935
 3812TIP3    H132995   6.142   3.426   1.246  0.9476  0.5666 -0.9962
 3812TIP3    H232996   6.059   3.338   1.154 -0.4743  2.4958 -1.6216
 3813TIP3   OH232997   6.171   4.950   0.456  0.8467 -0.4758 -0.1151
 3813TIP3    H132998   6.199   5.037   0.429  0.7780 -0.2013  0.6550
 3813TIP3    H232999   6.207   4.940   0.544 -0.4160 -0.6161  0.4077
 3814TIP3   OH233000   6.034   2.016   8.908  0.1047  0.1226 -0.9717
 3814TIP3    H133001   6.014   1.941   8.964 -0.4191 -0.0538 -1.3848
 3814TIP3    H233002   5.955   2.070   8.910  0.6181  0.8685 -0.3729
 3815TIP3   OH233003   2.527   1.651   1.518  0.1080 -0.1092  0.3698
 3815TIP3    H133004   2.497   1.742   1.516 -1.1302 -0.4978 -0.0669
 3815TIP3    H233005   2.618   1.656   1.545  0.3584  1.3362 -0.6404
 3816TIP3   OH233006   3.624   3.775   8.112 -0.4223 -1.0028  0.6637
 3816TIP3    H133007   3.631   3.708   8.044  0.4178 -0.4110  0.1399
 3816TIP3    H233008   3.702   3.764   8.165 -0.9832 -1.3370  1.4274
 3817TIP3   OH233009   0.728   3.690   1.828 -0.0685 -0.1128  0.1576
 3817TIP3    H133010   0.787   3.622   1.859 -0.3639  0.3206  1.7227
 3817TIP3    H233011   0.783   3.769   1.825 -0.4604  0.2202  1.3062
 3818TIP3   OH233012   4.496   1.942   1.975  0.2916 -0.0120  0.6622
 3818TIP3    H133013   4.466   2.003   1.908 -2.5366 -1.3432  0.5802
 3818TIP3    H233014   4.485   1.990   2.057 -0.0954  0.2451  0.4627
 3819TIP3   OH233015   1.632   4.688   8.154  0.2126  0.1003  0.3110
 3819TIP3    H133016   1.553   4.692   8.100 -0.2252 -0.4932  0.9049
 3819TIP3    H233017   1.612   4.740   8.232 -0.1003 -1.1637  1.0971
 3820TIP3   OH233018   0.458   5.459   9.294  0.4788 -0.2775 -0.2803
 3820TIP3    H133019   0.472   5.413   9.377 -1.6969 -0.4288  0.0782
 3820TIP3    H233020   0.366   5.443   9.274  0.1096  2.3784 -1.1058
 3821TIP3   OH233021   1.960   2.597   7.358  0.0732 -0.1833  0.1009
 3821TIP3    H133022   1.975   2.686   7.323  1.3214 -0.3558  0.1500
 3821TIP3    H233023   1.946   2.543   7.280 -1.2390  0.1376  0.0962
 3822TIP3   OH233024   2.930   0.255   7.428 -0.5044 -0.1990 -0.5522
 3822TIP3    H133025   2.886   0.175   7.399 -0.6672 -0.8520  1.3608
 3822TIP3    H233026   2.955   0.237   7.518  0.3710  1.5533 -0.4101
 3823TIP3   OH233027   2.964   6.408   1.277  0.2843 -0.0786  0.0651
 3823TIP3    H133028   2.946   6.323   1.318  0.3523  0.0925  0.4596
 3823TIP3    H233029   2.945   6.472   1.346 -1.1869  0.3218 -0.6720
 3824TIP3   OH233030   1.236   5.462   0.499 -0.1487 -0.1522  0.0361
 3824TIP3    H133031   1.239   5.503   0.585  0.4925 -0.1188  0.0034
 3824TIP3    H233032   1.296   5.515   0.445  1.6036 -1.7758  0.2793
 3825TIP3   OH233033   0.558   3.332   8.794  0.5617 -0.1544  0.5107
 3825TIP3    H133034   0.570   3.251   8.744  0.3342 -0.1792  0.4978
 3825TIP3    H233035   0.484   3.314   8.851 -0.0824  0.3673 -0.1482
 3826TIP3   OH233036   4.077   3.017   1.244  0.0315 -0.0443  0.2043
 3826TIP3    H133037   4.041   3.103   1.266 -1.2631 -0.7619  0.9957
 3826TIP3    H233038   4.033   2.956   1.303  2.0246 -1.0858  0.7112
 3827TIP3   OH233039   5.318   0.898   8.041 -0.2178  0.5202 -0.2148
 3827TIP3    H133040   5.346   0.810   8.065 -1.7949  0.4269  1.6157
 3827TIP3    H233041   5.232   0.886   8.001 -0.8036  1.2484  0.7665
 3828TIP3   OH233042   4.937   4.932   8.958 -0.2811  0.0422 -0.3129
 3828TIP3    H133043   4.978   4.974   9.034  0.4412  0.3228 -0.8380
 3828TIP3    H233044   5.008   4.882   8.917 -1.0782 -1.5606  0.1783
 3829TIP3   OH233045   1.908   6.298   0.390  0.2431 -0.0388 -0.1995
 3829TIP3    H133046   1.956   6.333   0.465  0.5400 -2.4933  0.8348
 3829TIP3    H233047   1.816   6.318   0.408  0.5399  1.8828 -0.6302
 3830TIP3   OH233048   3.869   0.372   9.349  0.3381  0.2688 -0.2265
 3830TIP3    H133049   3.776   0.381   9.328  0.4403  0.9228 -0.4012
 3830TIP3    H233050   3.915   0.405   9.272  0.7243 -0.3920 -0.2926
 3831TIP3   OH233051   5.299   4.678   2.123  0.3670  0.1586 -0.2429
 3831TIP3    H133052   5.357   4.608   2.154 -0.1603  0.6289  1.9705
 3831TIP3    H233053   5.263   4.717   2.202 -0.6754  1.8556 -1.4650
 3832TIP3   OH233054   6.170   6.097   1.107  0.9495 -0.4443  1.2572
 3832TIP3    H133055   6.214   6.178   1.082 -1.6134  0.6898  0.0987
 3832TIP3    H233056   6.176   6.041   1.030  0.1172 -0.1372  0.9540
 3833TIP3   OH233057   0.594   4.270   2.320 -0.2828  0.8373  0.0702
 3833TIP3    H133058   0.635   4.192   2.283  0.1461  0.1133  1.9557
 3833TIP3    H233059   0.514   4.282   2.269 -0.9149 -1.5024  0.3917
 3834TIP3   OH233060   3.384   0.976   6.651 -0.2115  0.1621 -0.2749
 3834TIP3    H133061   3.300   0.947   6.614 -1.0054  0.6681  1.0604
 3834TIP3    H233062   3.393   0.927   6.732  1.5849 -1.0417 -1.1395
 3835TIP3   OH233063   2.420   2.469   0.550 -0.4901 -0.6893  0.3546
 3835TIP3    H133064   2.458   2.387   0.581 -0.4419 -0.7678  0.0838
 3835TIP3    H233065   2.492   2.515   0.508 -0.6001 -0.6645  0.1928
 3836TIP3   OH233066   4.687   2.049   8.617  0.3753 -0.6584 -0.1335
 3836TIP3    H133067   4.741   2.070   8.693  1.7732 -4.1851  0.0323
 3836TIP3    H233068   4.743   2.068   8.542  0.1626 -0.1362 -0.1636
 3837TIP3   OH233069   0.889   3.464   8.614  0.5433 -0.6214 -0.1925
 3837TIP3    H133070   0.807   3.495   8.576 -1.1579 -1.9331  2.1807
 3837TIP3    H233071   0.941   3.544   8.627 -0.2407  0.2155 -1.8794
 3838TIP3   OH233072   2.924   4.208   9.134 -0.1221  0.4426  0.1931
 3838TIP3    H133073   2.927   4.304   9.143  0.9339  0.5286 -0.8094
 3838TIP3    H233074   2.849   4.181   9.187 -0.0903  1.7724  0.9679
 3839TIP3   OH233075   3.657   5.626   8.723 -0.4140  0.0545  0.6746
 3839TIP3    H133076   3.570   5.605   8.757 -1.1656  1.2960 -0.4163
 3839TIP3    H233077   3.642   5.661   8.636  1.4277 -2.6041 -0.8692
 3840TIP3   OH233078   0.747   4.313   0.204  0.3709  0.1049 -0.3959
 3840TIP3    H133079   0.695   4.234   0.215 -0.8910  1.0701  1.0674
 3840TIP3    H233080   0.811   4.310   0.276  2.0772 -0.8069 -1.8648
 3841TIP3   OH233081   3.490   4.051   2.483 -0.2292  0.7467  0.1585
 3841TIP3    H133082   3.472   4.134   2.528 -1.1134  0.9113 -0.4910
 3841TIP3    H233083   3.465   3.984   2.547  1.4161  0.9474  1.0672
 3842TIP3   OH233084   2.038   5.255   1.230 -0.1229 -0.5965 -0.0573
 3842TIP3    H133085   2.019   5.162   1.236  1.9132 -0.9743  3.5521
 3842TIP3    H233086   2.095   5.263   1.153 -1.9068 -1.9091 -1.5908
 3843TIP3   OH233087   2.262   1.131   8.461 -0.3000  0.3985 -0.6331
 3843TIP3    H133088   2.171   1.159   8.470 -1.0854 -2.4466  1.4394
 3843TIP3    H233089   2.260   1.068   8.389 -0.0545  0.0403 -0.3284
 3844TIP3   OH233090   1.650   6.356   0.465  0.1966  0.0437 -0.1198
 3844TIP3    H133091   1.598   6.280   0.492 -0.2205 -0.0183 -1.0492
 3844TIP3    H233092   1.656   6.410   0.543 -0.7537 -0.2490  0.1653
 3845TIP3   OH233093   3.972   1.916   1.038  1.0720  0.1420  0.0440
 3845TIP3    H133094   3.979   1.821   1.040 -0.3803  0.0180  0.2321
 3845TIP3    H233095   3.927   1.935   0.956 -0.6492  0.4800  1.0126
 3846TIP3   OH233096   3.209   0.203   8.851  0.0287  0.3382  0.3026
 3846TIP3    H133097   3.124   0.161   8.867 -1.1260  2.1334 -0.6997
 3846TIP3    H233098   3.247   0.215   8.938 -1.0095  0.0510  0.8146
 3847TIP3   OH233099   6.269   0.281   1.980  0.4833 -0.1557  0.2946
 3847TIP3    H133100   6.258   0.352   1.917  0.8472 -0.0501  0.3469
 3847TIP3    H233101   6.330   0.221   1.938 -1.2054 -1.3844 -0.5456
 3848TIP3   OH233102   6.025   3.878   0.204 -0.3092 -0.5975  0.1665
 3848TIP3    H133103   6.071   3.803   0.166 -0.4066 -0.4243 -0.2975
 3848TIP3    H233104   5.979   3.841   0.280 -1.1521 -1.2211 -0.6303
 3849TIP3   OH233105   3.579   3.641   8.708  0.7324  0.4812  0.4370
 3849TIP3    H133106   3.611   3.701   8.641 -0.3667  1.1119  0.4634
 3849TIP3    H233107   3.624   3.558   8.689  0.6688  0.7277 -0.8850
 3850TIP3   OH233108   1.883   2.586   8.736 -0.1351 -0.4978 -0.0616
 3850TIP3    H133109   1.795   2.580   8.700 -0.5465 -0.0784  0.8434
 3850TIP3    H233110   1.913   2.674   8.713 -0.5707 -0.0636  0.9589
 3851TIP3   OH233111   0.715   1.013   2.838 -0.1029  0.3035 -0.1751
 3851TIP3    H133112   0.781   0.957   2.797 -0.2194 -0.0219  0.0681
 3851TIP3    H233113   0.663   0.952   2.892 -0.4888  0.5824 -0.2264
 3852TIP3   OH233114   5.496   0.708   1.124 -0.1573 -0.2048 -0.5041
 3852TIP3    H133115   5.449   0.637   1.081  2.0943 -1.9810 -0.2697
 3852TIP3    H233116   5.434   0.741   1.189 -1.0551 -2.5445 -0.0426
 3853TIP3   OH233117   1.764   6.354   1.168  0.0571  0.2313  0.2105
 3853TIP3    H133118   1.850   6.388   1.194  0.3053 -0.5234  0.3993
 3853TIP3    H233119   1.783   6.287   1.103 -0.4031  0.1373  0.1683
 3854TIP3   OH233120   5.759   2.261   0.304 -0.6084 -0.0070 -0.2628
 3854TIP3    H133121   5.814   2.334   0.277  0.5454 -1.5842 -2.4869
 3854TIP3    H233122   5.810   2.216   0.372 -0.5488  0.2917 -0.1106
 3855TIP3   OH233123   0.497   6.426   7.529  0.5776  0.5016 -0.9935
 3855TIP3    H133124   0.583   6.444   7.492  0.2902 -0.6611 -2.3149
 3855TIP3    H233125   0.470   6.344   7.487 -1.1002  0.7673 -0.4855
 3856TIP3   OH233126   3.769   0.042   2.414 -0.5039  0.1548  0.0274
 3856TIP3    H133127   3.771   0.039   2.509 -1.7167  0.5858  0.0914
 3856TIP3    H233128   3.748  -0.048   2.387 -1.6678  0.3347  0.2605
 3857TIP3   OH233129   4.137   1.499   8.486 -0.7599  0.3342  0.5141
 3857TIP3    H133130   4.159   1.587   8.453  0.8127 -0.9845 -2.3097
 3857TIP3    H233131   4.044   1.505   8.510 -0.9666  2.4933 -0.5811
 3858TIP3   OH233132   1.552   0.391   2.330 -0.3741  0.3836 -0.5161
 3858TIP3    H133133   1.615   0.321   2.312 -1.2302 -0.0921 -1.7380
 3858TIP3    H233134   1.521   0.372   2.419 -0.9429 -1.0771 -1.0067
 3859TIP3   OH233135   2.220   3.906   8.919  0.4134  0.7172 -0.3109
 3859TIP3    H133136   2.314   3.917   8.935  0.6359  0.0791 -1.1066
 3859TIP3    H233137   2.181   3.987   8.952  1.2933  1.1688 -0.3405
 3860TIP3   OH233138   2.650   5.192   0.517 -0.4545  0.1319 -0.5628
 3860TIP3    H133139   2.603   5.251   0.458 -1.9082 -1.5331 -1.1620
 3860TIP3    H233140   2.628   5.104   0.486  0.9088 -0.7647  0.8444
 3861TIP3   OH233141   2.098   1.436   0.882  0.3447 -0.7451  0.4295
 3861TIP3    H133142   2.156   1.474   0.948 -0.0178 -0.6323  0.6854
 3861TIP3    H233143   2.039   1.507   0.857  1.9625 -0.0744 -1.7673
 3862TIP3   OH233144   2.557   3.709   7.986 -0.2948  0.1092 -0.3211
 3862TIP3    H133145   2.618   3.769   8.029 -0.8465  0.8579 -0.5777
 3862TIP3    H233146   2.595   3.622   8.001 -0.5243  0.3178  1.7738
 3863TIP3   OH233147   1.528   4.609   7.394  0.2693  0.3033  0.6816
 3863TIP3    H133148   1.434   4.616   7.407  0.1501  0.8524 -0.4283
 3863TIP3    H233149   1.542   4.520   7.362  0.0864  0.3359  0.5107
 3864TIP3   OH233150   3.113   1.551   7.977  0.0743 -0.0979 -0.1063
 3864TIP3    H133151   3.036   1.539   7.921 -0.1110 -2.4178  0.5595
 3864TIP3    H233152   3.140   1.642   7.961 -2.4704  0.6151 -0.7454
 3865TIP3   OH233153   3.999   2.707   8.091 -0.3022 -0.4136 -0.0528
 3865TIP3    H133154   4.077   2.742   8.047  0.9074 -1.7268  0.9334
 3865TIP3    H233155   3.967   2.639   8.032 -0.5046 -0.0987 -0.3069
 3866TIP3   OH233156   3.589   6.095   0.033 -0.1790  0.6264 -0.5638
 3866TIP3    H133157   3.494   6.095   0.047 -0.4292 -0.0185 -2.0520
 3866TIP3    H233158   3.603   6.032  -0.037  1.7364 -1.8254  1.8249
 3867TIP3   OH233159   5.724   1.480   0.213 -0.1796  0.0254 -0.5188
 3867TIP3    H133160   5.651   1.486   0.152 -0.5233  1.2547 -0.0144
 3867TIP3    H233161   5.685   1.499   0.299  0.0794 -2.6788  0.2846
 3868TIP3   OH233162   3.683   3.214   7.972 -0.2502 -0.0097  0.2040
 3868TIP3    H133163   3.711   3.127   7.943 -0.9634 -0.3640  0.5516
 3868TIP3    H233164   3.671   3.263   7.890  1.0539  0.0708  0.0291
 3869TIP3   OH233165   2.562   4.350   0.896 -0.3136 -0.0125  0.0762
 3869TIP3    H133166   2.637   4.312   0.850 -0.6172 -0.5584  0.0244
 3869TIP3    H233167   2.543   4.431   0.848 -0.5411 -0.5061 -0.6903
 3870TIP3   OH233168   2.216   0.848   8.327 -0.1096 -0.6246 -0.3047
 3870TIP3    H133169   2.159   0.882   8.259  1.4740  0.4370 -1.1485
 3870TIP3    H233170   2.278   0.791   8.281  0.2907 -0.7792  0.4088
 3871TIP3   OH233171   3.214   2.923   7.670  0.1422 -0.3700  0.3032
 3871TIP3    H133172   3.260   2.951   7.591 -1.5371  1.3130 -0.1398
 3871TIP3    H233173   3.216   2.827   7.666  2.6397 -0.3546 -0.1953
 3872TIP3   OH233174   5.970   3.275   7.148  0.3851  0.4112  0.2639
 3872TIP3    H133175   5.949   3.305   7.237 -1.4329  3.1638 -0.9494
 3872TIP3    H233176   5.922   3.334   7.091  3.2756  0.2065 -2.6800
 3873TIP3   OH233177   6.141   0.994   6.894  0.3512 -0.1991  0.3989
 3873TIP3    H133178   6.100   1.053   6.958  1.3961 -0.3001  1.1755
 3873TIP3    H233179   6.096   1.014   6.812 -0.8051  0.1465  1.0881
 3874TIP3   OH233180   5.809   4.304   0.239  0.2871  0.3248 -0.2700
 3874TIP3    H133181   5.872   4.289   0.169 -0.7132 -0.7754 -0.9715
 3874TIP3    H233182   5.738   4.353   0.197 -1.1895 -1.9274 -0.5589
 3875TIP3   OH233183   0.156   2.531   8.671  0.3783 -0.1281 -0.7223
 3875TIP3    H133184   0.151   2.582   8.752 -1.8048  0.8589 -1.4288
 3875TIP3    H233185   0.209   2.454   8.695  0.8079  0.7303  1.2889
 3876TIP3   OH233186   5.299   3.516   0.559  0.5634 -0.8037  0.4835
 3876TIP3    H133187   5.374   3.497   0.503  2.2550 -0.0495  2.3660
 3876TIP3    H233188   5.278   3.433   0.601 -0.2013 -1.1929 -0.6375
 3877TIP3   OH233189   5.773   0.015   1.938 -0.1422  0.0760 -0.4469
 3877TIP3    H133190   5.800   0.103   1.961  0.7484 -0.4927  0.8006
 3877TIP3    H233191   5.686   0.005   1.975 -0.7968  0.8356 -1.7045
 3878TIP3   OH233192   5.779   6.232   6.606  0.4520 -0.2799  0.1718
 3878TIP3    H133193   5.745   6.256   6.692 -0.8910  0.9596 -0.6511
 3878TIP3    H233194   5.873   6.243   6.613  0.5369 -1.8481  1.9581
 3879TIP3   OH233195   5.325   6.245   9.463 -0.3779  0.1482  0.3850
 3879TIP3    H133196   5.331   6.205   9.550 -0.8018  0.2949  0.4855
 3879TIP3    H233197   5.300   6.335   9.480  1.8872  0.8681  0.2311
 3880TIP3   OH233198   6.235   5.602   8.638  0.8653 -0.6225  0.3918
 3880TIP3    H133199   6.141   5.621   8.643  1.2693  2.9973 -1.8882
 3880TIP3    H233200   6.241   5.530   8.575 -0.3696  0.0370 -0.5339
 3881TIP3   OH233201   4.897   5.591   7.678 -0.7574  0.0255 -0.1674
 3881TIP3    H133202   4.803   5.572   7.680 -0.7052 -0.2350  1.7072
 3881TIP3    H233203   4.939   5.508   7.701 -0.0191  0.0554 -1.3041
 3882TIP3   OH233204   1.047   0.191   1.494  0.1352 -0.0988 -0.5818
 3882TIP3    H133205   1.128   0.222   1.535 -0.8115  2.0309 -0.1634
 3882TIP3    H233206   0.979   0.248   1.530 -1.3795 -1.0599 -1.8018
 3883TIP3   OH233207   1.447   0.484   0.361 -0.4062  0.7515 -0.2895
 3883TIP3    H133208   1.401   0.552   0.312 -1.3169  0.2181 -0.1901
 3883TIP3    H233209   1.450   0.409   0.302  1.1763  1.0569 -0.6466
 3884TIP3   OH233210   0.739   5.894   8.057 -0.0411 -0.0406  0.2673
 3884TIP3    H133211   0.709   5.883   8.147 -1.8710  1.1605 -0.1270
 3884TIP3    H233212   0.788   5.976   8.058 -1.7197  1.0245 -0.1364
 3885TIP3   OH233213   4.387   5.985   0.337  0.4706  0.0331  0.1153
 3885TIP3    H133214   4.332   6.055   0.300  0.8110 -0.5041 -1.5077
 3885TIP3    H233215   4.473   5.999   0.298  0.8201 -0.6404  0.6286
 3886TIP3   OH233216   4.105   5.581   8.675  0.4866  0.1602 -0.1008
 3886TIP3    H133217   4.048   5.612   8.605 -0.6611 -1.0976  0.2438
 3886TIP3    H233218   4.143   5.660   8.713 -0.7305  0.9886 -0.5867
 3887TIP3   OH233219   3.028   0.785   1.318  0.2969  0.2160 -0.0058
 3887TIP3    H133220   3.111   0.743   1.339 -0.3146 -0.8204  0.4244
 3887TIP3    H233221   2.972   0.766   1.393 -0.3131  0.9501 -0.2689
 3888TIP3   OH233222   4.125   0.599   1.196 -0.6266 -0.2409  0.4134
 3888TIP3    H133223   4.185   0.543   1.148 -0.3769 -0.7559  1.3009
 3888TIP3    H233224   4.181   0.653   1.252 -0.8900  0.5883 -0.1131
 3889TIP3   OH233225   0.164   6.465   7.521  0.2196  0.3395  0.3235
 3889TIP3    H133226   0.255   6.473   7.492  0.0797  1.5622  0.1575
 3889TIP3    H233227   0.141   6.374   7.503  0.4940  0.7117 -2.5068
 3890TIP3   OH233228   6.152   0.996   1.519 -0.1401  0.0552  0.1091
 3890TIP3    H133229   6.172   1.084   1.550 -1.0423  0.0852  0.6267
 3890TIP3    H233230   6.219   0.978   1.453 -0.9726  1.8177 -1.3026
 3891TIP3   OH233231   1.821   3.318   8.434 -0.4971  0.3577  0.1206
 3891TIP3    H133232   1.835   3.225   8.421  0.9467  0.8551 -2.8228
 3891TIP3    H233233   1.773   3.325   8.516  1.2143 -2.7978  1.5301
 3892TIP3   OH233234   3.570   3.356   1.162 -0.3922 -0.0867 -0.0304
 3892TIP3    H133235   3.612   3.383   1.244 -0.5317 -0.8518  0.2958
 3892TIP3    H233236   3.642   3.323   1.108 -0.1203  1.4847 -0.6806
 3893TIP3   OH233237   0.188   4.394   7.344  0.1282  0.7470  0.2331
 3893TIP3    H133238   0.151   4.480   7.361  0.6545  0.9734  0.2635
 3893TIP3    H233239   0.271   4.393   7.393 -0.2658 -0.0816  0.9188
 3894TIP3   OH233240   2.698   2.881   1.923 -0.3992  0.1686  0.1503
 3894TIP3    H133241   2.608   2.852   1.936 -0.6226  0.3475 -0.8716
 3894TIP3    H233242   2.727   2.911   2.009 -1.5235  0.6828  0.3644
 3895TIP3   OH233243   3.356   2.155   7.218  0.4109 -0.8841  0.2665
 3895TIP3    H133244   3.268   2.142   7.181  0.6625  0.7267 -0.9994
 3895TIP3    H233245   3.341   2.200   7.301  0.0613  1.0141 -0.7700
 3896TIP3   OH233246   4.195   2.091   1.605 -0.3165 -0.0950  0.7476
 3896TIP3    H133247   4.187   2.181   1.574  2.0863 -0.6061 -1.7545
 3896TIP3    H233248   4.214   2.040   1.526  0.3758 -2.5026  2.3450
 3897TIP3   OH233249   1.677   2.678   7.490  0.5322 -0.0441  0.6189
 3897TIP3    H133250   1.705   2.687   7.399  0.2345 -1.8686  0.3080
 3897TIP3    H233251   1.739   2.732   7.539 -0.4145  2.4641 -0.7881
 3898TIP3   OH233252   0.064   0.451   2.263 -0.2981  0.0854 -0.5392
 3898TIP3    H133253   0.026   0.376   2.309 -1.1003  0.0115 -1.2869
 3898TIP3    H233254   0.013   0.526   2.295 -0.2561  0.1575 -0.6420
 3899TIP3   OH233255   0.350   6.440   0.914 -0.2472 -0.4230  0.0385
 3899TIP3    H133256   0.388   6.387   0.985 -0.1329 -1.0022 -0.4507
 3899TIP3    H233257   0.426   6.474   0.867 -0.3163 -1.1945 -0.6540
 3900TIP3   OH233258   4.165   5.715   8.958  0.2998 -0.1449 -0.0019
 3900TIP3    H133259   4.179   5.725   9.052  0.9207 -2.0148  0.1392
 3900TIP3    H233260   4.073   5.690   8.950  0.1794  0.2642  0.0785
 3901TIP3   OH233261   2.762   2.824   6.849  0.0097  0.4613 -0.3071
 3901TIP3    H133262   2.794   2.890   6.788 -1.9089  2.0286  0.2628
 3901TIP3    H233263   2.713   2.762   6.795  0.6896  0.2597 -0.6921
 3902TIP3   OH233264   2.695   3.231   1.407  0.1243  0.1212  0.5882
 3902TIP3    H133265   2.761   3.179   1.361  0.2008  1.5655 -1.0126
 3902TIP3    H233266   2.718   3.322   1.388 -3.5142  0.7526 -2.0102
 3903TIP3   OH233267   5.886   4.114   8.393  0.1932 -0.5224 -0.5533
 3903TIP3    H133268   5.894   4.183   8.460 -0.1473 -0.2010 -0.8404
 3903TIP3    H233269   5.966   4.063   8.403  0.2842 -0.3022 -0.0932
 3904TIP3   OH233270   5.455   0.216   2.292 -0.1558  0.0686  0.0540
 3904TIP3    H133271   5.475   0.124   2.277 -0.0665 -0.4575  2.8817
 3904TIP3    H233272   5.360   0.221   2.290 -0.2873 -0.6047  2.0641
 3905TIP3   OH233273   0.055   3.639   7.888  0.1155 -0.2196 -0.6163
 3905TIP3    H133274   0.019   3.618   7.802 -1.9845  1.0461 -0.1060
 3905TIP3    H233275   0.067   3.554   7.930 -0.1223 -0.7855 -1.6537
 3906TIP3   OH233276   5.628   1.856   2.273 -0.0464 -0.0273 -0.2519
 3906TIP3    H133277   5.698   1.803   2.236  0.6504 -0.2286  1.3083
 3906TIP3    H233278   5.669   1.939   2.294 -0.8105  0.6719 -1.3482
 3907TIP3   OH233279   0.318   1.890   1.203  0.2711 -0.2596  0.2140
 3907TIP3    H133280   0.336   1.801   1.172 -1.8213  0.2919 -3.1598
 3907TIP3    H233281   0.223   1.900   1.191  0.5173  2.5684 -0.0048
 3908TIP3   OH233282   0.818   6.104   1.028 -0.1370 -0.1971 -0.0883
 3908TIP3    H133283   0.748   6.064   0.976 -2.1490  0.7934  1.6617
 3908TIP3    H233284   0.889   6.039   1.028 -1.5175 -1.7856 -0.9840
 3909TIP3   OH233285   3.260   0.781   9.228  0.0479  0.6246 -0.0574
 3909TIP3    H133286   3.279   0.761   9.319 -0.3988 -0.0052 -0.0986
 3909TIP3    H233287   3.210   0.706   9.196 -0.9561  1.4291 -0.4412
 3910TIP3   OH233288   4.068   1.936   7.933 -0.1492 -0.1723 -0.0070
 3910TIP3    H133289   4.085   1.843   7.917  1.1140 -0.1564  1.0807
 3910TIP3    H233290   4.041   1.939   8.025 -2.1266  0.3327 -0.5531
 3911TIP3   OH233291   0.216   5.882   1.435 -0.4059 -0.2788  0.3640
 3911TIP3    H133292   0.136   5.847   1.396 -0.6478  0.5060  0.1413
 3911TIP3    H233293   0.197   5.974   1.450  0.9116  0.2357 -0.9225
 3912TIP3   OH233294   3.218   0.473   7.066 -0.3540  0.2845 -0.0460
 3912TIP3    H133295   3.194   0.565   7.079 -1.8644 -0.2492  1.3067
 3912TIP3    H233296   3.259   0.448   7.149  1.5127  0.1275 -0.9742
 3913TIP3   OH233297   1.522   4.080   1.941  0.5501 -0.1125 -0.3272
 3913TIP3    H133298   1.578   4.134   1.885  1.2696 -0.3361  0.1524
 3913TIP3    H233299   1.435   4.120   1.935  0.7178  0.1211 -1.2457
 3914TIP3   OH233300   0.036   0.209   0.376  0.3890 -0.0145  0.1888
 3914TIP3    H133301   0.113   0.187   0.429  0.4263 -0.3003  0.0144
 3914TIP3    H233302  -0.024   0.248   0.439 -0.0909 -1.5451  0.7277
 3915TIP3   OH233303   1.173   3.089   9.235 -0.0242  0.0795  0.0321
 3915TIP3    H133304   1.154   2.995   9.238 -0.3674  0.1056 -0.9643
 3915TIP3    H233305   1.267   3.096   9.253 -0.0359 -0.4366  0.2962
 3916TIP3   OH233306   3.271   6.048   1.277  0.5623 -0.5226  0.1010
 3916TIP3    H133307   3.280   6.108   1.351 -0.3904 -1.4525  1.0179
 3916TIP3    H233308   3.235   5.968   1.316  0.4772 -1.1946 -1.3031
 3917TIP3   OH233309   1.817   0.809   0.768  0.0036 -0.2206  0.2138
 3917TIP3    H133310   1.808   0.888   0.821 -1.0546 -0.6868  0.7606
 3917TIP3    H233311   1.903   0.773   0.791  0.1984  0.4040  0.4641
 3918TIP3   OH233312   3.512   3.841   6.698  0.5337  0.5288 -0.6475
 3918TIP3    H133313   3.502   3.747   6.685 -1.6241  0.2724  1.9482
 3918TIP3    H233314   3.567   3.849   6.775 -1.0002  1.2504  0.4358
 3919TIP3   OH233315   5.818   4.523   0.466  0.4525 -0.1927 -0.2121
 3919TIP3    H133316   5.728   4.553   0.454  0.1843 -1.5255 -1.8376
 3919TIP3    H233317   5.871   4.587   0.418  0.5378  1.1110  1.4806
 3920TIP3   OH233318   5.120   0.572   1.610 -0.2293 -0.2245 -0.7097
 3920TIP3    H133319   5.166   0.500   1.653 -0.2172  0.6258  0.7841
 3920TIP3    H233320   5.044   0.588   1.666  0.0828  1.2835 -0.6676
 3921TIP3   OH233321   6.360   5.257   0.431  0.0918 -0.5905  0.4361
 3921TIP3    H133322   6.346   5.204   0.352 -0.3834 -0.1381  0.2092
 3921TIP3    H233323   6.447   5.232   0.462  0.4057 -0.5727 -0.3967
 3922TIP3   OH233324   5.919   0.922   9.107 -0.0514 -0.0587 -0.0714
 3922TIP3    H133325   5.876   1.001   9.073 -0.5625  0.2121  1.1218
 3922TIP3    H233326   5.951   0.948   9.194  1.7743 -0.5284 -0.5725
 3923TIP3   OH233327   1.378   4.608   8.359  0.7865  0.4660  0.2793
 3923TIP3    H133328   1.288   4.607   8.391  0.1272 -1.5416 -1.4074
 3923TIP3    H233329   1.429   4.644   8.432 -1.2089  0.4288  1.7687
 3924TIP3   OH233330   3.850   4.803   7.618 -0.3031  0.2435 -0.2616
 3924TIP3    H133331   3.789   4.876   7.628  0.2421  0.6068  0.5112
 3924TIP3    H233332   3.803   4.727   7.653 -0.9268  0.1680 -1.2001
 3925TIP3   OH233333   2.839   1.812   0.788 -0.9466 -0.5805 -0.0782
 3925TIP3    H133334   2.888   1.748   0.737 -0.0646 -0.9821  1.2342
 3925TIP3    H233335   2.760   1.828   0.736 -1.1891 -2.7051 -0.4806
 3926TIP3   OH233336   0.825   5.195   0.433  0.1225 -0.0428  0.6719
 3926TIP3    H133337   0.888   5.261   0.462 -0.1040  0.3548  0.2968
 3926TIP3    H233338   0.779   5.169   0.512  1.3751 -1.0231  1.0998
 3927TIP3   OH233339   4.758   1.584   8.444 -0.0316 -0.0997 -0.3628
 3927TIP3    H133340   4.840   1.633   8.440  0.3569 -0.7672 -0.7638
 3927TIP3    H233341   4.693   1.645   8.410 -0.0061  0.9949  1.3619
 3928TIP3   OH233342   3.802   3.260   1.034  1.0133  0.4223 -0.0608
 3928TIP3    H133343   3.874   3.268   0.971  1.3963 -2.1699 -0.0457
 3928TIP3    H233344   3.846   3.243   1.117  0.4256 -0.2525  0.1158
 3929TIP3   OH233345   4.106   5.276   0.230  0.0228 -0.5349 -0.0708
 3929TIP3    H133346   4.080   5.202   0.285 -0.9858 -1.4256 -1.6430
 3929TIP3    H233347   4.029   5.333   0.229  0.0546 -0.4917 -0.4639
 3930TIP3   OH233348   2.455   2.801   0.588 -0.3979 -0.0891  0.2323
 3930TIP3    H133349   2.360   2.806   0.574 -0.8407  0.4327  2.8698
 3930TIP3    H233350   2.483   2.892   0.596  0.4796 -0.2114 -1.1324
 3931TIP3   OH233351   4.460   4.149   7.686 -0.3599  0.2804  0.2854
 3931TIP3    H133352   4.443   4.161   7.780  0.2557  1.2301  0.2906
 3931TIP3    H233353   4.546   4.108   7.682 -1.5140 -2.3058  0.1855
 3932TIP3   OH233354   0.438   1.566   9.322 -0.1017  0.1182  0.2681
 3932TIP3    H133355   0.361   1.623   9.320 -0.0691  0.1668 -1.7391
 3932TIP3    H233356   0.412   1.490   9.271 -0.2033 -1.8528  3.0260
 3933TIP3   OH233357   1.172   3.388   8.433 -0.4132  0.5956 -0.2095
 3933TIP3    H133358   1.126   3.471   8.427 -0.4197  0.7816  1.6381
 3933TIP3    H233359   1.189   3.377   8.527  0.2647 -1.1164 -0.4896
 3934TIP3   OH233360   4.999   5.518   1.455 -0.1171  0.1522  0.0268
 3934TIP3    H133361   4.984   5.423   1.454 -1.5897  0.3691 -0.4693
 3934TIP3    H233362   4.922   5.555   1.412  0.3120  1.5989  0.4466
 3935TIP3   OH233363   4.141   3.835   6.768 -0.9934  0.2178  0.1052
 3935TIP3    H133364   4.103   3.747   6.765  0.8940 -0.6829  1.1860
 3935TIP3    H233365   4.234   3.821   6.750 -0.9638  2.2568 -1.6799
 3936TIP3   OH233366   4.411   5.240   1.598  0.0907  0.2488  0.0082
 3936TIP3    H133367   4.377   5.329   1.587 -1.2531 -0.4502 -1.8952
 3936TIP3    H233368   4.368   5.208   1.678  0.5715  1.2646  0.6988
 3937TIP3   OH233369   0.373   0.693   0.635 -0.4771  0.1429  0.0556
 3937TIP3    H133370   0.377   0.785   0.661 -0.3734  0.3115 -0.5228
 3937TIP3    H233371   0.341   0.695   0.544  0.2583 -0.3358 -0.2307
 3938TIP3   OH233372   0.305   4.655   9.560  0.1533  0.1236  0.6063
 3938TIP3    H133373   0.322   4.715   9.488  0.7666 -1.6621 -0.8238
 3938TIP3    H233374   0.385   4.603   9.569 -0.3250 -0.4652  1.8121
 3939TIP3   OH233375   4.472   0.142   9.117 -0.3802 -0.2398 -0.1317
 3939TIP3    H133376   4.430   0.224   9.092  0.0479  0.0830  0.1923
 3939TIP3    H233377   4.416   0.074   9.080 -1.0889  0.1858  0.1474
 3940TIP3   OH233378   3.518   0.627   8.575 -0.1874  0.0831  0.0048
 3940TIP3    H133379   3.460   0.552   8.590  0.2161 -0.1029  0.6709
 3940TIP3    H233380   3.461   0.704   8.585 -0.4385 -0.1110  0.0813
 3941TIP3   OH233381   6.013   1.499   0.142  0.5798  0.4284 -0.6812
 3941TIP3    H133382   5.925   1.524   0.170  1.1862  2.0576 -0.1180
 3941TIP3    H233383   6.014   1.519   0.048  0.0845 -0.4486 -0.8851
 3942TIP3   OH233384   5.946   2.621   7.910 -0.2830 -0.4185 -0.0299
 3942TIP3    H133385   5.915   2.563   7.841 -0.1504  0.8075 -1.1495
 3942TIP3    H233386   6.039   2.634   7.891 -0.0153 -0.8018  0.9332
 3943TIP3   OH233387   4.884   2.360   9.545  0.4280  0.1446 -0.1442
 3943TIP3    H133388   4.935   2.320   9.615  0.0545  0.5181  0.3426
 3943TIP3    H233389   4.927   2.330   9.464  1.0620 -0.0046  0.2454
 3944TIP3   OH233390   0.542   5.688   0.624  0.4021  0.0720  0.3467
 3944TIP3    H133391   0.510   5.765   0.671  1.0930  0.2118  0.6107
 3944TIP3    H233392   0.536   5.712   0.532  2.5123  1.2819  0.4536
 3945TIP3   OH233393   1.279   2.189   2.102  0.1212 -1.2163  0.2147
 3945TIP3    H133394   1.211   2.197   2.169 -0.8338 -1.4119 -0.7008
 3945TIP3    H233395   1.354   2.154   2.150 -0.5397 -1.3847  1.1865
 3946TIP3   OH233396   5.883   5.207   2.309  0.3428  0.0848  0.6092
 3946TIP3    H133397   5.879   5.116   2.282 -1.9863  0.3588 -0.1651
 3946TIP3    H233398   5.812   5.217   2.372 -0.3272  1.6651 -0.3449
 3947TIP3   OH233399   4.058   2.302   8.116 -0.1619  0.0996 -0.0135
 3947TIP3    H133400   4.024   2.347   8.039  1.5314  2.4193  0.4886
 3947TIP3    H233401   4.133   2.252   8.084  0.2299  0.6540  0.0254
 3948TIP3   OH233402   4.716   6.206   0.116  0.3783  0.5087  0.0490
 3948TIP3    H133403   4.771   6.128   0.105 -0.7945 -0.1505 -1.6348
 3948TIP3    H233404   4.676   6.195   0.202 -0.6547 -1.4244 -0.5926
 3949TIP3   OH233405   3.110   1.480   1.554  0.0001 -0.4770 -0.1229
 3949TIP3    H133406   3.068   1.404   1.514  0.0506 -0.4865 -0.1588
 3949TIP3    H233407   3.171   1.443   1.617 -0.0872 -0.4612 -0.0300
 3950TIP3   OH233408   0.398   1.118   7.704 -0.1395 -0.4196 -0.3616
 3950TIP3    H133409   0.345   1.083   7.632  0.4746 -1.6998 -0.2111
 3950TIP3    H233410   0.471   1.162   7.661 -0.7380  0.4402 -0.5414
 3951TIP3   OH233411   2.197   6.276   2.128 -0.2980  0.1756 -0.3096
 3951TIP3    H133412   2.265   6.296   2.063 -0.3291  1.3693  0.0179
 3951TIP3    H233413   2.236   6.207   2.182  0.2159  0.0609 -0.8069
 3952TIP3   OH233414   5.809   5.566   0.693 -0.5226  0.7186  0.4751
 3952TIP3    H133415   5.816   5.583   0.787  0.6785 -1.8972  0.9851
 3952TIP3    H233416   5.889   5.516   0.673 -0.7707  1.1910 -1.9367
 3953TIP3   OH233417   5.231   1.955   8.515  0.1510 -0.9512 -0.2512
 3953TIP3    H133418   5.230   1.938   8.421 -0.1457 -0.4477 -0.3413
 3953TIP3    H233419   5.150   2.001   8.532  0.3570 -0.7500  0.2022
 3954TIP3   OH233420   6.476   6.011   2.410 -0.4935 -0.5357 -0.0316
 3954TIP3    H133421   6.402   6.022   2.470 -1.3570  0.0863 -1.1510
 3954TIP3    H233422   6.446   6.051   2.328  1.5552  0.8456 -0.1735
 3955TIP3   OH233423   5.065   0.544   9.207 -0.3509  0.0779  0.3890
 3955TIP3    H133424   5.094   0.561   9.118 -1.1689  0.6713  0.2236
 3955TIP3    H233425   5.049   0.631   9.244 -1.7212 -0.1981  0.5148
 3956TIP3   OH233426   6.516   5.847   0.436 -0.1522  0.0897 -0.7622
 3956TIP3    H133427   6.429   5.845   0.478  0.4440 -0.8122  0.4833
 3956TIP3    H233428   6.516   5.928   0.386 -0.5609  1.7830  1.7995
 3957TIP3   OH233429   4.160   4.220   8.937 -0.0040 -0.0821  0.0556
 3957TIP3    H133430   4.169   4.291   9.000  0.8253  1.7130 -1.9386
 3957TIP3    H233431   4.072   4.230   8.901  0.5331  0.7868 -1.1005
 3958TIP3   OH233432   2.397   5.063   8.339  0.1737 -0.2703 -0.3491
 3958TIP3    H133433   2.482   5.044   8.379 -0.0152  2.5176  1.6646
 3958TIP3    H233434   2.355   4.977   8.331  1.9126 -1.4146  1.6689
 3959TIP3   OH233435   3.248   3.902   8.413 -0.2869  0.2305 -0.1828
 3959TIP3    H133436   3.289   3.820   8.386  0.0016  0.0407  0.8206
 3959TIP3    H233437   3.319   3.954   8.449 -0.3155  1.2560 -1.5073
 3960TIP3   OH233438   1.650   4.123   8.531  0.3169 -0.1840 -0.6725
 3960TIP3    H133439   1.731   4.107   8.581 -0.7259 -0.4004  1.0423
 3960TIP3    H233440   1.665   4.206   8.488  2.0074 -0.9055 -1.5858
 3961TIP3   OH233441   3.929   5.175   1.299 -0.2071  0.1025 -0.4549
 3961TIP3    H133442   4.002   5.165   1.360 -0.6642  1.3663  0.3470
 3961TIP3    H233443   3.965   5.224   1.226  0.1327 -0.6799 -0.8223
 3962TIP3   OH233444   1.134   3.105   8.550 -0.5708  0.5573 -0.0665
 3962TIP3    H133445   1.117   3.183   8.497  0.5079 -0.2494 -1.6547
 3962TIP3    H233446   1.195   3.136   8.618 -0.9412  1.3129 -0.0675
 3963TIP3   OH233447   3.540   1.622   1.424 -0.0761  0.0816 -0.0121
 3963TIP3    H133448   3.574   1.712   1.426 -0.8696  0.4235 -1.0201
 3963TIP3    H233449   3.446   1.633   1.418 -0.1110 -0.8173 -1.2418
 3964TIP3   OH233450   2.909   0.456   0.966  0.4660  0.1120 -0.2710
 3964TIP3    H133451   2.850   0.509   1.020 -0.1077 -0.4870 -0.3002
 3964TIP3    H233452   2.973   0.518   0.933 -0.7864  0.9838 -1.1491
 3965TIP3   OH233453   1.369   2.523   8.310  0.0631  0.6584 -0.1523
 3965TIP3    H133454   1.315   2.577   8.367 -1.3702 -0.0281 -0.7964
 3965TIP3    H233455   1.366   2.436   8.350  0.8248  0.6387 -0.1207
 3966TIP3   OH233456   2.624   0.840   2.518 -0.3103  0.2655  0.9723
 3966TIP3    H133457   2.593   0.891   2.593 -0.2285  0.3039  0.9803
 3966TIP3    H233458   2.548   0.788   2.491  0.0517 -0.8468  1.9939
 3967TIP3   OH233459   2.803   6.165   8.675 -0.1331 -0.2506 -0.1426
 3967TIP3    H133460   2.748   6.166   8.596  1.5255 -0.1976 -1.3421
 3967TIP3    H233461   2.793   6.252   8.712 -0.3246 -0.0135 -0.7362
 3968TIP3   OH233462   5.010   4.512   8.600 -0.9098 -0.7381 -0.0241
 3968TIP3    H133463   5.102   4.510   8.629 -0.9985 -1.0329  0.2432
 3968TIP3    H233464   4.969   4.579   8.653 -0.3662  0.9629 -1.6351
 3969TIP3   OH233465   5.892   5.400   9.425  0.0512  0.1281  0.3725
 3969TIP3    H133466   5.907   5.362   9.512  2.5537  0.0978  0.0094
 3969TIP3    H233467   5.857   5.327   9.373 -1.3224  0.1059  1.2736
 3970TIP3   OH233468   5.024   3.558   9.075  0.0931  0.3483  0.4592
 3970TIP3    H133469   5.032   3.464   9.088  0.6508  0.4474  0.8773
 3970TIP3    H233470   4.932   3.577   9.090 -0.5834 -0.4881 -2.0734
 3971TIP3   OH233471   3.847   5.045   0.021 -0.3308  0.2500  0.1241
 3971TIP3    H133472   3.830   5.073   0.111  1.1703  0.3460  0.3921
 3971TIP3    H233473   3.760   5.044  -0.019 -1.5459 -2.9738  2.4256
 3972TIP3   OH233474   2.417   3.173   0.446  0.5843  0.0748 -0.0967
 3972TIP3    H133475   2.454   3.136   0.366  1.1365  0.1366  0.1257
 3972TIP3    H233476   2.443   3.112   0.515 -1.0427 -0.7223 -0.1294
 3973TIP3   OH233477   0.079   6.042   9.401 -0.1733  0.3723  0.2113
 3973TIP3    H133478   0.003   6.019   9.348  0.1050 -1.3890  0.5402
 3973TIP3    H233479   0.142   6.077   9.337 -0.4264 -0.2457 -0.3925
 3974TIP3   OH233480   1.437   3.602   2.354  0.3016  0.9924  0.1494
 3974TIP3    H133481   1.487   3.637   2.427  0.3885 -0.4047  0.7889
 3974TIP3    H233482   1.374   3.543   2.394 -1.6893  2.4517 -0.6665
 3975TIP3   OH233483   0.356   3.894   8.510  0.0409 -0.2620  0.7224
 3975TIP3    H133484   0.339   3.906   8.417  0.5659 -0.3517  0.6121
 3975TIP3    H233485   0.434   3.947   8.528  0.6826 -1.2131  0.8376
 3976TIP3   OH233486   3.400   1.514   7.995  0.1492 -0.1936 -0.3579
 3976TIP3    H133487   3.438   1.564   7.922  1.5008  0.4221  0.7291
 3976TIP3    H233488   3.308   1.542   7.997  0.1658  0.0316 -1.6003
 3977TIP3   OH233489   4.946   0.966   1.571  0.0753  0.7430  0.4357
 3977TIP3    H133490   4.960   0.941   1.663 -1.3730 -1.6022  0.0960
 3977TIP3    H233491   4.858   1.003   1.569  0.2904  1.2438  0.0486
 3978TIP3   OH233492   3.815   0.270   8.566 -0.1136 -0.2410 -0.6333
 3978TIP3    H133493   3.778   0.300   8.649  1.3496  1.7078 -0.6124
 3978TIP3    H233494   3.900   0.314   8.560  0.8353 -2.1049 -2.1238
 3979TIP3   OH233495   3.980   4.117   1.382  0.1243 -0.5554  0.3051
 3979TIP3    H133496   3.964   4.159   1.466 -1.3677 -2.6618  1.1344
 3979TIP3    H233497   3.914   4.154   1.324  0.6344  0.2854  0.2281
 3980TIP3   OH233498   5.523   2.207   8.118  0.5471 -0.1197  0.3181
 3980TIP3    H133499   5.466   2.240   8.187  2.1784  0.2580  1.5665
 3980TIP3    H233500   5.549   2.285   8.068 -0.7208 -0.4046 -0.8537
 3981TIP3   OH233501   5.720   4.854   8.984  0.1817 -0.5160 -0.3072
 3981TIP3    H133502   5.695   4.855   8.891  0.9895  0.6937 -0.5451
 3981TIP3    H233503   5.778   4.778   8.992 -1.1911 -1.6091 -0.3982
 3982TIP3   OH233504   0.367   6.241   8.771 -0.2982 -0.5245 -0.2543
 3982TIP3    H133505   0.330   6.321   8.735 -1.7066 -0.5161  1.0872
 3982TIP3    H233506   0.459   6.261   8.788 -0.2348  0.2528 -1.4279
 3983TIP3   OH233507   5.194   4.565   8.861  0.3827 -0.4102  0.6858
 3983TIP3    H133508   5.284   4.532   8.871  0.5586  0.6975  4.0648
 3983TIP3    H233509   5.202   4.660   8.874 -1.2321 -0.2575  0.6887
 3984TIP3   OH233510   2.936   6.150   7.173  0.6027  0.3160  0.2905
 3984TIP3    H133511   2.905   6.239   7.153 -1.1788 -0.2028  0.5078
 3984TIP3    H233512   2.967   6.116   7.090 -1.0534  0.3070 -0.3723
 3985TIP3   OH233513   3.601   5.790   8.472 -0.5099  0.2065 -0.0773
 3985TIP3    H133514   3.619   5.798   8.378 -0.8433  1.0594 -0.0704
 3985TIP3    H233515   3.514   5.828   8.483  1.0214  3.7424  1.1314
 3986TIP3   OH233516   2.862   1.050   0.281  0.3080  0.5112 -0.1906
 3986TIP3    H133517   2.787   1.016   0.331  0.1861 -0.8802 -1.2670
 3986TIP3    H233518   2.894   0.975   0.232  2.9946  0.8346  0.9006
 3987TIP3   OH233519   5.995   0.703   1.931  0.2043 -0.6911 -0.3743
 3987TIP3    H133520   5.998   0.787   1.886  1.3476 -1.1319 -1.1473
 3987TIP3    H233521   6.019   0.723   2.022 -2.1194  0.2002  0.1336
 3988TIP3   OH233522   2.375   2.387   9.245  0.9729  0.1886 -0.3208
 3988TIP3    H133523   2.428   2.327   9.193  0.0827 -1.1341  0.2504
 3988TIP3    H233524   2.298   2.404   9.191  0.0829 -1.1263  0.4888
 3989TIP3   OH233525   0.949   5.709   7.218  0.3467 -0.1782 -0.3632
 3989TIP3    H133526   0.995   5.785   7.183  0.6481 -0.4734 -0.6076
 3989TIP3    H233527   0.929   5.655   7.142 -0.0838 -0.2280 -0.2180
 3990TIP3   OH233528   3.853   6.512   2.015 -0.3056 -0.0483  0.5305
 3990TIP3    H133529   3.924   6.514   1.950 -0.9369 -0.2670 -0.1864
 3990TIP3    H233530   3.896   6.487   2.097  0.5808  0.6566  0.3009
 3991TIP3   OH233531   1.806   4.223   2.382 -0.4953 -0.1600  0.4778
 3991TIP3    H133532   1.781   4.188   2.467  1.1403 -0.7467  0.7685
 3991TIP3    H233533   1.881   4.169   2.356 -0.7221  0.2778 -1.1479
 3992TIP3   OH233534   1.580   4.160   9.388  0.2528 -0.2362 -0.6514
 3992TIP3    H133535   1.646   4.096   9.416  0.9688  0.8559  0.2703
 3992TIP3    H233536   1.609   4.187   9.301 -0.5624 -1.7913 -1.4434
 3993TIP3   OH233537   5.615   2.622   8.283 -0.5312  0.0480  0.0615
 3993TIP3    H133538   5.525   2.655   8.285 -0.6054 -0.1555  1.9397
 3993TIP3    H233539   5.658   2.674   8.215 -1.8140  0.7884 -0.2206
 3994TIP3   OH233540   2.025   0.834   8.978  0.3339  0.4690 -0.2843
 3994TIP3    H133541   2.016   0.822   9.073  0.3575 -1.6643 -0.5008
 3994TIP3    H233542   2.037   0.929   8.967  1.1615  0.6838  1.8958
 3995TIP3   OH233543   5.018   5.345   7.760  0.9740  0.1968  0.3596
 3995TIP3    H133544   5.025   5.308   7.672 -0.8045  1.0932 -0.2193
 3995TIP3    H233545   4.933   5.315   7.792  0.8769  1.2086  1.1118
 3996TIP3   OH233546   5.885   4.200   1.593 -0.1970 -0.8324  0.3186
 3996TIP3    H133547   5.848   4.115   1.617 -0.2627 -0.7846  0.3875
 3996TIP3    H233548   5.855   4.260   1.662  1.6632 -1.1865  1.5061
 3997TIP3   OH233549   5.804   4.832   7.522  0.5593  0.3021 -0.1992
 3997TIP3    H133550   5.814   4.881   7.441 -1.6864  0.1454 -0.6517
 3997TIP3    H233551   5.725   4.780   7.508  0.9778 -0.8729  1.5399
 3998TIP3   OH233552   4.631   1.695   1.050 -0.3080 -0.3132  0.0955
 3998TIP3    H133553   4.706   1.678   1.108 -0.3421  1.9405  0.8820
 3998TIP3    H233554   4.598   1.780   1.078 -0.2054  1.0382 -3.3896
 3999TIP3   OH233555   1.887   0.675   9.294  0.0659 -0.0522  0.1604
 3999TIP3    H133556   1.852   0.684   9.383  1.3076  0.5259  0.6155
 3999TIP3    H233557   1.929   0.759   9.276  1.1144 -0.6629 -0.3841
 4000TIP3   OH233558   1.679   1.367   9.148  0.5190 -0.7110 -0.2145
 4000TIP3    H133559   1.633   1.451   9.142 -1.5246 -1.7304  0.0042
 4000TIP3    H233560   1.767   1.389   9.177  0.7657  1.5286 -2.3558
 4001TIP3   OH233561   3.918   3.944   0.566 -0.2434 -0.1518  0.5062
 4001TIP3    H133562   4.012   3.934   0.575  0.0940 -0.0255 -2.1555
 4001TIP3    H233563   3.897   4.020   0.621  1.1596 -0.2477  1.2248
 4002TIP3   OH233564   2.289   5.082   2.118 -0.2314 -0.1331  0.2204
 4002TIP3    H133565   2.244   5.128   2.047  0.3487 -1.9426 -1.4381
 4002TIP3    H233566   2.229   5.010   2.140 -0.4251  0.4370  1.6485
 4003TIP3   OH233567   0.557   0.432   1.595  0.4603  0.2087 -0.0414
 4003TIP3    H133568   0.480   0.424   1.651 -1.7363 -0.7030 -2.9355
 4003TIP3    H233569   0.533   0.387   1.514  3.1665  1.9564 -2.0116
 4004TIP3   OH233570   0.652   5.291   2.354  0.2210  0.5196  0.6314
 4004TIP3    H133571   0.688   5.221   2.410 -0.4515 -2.2330 -2.1126
 4004TIP3    H233572   0.557   5.280   2.360  0.1356  0.1444 -1.0017
 4005TIP3   OH233573   5.324   5.409   9.382 -0.0523  0.4168  0.2694
 4005TIP3    H133574   5.331   5.502   9.364 -1.1294  0.4087 -0.3403
 4005TIP3    H233575   5.348   5.366   9.299  1.9378  0.0635  0.9734
 4006TIP3   OH233576   1.859   4.667   0.937  0.2583  0.2249 -0.3098
 4006TIP3    H133577   1.917   4.680   0.861 -0.6629  2.0305 -0.7745
 4006TIP3    H233578   1.889   4.732   1.001 -0.3144  0.1642  0.0262
 4007TIP3   OH233579   4.635   5.889   2.138  0.4031 -0.7919 -0.2231
 4007TIP3    H133580   4.713   5.862   2.186 -0.2541 -1.2254  0.6221
 4007TIP3    H233581   4.667   5.957   2.078  1.4318 -0.9883  0.0770
 4008TIP3   OH233582   2.255   2.588   8.137 -0.5191 -0.0565  0.2364
 4008TIP3    H133583   2.220   2.553   8.055  0.1126  0.4244 -0.2488
 4008TIP3    H233584   2.292   2.512   8.181 -1.1522 -0.3757  0.2310
 4009TIP3   OH233585   4.894   1.344   7.212  0.3087 -0.8459 -0.0125
 4009TIP3    H133586   4.986   1.334   7.187  0.4673 -0.5173  0.4236
 4009TIP3    H233587   4.849   1.273   7.165  0.5717 -0.2190 -1.2513
 4010TIP3   OH233588   2.717   5.356   7.540  0.2547 -0.8336 -0.2652
 4010TIP3    H133589   2.746   5.267   7.559  0.8099 -0.9639 -1.5871
 4010TIP3    H233590   2.640   5.368   7.594 -0.4801 -2.5232 -0.8571
 4011TIP3   OH233591   4.053   1.048   8.357 -0.3753  0.0389  0.7657
 4011TIP3    H133592   4.077   0.968   8.402 -1.7641  0.7793  2.9914
 4011TIP3    H233593   4.126   1.108   8.374  1.1421 -0.9405 -1.7391
 4012TIP3   OH233594   6.157   3.900   0.526 -0.3558  0.3935  0.2211
 4012TIP3    H133595   6.099   3.973   0.503 -0.4167  0.6006  0.9990
 4012TIP3    H233596   6.122   3.867   0.609 -0.4996 -0.7141 -0.2658
 4013TIP3   OH233597   3.153   6.006   8.215 -0.3158 -0.1953 -0.1752
 4013TIP3    H133598   3.076   6.063   8.213  0.8805  1.4985 -0.0823
 4013TIP3    H233599   3.173   5.990   8.123 -1.0632 -1.0899 -0.1994
 4014TIP3   OH233600   2.139   3.989   0.079 -0.6709  0.4847 -0.5730
 4014TIP3    H133601   2.068   4.045   0.110 -1.3909 -1.1133  0.7932
 4014TIP3    H233602   2.120   3.903   0.116  1.0866 -0.3860 -1.5649
 4015TIP3   OH233603   3.023   5.264   1.150  0.0264  0.0811  0.7238
 4015TIP3    H133604   2.961   5.310   1.206  0.2390  1.1148  0.1311
 4015TIP3    H233605   2.968   5.221   1.084 -0.0521  1.7803 -0.3791
 4016TIP3   OH233606   5.524   3.046   2.423 -0.3769 -0.3391  0.4143
 4016TIP3    H133607   5.586   3.091   2.480  0.5112  0.2269 -0.9451
 4016TIP3    H233608   5.572   2.970   2.390 -1.0989 -1.0227  0.9065
 4017TIP3   OH233609   5.403   3.106   9.389  0.2741 -0.6753  0.3218
 4017TIP3    H133610   5.321   3.123   9.343  0.9441 -0.4189 -0.8101
 4017TIP3    H233611   5.392   3.149   9.474 -0.6452 -0.3954  0.0758
 4018TIP3   OH233612   5.349   4.511   6.771 -0.1007 -0.3418 -0.2971
 4018TIP3    H133613   5.443   4.521   6.785 -0.0512  1.4787 -1.6318
 4018TIP3    H233614   5.310   4.547   6.851  0.3016 -0.4752 -0.0329
 4019TIP3   OH233615   3.794   5.143   9.276 -0.0217  0.0770 -0.2264
 4019TIP3    H133616   3.818   5.072   9.334  0.4783  0.1343 -0.3553
 4019TIP3    H233617   3.805   5.107   9.188  0.1375  0.2789 -0.2907
 4020TIP3   OH233618   6.080   0.937   0.091 -0.5123 -0.6741 -0.0205
 4020TIP3    H133619   6.050   1.021   0.055 -2.5596 -2.3639 -2.6036
 4020TIP3    H233620   6.175   0.944   0.090 -0.6141  1.8557  0.5624
 4021TIP3   OH233621   4.095   3.173   7.668 -0.8347 -0.3488 -0.4152
 4021TIP3    H133622   4.107   3.225   7.589 -0.6236 -0.3818 -0.4050
 4021TIP3    H233623   4.155   3.212   7.732 -1.2265 -0.1287 -0.1769
 4022TIP3   OH233624   1.182   2.087   9.590  0.2267  0.1755 -0.0755
 4022TIP3    H133625   1.260   2.058   9.544  0.6561  0.5036  0.4384
 4022TIP3    H233626   1.163   2.174   9.555  0.0978  0.1003 -0.1931
 4023TIP3   OH233627   5.558   5.329   9.522  0.7176  0.7627 -0.2878
 4023TIP3    H133628   5.499   5.333   9.447  1.9928 -0.9398 -1.4491
 4023TIP3    H233629   5.500   5.318   9.597 -0.4904 -0.5829 -1.3490
 4024TIP3   OH233630   1.375   0.155   7.420  0.1119  0.3988  0.1860
 4024TIP3    H133631   1.452   0.103   7.397 -0.1217  1.2626 -2.8506
 4024TIP3    H233632   1.408   0.244   7.431 -0.3662  0.6674 -0.5407
 4025TIP3   OH233633   5.192   6.222   8.201 -0.4312 -0.2975 -0.0099
 4025TIP3    H133634   5.250   6.269   8.260 -1.7219  1.1927  0.1332
 4025TIP3    H233635   5.129   6.287   8.171 -1.2001 -1.5331 -1.2502
 4026TIP3   OH233636   0.994   4.998   1.558 -0.2351 -0.0846 -0.0952
 4026TIP3    H133637   0.999   5.081   1.510 -1.8639 -0.4475 -0.9892
 4026TIP3    H233638   0.938   5.018   1.633 -1.3013 -0.5178 -0.7441
 4027TIP3   OH233639   5.187   1.459   0.798 -0.2961  0.2348 -0.3799
 4027TIP3    H133640   5.118   1.473   0.733  0.8299  0.7219 -1.5106
 4027TIP3    H233641   5.199   1.545   0.838 -0.0987  0.2393 -0.4484
 4028TIP3   OH233642   0.982   4.134   9.258 -0.4282 -0.0513 -0.1333
 4028TIP3    H133643   0.977   4.216   9.210  0.7808  1.7095  2.4643
 4028TIP3    H233644   0.896   4.093   9.247 -1.7198  2.4661 -0.0768
 4029TIP3   OH233645   4.635   6.227   2.696 -0.2393 -0.0098 -0.1137
 4029TIP3    H133646   4.571   6.292   2.724 -0.9131 -0.4737 -0.5470
 4029TIP3    H233647   4.720   6.268   2.713 -0.6494  0.6812  0.3076
 4030TIP3   OH233648   1.765   3.203   1.001 -0.0992 -0.1152  0.3014
 4030TIP3    H133649   1.772   3.212   0.906  1.0869 -0.5200  0.3347
 4030TIP3    H233650   1.791   3.288   1.036  2.4149 -0.8323  0.3332
 4031TIP3   OH233651   5.793   0.947   1.818 -0.3447  0.1616 -0.4476
 4031TIP3    H133652   5.884   0.937   1.792 -0.3203 -1.2302  0.1000
 4031TIP3    H233653   5.772   1.038   1.798  0.7853  0.1608 -1.7406
 4032TIP3   OH233654   5.483   3.164   1.509  0.6127  0.3098  0.0854
 4032TIP3    H133655   5.453   3.172   1.418  1.0702  0.3085 -0.0713
 4032TIP3    H233656   5.410   3.195   1.562 -0.5523 -1.8156 -0.1749
 4033TIP3   OH233657   2.219   4.927   2.819  0.5895 -0.0316 -0.2173
 4033TIP3    H133658   2.249   5.009   2.780 -0.2119  0.3299 -0.0975
 4033TIP3    H233659   2.182   4.878   2.745  3.5922 -1.5540 -0.8655
 4034TIP3   OH233660   0.835   3.219   8.727  0.4602 -0.5520 -1.0188
 4034TIP3    H133661   0.763   3.261   8.774  1.0173  0.1559 -0.7656
 4034TIP3    H233662   0.863   3.284   8.663  1.7490 -0.2626 -0.2044
 4035TIP3   OH233663   2.515   1.263   8.425  0.0476 -0.0584  0.0089
 4035TIP3    H133664   2.489   1.287   8.336 -1.7030 -0.6909  0.3200
 4035TIP3    H233665   2.479   1.176   8.438  2.1989 -0.9178  0.5855
 4036TIP3   OH233666   2.068   6.390   9.035  0.2202  1.3281 -0.6792
 4036TIP3    H133667   2.158   6.411   9.057  0.7362 -0.4038 -1.0239
 4036TIP3    H233668   2.041   6.460   8.975  0.8741  2.5566  0.4182
 4037TIP3   OH233669   1.293   6.470   3.299  0.0621  0.3016  1.2183
 4037TIP3    H133670   1.270   6.560   3.274 -2.7943 -0.1899  1.6431
 4037TIP3    H233671   1.222   6.417   3.262  1.8371 -1.8401  0.7412
 4038TIP3   OH233672   1.173   0.062   1.745  0.0012 -0.0932 -0.0742
 4038TIP3    H133673   1.209   0.147   1.768  0.9066 -0.2418 -0.8551
 4038TIP3    H233674   1.228   0.032   1.672 -2.1362 -0.0377 -1.8046
 4039TIP3   OH233675   2.342   0.462   1.103 -0.5266 -0.1154 -0.0204
 4039TIP3    H133676   2.252   0.455   1.070  0.1682 -2.8960 -1.5859
 4039TIP3    H233677   2.368   0.372   1.121  1.0673  0.8586  3.1044
 4040TIP3   OH233678   2.408   3.336   7.885  0.1382  0.0814 -0.4731
 4040TIP3    H133679   2.379   3.248   7.908 -1.3651  0.8673  0.8511
 4040TIP3    H233680   2.332   3.376   7.843  0.1694  1.3039  0.5683
 4041TIP3   OH233681   3.491   0.871   8.829 -0.0211 -0.1805 -0.4242
 4041TIP3    H133682   3.466   0.814   8.756  1.5168  0.1145 -1.2181
 4041TIP3    H233683   3.476   0.960   8.797  3.1492  0.0959 -1.4831
 4042TIP3   OH233684   6.169   1.268   1.608  0.4043 -0.0440  0.3570
 4042TIP3    H133685   6.155   1.285   1.701  1.3399 -0.6743  0.6305
 4042TIP3    H233686   6.258   1.299   1.592  1.4706 -2.7947  0.4377
 4043TIP3   OH233687   6.444   4.651   1.560 -0.7103  0.1783  0.4601
 4043TIP3    H133688   6.449   4.640   1.465 -0.7676  3.2484 -0.0153
 4043TIP3    H233689   6.535   4.653   1.589 -0.6242  1.1719  0.1498
 4044TIP3   OH233690   4.970   6.478   8.799  0.5878 -0.2788  0.1327
 4044TIP3    H133691   5.000   6.519   8.718  0.7694 -1.7247 -0.5589
 4044TIP3    H233692   5.049   6.470   8.852  0.7902 -0.8743 -0.2502
 4045TIP3   OH233693   4.772   3.130   1.323  0.4171 -0.8246 -0.3270
 4045TIP3    H133694   4.728   3.216   1.317  0.1825 -0.6899  2.2143
 4045TIP3    H233695   4.804   3.114   1.235 -1.3929  0.8922 -1.3948
 4046TIP3   OH233696   2.508   2.243   1.766 -0.2974  0.0300  0.3708
 4046TIP3    H133697   2.446   2.307   1.800 -0.7958 -1.2927  2.1003
 4046TIP3    H233698   2.582   2.247   1.825  0.7855  0.7260 -0.9718
 4047TIP3   OH233699   1.976   3.078   0.617  0.1564  0.2099 -0.5418
 4047TIP3    H133700   1.913   3.017   0.656  0.4252 -1.2357 -2.2206
 4047TIP3    H233701   2.061   3.045   0.646  0.3287 -0.5576 -1.8582
 4048TIP3   OH233702   0.637   4.912   7.952  0.1314  0.3162  0.3113
 4048TIP3    H133703   0.723   4.954   7.954  0.1991  0.1900  0.1428
 4048TIP3    H233704   0.589   4.959   7.884 -0.6178  1.6787  1.7310
 4049TIP3   OH233705   4.965   6.180   1.229 -0.1740 -0.2726  0.3036
 4049TIP3    H133706   4.997   6.203   1.316  0.2917 -1.8642  0.5839
 4049TIP3    H233707   4.972   6.261   1.179  2.0985  0.0494  1.0126
 4050TIP3   OH233708   0.225   5.542   0.123  0.3820  0.4360  0.0512
 4050TIP3    H133709   0.318   5.522   0.130  0.4787  0.9409  0.2452
 4050TIP3    H233710   0.219   5.636   0.138 -0.1138  0.4841 -0.3921
 4051TIP3   OH233711   0.715   5.340   1.197  0.4139 -0.7880 -0.2770
 4051TIP3    H133712   0.631   5.385   1.189  1.4293  1.3148  0.2212
 4051TIP3    H233713   0.718   5.282   1.120 -0.6030  0.6039 -1.4231
 4052TIP3   OH233714   5.579   2.010   9.177 -0.0125  0.1902 -0.1295
 4052TIP3    H133715   5.651   2.020   9.239 -0.5593 -0.4199  0.6143
 4052TIP3    H233716   5.509   2.066   9.211 -0.4174 -0.3712 -0.0221
 4053TIP3   OH233717   5.473   6.488   1.907 -0.1474  0.3275 -0.0174
 4053TIP3    H133718   5.497   6.546   1.836 -1.1537 -0.9476 -1.4662
 4053TIP3    H233719   5.377   6.488   1.908 -0.1586  0.3123  1.3493
 4054TIP3   OH233720   3.641   4.207   1.025  0.3639 -0.3086  0.1956
 4054TIP3    H133721   3.657   4.113   1.027  0.8171 -0.2321  1.5269
 4054TIP3    H233722   3.550   4.216   1.052  0.5309 -0.3367  0.7790
 4055TIP3   OH233723   5.240   0.928   8.815  0.4373 -0.3602 -0.6547
 4055TIP3    H133724   5.154   0.885   8.816 -0.4368  1.3000 -0.5317
 4055TIP3    H233725   5.269   0.926   8.906  0.8115 -1.4487 -0.7922
 4056TIP3   OH233726   1.921   3.135   1.503  0.9831 -0.3190  0.2674
 4056TIP3    H133727   1.969   3.188   1.567  1.2380  0.3687 -0.4836
 4056TIP3    H233728   1.836   3.120   1.545  1.1330  0.1472  0.7588
 4057TIP3   OH233729   6.319   2.561   8.067  0.0415  0.3755 -0.0808
 4057TIP3    H133730   6.290   2.472   8.087 -0.5028  0.8391  1.3304
 4057TIP3    H233731   6.308   2.609   8.149  1.2636  1.5174 -0.5450
 4058TIP3   OH233732   2.891   2.992   8.464 -0.4686  0.1097 -0.1995
 4058TIP3    H133733   2.978   2.955   8.449 -0.5605  0.0681 -0.6192
 4058TIP3    H233734   2.852   2.934   8.530 -0.7224 -0.7249 -1.0574
 4059TIP3   OH233735   5.423   1.141   1.637  0.3558 -0.2355  0.2060
 4059TIP3    H133736   5.355   1.080   1.666  0.8460 -0.1374  1.6621
 4059TIP3    H233737   5.438   1.119   1.545 -0.7624 -1.0802  0.2073
 4060TIP3   OH233738   4.178   5.534   2.483 -0.4082 -0.3224  0.3075
 4060TIP3    H133739   4.271   5.512   2.484 -0.4189 -0.4038 -0.2063
 4060TIP3    H233740   4.174   5.627   2.505 -0.1853 -0.2612  0.0909
 4061TIP3   OH233741   2.188   3.408   9.077 -0.1622 -0.2254 -0.7022
 4061TIP3    H133742   2.201   3.493   9.035  0.2301 -0.4284 -1.0003
 4061TIP3    H233743   2.233   3.346   9.020 -0.9710 -0.7237 -0.8160
 4062TIP3   OH233744   3.560   5.738   8.175 -0.1568  0.5591  0.0460
 4062TIP3    H133745   3.565   5.664   8.115 -0.5525  0.5744 -0.0130
 4062TIP3    H233746   3.471   5.734   8.210  0.8125 -0.9251  2.5293
 4063TIP3   OH233747   4.792   1.939   1.667  0.1820  0.4961  0.0078
 4063TIP3    H133748   4.839   1.926   1.585 -0.3469 -0.5129 -0.1523
 4063TIP3    H233749   4.784   2.034   1.675 -0.0501  0.6124 -1.2841
 4064TIP3   OH233750   0.495   2.893   6.970 -0.4924 -0.0756  0.5389
 4064TIP3    H133751   0.545   2.974   6.958  0.6835 -0.7959  0.4017
 4064TIP3    H233752   0.450   2.881   6.887 -0.4763  0.3163  0.4716
 4065TIP3   OH233753   3.637   5.163   2.103  0.3700 -0.0122  0.7118
 4065TIP3    H133754   3.613   5.249   2.138  0.1384  0.2222  0.0018
 4065TIP3    H233755   3.695   5.125   2.169 -0.8338  0.0002  1.8132
 4066TIP3   OH233756   1.955   4.041   8.407  0.0572  0.1526  0.0176
 4066TIP3    H133757   2.018   4.105   8.376 -1.2321  1.0156 -0.9311
 4066TIP3    H233758   1.959   4.049   8.503 -0.2571  1.8802 -0.0711
 4067TIP3   OH233759   2.271   2.985   1.326 -0.3959 -0.0901  0.2131
 4067TIP3    H133760   2.366   2.996   1.321 -0.6672  2.9652 -0.0587
 4067TIP3    H233761   2.250   2.930   1.251  0.9477  1.2287 -1.2121
 4068TIP3   OH233762   1.368   4.778   1.979 -0.0559  0.3139 -0.3486
 4068TIP3    H133763   1.307   4.845   2.008 -1.0919  0.1757 -2.0675
 4068TIP3    H233764   1.361   4.708   2.044 -1.1768  0.6112 -0.1387
 4069TIP3   OH233765   5.519   3.600   1.459 -0.2405  0.4723 -0.4936
 4069TIP3    H133766   5.521   3.627   1.551 -0.1637  2.4595 -1.0352
 4069TIP3    H233767   5.469   3.669   1.415  1.2807  0.5401 -2.2306
 4070TIP3   OH233768   1.589   0.051   8.651  0.7040  0.3834 -0.2231
 4070TIP3    H133769   1.546   0.096   8.723  0.6511 -0.4259  0.2645
 4070TIP3    H233770   1.641   0.119   8.608 -0.3636  1.1864 -0.2904
 4071TIP3   OH233771   1.473   2.666   9.195  0.0242 -0.6938 -0.5428
 4071TIP3    H133772   1.514   2.678   9.109  0.3726  0.2556 -0.2613
 4071TIP3    H233773   1.380   2.655   9.175  0.1754 -1.0587 -1.0737
 4072TIP3   OH233774   6.402   1.985   8.007  0.0178 -0.2705  0.0626
 4072TIP3    H133775   6.397   1.969   7.912 -0.7398  0.7025 -0.0779
 4072TIP3    H233776   6.419   2.079   8.014 -2.8636  0.2923  0.8954
 4073TIP3   OH233777   4.238   0.538   2.691 -0.1963  0.1146 -0.2751
 4073TIP3    H133778   4.296   0.607   2.723  0.2684 -0.3165 -0.1664
 4073TIP3    H233779   4.283   0.457   2.713 -2.6084 -0.4756  3.3935
 4074TIP3   OH233780   3.202   0.248   0.418 -0.4827 -0.2456 -0.3034
 4074TIP3    H133781   3.231   0.163   0.453  2.0849  1.1437  1.2484
 4074TIP3    H233782   3.168   0.227   0.331  0.6998 -2.7666 -0.2584
 4075TIP3   OH233783   3.184   4.730   9.123  0.3345 -0.3978 -0.0055
 4075TIP3    H133784   3.222   4.748   9.037  0.6063 -1.9529 -0.2446
 4075TIP3    H233785   3.106   4.678   9.104 -0.7609  0.9456  0.6058
 4076TIP3   OH233786   0.221   1.199   8.749 -0.0349  0.0061 -0.1423
 4076TIP3    H133787   0.268   1.145   8.686 -1.2764  0.3340 -1.3845
 4076TIP3    H233788   0.194   1.277   8.700  0.7066  1.2462  1.3076
 4077TIP3   OH233789   3.252   3.048   8.098  0.5065 -0.4836  0.1777
 4077TIP3    H133790   3.299   3.111   8.045  0.6176  0.8030  1.7420
 4077TIP3    H233791   3.300   3.045   8.181 -0.2475 -1.6558  0.6048
 4078TIP3   OH233792   3.155   3.138   9.385 -0.2151 -0.0208 -0.7552
 4078TIP3    H133793   3.110   3.055   9.372  1.9253 -1.1007 -1.8314
 4078TIP3    H233794   3.115   3.197   9.321 -1.7317 -0.1823 -0.0016
 4079TIP3   OH233795   0.766   5.081   8.735 -0.9075 -0.3639  0.2683
 4079TIP3    H133796   0.700   5.131   8.687 -0.4298  0.5062  0.4946
 4079TIP3    H233797   0.820   5.041   8.667  0.6922  2.0721 -0.0099
 4080TIP3   OH233798   6.310   4.767   7.420  0.4331  0.1740  0.0367
 4080TIP3    H133799   6.340   4.857   7.407  0.4533  0.2112  0.3434
 4080TIP3    H233800   6.356   4.737   7.498 -0.4325  0.2766  0.5999
 4081TIP3   OH233801   1.359   2.649   0.424  0.3982  0.2768  0.1340
 4081TIP3    H133802   1.276   2.690   0.446  0.4221 -0.1612  1.0904
 4081TIP3    H233803   1.425   2.713   0.448  0.3374  1.0770 -1.6362
 4082TIP3   OH233804   0.421   6.187   2.032 -0.1408  0.1228 -0.1182
 4082TIP3    H133805   0.472   6.233   1.965  0.8233  0.2800  0.6953
 4082TIP3    H233806   0.485   6.133   2.078 -0.1641  2.0578  2.4417
 4083TIP3   OH233807   4.135   6.228   1.232 -0.6144 -0.2060  0.0702
 4083TIP3    H133808   4.136   6.316   1.268  0.1374 -0.3195  0.3559
 4083TIP3    H233809   4.045   6.214   1.204 -0.8893  0.4027  0.6317
 4084TIP3   OH233810   3.176   5.919   1.925 -0.3977  0.0088  0.0015
 4084TIP3    H133811   3.154   5.973   2.001 -0.4267  1.9036 -1.2948
 4084TIP3    H233812   3.264   5.948   1.900  0.3598 -1.8378  0.3045
 4085TIP3   OH233813   0.293   1.958   8.637 -0.0050 -0.4826 -0.2871
 4085TIP3    H133814   0.331   2.040   8.670 -1.2901 -0.8948  2.4463
 4085TIP3    H233815   0.237   1.986   8.564 -0.0170  1.0220  0.2524
 4086TIP3   OH233816   4.493   3.570   9.114 -0.0533 -0.1741 -0.4472
 4086TIP3    H133817   4.544   3.619   9.049 -0.0243  0.0713 -0.2424
 4086TIP3    H233818   4.402   3.593   9.096  0.0632  1.5349  0.8927
 4087TIP3   OH233819   3.353   5.912   0.026 -0.2953 -0.4644  0.1606
 4087TIP3    H133820   3.282   5.942  -0.030 -0.5093 -1.6140 -0.2172
 4087TIP3    H233821   3.380   5.828  -0.012  1.5238  0.1121  0.0784
 4088TIP3   OH233822   6.054   3.361   2.061 -0.1593  0.1421 -0.2795
 4088TIP3    H133823   6.041   3.355   2.156  1.1579 -1.5959 -0.1680
 4088TIP3    H233824   6.062   3.455   2.044  3.2226  0.4454  1.9212
 4089TIP3   OH233825   4.360   4.696   0.898 -0.3866  0.0281 -0.5436
 4089TIP3    H133826   4.375   4.607   0.868 -1.1308 -0.5576  0.7194
 4089TIP3    H233827   4.283   4.689   0.954  0.4612  1.1822  0.8275
 4090TIP3   OH233828   2.854   1.943   2.221 -0.0512 -0.5565 -0.3026
 4090TIP3    H133829   2.901   1.971   2.142 -0.7579 -3.7220 -2.0249
 4090TIP3    H233830   2.762   1.954   2.199 -0.2390 -0.2061  0.6229
 4091TIP3   OH233831   4.811   5.229   0.761  0.1209  0.3542  0.3877
 4091TIP3    H133832   4.902   5.261   0.765 -0.3431  1.9007 -0.3931
 4091TIP3    H233833   4.790   5.230   0.668 -0.5172 -0.5815  0.5119
 4092TIP3   OH233834   3.564   1.434   0.575  0.4856  0.6474  0.2474
 4092TIP3    H133835   3.503   1.493   0.531  2.5370  1.3446 -1.8440
 4092TIP3    H233836   3.629   1.492   0.613  2.1987 -0.1748 -1.3038
 4093TIP3   OH233837   4.886   1.769   0.458 -0.3207  0.3422  0.7457
 4093TIP3    H133838   4.834   1.833   0.507 -0.0027  0.9633  0.2800
 4093TIP3    H233839   4.976   1.790   0.480 -0.2121  0.0772  0.5577
 4094TIP3   OH233840   6.101   1.885   1.028  0.0351 -0.0979  0.2911
 4094TIP3    H133841   6.134   1.945   0.961  2.4839 -0.9486  0.6116
 4094TIP3    H233842   6.074   1.807   0.979  2.9345 -1.1924  0.2434
 4095TIP3   OH233843   0.676   2.383   9.460  0.1741 -0.1374  0.0777
 4095TIP3    H133844   0.746   2.412   9.518  0.4620  0.0439 -0.3575
 4095TIP3    H233845   0.703   2.411   9.373  0.4606 -1.6897 -0.3659
 4096TIP3   OH233846   1.895   1.130   8.231 -0.8545 -0.2074 -0.1286
 4096TIP3    H133847   1.845   1.098   8.307 -0.0381 -0.3851  0.3475
 4096TIP3    H233848   1.829   1.172   8.175 -1.4352  0.1558  0.7959
 4097TIP3   OH233849   3.866   2.118   9.432 -0.7936  0.1885  0.5166
 4097TIP3    H133850   3.888   2.174   9.507  0.8588  0.8793 -0.4442
 4097TIP3    H233851   3.785   2.155   9.397 -1.5240 -0.0704  1.8591
 4098TIP3   OH233852   1.119   3.575   7.988  0.6103 -0.1586  0.2583
 4098TIP3    H133853   1.082   3.655   8.027  1.9646  1.4909 -1.6352
 4098TIP3    H233854   1.071   3.564   7.906  1.0538 -0.7718  0.0768
 4099TIP3   OH233855   4.064   2.218   8.608 -0.2596  0.5003 -0.7232
 4099TIP3    H133856   4.057   2.182   8.697 -1.0657  0.9648 -0.5874
 4099TIP3    H233857   3.975   2.212   8.574  0.4050 -1.6329 -2.2921
 4100TIP3   OH233858   0.432   5.455   0.842 -0.4263 -0.4060  0.1185
 4100TIP3    H133859   0.339   5.446   0.820 -0.1018 -1.2436 -1.0322
 4100TIP3    H233860   0.458   5.539   0.805 -0.6687 -0.2937  0.2042
 4101TIP3   OH233861   4.081   2.030   0.070  0.2330  0.2231  0.2617
 4101TIP3    H133862   4.096   2.072  -0.014  3.0213 -0.3786  0.3626
 4101TIP3    H233863   4.055   2.101   0.129  0.2211  0.9813 -0.6391
 4102TIP3   OH233864   1.994   4.539   9.207 -0.3017  0.0194  0.5406
 4102TIP3    H133865   1.942   4.617   9.191 -1.2508 -0.3479  1.7519
 4102TIP3    H233866   1.946   4.469   9.163  1.3458  0.2941 -1.9047
 4103TIP3   OH233867   1.206   3.791   0.458 -0.2303 -0.2429  0.2734
 4103TIP3    H133868   1.226   3.741   0.537  0.1639  0.2562  0.4975
 4103TIP3    H233869   1.287   3.838   0.438 -1.1600  1.8725  1.2237
 4104TIP3   OH233870   5.734   1.856   8.426  0.1642  0.2427 -0.3782
 4104TIP3    H133871   5.711   1.764   8.440 -0.3235  0.2740 -0.9288
 4104TIP3    H233872   5.730   1.867   8.331 -0.1002  0.9097 -0.2947
 4105TIP3   OH233873   5.217   1.869   8.255 -0.2334  0.8753 -0.0762
 4105TIP3    H133874   5.251   1.781   8.271 -0.0767  1.0049  0.3067
 4105TIP3    H233875   5.260   1.898   8.174 -1.6190 -0.0954 -1.2297
 4106TIP3   OH233876   0.923   3.855   1.349 -0.2630 -0.0600 -0.0570
 4106TIP3    H133877   1.012   3.883   1.328  0.2978 -2.0039 -0.4808
 4106TIP3    H233878   0.867   3.909   1.294  0.7335  0.3632 -0.6883
 4107TIP3   OH233879   2.154   2.208   1.525  0.3449 -0.4064  0.5502
 4107TIP3    H133880   2.134   2.209   1.431  0.0602  0.0155  0.6122
 4107TIP3    H233881   2.196   2.292   1.541 -0.1873 -0.2010  0.9180
 4108TIP3   OH233882   4.688   0.993   0.988 -0.0121  0.5527 -0.9277
 4108TIP3    H133883   4.713   1.072   1.038  1.1167  0.5987 -1.5230
 4108TIP3    H233884   4.707   1.016   0.897 -0.5708 -0.0871 -1.2104
 4109TIP3   OH233885   4.710   4.263   9.090 -0.2514  0.6632  0.2467
 4109TIP3    H133886   4.762   4.213   9.151  1.1443  2.5808  0.7392
 4109TIP3    H233887   4.774   4.299   9.028 -1.6768 -2.0559 -3.1254
 4110TIP3   OH233888   2.867   1.615   1.434  0.0830  0.5988 -0.8653
 4110TIP3    H133889   2.868   1.681   1.504  0.0179  0.4746 -0.7457
 4110TIP3    H233890   2.946   1.563   1.450 -0.5756 -0.2183 -0.1175
 4111TIP3   OH233891   0.413   3.234   2.128  0.1511 -0.0902  0.6783
 4111TIP3    H133892   0.455   3.203   2.208 -0.2928  0.6318  1.1975
 4111TIP3    H233893   0.320   3.236   2.149 -0.2862 -2.3189 -0.6626
 4112TIP3   OH233894   2.203   3.371   1.532 -0.6999 -0.3372 -0.3641
 4112TIP3    H133895   2.258   3.320   1.473  0.5045  2.4691 -1.8508
 4112TIP3    H233896   2.183   3.311   1.604  2.0384 -2.3287 -1.1101
 4113TIP3   OH233897   6.077   4.148   1.417 -0.6538 -0.1348 -0.2256
 4113TIP3    H133898   6.017   4.142   1.491 -0.6191  0.2532 -0.1631
 4113TIP3    H233899   6.027   4.196   1.350 -0.0535  1.1345  0.2081
 4114TIP3   OH233900   5.334   2.289   7.672  0.3833  0.1564  0.7728
 4114TIP3    H133901   5.357   2.381   7.659  0.9430 -0.1527 -0.6312
 4114TIP3    H233902   5.370   2.245   7.596 -2.3417 -0.8289 -0.0652
 4115TIP3   OH233903   0.476   0.288   0.377 -0.6922 -0.2000  0.1944
 4115TIP3    H133904   0.491   0.381   0.362  0.7341 -0.3621  0.5381
 4115TIP3    H233905   0.548   0.244   0.332 -1.5762 -1.1717 -0.3179
 4116TIP3   OH233906   1.330   6.505   1.531  0.3352  0.5164 -0.0286
 4116TIP3    H133907   1.404   6.450   1.555  0.1084 -0.1794 -0.8379
 4116TIP3    H233908   1.279   6.451   1.470 -0.4292  1.2602 -0.0761
 4117TIP3   OH233909   6.010   6.355   7.530  0.3365  0.0161  0.3808
 4117TIP3    H133910   5.997   6.431   7.473 -0.1319 -0.8933 -0.7615
 4117TIP3    H233911   5.937   6.359   7.592 -0.0944  0.1064 -0.1241
 4118TIP3   OH233912   0.666   5.450   2.116  0.0309  0.0188  0.1131
 4118TIP3    H133913   0.761   5.460   2.111  0.5433 -2.1583  3.1258
 4118TIP3    H233914   0.647   5.437   2.209 -3.3574  1.0229 -0.2672
 4119TIP3   OH233915   2.585   0.894   2.009 -0.2401  0.3846 -0.3087
 4119TIP3    H133916   2.512   0.877   1.950 -1.0330 -0.2038  0.7972
 4119TIP3    H233917   2.579   0.987   2.029 -0.2261  0.4943 -0.8263
 4120TIP3   OH233918   4.503   6.340   8.828  1.4477  0.2208 -0.0720
 4120TIP3    H133919   4.433   6.388   8.873  1.1254 -0.6991  0.4170
 4120TIP3    H233920   4.502   6.253   8.866  1.1923 -0.5896 -1.8110
 4121TIP3   OH233921   0.446   5.820   9.515 -0.5725 -0.2311 -0.4497
 4121TIP3    H133922   0.362   5.803   9.473 -1.0547  0.2698  0.2986
 4121TIP3    H233923   0.508   5.765   9.467 -1.7213 -2.5596  0.5462
 4122TIP3   OH233924   5.027   0.627   8.314 -0.4716  0.3058  0.0836
 4122TIP3    H133925   5.096   0.578   8.269  0.5058  1.1949  0.5814
 4122TIP3    H233926   5.056   0.718   8.312 -0.8514  0.4964  1.7086
 4123TIP3   OH233927   3.142   5.959   9.103 -0.2667 -0.0294 -0.0571
 4123TIP3    H133928   3.117   5.867   9.113  0.6533 -0.5733 -2.3266
 4123TIP3    H233929   3.085   5.992   9.034  0.7497  0.5601 -0.6360
 4124TIP3   OH233930   5.383   1.195   7.955  0.2073  0.2512 -0.3281
 4124TIP3    H133931   5.460   1.235   7.915  1.0070 -0.7699  0.1434
 4124TIP3    H233932   5.336   1.156   7.882  0.8892 -0.3320 -0.4691
 4125TIP3   OH233933   2.197   2.850   1.816  0.0867  0.6856  0.1603
 4125TIP3    H133934   2.238   2.885   1.895 -1.1567  1.4607  0.4820
 4125TIP3    H233935   2.112   2.893   1.811 -0.8832 -1.1513 -0.2694
 4126TIP3   OH233936   3.495   3.288   0.159  0.2507 -0.0537 -0.0338
 4126TIP3    H133937   3.535   3.283   0.246  3.2068 -0.5906 -1.2962
 4126TIP3    H233938   3.563   3.325   0.103 -0.8529 -1.4832 -2.5101
 4127TIP3   OH233939   3.591   4.262   1.802 -0.3165 -0.0489  0.2996
 4127TIP3    H133940   3.585   4.340   1.747  0.2622  0.2159  0.6135
 4127TIP3    H233941   3.541   4.195   1.754  3.0598 -0.8824 -2.4089
 4128TIP3   OH233942   3.928   6.287   9.386  0.3777 -0.4539  0.3822
 4128TIP3    H133943   3.859   6.343   9.350  1.3133 -0.2866 -1.2452
 4128TIP3    H233944   3.889   6.249   9.465 -1.0942  0.6667  0.2429
 4129TIP3   OH233945   2.434   2.797   8.062  0.7866  0.3801  0.1836
 4129TIP3    H133946   2.408   2.873   8.114 -0.8522  1.3843 -1.9254
 4129TIP3    H233947   2.360   2.736   8.070  1.2347 -0.1445  0.3368
 4130TIP3   OH233948   4.936   2.238   1.292 -0.0709  0.0063  0.1090
 4130TIP3    H133949   4.958   2.319   1.338  1.4728 -0.2477 -0.1428
 4130TIP3    H233950   5.007   2.226   1.229  0.1790 -1.9978  0.7321
 4131TIP3   OH233951   6.321   3.991   1.316 -0.5566  0.0337 -0.3286
 4131TIP3    H133952   6.355   4.044   1.244 -1.8965 -0.3432 -1.2866
 4131TIP3    H233953   6.347   4.039   1.395 -0.5836  1.4140 -1.1207
 4132TIP3   OH233954   3.183   5.895   9.394  0.4359  0.6012 -0.2175
 4132TIP3    H133955   3.162   5.959   9.327 -1.6724  0.4872  0.2642
 4132TIP3    H233956   3.236   5.829   9.349 -0.0879  1.0356 -1.5034
 4133TIP3   OH233957   3.567   4.578   1.640  0.0954 -0.4309 -0.1684
 4133TIP3    H133958   3.640   4.624   1.682  0.8469 -0.4350 -1.4230
 4133TIP3    H233959   3.608   4.503   1.597 -0.8574 -1.2117  0.2592
 4134TIP3   OH233960   2.349   3.831   7.798  0.3495 -0.0018  0.6310
 4134TIP3    H133961   2.353   3.915   7.843 -0.6931  0.9699 -0.9767
 4134TIP3    H233962   2.256   3.821   7.774  0.6983 -0.9238 -0.4331
 4135TIP3   OH233963   2.150   0.379   1.714 -0.0874  0.3819  0.2534
 4135TIP3    H133964   2.087   0.430   1.766 -0.2175 -0.1443  0.6282
 4135TIP3    H233965   2.101   0.301   1.688  0.6422 -0.4216  1.2278
 4136TIP3   OH233966   0.665   6.327   1.178  0.0931  0.1968 -0.5743
 4136TIP3    H133967   0.579   6.303   1.146  0.5543 -1.7472 -0.4823
 4136TIP3    H233968   0.718   6.248   1.167  1.7703  1.2233 -0.2936
 4137TIP3   OH233969   5.250   1.183   0.022  0.1091 -0.2869  0.2269
 4137TIP3    H133970   5.158   1.207   0.012 -0.3403 -0.6267  2.7806
 4137TIP3    H233971   5.250   1.088   0.028  0.2328 -0.2052  2.6771
 4138TIP3   OH233972   3.085   1.308   0.815  0.1195  0.1639 -0.0084
 4138TIP3    H133973   3.089   1.345   0.904 -0.0531 -1.4269  0.6944
 4138TIP3    H233974   3.109   1.381   0.758 -2.1036  1.9175  1.1285
 4139TIP3   OH233975   1.920   1.409   1.849 -0.0492 -0.1287  0.5260
 4139TIP3    H133976   1.900   1.323   1.884  1.9051 -0.8157  0.0610
 4139TIP3    H233977   2.013   1.422   1.867 -0.1390  1.6008 -0.0170
 4140TIP3   OH233978   1.365   5.633   0.287 -0.4933 -0.4310 -0.1721
 4140TIP3    H133979   1.397   5.708   0.337 -0.3656  0.4993 -1.5621
 4140TIP3    H233980   1.444   5.596   0.248 -0.6162 -0.9772  0.1000
 4141TIP3   OH233981   3.925   0.431   2.139 -0.2190  0.7447  0.0767
 4141TIP3    H133982   3.924   0.500   2.073 -2.0884  1.3887  0.7386
 4141TIP3    H233983   3.977   0.361   2.098  0.2772  1.8519 -1.2835
 4142TIP3   OH233984   2.922   1.068   2.567  0.0976 -0.1944 -0.3448
 4142TIP3    H133985   2.863   1.129   2.523  0.8820  0.5506 -0.3605
 4142TIP3    H233986   3.010   1.095   2.541  0.5206 -0.4358  0.7897
 4143TIP3   OH233987   4.698   0.544   1.970 -0.6319 -0.0917  0.2400
 4143TIP3    H133988   4.634   0.577   1.908 -0.2304  0.9247  0.3477
 4143TIP3    H233989   4.651   0.542   2.054 -1.1160 -1.2874 -0.0316
 4144TIP3   OH233990   3.152   3.564   7.869 -0.7525  0.1759 -0.2263
 4144TIP3    H133991   3.153   3.640   7.811 -1.1111 -0.5107 -1.1639
 4144TIP3    H233992   3.066   3.523   7.853 -0.7905 -0.1097  0.6783
 4145TIP3   OH233993   2.630   3.195   8.550  0.4198 -0.0359 -0.0514
 4145TIP3    H133994   2.693   3.136   8.508  0.8321  0.5194 -0.2187
 4145TIP3    H233995   2.652   3.282   8.516 -0.9162  0.0738 -0.7145
 4146TIP3   OH233996   4.288   3.819   7.869  0.0286  0.0547  0.6371
 4146TIP3    H133997   4.367   3.829   7.816 -0.8300  1.4204 -0.4482
 4146TIP3    H233998   4.255   3.908   7.880 -1.9234 -0.5534  0.1484
 4147TIP3   OH233999   6.250   4.613   1.743  0.1425 -1.1771 -0.1587
 4147TIP3    H134000   6.253   4.520   1.768  0.7180 -0.9313  0.7013
 4147TIP3    H234001   6.308   4.619   1.667  0.6079 -1.4088  0.1710
 4148TIP3   OH234002   0.076   4.425   0.487 -0.1819  0.4893  0.0626
 4148TIP3    H134003   0.042   4.401   0.401  0.2907  1.8235 -0.5350
 4148TIP3    H234004   0.003   4.412   0.547 -0.7865  0.3725 -0.6833
 4149TIP3   OH234005   0.838   0.120   2.155  0.2189 -0.0847  0.0006
 4149TIP3    H134006   0.911   0.072   2.115 -0.7125  0.4329 -2.4804
 4149TIP3    H234007   0.775   0.052   2.178 -0.3611 -0.2849 -1.9466
 4150TIP3   OH234008   3.988   0.737   8.063  0.0246  0.0001  0.4837
 4150TIP3    H134009   3.964   0.722   8.154 -1.0516 -0.8043  0.0893
 4150TIP3    H234010   3.939   0.671   8.014  0.0980  0.8214 -0.7455
 4151TIP3   OH234011   2.584   5.958   1.436  0.0647 -0.0533  0.5253
 4151TIP3    H134012   2.501   5.933   1.397  0.2627  0.2304 -0.0964
 4151TIP3    H234013   2.628   5.875   1.456 -0.3278 -0.2013  0.7807
 4152TIP3   OH234014   2.166   2.240   9.444 -0.6092  0.4479 -0.0949
 4152TIP3    H134015   2.246   2.283   9.413  0.1239  0.3358  1.5317
 4152TIP3    H234016   2.168   2.251   9.539 -1.4131 -1.4598  0.1895
 4153TIP3   OH234017   4.983   0.924   1.007  0.5074 -0.1176  0.5447
 4153TIP3    H134018   4.910   0.970   1.050  1.6567  3.2489 -0.7570
 4153TIP3    H234019   5.061   0.955   1.054  1.3575 -0.5993 -0.5218
 4154TIP3   OH234020   4.108   4.756   1.059  0.3218 -0.0081  0.0387
 4154TIP3    H134021   4.064   4.762   0.974  0.6779 -2.0776 -0.3454
 4154TIP3    H234022   4.043   4.719   1.118  0.9206 -1.3132 -0.0759
 4155TIP3   OH234023   5.842   1.917   0.155 -0.5474  0.1786 -0.4295
 4155TIP3    H134024   5.893   1.843   0.124 -0.4370  0.2158 -0.3396
 4155TIP3    H234025   5.905   1.990   0.158 -0.9587  0.6354 -1.8516
 4156TIP3   OH234026   4.313   4.992   2.083  0.1573 -0.3362  0.3791
 4156TIP3    H134027   4.339   5.045   2.159  1.2163  0.0725 -0.2302
 4156TIP3    H234028   4.254   5.049   2.034 -2.4806 -1.4424  2.0148
 4157TIP3   OH234029   6.162   2.301   8.088 -0.0831  0.3430  0.4247
 4157TIP3    H134030   6.086   2.244   8.102 -1.1766  0.9708 -2.3479
 4157TIP3    H234031   6.219   2.250   8.030 -0.0197  1.1779 -0.2682
 4158TIP3   OH234032   1.729   6.510   2.099 -0.2354 -0.1227  0.2653
 4158TIP3    H134033   1.746   6.599   2.068 -0.0186 -0.1070  0.4207
 4158TIP3    H234034   1.816   6.472   2.112 -0.3179 -0.7692 -0.9449
 4159TIP3   OH234035   6.122   1.162   9.518  0.0281 -0.0904  0.1108
 4159TIP3    H134036   6.097   1.221   9.589 -0.7600 -1.1622  0.7615
 4159TIP3    H234037   6.211   1.136   9.538 -0.4682 -1.0287  1.1851
 4160TIP3   OH234038   1.516   2.629   1.957  0.0695  0.1884  0.0920
 4160TIP3    H134039   1.431   2.610   1.997 -0.1561  2.4794  0.8178
 4160TIP3    H234040   1.509   2.720   1.928  1.6785 -0.1290 -1.4821
 4161TIP3   OH234041   0.612   4.723   1.471  0.1894  0.0771 -0.1694
 4161TIP3    H134042   0.661   4.731   1.553 -0.2438 -0.0736  0.1042
 4161TIP3    H234043   0.659   4.657   1.421 -1.2173 -2.0465  1.1739
 4162TIP3   OH234044   5.564   4.502   6.955 -0.6509 -0.7969 -0.0570
 4162TIP3    H134045   5.518   4.556   7.020  0.0797  0.4563 -0.5516
 4162TIP3    H234046   5.596   4.427   7.005 -0.8476 -0.2842  0.8632
 4163TIP3   OH234047   1.164   2.450   2.846  0.1322  0.0368 -0.9544
 4163TIP3    H134048   1.230   2.387   2.815  1.0152  1.4152 -2.0172
 4163TIP3    H234049   1.100   2.455   2.775  0.3859  0.7472 -1.1473
 4164TIP3   OH234050   2.733   6.112   0.398 -0.1205 -0.3066  0.3715
 4164TIP3    H134051   2.694   6.071   0.475  1.9306 -2.0181  0.5924
 4164TIP3    H234052   2.787   6.183   0.433 -0.6511  0.1340  0.3168
 4165TIP3   OH234053   2.716   3.930   0.866  0.2385 -0.2222  0.4156
 4165TIP3    H134054   2.647   3.972   0.815  1.8357  0.5935 -1.1888
 4165TIP3    H234055   2.723   3.841   0.830  0.7148  0.0434 -0.1738
 4166TIP3   OH234056   4.648   2.220   1.299 -0.4618 -0.9069 -0.8534
 4166TIP3    H134057   4.740   2.246   1.288 -0.8526  0.7172 -0.6191
 4166TIP3    H234058   4.606   2.247   1.217 -1.1547  0.5507 -0.0545
 4167TIP3   OH234059   2.973   2.137   8.107  0.2868  0.2755  0.0012
 4167TIP3    H134060   2.935   2.053   8.080  0.1468  1.1136 -2.7289
 4167TIP3    H234061   2.926   2.202   8.055  1.2335  1.9556  1.1531
 4168TIP3   OH234062   4.127   0.428   0.295  0.3636  0.0254  0.6206
 4168TIP3    H134063   4.086   0.508   0.264 -1.0539 -0.1388  1.9427
 4168TIP3    H234064   4.135   0.373   0.217  0.0369  0.8951 -0.0424
 4169TIP3   OH234065   6.063   3.619   7.627 -0.8737 -0.0895 -0.2056
 4169TIP3    H134066   6.063   3.537   7.676 -1.6805  1.0823  1.8840
 4169TIP3    H234067   6.153   3.627   7.594 -0.7115 -1.6514 -0.1869
 4170TIP3   OH234068   4.226   2.748   7.870 -0.0134 -0.2965  0.2599
 4170TIP3    H134069   4.206   2.826   7.818  1.7477  0.7020  1.0096
 4170TIP3    H234070   4.254   2.683   7.806 -1.9218 -0.5165 -0.4210
 4171TIP3   OH234071   1.664   2.075   0.354  0.0661  0.5352 -0.3579
 4171TIP3    H134072   1.668   1.980   0.343  0.9277  0.7242 -2.2247
 4171TIP3    H234073   1.571   2.095   0.364 -0.1608 -0.4710 -0.3702
 4172TIP3   OH234074   4.503   0.688   2.583  0.0486  0.2385  0.0451
 4172TIP3    H134075   4.503   0.662   2.675 -1.3434 -1.1428 -0.3172
 4172TIP3    H234076   4.492   0.607   2.534  0.4249  0.9846 -1.3487
 4173TIP3   OH234077   4.247   3.569   7.980 -0.9257  0.0798  0.0950
 4173TIP3    H134078   4.269   3.640   7.920 -1.2574 -0.1927 -0.3603
 4173TIP3    H234079   4.174   3.524   7.937 -0.3552 -0.8818  0.0939
 4174TIP3   OH234080   0.518   1.107   7.961 -0.3877 -0.3908  0.5092
 4174TIP3    H134081   0.481   1.128   7.875  1.5791  1.2938 -0.0217
 4174TIP3    H234082   0.471   1.165   8.021 -1.7544 -1.5577  0.6144
 4175TIP3   OH234083   3.563   3.994   7.963 -0.4675  0.5407  0.3017
 4175TIP3    H134084   3.639   3.988   7.906 -0.5767 -0.3964  0.2389
 4175TIP3    H234085   3.571   3.918   8.021 -0.9128  0.9002  0.8408
 4176TIP3   OH234086   4.526   1.765   0.594 -0.0469 -0.4325 -0.6443
 4176TIP3    H134087   4.579   1.685   0.601 -0.0665 -0.3185  1.9263
 4176TIP3    H234088   4.437   1.737   0.614  0.1593  0.3542  1.7768
 4177TIP3   OH234089   3.873   1.612   8.630 -0.1611 -0.0450  0.1689
 4177TIP3    H134090   3.834   1.689   8.671 -0.6067 -0.3214  0.2746
 4177TIP3    H234091   3.860   1.627   8.536  1.3587  0.8547  0.0580
 4178TIP3   OH234092   0.999   0.960   0.736 -0.0792 -0.5168 -0.1447
 4178TIP3    H134093   1.080   1.009   0.721 -0.8798  1.3450  1.2636
 4178TIP3    H234094   1.012   0.919   0.822 -0.8249  0.2616  0.3530
 4179TIP3   OH234095   5.455   3.368   2.245 -0.3663 -0.1960 -0.4838
 4179TIP3    H134096   5.438   3.458   2.217 -0.3299  0.7644  2.2931
 4179TIP3    H234097   5.400   3.314   2.187 -0.9765  1.6456 -1.7016
 4180TIP3   OH234098   1.379   2.251   8.378 -0.6905  0.2784  0.0788
 4180TIP3    H134099   1.326   2.188   8.329  0.7559  0.1058 -1.3353
 4180TIP3    H234100   1.462   2.255   8.331  0.8704  0.0034  2.5902
 4181TIP3   OH234101   3.598   1.127   0.024  0.3167 -0.0800  0.1669
 4181TIP3    H134102   3.687   1.102   0.048  0.1533 -0.9793 -0.1095
 4181TIP3    H234103   3.571   1.190   0.091  0.8880 -0.3800  0.6862
 4182TIP3   OH234104   4.248   3.171   1.086 -0.4498  0.8281 -0.0729
 4182TIP3    H134105   4.178   3.158   1.150  0.1561  2.4657  0.9794
 4182TIP3    H234106   4.255   3.087   1.040 -0.1538 -0.8111  2.7531
 4183TIP3   OH234107   3.770   1.621   7.382  0.2764  1.0221  0.6756
 4183TIP3    H134108   3.785   1.580   7.297  0.0336 -1.3231  1.6672
 4183TIP3    H234109   3.807   1.708   7.374  0.3797  0.8223 -1.7745
 4184TIP3   OH234110   2.824   1.254   8.016  0.4729  0.2873  0.5564
 4184TIP3    H134111   2.889   1.184   8.005 -0.9553 -1.1828  0.9526
 4184TIP3    H234112   2.833   1.281   8.107  1.3682  0.9904  0.2672
 4185TIP3   OH234113   6.311   4.403   1.264 -0.2529  0.4568 -0.2348
 4185TIP3    H134114   6.360   4.363   1.336 -0.7344  1.7712  0.8709
 4185TIP3    H234115   6.318   4.340   1.192  1.0693 -0.4463  0.6386
 4186TIP3   OH234116   0.700   1.937   0.458 -0.0679  0.0623 -0.3326
 4186TIP3    H134117   0.626   1.878   0.445 -0.5305  0.4891  0.3423
 4186TIP3    H234118   0.662   2.016   0.496  0.5868  0.6970 -0.9596
 4187TIP3   OH234119   0.512   1.407   0.944 -0.4317  0.5491  0.0162
 4187TIP3    H134120   0.519   1.498   0.914 -0.9279 -0.0883 -2.2020
 4187TIP3    H234121   0.602   1.376   0.950 -0.2191 -0.2019 -4.0831
 4188TIP3   OH234122   4.682   0.982   2.509 -0.3964 -0.3982  0.7277
 4188TIP3    H134123   4.742   0.912   2.484  0.6779  0.8687 -0.4228
 4188TIP3    H234124   4.718   1.018   2.590 -0.2421 -0.3788  0.6508
 4189TIP3   OH234125   0.681   3.123   7.486  0.2592 -0.5694  0.1689
 4189TIP3    H134126   0.775   3.105   7.484  0.8371  1.9171 -2.0254
 4189TIP3    H234127   0.670   3.191   7.552  0.4479  0.7206 -1.0664
 4190TIP3   OH234128   5.274   4.291   1.009  0.1864  0.2516 -0.0518
 4190TIP3    H134129   5.246   4.208   1.047 -0.9896  1.1850  1.2467
 4190TIP3    H234130   5.322   4.334   1.080  0.8007  0.6812 -0.7131
 4191TIP3   OH234131   2.926   2.390   9.258  0.4721  0.1103  0.4665
 4191TIP3    H134132   2.980   2.418   9.332 -0.6893  0.0741  1.3479
 4191TIP3    H234133   2.924   2.295   9.263  0.8074  0.0788  0.0762
 4192TIP3   OH234134   2.691   2.945   8.255 -0.5151 -0.7570  0.1191
 4192TIP3    H134135   2.767   2.892   8.281 -0.9501 -1.1609  0.5826
 4192TIP3    H234136   2.719   2.988   8.174 -0.5738 -2.6199 -0.9446
 4193TIP3   OH234137   2.664   5.609   2.005 -0.2381  0.3541  0.6376
 4193TIP3    H134138   2.615   5.630   2.084 -0.5491 -2.1969  1.2298
 4193TIP3    H234139   2.604   5.629   1.933 -1.4314 -0.7525  1.2677
 4194TIP3   OH234140   1.867   4.092   9.397 -0.8117  0.0168 -0.2062
 4194TIP3    H134141   1.904   4.172   9.435 -0.1011  0.6039 -2.0522
 4194TIP3    H234142   1.941   4.032   9.389 -1.3310 -0.8558  1.1157
 4195TIP3   OH234143   3.741   0.048   2.683 -0.0247  0.4771 -0.2833
 4195TIP3    H134144   3.664   0.099   2.706  0.3061  0.6428  0.5054
 4195TIP3    H234145   3.807   0.073   2.748  0.3188 -0.5490 -0.2189
 4196TIP3   OH234146   0.810   0.090   1.306 -0.1972  0.2735  0.2433
 4196TIP3    H134147   0.828  -0.004   1.306  1.8849  0.6253  0.4514
 4196TIP3    H234148   0.854   0.123   1.385 -2.3849  1.2009  1.1475
 4197TIP3   OH234149   2.287   0.791   6.951 -0.0013  0.2544  0.1059
 4197TIP3    H134150   2.358   0.727   6.960 -0.9164 -1.1573 -1.8928
 4197TIP3    H234151   2.218   0.758   7.009  0.5936  1.1421  1.3702
 4198TIP3   OH234152   0.955   3.009   2.362 -0.0572 -0.1944  0.0158
 4198TIP3    H134153   0.886   3.045   2.418  1.5458  2.3976  0.4881
 4198TIP3    H234154   0.914   2.998   2.277 -0.5935  3.6741 -0.4159
 4199TIP3   OH234155   4.860   4.263   8.714 -0.6525  0.2733 -0.3385
 4199TIP3    H134156   4.906   4.330   8.663 -1.9865  1.5887  0.1217
 4199TIP3    H234157   4.832   4.309   8.793 -0.1618 -1.2800  0.7854
 4200TIP3   OH234158   3.100   2.872   9.311  0.0294  0.3354 -0.2883
 4200TIP3    H134159   3.066   2.838   9.229 -0.6587  0.0177  0.1188
 4200TIP3    H234160   3.160   2.804   9.343  0.6070  0.6374 -0.7203
 4201TIP3   OH234161   1.089   5.128   8.662 -0.0367  0.0458  0.2262
 4201TIP3    H134162   1.088   5.223   8.655  0.2704 -0.0246 -0.9011
 4201TIP3    H234163   1.015   5.099   8.607  0.6866 -0.4155 -0.5300
 4202TIP3   OH234164   0.523   0.563   0.340  0.0823 -0.4596  0.0169
 4202TIP3    H134165   0.586   0.634   0.353  1.0049 -1.0580 -1.0381
 4202TIP3    H234166   0.438   0.604   0.357  0.5289  1.0701 -1.1952
 4203TIP3   OH234167   2.539   0.491   8.121  0.4708 -0.4310 -1.0058
 4203TIP3    H134168   2.626   0.525   8.100 -0.2357  1.5159 -1.0203
 4203TIP3    H234169   2.556   0.418   8.180  2.1183  0.6824  0.0145
 4204TIP3   OH234170   0.987   4.486   1.457 -0.9187  0.0455 -0.0797
 4204TIP3    H134171   0.954   4.516   1.541  1.5982  1.3114  0.5307
 4204TIP3    H234172   1.053   4.421   1.479 -1.0571 -0.4810 -1.1477
 4205TIP3   OH234173   5.539   1.035   1.393 -0.1526 -0.3414  0.4037
 4205TIP3    H134174   5.591   0.969   1.439  1.0234  0.3509  0.1283
 4205TIP3    H234175   5.604   1.097   1.359 -1.2802  1.6208  1.6493
 4206TIP3   OH234176   5.709   4.795   8.289  0.0028  0.3163  0.1375
 4206TIP3    H134177   5.741   4.880   8.260  2.1988 -0.6355 -0.3964
 4206TIP3    H234178   5.705   4.742   8.210  0.4433 -0.6069  0.7108
 4207TIP3   OH234179   6.392   3.622   1.251  0.1995 -0.1829  0.1024
 4207TIP3    H134180   6.314   3.626   1.195  0.9635  1.8778 -0.9035
 4207TIP3    H234181   6.362   3.656   1.335 -0.4083 -1.1723  0.3095
 4208TIP3   OH234182   1.808   0.753   1.079  0.2261  0.1628 -0.2642
 4208TIP3    H134183   1.813   0.676   1.136  0.9440  0.8878  0.6821
 4208TIP3    H234184   1.883   0.745   1.020 -0.1641 -0.2651 -0.7181
 4209TIP3   OH234185   3.356   6.150   0.998 -0.0353 -0.0002 -0.2014
 4209TIP3    H134186   3.441   6.142   1.040  0.4424  1.5330 -0.8090
 4209TIP3    H234187   3.293   6.144   1.070  0.4933 -1.8570  0.1737
 4210TIP3   OH234188   3.765   5.572   7.442 -0.0149  0.1610 -0.3576
 4210TIP3    H134189   3.831   5.528   7.388  1.1096  1.0161  0.2791
 4210TIP3    H234190   3.682   5.531   7.417  0.7092 -0.7025 -1.4232
 4211TIP3   OH234191   3.806   3.212   7.198 -0.1579 -0.2235  0.3732
 4211TIP3    H134192   3.901   3.203   7.206  0.0145 -0.6200 -1.6104
 4211TIP3    H234193   3.788   3.200   7.105 -2.2116 -0.5513  0.7512
 4212TIP3   OH234194   2.758   4.490   9.274 -0.0377 -0.1912  0.2016
 4212TIP3    H134195   2.696   4.422   9.248 -0.5770  0.1664  0.5494
 4212TIP3    H234196   2.752   4.493   9.369  0.4772 -0.1191  0.2350
 4213TIP3   OH234197   5.514   3.106   8.085 -1.1249 -0.3749 -1.2571
 4213TIP3    H134198   5.559   3.024   8.067 -1.2860 -0.4492 -1.3300
 4213TIP3    H234199   5.580   3.174   8.072 -1.1621 -0.4473 -1.8406
 4214TIP3   OH234200   0.467   3.864   1.559  0.3310  0.0278  0.4129
 4214TIP3    H134201   0.388   3.896   1.603  0.8350  1.5845  0.2535
 4214TIP3    H234202   0.475   3.918   1.481  1.0785 -0.7060 -0.0342
 4215TIP3   OH234203   4.084   0.878   1.555 -0.2817  0.0961 -0.7758
 4215TIP3    H134204   4.031   0.802   1.577  0.0360  0.2696  0.6421
 4215TIP3    H234205   4.021   0.940   1.517 -0.5573 -0.8071 -1.8244
 4216TIP3   OH234206   0.379   3.527   7.175 -0.2750 -0.3680 -0.6410
 4216TIP3    H134207   0.381   3.570   7.260  0.2295 -2.8268  0.7092
 4216TIP3    H234208   0.369   3.598   7.111  0.3089  1.6380  1.3811
 4217TIP3   OH234209   0.212   2.091   0.873 -0.3412 -0.3268 -0.9935
 4217TIP3    H134210   0.258   2.136   0.944  1.6900 -0.8418 -1.9219
 4217TIP3    H234211   0.133   2.055   0.915  0.8451 -0.7152  1.0385
 4218TIP3   OH234212   6.167   6.234   8.505  0.2141 -0.1246 -0.0109
 4218TIP3    H134213   6.245   6.270   8.463  0.4525 -0.1868  0.3743
 4218TIP3    H234214   6.118   6.194   8.433  1.2303 -1.3581 -0.0529
 4219TIP3   OH234215   1.252   0.899   0.464 -0.0733 -0.2255  0.2687
 4219TIP3    H134216   1.243   0.946   0.382  0.4204 -0.2418  0.2022
 4219TIP3    H234217   1.238   0.965   0.532 -0.2937 -0.1751  0.1733
 4220TIP3   OH234218   6.247   5.843   1.352  0.4504 -0.4507  0.2279
 4220TIP3    H134219   6.211   5.755   1.360  1.2506 -0.7855  0.3019
 4220TIP3    H234220   6.172   5.899   1.334 -0.2017 -1.0021  1.1878
 4221TIP3   OH234221   3.250   2.639   9.347 -0.2101 -0.6773  0.7231
 4221TIP3    H134222   3.230   2.571   9.283  1.2078  0.3652 -0.9464
 4221TIP3    H234223   3.249   2.595   9.432 -2.4155 -2.0531  0.0407
 4222TIP3   OH234224   2.196   3.054   1.590  0.3413  0.3819  0.0719
 4222TIP3    H134225   2.130   2.989   1.613  2.2191 -1.4660  0.4450
 4222TIP3    H234226   2.211   3.041   1.496  0.8915  0.1012  0.1952
 4223TIP3   OH234227   4.944   2.609   8.358  0.0925 -0.1200  0.5021
 4223TIP3    H134228   4.934   2.678   8.292  0.8998 -1.1764 -0.7888
 4223TIP3    H234229   4.864   2.614   8.410 -1.5097 -0.4657 -1.7861
 4224TIP3   OH234230   4.833   4.721   7.159  0.3572  0.3826  0.7925
 4224TIP3    H134231   4.875   4.669   7.090  0.9760 -0.5780  1.8560
 4224TIP3    H234232   4.755   4.670   7.182 -0.5694  1.3620 -0.0712
 4225TIP3   OH234233   1.904   6.130   8.930 -0.9958 -0.4323  0.2131
 4225TIP3    H134234   1.934   6.126   8.839 -0.3985  0.4916  0.3600
 4225TIP3    H234235   1.958   6.197   8.971  0.2134 -2.2717  1.8246
 4226TIP3   OH234236   1.250   0.306   7.948 -0.3083 -0.0570  0.2894
 4226TIP3    H134237   1.243   0.231   8.007  1.1911  1.0315  1.9405
 4226TIP3    H234238   1.327   0.288   7.895 -1.5408 -0.9386 -1.2641
 4227TIP3   OH234239   2.341   3.251   1.302  0.0370 -0.4504 -0.1199
 4227TIP3    H134240   2.400   3.176   1.301 -0.7244 -1.0603 -0.2241
 4227TIP3    H234241   2.255   3.215   1.281 -0.2494  0.5340 -0.7367
 4228TIP3   OH234242   5.545   1.076   6.973  0.1591  0.1542 -0.6729
 4228TIP3    H134243   5.635   1.096   6.999 -0.0426 -0.0244  0.1935
 4228TIP3    H234244   5.494   1.085   7.053 -0.3400 -1.3127 -0.7960
 4229TIP3   OH234245   1.734   5.293   0.190 -0.1005 -0.1959 -0.1866
 4229TIP3    H134246   1.712   5.203   0.166  3.4006 -1.1083 -0.5330
 4229TIP3    H234247   1.791   5.284   0.266 -1.3483  1.9313  1.1015
 4230TIP3   OH234248   6.147   4.119   7.878 -0.3681  0.2420 -0.4987
 4230TIP3    H134249   6.133   4.207   7.843 -0.0584  1.3314  1.9166
 4230TIP3    H234250   6.093   4.116   7.957  0.8281 -1.1703  0.3027
 4231TIP3   OH234251   5.085   5.678   0.278  0.0345  0.2759 -0.1297
 4231TIP3    H134252   5.104   5.704   0.188  0.0331  0.6361 -0.0278
 4231TIP3    H234253   5.168   5.688   0.324 -0.2739  1.4050  0.2128
 4232TIP3   OH234254   3.852   1.798   8.143 -0.2871  0.1498  0.2532
 4232TIP3    H134255   3.897   1.810   8.226  0.8758  1.9586 -0.5878
 4232TIP3    H234256   3.799   1.719   8.156  1.9366 -1.1954  1.8005
 4233TIP3   OH234257   3.591   0.262   8.958  0.2066  0.0830 -0.4067
 4233TIP3    H134258   3.626   0.304   8.879  0.8396 -0.5711 -0.4860
 4233TIP3    H234259   3.667   0.219   8.997 -0.1161  0.3479  0.5318
 4234TIP3   OH234260   4.803   2.082   0.223  0.0536  0.4976  0.0732
 4234TIP3    H134261   4.844   2.153   0.175 -0.3119  1.3090  0.9399
 4234TIP3    H234262   4.850   2.079   0.307 -0.1530 -0.0558  0.1732
 4235TIP3   OH234263   2.961   4.422   8.897  0.4099 -0.2060  0.0397
 4235TIP3    H134264   2.997   4.459   8.816  0.7157 -0.1859  0.1832
 4235TIP3    H234265   2.933   4.498   8.948  1.0114 -0.1699  0.3221
 4236TIP3   OH234266   4.739   5.308   0.506  0.1016 -0.0156  0.8021
 4236TIP3    H134267   4.735   5.272   0.417  0.7043  0.5112  0.5523
 4236TIP3    H234268   4.774   5.397   0.494 -1.3741  0.6815  1.3898
 4237TIP3   OH234269   1.771   0.257   9.116 -0.0840  0.2505 -0.0518
 4237TIP3    H134270   1.719   0.336   9.100  0.4488  0.4703 -0.7640
 4237TIP3    H234271   1.835   0.256   9.045  1.2076  0.2449  1.0619
 4238TIP3   OH234272   6.436   3.077   7.643  0.5210 -0.1900  0.0296
 4238TIP3    H134273   6.363   3.075   7.705  1.1791 -0.7820  0.8200
 4238TIP3    H234274   6.401   3.120   7.565 -0.7115 -0.6130  0.3289
 4239TIP3   OH234275   4.402   1.417   1.721 -0.2341 -0.4729  0.1078
 4239TIP3    H134276   4.437   1.434   1.634  1.8823 -3.4539  0.2705
 4239TIP3    H234277   4.446   1.481   1.777  0.7898 -0.5786 -0.5518
 4240TIP3   OH234278   3.206   3.270   8.370 -0.7041  0.2149 -0.2504
 4240TIP3    H134279   3.244   3.186   8.342  0.6595  0.8339 -0.3634
 4240TIP3    H234280   3.223   3.272   8.465 -1.5785 -0.0358 -0.0802
 4241TIP3   OH234281   5.230   1.920   0.887  0.9409  0.5144 -0.8723
 4241TIP3    H134282   5.235   2.016   0.893  1.2507  0.4937 -0.7994
 4241TIP3    H234283   5.210   1.903   0.795 -3.1817  0.8077 -0.2189
 4242TIP3   OH234284   0.557   2.886   1.565  0.3925 -0.3336 -0.1634
 4242TIP3    H134285   0.533   2.793   1.565  1.1983 -0.5478 -0.4280
 4242TIP3    H234286   0.642   2.889   1.522  1.7180  0.1757  2.2988
 4243TIP3   OH234287   5.952   4.088   8.081 -0.3967  0.2449  0.2276
 4243TIP3    H134288   6.016   4.074   8.151  2.1703  3.0454 -1.3305
 4243TIP3    H234289   5.870   4.104   8.127  0.2176 -2.0029  2.3728
 4244TIP3   OH234290   3.719   4.233   0.207 -0.1661  0.9552 -0.2929
 4244TIP3    H134291   3.635   4.222   0.161  0.3154 -0.0638 -0.9671
 4244TIP3    H234292   3.755   4.314   0.172  0.3352  0.0400 -2.0119
 4245TIP3   OH234293   6.528   2.283   7.538 -0.0776  0.0448 -0.3718
 4245TIP3    H134294   6.463   2.293   7.607 -0.4428  0.1663 -0.7288
 4245TIP3    H234295   6.611   2.275   7.584 -0.0282  2.2146  0.0488
 4246TIP3   OH234296   2.623   5.920   0.595  0.6240 -0.1727  0.1422
 4246TIP3    H134297   2.694   5.873   0.638  0.6936 -1.5778 -1.4095
 4246TIP3    H234298   2.582   5.855   0.538  0.6750  1.6191 -2.0678
 4247TIP3   OH234299   1.965   1.796   2.573 -0.0253 -0.0822  0.8278
 4247TIP3    H134300   2.015   1.848   2.510  0.3982 -0.5684  0.7551
 4247TIP3    H234301   1.901   1.857   2.610  1.6499  0.9641  2.0992
 4248TIP3   OH234302   6.026   3.710   8.360  0.7980  0.0983  0.2942
 4248TIP3    H134303   6.003   3.792   8.402  2.1297  0.7198 -0.1427
 4248TIP3    H234304   6.121   3.713   8.350  0.8459 -1.3737  0.0136
 4249TIP3   OH234305   5.930   0.507   1.721 -0.4201 -0.0225 -0.0763
 4249TIP3    H134306   5.927   0.568   1.795 -1.1415 -0.7110  0.4684
 4249TIP3    H234307   5.922   0.563   1.644  0.0522  0.6749  0.3630
 4250TIP3   OH234308   5.283   0.823   1.277  0.2694  0.1749 -0.9114
 4250TIP3    H134309   5.189   0.839   1.265 -0.2679 -1.7030  0.3220
 4250TIP3    H234310   5.302   0.851   1.366  0.9377  0.6904 -1.2050
 4251TIP3   OH234311   6.016   6.060   6.780 -0.1409 -0.3043  0.0158
 4251TIP3    H134312   5.994   6.152   6.797  0.6251 -0.1564  0.2704
 4251TIP3    H234313   5.942   6.011   6.814 -0.2362  0.1898  0.5471
 4252TIP3   OH234314   3.881   2.160   9.115  0.6203  0.5262 -0.1441
 4252TIP3    H134315   3.846   2.247   9.137  0.6505  1.6374 -3.8305
 4252TIP3    H234316   3.821   2.125   9.050  2.1669 -0.9533 -0.8650
 4253TIP3   OH234317   3.729   1.455   9.101  1.0251 -0.0109  0.4025
 4253TIP3    H134318   3.691   1.489   9.020 -0.5118  0.7093  1.3620
 4253TIP3    H234319   3.719   1.360   9.094 -0.1076  0.1082  0.1971
 4254TIP3   OH234320   1.046   4.652   2.661  0.6210 -0.4305  0.7335
 4254TIP3    H134321   0.979   4.596   2.700 -0.1299 -0.7125 -0.8976
 4254TIP3    H234322   1.000   4.731   2.634  1.0141 -0.4329  0.0147
 4255TIP3   OH234323   6.302   1.052   7.408 -0.0627 -0.1753  0.0177
 4255TIP3    H134324   6.397   1.055   7.407  0.0071 -1.6008 -1.4048
 4255TIP3    H234325   6.276   1.100   7.329 -0.2672 -3.3545 -2.0478
 4256TIP3   OH234326   2.345   3.417   7.459  0.1698  0.4924  0.0007
 4256TIP3    H134327   2.396   3.406   7.379  0.9273 -1.0128  0.6407
 4256TIP3    H234328   2.317   3.509   7.459 -0.5763  0.3208 -2.3880
 4257TIP3   OH234329   1.178   6.310   8.695 -0.3626 -0.3383 -0.3652
 4257TIP3    H134330   1.241   6.302   8.623 -0.9828 -1.6696 -0.8003
 4257TIP3    H234331   1.224   6.274   8.770 -0.4103 -0.8093 -0.5585
 4258TIP3   OH234332   4.646   1.529   0.714 -0.2861 -0.3978 -0.1665
 4258TIP3    H134333   4.717   1.546   0.776 -0.0926 -0.2337 -0.4325
 4258TIP3    H234334   4.570   1.508   0.770  0.1067 -1.1297  0.1102
 4259TIP3   OH234335   5.886   5.180   1.686 -0.7729  0.1042  0.1473
 4259TIP3    H134336   5.880   5.173   1.781 -1.0761  1.5226  0.2561
 4259TIP3    H234337   5.813   5.127   1.654 -0.4370 -0.7068  0.6673
 4260TIP3   OH234338   0.239   1.180   9.204  0.2259  0.0566  0.3070
 4260TIP3    H134339   0.283   1.108   9.248  0.0757 -0.0861  0.2233
 4260TIP3    H234340   0.214   1.145   9.118  0.2604  0.2437  0.2192
 4261TIP3   OH234341   4.063   6.354   0.449  0.0806 -0.0407  0.0868
 4261TIP3    H134342   4.010   6.312   0.515 -0.3702  1.4154  0.6879
 4261TIP3    H234343   4.095   6.434   0.490  1.0183  0.1655 -0.9630
 4262TIP3   OH234344   0.793   0.616   8.559 -0.3692 -0.3281  0.0602
 4262TIP3    H134345   0.746   0.639   8.639  0.2828 -1.3597  0.7702
 4262TIP3    H234346   0.824   0.699   8.524  0.5598  0.0442  1.6681
 4263TIP3   OH234347   2.975   2.387   8.479 -0.2906 -0.1837  0.2092
 4263TIP3    H134348   3.039   2.316   8.482  0.5346  0.4956 -0.6221
 4263TIP3    H234349   3.007   2.452   8.542 -0.8411 -0.3853  0.7008
 4264TIP3   OH234350   5.651   3.901   8.145  0.3306  0.0622 -0.0728
 4264TIP3    H134351   5.661   3.996   8.148 -0.6432  0.1776 -0.0242
 4264TIP3    H234352   5.739   3.868   8.130  0.5746  1.0120 -0.8526
 4265TIP3   OH234353   5.276   0.268   9.026 -0.1197  0.2067  0.1982
 4265TIP3    H134354   5.235   0.354   9.013  2.1280  1.5031  1.0784
 4265TIP3    H234355   5.356   0.272   8.973  2.3156  0.4818  3.5596
 4266TIP3   OH234356   4.442   1.499   7.045 -0.7359 -0.0397 -0.2003
 4266TIP3    H134357   4.530   1.471   7.017 -0.6017  1.1465 -1.0166
 4266TIP3    H234358   4.397   1.521   6.963 -1.9025 -0.9000  0.1886
 4267TIP3   OH234359   5.259   2.220   0.369 -0.3129 -0.5323  0.4848
 4267TIP3    H134360   5.291   2.294   0.318 -1.4572 -0.9376 -0.9032
 4267TIP3    H234361   5.336   2.164   0.381  0.2923  0.2758  0.5041
 4268TIP3   OH234362   3.262   4.463   0.490  0.1101 -0.4068  0.2649
 4268TIP3    H134363   3.354   4.439   0.500  0.3993  0.2138 -0.7353
 4268TIP3    H234364   3.233   4.481   0.579  1.4406  1.0309  0.4636
 4269TIP3   OH234365   5.279   4.976   0.669  0.3058 -0.2186 -0.1789
 4269TIP3    H134366   5.281   5.057   0.618  0.7679  0.2696  0.6035
 4269TIP3    H234367   5.199   4.932   0.639 -0.3718  0.8801 -0.0677
 4270TIP3   OH234368   0.378   0.077   8.568 -0.5265 -0.5143 -0.3099
 4270TIP3    H134369   0.372   0.035   8.654 -1.1586 -1.2340 -0.6961
 4270TIP3    H234370   0.359   0.007   8.506  1.0371 -0.2674 -1.1069
 4271TIP3   OH234371   3.304   2.457   2.327 -0.2261  0.3381  0.6350
 4271TIP3    H134372   3.294   2.485   2.236  0.9662  0.3297  0.4857
 4271TIP3    H234373   3.215   2.461   2.363 -0.6857  0.5138 -0.4720
 4272TIP3   OH234374   4.285   0.733   7.303  0.2561 -0.4734 -0.2134
 4272TIP3    H134375   4.192   0.750   7.292  0.0131 -0.0678  2.0280
 4272TIP3    H234376   4.327   0.816   7.283  0.1894 -0.7240 -1.4752
 4273TIP3   OH234377   3.690   4.862   0.729  0.6211  0.5722 -0.0978
 4273TIP3    H134378   3.679   4.833   0.639  0.6115 -0.6104  0.2722
 4273TIP3    H234379   3.621   4.817   0.778 -0.4423  2.4654  0.2569
 4274TIP3   OH234380   1.252   2.937   7.415 -0.1409 -0.2286 -0.2463
 4274TIP3    H134381   1.236   3.031   7.402  0.6187 -0.1216 -0.4573
 4274TIP3    H234382   1.318   2.933   7.485  1.2464 -0.5050 -1.5098
 4275TIP3   OH234383   2.477   0.987   8.701  0.0279  0.2175 -0.5020
 4275TIP3    H134384   2.406   1.037   8.742 -1.0035 -0.0556 -1.8612
 4275TIP3    H234385   2.433   0.910   8.664  1.4374 -1.2217  0.7263
 4276TIP3   OH234386   1.154   3.962   1.835  0.1563 -0.0878  0.5994
 4276TIP3    H134387   1.196   4.045   1.815  0.4691 -0.8435 -2.2688
 4276TIP3    H234388   1.226   3.901   1.852  0.2291 -0.8069 -1.9309
 4277TIP3   OH234389   1.465   0.505   7.189  0.0644  0.1619 -0.0015
 4277TIP3    H134390   1.463   0.493   7.284 -0.0638  1.2510  0.1507
 4277TIP3    H234391   1.527   0.576   7.176  0.2202 -0.1078 -0.7531
 4278TIP3   OH234392   3.553   1.249   2.259 -0.4091  0.7660 -0.5073
 4278TIP3    H134393   3.508   1.192   2.321  0.4115  0.2008 -0.4170
 4278TIP3    H234394   3.485   1.308   2.227 -1.5537 -0.9762 -1.4569
 4279TIP3   OH234395   3.581   4.739   9.305 -0.7241  0.3229  0.1697
 4279TIP3    H134396   3.646   4.750   9.374 -1.7691  2.5675  0.8783
 4279TIP3    H234397   3.561   4.828   9.276 -2.0903 -0.4307 -1.3657
 4280TIP3   OH234398   0.666   2.483   0.233  0.3022 -0.0862 -0.4285
 4280TIP3    H134399   0.713   2.403   0.254 -0.1159 -0.2995 -0.2974
 4280TIP3    H234400   0.583   2.453   0.194  0.6031  0.2922 -1.3778
 4281TIP3   OH234401   2.123   1.177   1.018  0.1505 -0.1647 -0.4152
 4281TIP3    H134402   2.205   1.144   0.983  0.5944 -0.2906  0.7042
 4281TIP3    H234403   2.130   1.272   1.011  0.6121 -0.1511  0.1189
 4282TIP3   OH234404   4.281   1.162   8.069  0.2238 -0.1372  0.3051
 4282TIP3    H134405   4.254   1.248   8.101 -0.4647 -0.1658 -0.1573
 4282TIP3    H234406   4.199   1.120   8.044  0.5962 -0.7625  0.1208
 4283TIP3   OH234407   5.272   2.827   9.429 -0.4492 -0.1143  0.4973
 4283TIP3    H134408   5.295   2.856   9.341  1.8101  0.0599  1.0789
 4283TIP3    H234409   5.183   2.792   9.421  0.0762 -1.0567 -2.0651
 4284TIP3   OH234410   4.927   0.257   1.041 -0.9983 -0.3369  0.2203
 4284TIP3    H134411   4.862   0.251   1.111 -1.6070 -1.1427 -0.4018
 4284TIP3    H234412   4.893   0.323   0.981 -1.8307 -1.5456 -0.6815
 4285TIP3   OH234413   3.959   2.507   9.345 -0.1119  0.0470 -0.5663
 4285TIP3    H134414   4.002   2.537   9.425 -0.4700  0.4578 -0.5248
 4285TIP3    H234415   3.995   2.420   9.329  1.2472  0.6457 -0.9105
 4286TIP3   OH234416   6.048   2.162   8.688  0.1150 -0.4971  0.3180
 4286TIP3    H134417   5.958   2.179   8.664  0.0498  1.9596  1.9271
 4286TIP3    H234418   6.043   2.084   8.744 -1.2378  0.3343  1.4330
 4287TIP3   OH234419   3.903   6.072   0.572 -0.3368 -0.2500  0.2146
 4287TIP3    H134420   3.940   6.103   0.655 -1.1239 -0.4331  0.6467
 4287TIP3    H234421   3.817   6.036   0.596 -0.6551 -0.1337 -0.7114
 4288TIP3   OH234422   5.518   1.474   7.818 -0.1887  0.3070  0.3539
 4288TIP3    H134423   5.545   1.399   7.871 -2.4731 -0.5494  0.3992
 4288TIP3    H234424   5.435   1.502   7.856  0.0285  2.1277 -0.4155
 4289TIP3   OH234425   1.612   6.112   2.454 -0.2038 -0.0981  0.0488
 4289TIP3    H134426   1.586   6.201   2.428  1.1919 -0.1545 -1.6724
 4289TIP3    H234427   1.598   6.059   2.376 -0.9839 -1.4270  1.0416
 4290TIP3   OH234428   4.751   5.333   2.734 -0.0754 -0.2296 -0.3027
 4290TIP3    H134429   4.825   5.340   2.675  0.9669  3.5115  1.1321
 4290TIP3    H234430   4.750   5.241   2.761  1.2530 -1.3657 -3.6479
 4291TIP3   OH234431   3.387   0.057   2.855  0.0438  0.8770 -0.0128
 4291TIP3    H134432   3.438   0.072   2.935  0.7308  0.7532 -0.4237
 4291TIP3    H234433   3.411   0.128   2.796  1.9316 -0.6960 -1.2767
 4292TIP3   OH234434   1.290   5.217   8.383  0.0770  0.1486 -0.2438
 4292TIP3    H134435   1.373   5.249   8.416 -0.2228  2.2540 -1.3850
 4292TIP3    H234436   1.307   5.125   8.361  1.6062  0.0842  1.0549
 4293TIP3   OH234437   1.902   4.645   7.736  0.2863 -0.2778 -0.3778
 4293TIP3    H134438   1.875   4.582   7.670  0.7509  0.1095 -0.9432
 4293TIP3    H234439   1.931   4.592   7.810  4.2604 -0.9052 -2.1663
 4294TIP3   OH234440   2.087   5.441   8.395  0.7414  0.0484 -0.0611
 4294TIP3    H134441   2.001   5.434   8.436  0.8020  1.3654  0.3163
 4294TIP3    H234442   2.137   5.498   8.453  1.4802  0.3022 -0.9283
 4295TIP3   OH234443   2.415   1.023   7.002 -0.4242  0.3265 -0.3826
 4295TIP3    H134444   2.359   0.959   6.958 -1.1851  1.0926 -0.5639
 4295TIP3    H234445   2.503   0.986   6.996 -0.6643 -0.0821 -1.6228
 4296TIP3   OH234446   3.874   2.477   1.120  0.0387  0.2459  0.0013
 4296TIP3    H134447   3.881   2.569   1.092 -0.3112  0.6690  1.2422
 4296TIP3    H234448   3.786   2.471   1.157  0.1206 -0.5568  0.0731
 4297TIP3   OH234449   6.339   0.618   7.516  0.3970 -0.5819  1.0202
 4297TIP3    H134450   6.347   0.525   7.537  1.1509 -0.4899  1.1642
 4297TIP3    H234451   6.288   0.620   7.435 -0.1668 -1.0824  1.3545
 4298TIP3   OH234452   2.542   2.522   7.766 -0.6868  0.5379 -0.1864
 4298TIP3    H134453   2.464   2.511   7.820 -0.7589  0.2973 -0.3399
 4298TIP3    H234454   2.538   2.450   7.703  0.8653 -0.8773  1.2466
 4299TIP3   OH234455   4.597   1.210   8.097  0.8548 -0.5387  0.0536
 4299TIP3    H134456   4.524   1.161   8.061 -0.5707  0.3778  1.5794
 4299TIP3    H234457   4.606   1.178   8.187  1.3852  0.3862  0.3437
 4300TIP3   OH234458   3.445   4.503   2.041 -0.0516 -0.2791 -0.2454
 4300TIP3    H134459   3.361   4.503   2.086  0.1370 -0.1395  0.1152
 4300TIP3    H234460   3.448   4.419   1.995 -0.9173  0.2371 -1.2848
 4301TIP3   OH234461   5.518   1.922   0.903  0.7030 -0.3019  0.0915
 4301TIP3    H134462   5.445   1.977   0.931  0.5457 -0.3393 -0.2376
 4301TIP3    H234463   5.556   1.969   0.828 -0.1979 -1.2340 -0.9836
 4302TIP3   OH234464   4.778   0.571   1.464  0.1434  0.1101 -0.2256
 4302TIP3    H134465   4.812   0.621   1.538 -1.6596 -1.2949  1.6483
 4302TIP3    H234466   4.717   0.509   1.502 -0.4523 -1.0771 -2.8597
 4303TIP3   OH234467   3.788   5.297   2.912 -0.2725  0.1610 -0.5308
 4303TIP3    H134468   3.779   5.331   2.823  0.9804  0.1949 -0.6637
 4303TIP3    H234469   3.872   5.250   2.911 -0.6044 -0.4821  0.4313
 4304TIP3   OH234470   6.460   4.007   8.410 -0.5911  0.2244  0.5467
 4304TIP3    H134471   6.420   3.920   8.408 -3.2770  1.3677  0.3844
 4304TIP3    H234472   6.446   4.042   8.322  0.6867  0.7608  0.5349
 4305TIP3   OH234473   2.457   3.547   1.812 -0.7395  0.5216  0.8234
 4305TIP3    H134474   2.362   3.545   1.803 -0.9199  3.0103  1.4083
 4305TIP3    H234475   2.489   3.562   1.724 -0.7908 -1.3325  0.4619
 4306TIP3   OH234476   1.277   6.114   1.191  0.5476 -0.4441 -0.1127
 4306TIP3    H134477   1.221   6.102   1.115  0.1282  0.1126  0.1007
 4306TIP3    H234478   1.366   6.119   1.156  0.4208 -0.8207 -0.4990
 4307TIP3   OH234479   0.558   2.793   7.783  0.9073 -0.0934  0.2963
 4307TIP3    H134480   0.577   2.719   7.840  1.9178  1.6697  2.4284
 4307TIP3    H234481   0.465   2.812   7.798  1.3258  0.8044  2.0611
 4308TIP3   OH234482   1.720   2.955   1.647  0.3109 -0.6446  0.0964
 4308TIP3    H134483   1.805   2.964   1.690  0.5674  0.2884 -0.5659
 4308TIP3    H234484   1.702   2.861   1.649  1.1496 -0.8079  0.6393
 4309TIP3   OH234485   1.880   0.053   8.783 -0.0591 -0.2006  0.9440
 4309TIP3    H134486   1.846   0.032   8.870  0.8116 -1.5376  0.9808
 4309TIP3    H234487   1.829  -0.001   8.723  0.9858 -1.1542  0.8749
 4310TIP3   OH234488   5.151   1.323   7.096  0.2302  0.8053 -0.1575
 4310TIP3    H134489   5.246   1.335   7.103  0.4492 -0.3472 -0.8819
 4310TIP3    H234490   5.135   1.302   7.004 -0.5082 -0.5347  0.2328
 4311TIP3   OH234491   2.626   1.995   0.659 -0.0256 -0.5299 -0.1163
 4311TIP3    H134492   2.548   2.042   0.630 -1.9222 -1.5018  2.8921
 4311TIP3    H234493   2.658   2.047   0.733  1.9680 -0.4203 -1.0000
 4312TIP3   OH234494   4.781   4.511   9.243  0.1341 -0.3596 -0.0854
 4312TIP3    H134495   4.701   4.563   9.246  0.6854  0.5037 -0.1348
 4312TIP3    H234496   4.804   4.508   9.150  0.4864 -0.0953 -0.0080
 4313TIP3   OH234497   5.793   2.969   7.975 -0.0946  0.2472 -0.2311
 4313TIP3    H134498   5.805   3.011   8.060 -2.5038  1.2338 -0.3125
 4313TIP3    H234499   5.852   3.017   7.916  1.1613 -0.0702  0.7173
 4314TIP3   OH234500   1.588   1.044   2.709 -0.0382  0.1872 -0.0495
 4314TIP3    H134501   1.675   1.022   2.742  0.8000 -0.0282 -2.1907
 4314TIP3    H234502   1.587   1.139   2.707 -0.7924  0.2633  2.1884
 4315TIP3   OH234503   0.907   2.858   0.833 -0.2024 -0.3585 -0.0983
 4315TIP3    H134504   0.998   2.866   0.862  0.6597 -0.6162 -2.4835
 4315TIP3    H234505   0.890   2.938   0.783 -1.0605 -0.5965 -0.2098
 4316TIP3   OH234506   1.464   1.453   0.250 -0.1986  0.5695  0.2233
 4316TIP3    H134507   1.524   1.514   0.206 -0.6372 -0.3109 -1.6548
 4316TIP3    H234508   1.521   1.386   0.287  0.0311 -0.0356 -1.1886
 4317TIP3   OH234509   1.896   0.765   9.554 -0.1147 -0.1620  0.4797
 4317TIP3    H134510   1.859   0.851   9.572 -1.3663 -0.9234  1.7689
 4317TIP3    H234511   1.988   0.782   9.531 -0.5452  1.5509 -0.0632
 4318TIP3   OH234512   2.050   5.196   8.270 -0.0260  0.2643  0.1404
 4318TIP3    H134513   1.981   5.213   8.206  0.6837  0.4329 -0.5918
 4318TIP3    H234514   2.084   5.282   8.293  2.2824  0.0872 -2.1460
 4319TIP3   OH234515   2.581   1.813   8.003  0.4468  0.1592 -0.6663
 4319TIP3    H134516   2.574   1.734   8.056  0.5408 -0.3915 -1.4565
 4319TIP3    H234517   2.491   1.845   7.995  0.4751  0.4431  0.1054
 4320TIP3   OH234518   3.602   0.378   0.330  0.0057 -0.0981 -0.8744
 4320TIP3    H134519   3.570   0.288   0.342 -1.1278  0.3039 -0.7190
 4320TIP3    H234520   3.697   0.369   0.326  0.0089 -1.1689  0.4683
 4321TIP3   OH234521   0.046   0.384   0.961 -0.9065  0.6041 -0.1759
 4321TIP3    H134522  -0.040   0.418   0.934 -0.8217  0.9855  0.0254
 4321TIP3    H234523   0.101   0.391   0.883 -1.2811 -0.4317 -0.5557
 4322TIP3   OH234524   2.512   4.292   1.163 -0.8238  0.0647  0.2078
 4322TIP3    H134525   2.545   4.308   1.075  1.2081 -1.7775  0.5603
 4322TIP3    H234526   2.529   4.373   1.210  1.2979 -0.0875 -0.2211
 4323TIP3   OH234527   1.925   3.958   0.318 -0.4803 -0.0712  0.2297
 4323TIP3    H134528   1.981   3.958   0.395  0.4253  1.3280 -0.3944
 4323TIP3    H234529   1.927   4.048   0.286  0.6401 -0.9308 -2.4513
 4324TIP3   OH234530   0.453   5.783   1.330  0.1833 -0.1015 -0.4174
 4324TIP3    H134531   0.439   5.692   1.356  2.9418 -0.2993  0.7528
 4324TIP3    H234532   0.384   5.832   1.375 -0.1422 -1.4015  0.5547
 4325TIP3   OH234533   1.312   0.708   0.256 -0.1743 -0.1101 -0.2548
 4325TIP3    H134534   1.250   0.754   0.199 -0.5460 -0.0585  0.1804
 4325TIP3    H234535   1.311   0.759   0.337 -1.1091 -1.2575  0.4878
 4326TIP3   OH234536   5.686   0.659   7.516 -0.2416 -0.5255 -0.2700
 4326TIP3    H134537   5.598   0.693   7.528  0.1517  0.5165 -0.2308
 4326TIP3    H234538   5.742   0.717   7.566  0.2610 -2.5513  1.6746
 4327TIP3   OH234539   2.464   5.433   2.252  0.7040 -0.0747 -0.4275
 4327TIP3    H134540   2.387   5.377   2.242  0.2177  0.7633 -1.6396
 4327TIP3    H234541   2.502   5.408   2.336 -1.7383  0.5374  0.9450
 4328TIP3   OH234542   1.919   0.066   1.000  0.1910  0.2607 -0.2382
 4328TIP3    H134543   1.844   0.105   1.045  1.5766  3.5816 -0.5796
 4328TIP3    H234544   1.961   0.011   1.067 -0.8372  0.7437  0.8420
 4329TIP3   OH234545   1.499   0.388   7.449 -0.0350  0.6805 -0.6279
 4329TIP3    H134546   1.592   0.404   7.439  0.2377 -1.0835 -1.3909
 4329TIP3    H234547   1.476   0.426   7.534  1.6782 -0.0280  0.1981
 4330TIP3   OH234548   4.964   3.863   8.408 -0.6133  0.9957  0.3801
 4330TIP3    H134549   5.027   3.915   8.459  0.8055 -0.0541 -0.2428
 4330TIP3    H234550   4.966   3.901   8.321  0.3179  0.0306 -0.0383
 4331TIP3   OH234551   2.429   5.934   1.826 -0.1992  0.0573  0.2196
 4331TIP3    H134552   2.346   5.900   1.791 -0.6542  0.3950  0.9420
 4331TIP3    H234553   2.495   5.874   1.791 -1.0368 -2.0692  2.0290
 4332TIP3   OH234554   5.569   4.565   1.343  0.2062  0.0574 -0.7685
 4332TIP3    H134555   5.541   4.603   1.426 -0.4065 -0.9975 -0.4739
 4332TIP3    H234556   5.664   4.557   1.350  0.0994 -0.6158  0.1009
 4333TIP3   OH234557   4.577   1.000   9.279 -0.1129 -0.0501  0.4898
 4333TIP3    H134558   4.606   0.915   9.313  0.3704  0.2938  0.9623
 4333TIP3    H234559   4.517   0.979   9.208 -1.7050 -0.8023  1.9958
 4334TIP3   OH234560   6.522   3.448   8.215 -0.2421  0.9901  0.0899
 4334TIP3    H134561   6.551   3.478   8.301  0.1060 -0.1606  0.3823
 4334TIP3    H234562   6.457   3.381   8.233  1.5900 -1.0574 -0.4622
 4335TIP3   OH234563   5.733   6.405   0.032 -0.1567 -0.2466 -0.0257
 4335TIP3    H134564   5.759   6.484  -0.015 -0.3552 -0.2263 -0.1012
 4335TIP3    H234565   5.652   6.429   0.078  0.1981 -0.1755  0.5706
 4336TIP3   OH234566   3.276   4.248   8.490 -0.4547 -0.7673  0.1064
 4336TIP3    H134567   3.304   4.247   8.399 -0.1197 -1.7100  0.2122
 4336TIP3    H234568   3.188   4.286   8.488  0.2012  0.7989 -0.3995
 4337TIP3   OH234569   5.695   1.965   0.657  0.4750 -0.0123 -0.8625
 4337TIP3    H134570   5.756   1.891   0.660  1.9564  1.1803  1.2103
 4337TIP3    H234571   5.736   2.027   0.598 -0.7593 -0.7701 -2.5834
 4338TIP3   OH234572   0.719   2.259   8.306 -0.0884 -0.1349 -0.4350
 4338TIP3    H134573   0.777   2.280   8.379 -0.1019  0.3391 -0.5539
 4338TIP3    H234574   0.770   2.201   8.250 -0.0152 -0.3582 -0.1366
 4339TIP3   OH234575   0.683   0.781   1.243  0.4958  0.4533 -0.2440
 4339TIP3    H134576   0.748   0.728   1.197  0.8569 -1.0285  1.8416
 4339TIP3    H234577   0.601   0.733   1.232  0.3098  0.8137 -0.4572
 4340TIP3   OH234578   5.432   0.526   1.984  0.0931  0.3326  0.3405
 4340TIP3    H134579   5.398   0.611   2.012  1.3130  0.7246  0.6907
 4340TIP3    H234580   5.355   0.469   1.981 -0.4270  0.8075  2.4901
 4341TIP3   OH234581   5.449   4.698   7.710 -0.9205  0.4582 -0.6714
 4341TIP3    H134582   5.362   4.706   7.671 -0.4385  0.5989 -1.7546
 4341TIP3    H234583   5.509   4.715   7.638  0.0499 -1.4788 -0.3965
 4342TIP3   OH234584   1.629   1.618   0.634 -0.1993 -0.0091  0.1389
 4342TIP3    H134585   1.614   1.537   0.682  0.4940  0.2581  0.8369
 4342TIP3    H234586   1.708   1.601   0.583  0.1428  0.3247  0.5457
 4343TIP3   OH234587   4.374   1.910   8.940  0.0485  0.2559  0.3139
 4343TIP3    H134588   4.355   1.979   9.004 -1.5039  2.4265 -2.2506
 4343TIP3    H234589   4.313   1.840   8.961 -0.4323  0.9246  1.2129
 4344TIP3   OH234590   0.923   1.801   2.249 -0.3714 -0.0002 -0.4872
 4344TIP3    H134591   0.855   1.835   2.306  0.4678  1.2454 -0.1876
 4344TIP3    H234592   0.890   1.815   2.161 -1.0635 -0.6371 -0.3416
 4345TIP3   OH234593   2.254   1.536   1.133  0.0758 -0.8017  0.0892
 4345TIP3    H134594   2.326   1.583   1.091 -1.0508  1.9197  1.0421
 4345TIP3    H234595   2.287   1.513   1.220 -0.9437  3.0406  1.7034
 4346TIP3   OH234596   1.522   3.107   1.155 -0.0980 -0.1497 -0.1137
 4346TIP3    H134597   1.523   3.202   1.141 -2.2092 -0.2476 -1.5707
 4346TIP3    H234598   1.540   3.071   1.068  0.2069 -1.0830  0.3324
 4347TIP3   OH234599   1.484   3.519   8.643  0.2311  0.2382  0.2702
 4347TIP3    H134600   1.476   3.575   8.566  3.0452 -0.5729 -0.7587
 4347TIP3    H234601   1.534   3.571   8.706  2.8148 -0.9318 -0.6720
 4348TIP3   OH234602   3.036   0.367   1.936 -0.0238 -0.1419  0.2399
 4348TIP3    H134603   3.011   0.414   1.856  0.2955  0.0625  0.2629
 4348TIP3    H234604   3.131   0.376   1.941 -0.0360 -0.2063  0.6118
 4349TIP3   OH234605   6.121   0.717   9.428  0.0267  0.1493 -0.6578
 4349TIP3    H134606   6.215   0.703   9.439  0.0209  0.7335  0.2383
 4349TIP3    H234607   6.086   0.719   9.517 -1.2001 -2.2312 -1.0309
 4350TIP3   OH234608   5.695   5.952   2.012 -0.4025  0.3529  0.1486
 4350TIP3    H134609   5.655   5.952   2.099  2.1552 -2.6589  1.4864
 4350TIP3    H234610   5.736   6.038   2.005 -1.5943  1.0622  1.4055
 4351TIP3   OH234611   2.183   4.543   1.100  0.0806 -0.3500  0.5581
 4351TIP3    H134612   2.227   4.484   1.162 -0.4673 -0.3864  0.9141
 4351TIP3    H234613   2.090   4.525   1.111 -0.1497  0.9940  1.1144
 4352TIP3   OH234614   5.791   4.511   2.413 -0.0005  0.0080 -0.0434
 4352TIP3    H134615   5.809   4.596   2.372  0.0251 -0.3813 -0.8502
 4352TIP3    H234616   5.865   4.498   2.473  0.5455  0.0797 -0.6846
 4353TIP3   OH234617   4.718   2.819   6.839 -0.1075 -0.3686  0.5090
 4353TIP3    H134618   4.760   2.785   6.760  0.4412 -1.2740  1.1657
 4353TIP3    H234619   4.677   2.902   6.812 -0.1828 -0.8107 -0.7790
 4354TIP3   OH234620   0.259   0.829   1.570  0.0724  0.3868  0.1374
 4354TIP3    H134621   0.279   0.751   1.518  0.0139 -0.3087  1.1257
 4354TIP3    H234622   0.291   0.808   1.657 -0.4737  1.2417  0.5573
 4355TIP3   OH234623   2.098   4.196   9.025  0.0044  0.0019  0.2804
 4355TIP3    H134624   2.128   4.193   9.116  1.3073  1.9537 -0.0208
 4355TIP3    H234625   2.016   4.245   9.028 -1.7100 -2.7390  0.7395
 4356TIP3   OH234626   4.918   1.337   1.342  0.4439  0.0892  0.1585
 4356TIP3    H134627   4.858   1.411   1.352  1.1278  0.6608  0.0994
 4356TIP3    H234628   4.944   1.315   1.431 -0.3644 -0.5970  0.2351
 4357TIP3   OH234629   1.962   4.682   1.945 -0.3988  0.6544  0.5508
 4357TIP3    H134630   1.911   4.725   1.877  0.1390  1.5322  0.6948
 4357TIP3    H234631   1.987   4.752   2.005  2.8195  0.7064 -0.6517
 4358TIP3   OH234632   5.133   5.872   1.898 -0.2817  0.4793 -0.1425
 4358TIP3    H134633   5.117   5.828   1.981  2.0655 -2.8213 -1.2154
 4358TIP3    H234634   5.215   5.920   1.911  0.2386 -0.2660 -0.5517
 4359TIP3   OH234635   1.085   3.536   9.538 -0.0100 -0.4353 -0.1924
 4359TIP3    H134636   1.116   3.447   9.552  1.1583 -0.2630 -1.5121
 4359TIP3    H234637   1.100   3.580   9.622  1.5030 -0.9074 -0.1879
 4360TIP3   OH234638   3.442   4.613   2.502  0.1096  0.5202 -0.3037
 4360TIP3    H134639   3.375   4.609   2.571  0.8420 -0.6303  0.3607
 4360TIP3    H234640   3.515   4.661   2.541  0.1202  0.7944 -0.6497
 4361TIP3   OH234641   2.934   0.746   1.754 -0.2520 -0.4591  0.2738
 4361TIP3    H134642   2.925   0.738   1.849 -1.6527  0.5569  0.2683
 4361TIP3    H234643   2.959   0.659   1.724  2.3461 -0.3232  1.7500
 4362TIP3   OH234644   2.693   1.600   9.111 -0.0209  0.4397  0.2699
 4362TIP3    H134645   2.740   1.655   9.048  0.8197 -0.8357 -0.2569
 4362TIP3    H234646   2.740   1.517   9.110 -0.1559  0.2821  2.3882
 4363TIP3   OH234647   0.267   0.390   1.474  0.1969 -0.3602 -0.0208
 4363TIP3    H134648   0.177   0.396   1.505  0.7441  0.9775  1.4116
 4363TIP3    H234649   0.281   0.296   1.458 -0.7540 -0.8618  1.8701
 4364TIP3   OH234650   3.909   0.491   0.042 -0.2392  0.3396 -0.1500
 4364TIP3    H134651   3.887   0.559  -0.021 -1.2578  0.1904  0.0157
 4364TIP3    H234652   3.986   0.448   0.006  0.0486  1.1857 -0.5599
 4365TIP3   OH234653   5.000   5.352   8.393  0.2710 -0.2897 -0.2041
 4365TIP3    H134654   4.907   5.358   8.413 -0.2209 -3.4938 -1.0402
 4365TIP3    H234655   5.041   5.334   8.478  0.4023  2.4139  0.3962
 4366TIP3   OH234656   1.395   4.308   1.494 -0.4623  0.2295  0.1212
 4366TIP3    H134657   1.396   4.212   1.491  2.3313  0.1883 -0.3670
 4366TIP3    H234658   1.394   4.328   1.588  0.9140 -0.3521  0.2845
 4367TIP3   OH234659   1.254   4.098   9.083 -0.0854 -0.3814 -0.2076
 4367TIP3    H134660   1.201   4.167   9.042 -0.9760 -0.8723  0.0948
 4367TIP3    H234661   1.251   4.118   9.176  0.7538 -0.0905 -0.2284
 4368TIP3   OH234662   6.380   5.919   7.337  0.2335  0.0209 -0.4887
 4368TIP3    H134663   6.314   5.970   7.290  0.6153  1.4783  0.5156
 4368TIP3    H234664   6.333   5.882   7.412  0.1234 -0.5368 -0.8273
 4369TIP3   OH234665   4.998   4.879   0.629  0.0136  0.4503 -0.2096
 4369TIP3    H134666   4.922   4.876   0.570  0.4221 -0.8494 -0.7058
 4369TIP3    H234667   5.053   4.805   0.601  0.3791 -0.0059  1.6009
 4370TIP3   OH234668   5.307   2.167   0.964 -0.1152  0.2363  0.2017
 4370TIP3    H134669   5.322   2.198   1.053 -1.5377  0.6214  0.3332
 4370TIP3    H234670   5.333   2.241   0.908  0.2171  0.2090  0.3183
 4371TIP3   OH234671   1.228   5.394   1.274  0.1187 -0.2536 -0.1858
 4371TIP3    H134672   1.133   5.405   1.276  0.3547  3.1318  3.4812
 4371TIP3    H234673   1.254   5.426   1.187 -1.9595 -0.3769 -0.9175
 4372TIP3   OH234674   1.523   4.708   2.255 -0.3532 -0.7704 -0.2242
 4372TIP3    H134675   1.585   4.680   2.322  0.9472  1.8017 -0.2217
 4372TIP3    H234676   1.479   4.785   2.292 -2.5166 -1.6305 -0.8359
 4373TIP3   OH234677   6.266   5.105   1.251 -0.1741 -0.2679  0.1029
 4373TIP3    H134678   6.289   5.151   1.171 -0.4130 -0.9208 -0.3486
 4373TIP3    H234679   6.345   5.108   1.305  0.2771 -0.5940 -0.5293
 4374TIP3   OH234680   4.881   5.908   0.408  0.2962  0.0166  0.0480
 4374TIP3    H134681   4.975   5.922   0.415  0.4404 -0.5164 -0.7220
 4374TIP3    H234682   4.872   5.834   0.348 -0.5812 -0.6185  0.9367
 4375TIP3   OH234683   2.308   3.320   2.159  0.3977 -0.4570  0.4717
 4375TIP3    H134684   2.220   3.283   2.154 -0.8880  2.3246  0.4813
 4375TIP3    H234685   2.365   3.245   2.178 -2.1053 -2.1788  1.7833
 4376TIP3   OH234686   1.916   6.012   7.388  0.2416 -0.6253  0.8228
 4376TIP3    H134687   1.884   6.040   7.474 -1.3399 -1.3932  0.5109
 4376TIP3    H234688   1.979   5.943   7.408  1.5762  0.7070  1.4332
 4377TIP3   OH234689   3.115   3.504   9.091  0.7408 -0.0358  0.1776
 4377TIP3    H134690   3.084   3.545   9.010  1.0069 -0.2576 -0.0411
 4377TIP3    H234691   3.129   3.577   9.151  1.5503  0.2475 -0.3224
 4378TIP3   OH234692   4.765   2.423   0.725  0.5761  0.1144 -0.0535
 4378TIP3    H134693   4.820   2.466   0.659 -0.0431  2.6351  0.9522
 4378TIP3    H234694   4.826   2.383   0.785  1.1800 -0.7376 -1.1895
 4379TIP3   OH234695   4.585   4.655   8.391  0.1589  0.1776  0.1271
 4379TIP3    H134696   4.663   4.652   8.335  0.7732  2.4402  0.7338
 4379TIP3    H234697   4.607   4.719   8.458 -1.7250 -0.1797  1.1462
 4380TIP3   OH234698   0.464   0.929   2.686 -0.2330  0.6145 -0.2857
 4380TIP3    H134699   0.371   0.944   2.674 -0.3507  0.1245 -0.0108
 4380TIP3    H234700   0.487   0.866   2.618 -0.1139  0.6852 -0.3115
 4381TIP3   OH234701   5.980   6.019   1.332 -0.3789  0.0784  0.8068
 4381TIP3    H134702   6.047   6.052   1.272 -0.6818  0.2951  0.5856
 4381TIP3    H234703   6.003   6.056   1.417 -2.4182  3.4401  0.0514
 4382TIP3   OH234704   1.922   3.948   1.159  0.0512 -0.2783  0.0871
 4382TIP3    H134705   1.984   4.010   1.122 -0.5397  0.2451 -0.0614
 4382TIP3    H234706   1.884   3.995   1.234 -0.0493 -0.6498  0.2716
 4383TIP3   OH234707   4.946   0.828   0.114  0.0757 -0.3536 -0.0323
 4383TIP3    H134708   4.902   0.760   0.165 -0.5677 -0.7911 -1.1263
 4383TIP3    H234709   4.926   0.909   0.160  1.5665 -0.9379  1.7935
 4384TIP3   OH234710   5.512   4.181   6.801 -0.4225  0.6380  0.0066
 4384TIP3    H134711   5.555   4.102   6.770 -0.3474  1.0049 -0.8517
 4384TIP3    H234712   5.521   4.243   6.729 -0.6052  1.3820  0.6086
 4385TIP3   OH234713   6.078   1.090   2.158 -0.0440  1.0301 -0.7567
 4385TIP3    H134714   6.099   1.080   2.065  0.4816  2.4040 -0.8107
 4385TIP3    H234715   6.162   1.108   2.200  0.0786 -1.6362  0.3554
 4386TIP3   OH234716   2.801   0.457   1.517 -0.5416 -0.2035  0.1829
 4386TIP3    H134717   2.711   0.483   1.538 -0.3080  0.9550 -0.1509
 4386TIP3    H234718   2.794   0.419   1.429 -0.9403 -1.6456  0.8063
 4387TIP3   OH234719   2.113   2.578   8.921  0.3343  0.6270 -0.3836
 4387TIP3    H134720   2.140   2.669   8.924 -0.4977  0.9626 -1.8744
 4387TIP3    H234721   2.021   2.581   8.893 -0.6200 -0.5547  2.2850
 4388TIP3   OH234722   1.649   0.582   1.764  0.5790  0.2340 -0.2683
 4388TIP3    H134723   1.562   0.590   1.725  1.2574 -1.6160 -2.3991
 4388TIP3    H234724   1.652   0.651   1.830 -2.5923  0.1491  0.1275
 4389TIP3   OH234725   5.288   0.594   8.402 -0.1741  0.0535 -0.1090
 4389TIP3    H134726   5.373   0.562   8.372  0.7147  1.3919  0.8724
 4389TIP3    H234727   5.257   0.527   8.464  0.4413 -0.1470 -0.0164
 4390TIP3   OH234728   3.161   5.677   7.976 -0.0780  0.3244 -0.1356
 4390TIP3    H134729   3.251   5.665   7.945 -0.2080  0.7921 -0.7020
 4390TIP3    H234730   3.147   5.771   7.974 -0.6240  0.2456 -0.1548
 4391TIP3   OH234731   1.480   1.241   1.758  0.6763 -0.8664  0.1996
 4391TIP3    H134732   1.497   1.274   1.846  0.6878 -0.7617  0.1583
 4391TIP3    H234733   1.556   1.269   1.706  0.5564 -0.7203  0.1012
 4392TIP3   OH234734   2.382   1.193   0.533 -0.5714  0.0222  0.6219
 4392TIP3    H134735   2.448   1.130   0.562 -0.4563  0.7281  1.9959
 4392TIP3    H234736   2.336   1.218   0.613  1.2341  3.8137  0.7057
 4393TIP3   OH234737   3.304   0.448   2.010 -0.1119  0.4388 -0.1320
 4393TIP3    H134738   3.373   0.444   1.943  0.5828  1.1963  0.5119
 4393TIP3    H234739   3.303   0.540   2.037 -2.7196  0.8955 -1.4786
 4394TIP3   OH234740   3.317   1.840   6.976 -0.2844 -0.0473  0.2292
 4394TIP3    H134741   3.276   1.765   6.931  0.3320 -0.7752  0.8633
 4394TIP3    H234742   3.278   1.839   7.063 -2.2781  1.9991 -0.5237
 4395TIP3   OH234743   1.287   5.799   7.572  0.1020 -0.3985  0.1405
 4395TIP3    H134744   1.351   5.736   7.603 -0.7199 -0.3241  2.1434
 4395TIP3    H234745   1.328   5.884   7.588 -0.5692 -0.3450  1.6586
 4396TIP3   OH234746   1.952   6.104   1.117 -0.1834 -0.2687  0.2203
 4396TIP3    H134747   2.025   6.166   1.121 -1.5412  1.4034  0.3326
 4396TIP3    H234748   1.977   6.033   1.176  2.3175 -0.8910 -1.4436
 4397TIP3   OH234749   3.715   6.238   8.883  0.2107  0.3187  0.6147
 4397TIP3    H134750   3.758   6.203   8.805  1.4191 -0.4345  1.5864
 4397TIP3    H234751   3.655   6.169   8.910  0.1900  0.3547  0.6614
 4398TIP3   OH234752   5.286   3.575   8.090  0.1007 -0.1837 -1.0253
 4398TIP3    H134753   5.270   3.521   8.014  0.0331 -1.0385 -0.4126
 4398TIP3    H234754   5.202   3.581   8.135  0.3813 -0.6341 -0.4173
 4399TIP3   OH234755   2.113   5.426   0.640  0.1328 -0.2726  0.2306
 4399TIP3    H134756   2.037   5.425   0.698 -0.4941 -1.4662 -0.5760
 4399TIP3    H234757   2.148   5.337   0.643  1.5233  0.2538  0.5945
 4400TIP3   OH234758   4.076   3.096   9.011 -0.7979  0.7665  0.1146
 4400TIP3    H134759   3.984   3.106   9.033 -0.3274  2.6154  1.4126
 4400TIP3    H234760   4.119   3.171   9.052  1.2982 -0.0919 -0.4063
 4401TIP3   OH234761   2.404   4.950   8.836  0.1462  0.0627  0.1741
 4401TIP3    H134762   2.443   4.926   8.920  1.4089 -1.3977 -0.7645
 4401TIP3    H234763   2.310   4.949   8.852  0.3776  0.6326  1.7639
 4402TIP3   OH234764   1.987   2.380   0.523 -0.4661  0.1909  0.1525
 4402TIP3    H134765   1.952   2.297   0.555 -0.3380  0.7258  1.8009
 4402TIP3    H234766   1.920   2.413   0.463 -0.2933 -1.3035 -0.9142
 4403TIP3   OH234767   3.725   5.946   2.454  0.3304  0.2210  0.2086
 4403TIP3    H134768   3.801   5.970   2.507  0.6608 -0.2376 -0.0492
 4403TIP3    H234769   3.650   5.963   2.510  0.7174 -1.2585  1.2444
 4404TIP3   OH234770   6.311   3.874   0.864 -0.0202  0.1791 -0.0917
 4404TIP3    H134771   6.244   3.807   0.873 -1.0055  0.6433 -3.0873
 4404TIP3    H234772   6.265   3.956   0.880  0.4951  0.3595  0.5350
 4405TIP3   OH234773   3.905   3.671   1.974  0.4510  0.2387 -0.5914
 4405TIP3    H134774   3.897   3.600   2.038  0.2409  1.5311  0.8639
 4405TIP3    H234775   3.857   3.639   1.897 -2.0455 -0.1334  1.0062
 4406TIP3   OH234776   3.383   2.989   0.311 -0.0910  0.0648 -0.4702
 4406TIP3    H134777   3.404   2.904   0.352  0.4921  0.5883  0.3613
 4406TIP3    H234778   3.324   2.967   0.240  1.2845 -1.2379 -1.2811
 4407TIP3   OH234779   0.101   3.608   9.244  0.0560  0.1592 -0.0451
 4407TIP3    H134780   0.151   3.541   9.291  0.8901  0.9454  0.2262
 4407TIP3    H234781   0.022   3.619   9.297  0.9295  0.9510  1.1551
 4408TIP3   OH234782   5.289   1.985   1.991  0.3059 -0.4219 -0.1818
 4408TIP3    H134783   5.368   2.036   1.974 -1.6954  2.7185 -1.0487
 4408TIP3    H234784   5.255   1.962   1.905  0.8637 -2.9178  0.1892
 4409TIP3   OH234785   1.061   0.983   2.634 -0.4646 -0.5808 -0.0960
 4409TIP3    H134786   1.132   0.919   2.634 -0.2176 -0.3207 -1.3966
 4409TIP3    H234787   0.988   0.938   2.677  0.7163 -0.5416  2.1148
 4410TIP3   OH234788   3.886   4.691   9.092 -0.5619 -0.0987  0.4763
 4410TIP3    H134789   3.977   4.723   9.089 -0.5793 -0.0947 -0.3857
 4410TIP3    H234790   3.835   4.766   9.121 -0.5209  0.4785 -0.8897
 4411TIP3   OH234791   3.978   6.282   7.353 -0.2737  0.8428 -0.1827
 4411TIP3    H134792   4.017   6.365   7.326 -1.4691  1.0252 -1.4438
 4411TIP3    H234793   3.885   6.293   7.337 -0.6156 -0.2870  0.8902
 4412TIP3   OH234794   2.531   0.142   1.361 -0.3395  0.2056  0.1045
 4412TIP3    H134795   2.564   0.063   1.319  2.0824 -0.0723  2.2868
 4412TIP3    H234796   2.593   0.211   1.335  0.0040  0.4594  1.5389
 4413TIP3   OH234797   3.011   5.136   8.054 -0.0217 -0.0808  0.1414
 4413TIP3    H134798   3.006   5.053   8.100 -0.5245  0.1049  0.4237
 4413TIP3    H234799   2.995   5.114   7.962 -1.9451 -0.0737  0.4402
 4414TIP3   OH234800   0.965   5.926   9.501  0.2370  0.1954  0.3196
 4414TIP3    H134801   1.035   5.882   9.549  0.3339  1.0816  1.0086
 4414TIP3    H234802   0.891   5.927   9.561  0.5301  1.8109  0.7139
 4415TIP3   OH234803   4.277   0.752   9.245  0.0670  0.2921 -0.2526
 4415TIP3    H134804   4.266   0.658   9.257  0.2875  0.2842 -0.0999
 4415TIP3    H234805   4.354   0.761   9.189 -0.1383  0.3726 -0.5212
 4416TIP3   OH234806   6.121   4.758   7.729 -0.3633  0.0831  0.1579
 4416TIP3    H134807   6.199   4.737   7.677 -0.9552  1.5318 -1.4156
 4416TIP3    H234808   6.070   4.677   7.729  0.6277 -0.5575  0.2965
 4417TIP3   OH234809   1.575   5.079   0.820  0.3210 -0.1051 -0.0538
 4417TIP3    H134810   1.520   5.157   0.824  0.1825 -0.2133  0.2079
 4417TIP3    H234811   1.557   5.033   0.902  0.5849 -0.2885 -0.0969
 4418TIP3   OH234812   2.628   5.723   0.368 -0.1301  0.4087  0.7715
 4418TIP3    H134813   2.670   5.773   0.297 -1.0354 -0.5464 -0.4776
 4418TIP3    H234814   2.537   5.753   0.367  0.2632  1.9246  2.9686
 4419TIP3   OH234815   1.583   4.248   2.175 -0.6880  0.5209  0.3638
 4419TIP3    H134816   1.623   4.190   2.110 -0.7391 -0.2857  1.0471
 4419TIP3    H234817   1.655   4.273   2.233 -0.5044  1.7625 -0.3506
 4420TIP3   OH234818   3.974   5.339   9.292  0.4670 -0.2359 -0.6827
 4420TIP3    H134819   4.053   5.286   9.283 -0.2819 -1.5514  0.2035
 4420TIP3    H234820   3.902   5.277   9.289 -0.5209  0.8622 -0.7298
 4421TIP3   OH234821   0.116   3.718   1.148  0.3568  0.0374  0.0583
 4421TIP3    H134822   0.037   3.675   1.182  0.5022  0.1439  0.5378
 4421TIP3    H234823   0.156   3.758   1.225  1.3319 -0.7217 -0.0324
 4422TIP3   OH234824   4.894   2.113   2.028 -0.4504  0.0811  0.4536
 4422TIP3    H134825   4.978   2.149   2.055 -0.7688  0.5138  0.9095
 4422TIP3    H234826   4.889   2.129   1.934 -0.1162  0.2535  0.4653
 4423TIP3   OH234827   2.253   0.975   0.152  0.1698 -0.7642  0.3013
 4423TIP3    H134828   2.312   1.022   0.092 -0.0430  0.2614  0.8726
 4423TIP3    H234829   2.167   1.012   0.135 -0.0166 -1.0021  0.7177
 4424TIP3   OH234830   2.998   4.128   0.654  0.3316 -0.0886 -0.1780
 4424TIP3    H134831   3.048   4.171   0.585 -0.5330  0.1506 -0.6707
 4424TIP3    H234832   2.909   4.163   0.645 -0.4508 -2.0631 -0.7125
 4425TIP3   OH234833   3.490   4.739   0.907 -0.2711  0.0544 -0.1996
 4425TIP3    H134834   3.446   4.655   0.895 -0.8657  0.3608 -0.2058
 4425TIP3    H234835   3.547   4.726   0.982 -0.3528 -0.3620 -0.2098
 4426TIP3   OH234836   2.996   2.827   2.059 -0.5599  0.0192  0.0584
 4426TIP3    H134837   3.046   2.831   2.141  0.2895 -2.2658 -0.2660
 4426TIP3    H234838   2.929   2.894   2.069  2.1450  2.8898  0.7721
 4427TIP3   OH234839   4.252   1.221   1.470  0.4390 -0.0207 -0.0533
 4427TIP3    H134840   4.193   1.167   1.417  0.8914 -0.1037 -0.4847
 4427TIP3    H234841   4.251   1.307   1.427 -1.1285  0.6604  1.2644
 4428TIP3   OH234842   0.884   4.955   8.536  0.4285  0.3739 -0.4616
 4428TIP3    H134843   0.855   5.021   8.472 -1.5650 -0.9184 -0.9657
 4428TIP3    H234844   0.924   4.886   8.482 -0.3352 -0.2537 -0.2328
 4429TIP3   OH234845   0.805   1.876   9.450 -0.3131  0.3343  0.2122
 4429TIP3    H134846   0.728   1.835   9.490 -0.1510 -2.1069 -1.7843
 4429TIP3    H234847   0.769   1.953   9.404 -1.5120 -0.4911 -0.2878
 4430TIP3   OH234848   4.304   4.004   9.120  0.4115  0.0219  0.4784
 4430TIP3    H134849   4.320   4.007   9.215  0.2196 -0.5178  0.5328
 4430TIP3    H234850   4.390   4.015   9.080  0.4968  0.2310  0.7117
 4431TIP3   OH234851   2.856   1.000   2.145  0.0908 -0.3840 -0.0142
 4431TIP3    H134852   2.784   0.936   2.148 -0.2566 -0.0138 -0.2683
 4431TIP3    H234853   2.873   1.012   2.052  0.2403 -0.2025  0.0359
 4432TIP3   OH234854   1.976   4.960   0.122  0.0946  0.1167 -0.3822
 4432TIP3    H134855   2.004   5.021   0.053 -0.0583  0.5685 -0.0445
 4432TIP3    H234856   1.882   4.952   0.110  0.0595  0.2454 -0.1800
 4433TIP3   OH234857   5.641   5.667   8.711 -0.1629  0.4260 -0.2801
 4433TIP3    H134858   5.626   5.619   8.792  0.1284  0.7499 -0.0304
 4433TIP3    H234859   5.584   5.744   8.717  1.3428  1.5151  0.5477
 4434TIP3   OH234860   3.478   1.101   1.489  0.3196 -0.9659  0.3805
 4434TIP3    H134861   3.528   1.105   1.407  1.6094  0.8640  1.1773
 4434TIP3    H234862   3.388   1.119   1.463  0.6452 -0.8071 -0.6926
 4435TIP3   OH234863   6.497   0.459   1.486  0.0253 -0.3348  0.5577
 4435TIP3    H134864   6.483   0.553   1.470  1.5025  0.3238  2.7116
 4435TIP3    H234865   6.464   0.416   1.407 -1.4755  1.9263 -0.1457
 4436TIP3   OH234866   5.681   0.993   2.140  0.0198  0.0516  0.3031
 4436TIP3    H134867   5.742   0.948   2.199  0.2262 -2.0215 -1.3703
 4436TIP3    H234868   5.671   1.080   2.178  0.8272 -0.8772  2.8749
 4437TIP3   OH234869   0.525   3.900   1.949 -0.1788  0.2091  0.0688
 4437TIP3    H134870   0.508   3.924   2.040  1.7723  2.4574 -0.0393
 4437TIP3    H234871   0.605   3.848   1.953  0.1580  0.6865 -0.3781
 4438TIP3   OH234872   1.012   1.200   8.387  0.0560 -0.0905  0.3497
 4438TIP3    H134873   1.060   1.283   8.379 -0.5817  0.2010 -0.6567
 4438TIP3    H234874   0.926   1.226   8.421 -0.5918 -0.1681 -1.1924
 4439TIP3   OH234875   3.962   4.217   7.759  0.0608 -0.4590  0.0511
 4439TIP3    H134876   4.034   4.278   7.773  1.0677 -1.8663  1.3701
 4439TIP3    H234877   3.959   4.204   7.664 -0.3668  1.7712 -0.2994
 4440TIP3   OH234878   5.924   1.481   0.589  1.0367  0.0017 -0.2683
 4440TIP3    H134879   5.895   1.456   0.501 -0.5483  1.9085 -0.3720
 4440TIP3    H234880   5.849   1.462   0.645  2.0194 -1.1620  0.7074
 4441TIP3   OH234881   5.645   0.137   8.506  0.1193 -0.3012 -0.3102
 4441TIP3    H134882   5.697   0.162   8.430  0.3472 -1.3398 -0.5086
 4441TIP3    H234883   5.675   0.195   8.576 -0.5164  1.0882 -1.1298
 4442TIP3   OH234884   1.576   1.184   0.300  0.1303 -0.4257 -0.2935
 4442TIP3    H134885   1.525   1.201   0.379  1.4023 -0.5733  0.5970
 4442TIP3    H234886   1.512   1.156   0.235 -1.3501  2.2191 -0.1483
 4443TIP3   OH234887   5.425   3.904   0.794 -0.2331 -0.1029 -0.1314
 4443TIP3    H134888   5.354   3.845   0.769 -0.3755 -0.4136  0.9739
 4443TIP3    H234889   5.501   3.846   0.804  0.2194  0.2381 -1.3938
 4444TIP3   OH234890   1.213   1.101   2.189 -0.3921 -0.0250  0.0752
 4444TIP3    H134891   1.289   1.060   2.149  0.1834  0.2157  0.8910
 4444TIP3    H234892   1.145   1.033   2.187 -0.3322 -0.0721 -1.1174
 4445TIP3   OH234893   5.218   6.454   8.538 -0.2502  0.1017 -0.0715
 4445TIP3    H134894   5.228   6.359   8.531  2.5113  0.3206 -0.2177
 4445TIP3    H234895   5.208   6.470   8.631 -3.3402 -0.4366 -0.2130
 4446TIP3   OH234896   1.807   2.466   7.632 -0.2046 -0.1950  0.2678
 4446TIP3    H134897   1.735   2.465   7.694  0.6357 -3.1267  1.3925
 4446TIP3    H234898   1.771   2.507   7.553 -2.9392 -1.0758  0.9468
 4447TIP3   OH234899   4.944   4.112   1.073 -0.0938 -0.1429  0.1189
 4447TIP3    H134900   4.930   4.185   1.134 -1.4819  0.2520 -0.6170
 4447TIP3    H234901   4.956   4.036   1.129  0.2345  0.4648  0.8987
 4448TIP3   OH234902   0.662   3.053   7.838 -0.0522 -0.2543 -0.5771
 4448TIP3    H134903   0.752   3.055   7.806  0.1820  0.0449  0.0841
 4448TIP3    H234904   0.634   2.962   7.823  0.0004 -0.1056 -1.7144
 4449TIP3   OH234905   3.999   3.876   7.654 -0.0357  0.0808  0.0057
 4449TIP3    H134906   4.010   3.952   7.596  0.1835  1.7486  2.0794
 4449TIP3    H234907   4.086   3.861   7.690 -0.3438 -0.3019  0.6011
 4450TIP3   OH234908   4.944   5.188   2.575 -0.4223 -0.5136  0.4718
 4450TIP3    H134909   4.897   5.148   2.501  0.6334 -1.6490  0.3714
 4450TIP3    H234910   5.008   5.122   2.600  0.9871  0.9106  0.7250
 4451TIP3   OH234911   1.094   3.084   0.892 -0.2318 -0.1025  0.0813
 4451TIP3    H134912   1.076   3.141   0.967  1.6406  0.5333  0.1092
 4451TIP3    H234913   1.183   3.053   0.907 -0.2033 -0.7802 -1.3729
 4452TIP3   OH234914   3.256   0.445   8.363  0.0111 -0.9852  0.1983
 4452TIP3    H134915   3.298   0.367   8.398  0.1438 -0.6482  0.8114
 4452TIP3    H234916   3.200   0.476   8.434 -0.2296 -0.6626 -0.1293
 4453TIP3   OH234917   4.489   5.376   8.359 -0.1516 -0.1712 -0.1779
 4453TIP3    H134918   4.544   5.418   8.292  0.0363  0.3910  0.3137
 4453TIP3    H234919   4.414   5.435   8.368  0.6280  0.6548  1.2736
 4454TIP3   OH234920   0.838   2.910   9.104  0.2824 -0.0176  0.7051
 4454TIP3    H134921   0.853   2.879   9.193  0.8630 -0.7070  0.3773
 4454TIP3    H234922   0.921   2.951   9.079 -0.2710  1.2512  0.9066
 4455TIP3   OH234923   1.027   4.138   8.804 -0.4135  0.6350  0.1108
 4455TIP3    H134924   0.949   4.189   8.781 -0.3735  0.2731 -0.8508
 4455TIP3    H234925   1.002   4.091   8.884 -0.5111  1.9981  0.9227
 4456TIP3   OH234926   3.743   0.682   2.215 -0.2371 -0.3092  0.1911
 4456TIP3    H134927   3.759   0.676   2.120 -0.6346  0.2665  0.0835
 4456TIP3    H234928   3.706   0.770   2.227 -1.1325 -0.7598  0.7467
 4457TIP3   OH234929   5.671   1.838   8.971  0.4471  0.2939 -0.0911
 4457TIP3    H134930   5.696   1.898   8.900  1.3663 -0.2061 -0.2198
 4457TIP3    H234931   5.635   1.894   9.039  3.2382  1.3160  0.6795
 4458TIP3   OH234932   5.452   3.548   9.182  0.7471  0.2153  0.4986
 4458TIP3    H134933   5.485   3.466   9.147 -1.2637 -0.7928  0.8530
 4458TIP3    H234934   5.418   3.526   9.269 -1.2542  1.0579 -0.0195
 4459TIP3   OH234935   5.307   0.417   0.622 -0.2473 -0.0687 -0.5811
 4459TIP3    H134936   5.240   0.349   0.627  1.0821 -1.3987 -0.0352
 4459TIP3    H234937   5.262   0.494   0.586 -2.5718 -0.2243  1.7364
 4460TIP3   OH234938   2.945   1.295   1.424 -0.1077 -0.2569 -0.4832
 4460TIP3    H134939   2.923   1.202   1.429 -2.9395  0.3744  1.1749
 4460TIP3    H234940   2.862   1.339   1.405  0.1669  2.1961  2.9471
 4461TIP3   OH234941   4.460   3.854   1.927  0.2237  0.4523  0.3893
 4461TIP3    H134942   4.366   3.860   1.937  0.2783  0.4838  0.8939
 4461TIP3    H234943   4.493   3.839   2.015  0.6272 -0.3305  0.1145
 4462TIP3   OH234944   4.875   1.587   0.864  0.0577 -0.2475  0.1216
 4462TIP3    H134945   4.865   1.682   0.860 -0.8838 -0.3513 -0.1890
 4462TIP3    H234946   4.956   1.574   0.915  1.9110  0.7645 -2.3657
 4463TIP3   OH234947   4.119   6.341   9.167  0.5307 -0.3007  0.2283
 4463TIP3    H134948   4.197   6.301   9.206  0.4479 -3.0378 -2.0915
 4463TIP3    H234949   4.045   6.301   9.214  0.4982 -0.8921 -0.3067
 4464TIP3   OH234950   2.529   3.834   1.704 -0.2895 -0.3697  0.1849
 4464TIP3    H134951   2.508   3.928   1.707 -2.5430 -0.7971 -0.6445
 4464TIP3    H234952   2.549   3.816   1.612 -1.6435 -1.0190 -0.0051
 4465TIP3   OH234953   3.826   3.042   0.724  0.0102  0.1212 -0.1155
 4465TIP3    H134954   3.893   3.063   0.659 -0.0298  2.5132  0.5308
 4465TIP3    H234955   3.876   3.012   0.801  0.1997 -0.0732 -0.3126
 4466TIP3   OH234956   4.589   2.478   7.780 -0.0296  0.4959  1.0902
 4466TIP3    H134957   4.568   2.572   7.771 -1.5616  0.0722 -0.3914
 4466TIP3    H234958   4.552   2.454   7.864 -0.7409  0.9853  0.9360
 4467TIP3   OH234959   5.278   1.414   1.235 -0.0108 -0.4281  0.3528
 4467TIP3    H134960   5.351   1.465   1.200 -0.0233  0.1862  1.1803
 4467TIP3    H234961   5.265   1.449   1.323 -1.7976 -0.0015 -0.0466
 4468TIP3   OH234962   3.865   0.020   8.682  0.6746  0.3516 -1.0431
 4468TIP3    H134963   3.775   0.005   8.713  0.9472 -0.0608 -0.4225
 4468TIP3    H234964   3.858   0.097   8.626  0.1478  1.1395  0.0594
 4469TIP3   OH234965   5.173   4.636   1.146  0.9608 -0.7731  0.0062
 4469TIP3    H134966   5.157   4.669   1.058 -2.1126 -1.1296  0.3235
 4469TIP3    H234967   5.262   4.664   1.167  0.3326  2.9201 -1.6346
 4470TIP3   OH234968   5.141   5.448   8.012 -0.4054 -0.6804  0.4958
 4470TIP3    H134969   5.104   5.447   7.923  0.4777  1.1490  0.0571
 4470TIP3    H234970   5.233   5.469   7.998 -0.3738  0.1648  1.8904
 4471TIP3   OH234971   5.622   2.378   9.066  0.1367 -0.2648 -0.1424
 4471TIP3    H134972   5.574   2.323   9.004  0.8512  1.4984 -2.4015
 4471TIP3    H234973   5.661   2.446   9.011 -1.0624  2.7815  2.5273
 4472TIP3   OH234974   4.484   1.676   8.183  0.1069  0.0663  0.2579
 4472TIP3    H134975   4.527   1.739   8.240 -1.3211 -0.2395  1.7341
 4472TIP3    H234976   4.546   1.603   8.177  0.2541  0.0659  1.5166
 4473TIP3   OH234977   3.399   4.520   1.139  0.5548  0.2944  0.2801
 4473TIP3    H134978   3.321   4.483   1.096  0.8063 -1.0844  0.9557
 4473TIP3    H234979   3.366   4.558   1.220  0.5477 -0.1333  0.4819
 4474TIP3   OH234980   6.285   1.243   0.455  0.2525 -0.1705  0.2087
 4474TIP3    H134981   6.351   1.257   0.387  0.2785  0.3314  0.3311
 4474TIP3    H234982   6.201   1.254   0.409  0.2380 -1.4080 -0.0745
 4475TIP3   OH234983   5.639   5.543   1.459 -0.0413 -0.5625 -0.3506
 4475TIP3    H134984   5.697   5.499   1.522 -0.1137 -0.7315 -0.4032
 4475TIP3    H234985   5.631   5.632   1.493 -0.2353 -0.7085 -0.0160
 4476TIP3   OH234986   1.960   2.989   1.806 -0.1770  0.7604 -0.5696
 4476TIP3    H134987   1.946   3.007   1.899  2.2809  0.4282 -0.0850
 4476TIP3    H234988   1.969   3.075   1.766 -0.9418  0.8953 -0.4667
 4477TIP3   OH234989   3.782   0.901   0.562 -0.1835 -0.1194 -0.1344
 4477TIP3    H134990   3.696   0.886   0.523 -0.6844  0.6472  0.6232
 4477TIP3    H234991   3.832   0.949   0.496 -0.9257  0.9260  0.0426
 4478TIP3   OH234992   5.517   1.463   0.033  0.4353 -0.3186 -0.9156
 4478TIP3    H134993   5.437   1.410   0.028  1.2174 -1.5413 -0.8141
 4478TIP3    H234994   5.558   1.453  -0.053  1.0220 -0.5991 -0.6113
 4479TIP3   OH234995   2.174   2.820   8.341 -0.4990 -0.0516  0.2910
 4479TIP3    H134996   2.194   2.727   8.332 -1.0913 -0.1629  0.0382
 4479TIP3    H234997   2.110   2.824   8.412  1.1492  0.4042  1.8304
 4480TIP3   OH234998   4.935   4.930   7.578 -0.1623 -0.5200  0.0178
 4480TIP3    H134999   4.926   4.947   7.672 -1.4344 -0.4659 -0.0981
 4480TIP3    H235000   4.845   4.918   7.547  0.2679 -0.8885 -1.1318
 4481TIP3   OH235001   4.016   1.638   7.920 -0.5808  0.3791  0.1274
 4481TIP3    H135002   4.109   1.654   7.935 -0.6698 -0.1492  1.3382
 4481TIP3    H235003   3.990   1.578   7.990 -1.8502  0.5740 -0.1510
 4482TIP3   OH235004   0.452   5.551   7.193 -0.4667  0.1446  0.4736
 4482TIP3    H135005   0.521   5.609   7.225  0.5742 -0.0157 -1.3845
 4482TIP3    H235006   0.394   5.607   7.141 -0.1131 -0.2402 -0.3525
 4483TIP3   OH235007   0.467   4.872   0.215  0.2469 -0.5681  0.2715
 4483TIP3    H135008   0.507   4.959   0.204 -0.1965 -0.0245  2.4929
 4483TIP3    H235009   0.541   4.811   0.208  0.7901  0.0916  0.1259
 4484TIP3   OH235010   2.286   2.715   0.840 -0.1920 -0.5512 -0.4274
 4484TIP3    H135011   2.255   2.666   0.763  1.4056 -1.8919 -0.2635
 4484TIP3    H235012   2.241   2.674   0.914  0.2267 -0.9844 -0.4087
 4485TIP3   OH235013   1.260   0.038   8.648  0.8745  0.3093  0.1865
 4485TIP3    H135014   1.224  -0.038   8.694  1.8487 -0.4492 -0.2536
 4485TIP3    H235015   1.347   0.009   8.619  0.9190  1.3060 -0.7391
 4486TIP3   OH235016   2.655   5.712   8.152 -0.0288  0.7626 -0.2704
 4486TIP3    H135017   2.609   5.638   8.113 -1.4594  1.0296  0.8215
 4486TIP3    H235018   2.745   5.681   8.162 -0.2000 -0.1756 -1.4493
 4487TIP3   OH235019   3.506   1.993   6.230  0.4874  0.9668 -0.2039
 4487TIP3    H135020   3.557   2.025   6.305  2.5558  1.3561 -1.7033
 4487TIP3    H235021   3.425   2.044   6.233  0.6194  1.1443  1.6018
 4488TIP3   OH235022   1.870   1.831   9.382  0.2077  0.1654  0.1617
 4488TIP3    H135023   1.785   1.840   9.426  0.2954  2.3668  0.0198
 4488TIP3    H235024   1.852   1.853   9.291  0.8412  0.2241  0.0466
 4489TIP3   OH235025   6.057   1.277   8.433 -0.1116  0.1737  0.0611
 4489TIP3    H135026   6.002   1.351   8.459 -1.3496 -0.5081 -0.5216
 4489TIP3    H235027   6.145   1.303   8.458 -0.1969  2.6761 -1.8802
 4490TIP3   OH235028   4.852   2.874   0.876 -0.0514  0.1991 -0.5985
 4490TIP3    H135029   4.827   2.934   0.806 -1.7875  1.3759  0.9525
 4490TIP3    H235030   4.769   2.837   0.907  0.8062 -1.4200 -0.1059
 4491TIP3   OH235031   0.932   3.803   8.481 -0.1761  0.7374 -0.1377
 4491TIP3    H135032   0.891   3.734   8.430 -0.6113  1.2673 -0.5207
 4491TIP3    H235033   1.018   3.767   8.505  0.4963  0.8402 -2.1379
 4492TIP3   OH235034   3.722   0.840   0.832 -0.4437 -0.3694  0.9196
 4492TIP3    H135035   3.747   0.920   0.878 -0.2837  0.6013 -0.7708
 4492TIP3    H235036   3.743   0.857   0.740 -1.3423 -1.9807  0.3640
 4493TIP3   OH235037   4.850   1.448   9.381 -0.1286 -0.8220  0.0427
 4493TIP3    H135038   4.912   1.401   9.437 -0.7729 -1.0156  0.6025
 4493TIP3    H235039   4.888   1.536   9.373  2.1529 -1.9036 -2.6682
 4494TIP3   OH235040   0.240   5.763   8.550  0.5794 -1.0759 -0.3012
 4494TIP3    H135041   0.304   5.710   8.599  0.7108  0.1070  0.8549
 4494TIP3    H235042   0.263   5.853   8.571 -1.0944 -0.6148 -0.3691
 4495TIP3   OH235043   5.063   2.150   9.386 -0.2049  0.3675  0.5152
 4495TIP3    H135044   5.028   2.074   9.340 -2.4443 -0.5847  3.4760
 4495TIP3    H235045   5.141   2.118   9.431 -0.3739  0.1822  0.6774
 4496TIP3   OH235046   1.890   1.297   7.198 -0.5033 -0.0837  0.0024
 4496TIP3    H135047   1.836   1.364   7.240  0.5349  0.7437  0.0736
 4496TIP3    H235048   1.846   1.280   7.115 -1.0720  0.2935  0.2163
 4497TIP3   OH235049   2.797   0.636   1.107 -0.0519  0.0354 -0.3557
 4497TIP3    H135050   2.703   0.622   1.114 -0.2129  0.9369 -0.6961
 4497TIP3    H235051   2.810   0.730   1.121  0.7319  0.0261 -0.9126
 4498TIP3   OH235052   1.003   2.777   8.234  0.1850 -0.3142  0.1807
 4498TIP3    H135053   0.992   2.684   8.211 -1.1101 -0.4514  1.2498
 4498TIP3    H235054   1.047   2.775   8.319 -1.9198 -0.0628  1.3425
 4499TIP3   OH235055   2.236   1.780   9.145  0.3839  0.3187  0.0790
 4499TIP3    H135056   2.240   1.872   9.170  0.1776 -0.0419  1.5305
 4499TIP3    H235057   2.323   1.746   9.163 -0.3172 -0.4320  2.4657
 4500TIP3   OH235058   2.289   6.292   1.838  0.1803 -0.8244  0.3920
 4500TIP3    H135059   2.206   6.247   1.827 -0.4699  0.6481 -1.1611
 4500TIP3    H235060   2.347   6.253   1.772 -0.4301  0.5950 -1.0642
 4501TIP3   OH235061   0.282   2.781   1.641  0.4461  0.3297 -0.5977
 4501TIP3    H135062   0.301   2.858   1.588 -0.9401  0.7387 -0.5484
 4501TIP3    H235063   0.189   2.790   1.664  0.4770 -0.9203  0.1214
 4502TIP3   OH235064   6.164   5.484   9.354  0.0939 -0.4250  0.2077
 4502TIP3    H135065   6.071   5.475   9.375 -0.0810  0.9276  0.0985
 4502TIP3    H235066   6.192   5.395   9.333 -1.7284 -0.5693 -2.0074
 4503TIP3   OH235067   1.456   2.818   6.994 -0.2898  0.7713 -0.4728
 4503TIP3    H135068   1.405   2.757   6.940  1.5718 -0.0301 -1.4258
 4503TIP3    H235069   1.403   2.828   7.073 -0.5862 -2.3616 -0.1177
 4504TIP3   OH235070   5.591   4.925   8.700 -0.4448  0.5086  0.1196
 4504TIP3    H135071   5.510   4.946   8.655 -0.0547  2.2389  0.1541
 4504TIP3    H235072   5.651   4.996   8.677  0.6702 -0.0770  1.0789
 4505TIP3   OH235073   3.588   1.911   1.424 -0.7343  0.0142  0.1398
 4505TIP3    H135074   3.666   1.939   1.376 -0.5157 -0.1240  0.4072
 4505TIP3    H235075   3.523   1.979   1.407 -0.5413  0.1498 -0.0547
 4506TIP3   OH235076   5.004   4.177   0.714 -0.0878 -0.2879 -0.0662
 4506TIP3    H135077   4.949   4.100   0.699 -0.5961  0.2289 -0.9294
 4506TIP3    H235078   4.950   4.236   0.766  0.0729 -0.2412  0.0507
 4507TIP3   OH235079   6.129   5.889   0.367  0.2463 -0.1983 -0.1268
 4507TIP3    H135080   6.086   5.808   0.339 -0.1880  0.0350 -0.1456
 4507TIP3    H235081   6.187   5.862   0.438 -1.3706 -0.2425  1.2263
 4508TIP3   OH235082   3.301   4.683   1.326 -0.1634 -1.1379  0.2520
 4508TIP3    H135083   3.333   4.761   1.371 -2.1527 -0.5821  0.8076
 4508TIP3    H235084   3.302   4.707   1.233  1.3755 -1.3061  0.2024
 4509TIP3   OH235085   2.319   0.811   0.742  0.0298 -0.4094 -0.0528
 4509TIP3    H135086   2.310   0.865   0.664 -1.4650  0.8908  0.9549
 4509TIP3    H235087   2.336   0.723   0.709  1.5525  0.4634 -1.7701
 4510TIP3   OH235088   4.603   3.886   0.833 -0.4937 -0.6697 -0.1105
 4510TIP3    H135089   4.613   3.837   0.914  4.2155 -0.6603 -0.4236
 4510TIP3    H235090   4.575   3.821   0.768  1.8469 -2.1577  0.2839
 4511TIP3   OH235091   0.326   5.771   7.046 -0.0591 -0.1545 -0.0296
 4511TIP3    H135092   0.242   5.813   7.062 -0.3760 -0.8013  0.0255
 4511TIP3    H235093   0.386   5.844   7.027 -0.4755  0.3639  0.5780
 4512TIP3   OH235094   0.863   1.159   2.387  0.3566  0.2432  0.1532
 4512TIP3    H135095   0.795   1.181   2.452 -0.9166 -0.4744 -0.8842
 4512TIP3    H235096   0.842   1.070   2.360  3.5273 -1.1826  1.9526
 4513TIP3   OH235097   2.728   0.356   1.999  0.1610  0.9398  0.3459
 4513TIP3    H135098   2.638   0.331   1.979  0.8594 -0.1610 -1.6186
 4513TIP3    H235099   2.726   0.452   2.005 -0.7833  1.0991 -1.7428
 4514TIP3   OH235100   4.513   0.990   9.557 -0.0488  0.4774  0.4354
 4514TIP3    H135101   4.457   1.052   9.510  1.2451 -0.0504 -1.9720
 4514TIP3    H235102   4.602   1.015   9.535  0.5391 -1.6413  0.1361
 4515TIP3   OH235103   5.109   4.126   7.041  0.4345  0.4678 -0.1781
 4515TIP3    H135104   5.040   4.192   7.027  0.5981  0.4035 -1.4115
 4515TIP3    H235105   5.063   4.042   7.033  0.2146  0.4025  1.4562
 4516TIP3   OH235106   3.288   0.075   7.972 -0.1096  0.1310  0.2678
 4516TIP3    H135107   3.283  -0.019   7.986 -0.1748 -0.2917 -2.1127
 4516TIP3    H235108   3.198   0.101   7.951 -0.6512  1.2935  3.4936
 4517TIP3   OH235109   3.767   5.463   0.393 -0.1254 -0.0604  0.2457
 4517TIP3    H135110   3.793   5.421   0.475 -3.9505 -1.6234  0.8534
 4517TIP3    H235111   3.684   5.507   0.413 -1.1579 -0.4330 -2.7253
 4518TIP3   OH235112   0.487   5.928   8.724  0.0934  0.0787  0.0935
 4518TIP3    H135113   0.475   5.874   8.802  1.1661  1.6310  1.4001
 4518TIP3    H235114   0.405   5.977   8.716  0.0653  0.0808  0.3868
 4519TIP3   OH235115   2.768   4.997   0.249  0.7860 -0.9770  0.5246
 4519TIP3    H135116   2.842   4.991   0.309 -0.0908 -2.4154  1.5273
 4519TIP3    H235117   2.746   5.090   0.247  2.6249 -0.5137  0.1547
 4520TIP3   OH235118   2.089   1.360   0.476 -0.4927  0.6830 -0.1482
 4520TIP3    H135119   2.125   1.340   0.390  2.0254  1.4775  0.6429
 4520TIP3    H235120   2.134   1.440   0.503 -1.6531  0.7833  1.6795
 4521TIP3   OH235121   6.431   2.251   8.059  0.2713 -0.1851 -0.0756
 4521TIP3    H135122   6.422   2.241   8.154  0.7779 -1.5244 -0.1297
 4521TIP3    H235123   6.511   2.303   8.048 -0.6460  1.3378  0.2305
 4522TIP3   OH235124   4.850   2.533   1.744 -0.6029  0.0776 -0.8963
 4522TIP3    H135125   4.830   2.617   1.703 -0.7921  0.6648  0.3350
 4522TIP3    H235126   4.846   2.551   1.838 -1.2582 -1.4450 -0.5961
 4523TIP3   OH235127   4.929   4.375   8.951  0.4815  0.2890 -0.4412
 4523TIP3    H135128   4.995   4.427   8.904 -0.3075  0.5662 -1.2723
 4523TIP3    H235129   4.978   4.300   8.984  1.0433 -0.0059 -1.8627
 4524TIP3   OH235130   2.060   3.197   1.263  0.4624  0.0075  0.0175
 4524TIP3    H135131   2.018   3.123   1.306  1.3470  0.4386  1.7247
 4524TIP3    H235132   1.994   3.266   1.264 -0.6590 -0.9215 -2.3167
 4525TIP3   OH235133   3.435   3.019   6.926  0.0023 -0.0717  0.3132
 4525TIP3    H135134   3.517   3.067   6.917 -0.0892 -0.0254 -0.3228
 4525TIP3    H235135   3.369   3.087   6.936  0.0814 -0.1184  1.2361
 4526TIP3   OH235136   5.241   2.832   0.287 -0.9300 -0.0975 -0.1424
 4526TIP3    H135137   5.216   2.741   0.270  0.1857 -0.1001 -1.9460
 4526TIP3    H235138   5.279   2.863   0.205  2.9351  0.5631  1.6574
 4527TIP3   OH235139   1.088   6.243   1.909  0.7466  0.2841  0.3681
 4527TIP3    H135140   1.093   6.212   1.818  1.6546 -0.6292  0.7168
 4527TIP3    H235141   1.173   6.222   1.947  1.7618  3.8378  0.4790
 4528TIP3   OH235142   5.940   3.801   7.795  0.3020 -0.3100 -0.3095
 4528TIP3    H135143   5.979   3.734   7.739  2.4710 -0.6379  1.4040
 4528TIP3    H235144   6.001   3.807   7.869  0.0318  3.3334 -0.2301
 4529TIP3   OH235145   3.768   5.947   8.735 -0.1562 -0.6824  1.2364
 4529TIP3    H135146   3.679   5.912   8.721  0.3280 -0.6774 -3.8569
 4529TIP3    H235147   3.818   5.871   8.765 -1.3549 -1.4334  1.4389
 4530TIP3   OH235148   5.751   6.013   8.946 -0.0265 -0.1315  0.0882
 4530TIP3    H135149   5.722   6.076   8.880  0.1950 -0.8898 -0.7622
 4530TIP3    H235150   5.829   5.974   8.908 -0.2913 -1.0754  0.4890
 4531TIP3   OH235151   5.510   4.846   6.909 -0.0377 -0.7884 -0.5986
 4531TIP3    H135152   5.556   4.881   6.985 -1.7923  0.7621 -0.1822
 4531TIP3    H235153   5.438   4.795   6.945 -0.7998 -0.1602 -1.1962
 4532TIP3   OH235154   0.736   4.048   0.251 -0.1039 -0.4585 -0.4168
 4532TIP3    H135155   0.765   4.078   0.338 -0.0575  1.4461 -1.0420
 4532TIP3    H235156   0.814   4.010   0.211  0.1152 -0.4866  0.0315
 4533TIP3   OH235157   4.148   5.902   1.059 -0.1583  0.0459 -0.0048
 4533TIP3    H135158   4.106   5.824   1.095 -2.1634  1.3668  0.7389
 4533TIP3    H235159   4.076   5.950   1.017  0.9909  1.5239 -0.3632
 4534TIP3   OH235160   5.775   0.899   1.542 -0.3175 -0.0467  0.2604
 4534TIP3    H135161   5.756   0.912   1.635  1.5441 -0.7534  0.7766
 4534TIP3    H235162   5.743   0.811   1.522 -1.1419  0.2823  0.0930
 4535TIP3   OH235163   0.743   4.156   8.974  0.1533  0.1907 -0.6251
 4535TIP3    H135164   0.745   4.167   8.879 -1.4577 -1.9340 -0.9749
 4535TIP3    H235165   0.817   4.098   8.992 -0.8206 -1.1827 -0.9124
 4536TIP3   OH235166   1.508   1.142   0.781  0.2294  0.1843  0.4642
 4536TIP3    H135167   1.469   1.201   0.846  0.7788 -0.4621  1.4046
 4536TIP3    H235168   1.567   1.197   0.731  1.9826  0.1693  2.3868
 4537TIP3   OH235169   4.693   6.130   1.097 -0.1917  0.6306 -0.2635
 4537TIP3    H135170   4.679   6.069   1.024 -1.4424 -0.6944  1.0250
 4537TIP3    H235171   4.784   6.115   1.123 -0.0987  0.2478 -0.7808
 4538TIP3   OH235172   0.238   5.111   8.307 -0.2342  0.3609  0.4055
 4538TIP3    H135173   0.172   5.104   8.376 -1.2590 -1.3818 -0.6767
 4538TIP3    H235174   0.187   5.122   8.226  0.9270  2.1811 -0.1477
 4539TIP3   OH235175   5.889   0.817   2.351  0.6809  0.4271  0.0097
 4539TIP3    H135176   5.900   0.802   2.445  0.8757  0.6370  0.0226
 4539TIP3    H235177   5.887   0.730   2.313  0.1949  0.3321  0.2540
 4540TIP3   OH235178   5.372   4.097   8.384  0.0802 -0.0146  0.1486
 4540TIP3    H135179   5.465   4.088   8.402  0.1271  0.6413  0.2736
 4540TIP3    H235180   5.354   4.036   8.313  0.6046 -0.1478  0.1328
 4541TIP3   OH235181   2.493   6.400   1.516 -0.3519  0.5416  0.5603
 4541TIP3    H135182   2.410   6.419   1.473 -1.1091 -0.0937  1.6944
 4541TIP3    H235183   2.480   6.317   1.560  1.3655 -0.2972 -0.3927
 4542TIP3   OH235184   1.097   0.167   0.505 -0.3120  0.3171  0.7204
 4542TIP3    H135185   1.067   0.120   0.583  1.0996  1.7617  2.2120
 4542TIP3    H235186   1.181   0.127   0.483 -1.3978 -1.1163 -1.0666
 4543TIP3   OH235187   2.105   3.379   8.376 -0.5581 -0.1947  0.4509
 4543TIP3    H135188   2.016   3.345   8.386 -0.2343 -0.5326  2.7384
 4543TIP3    H235189   2.107   3.458   8.430  1.1914 -1.6720  2.8017
 4544TIP3   OH235190   4.769   3.112   7.424 -0.1017  0.4141 -0.0948
 4544TIP3    H135191   4.781   3.033   7.478  0.1249  1.4892  1.5163
 4544TIP3    H235192   4.728   3.080   7.344  0.3364 -1.3933  0.3357
 4545TIP3   OH235193   0.262   5.712   2.512  0.4269  0.2640  0.5025
 4545TIP3    H135194   0.337   5.771   2.520  1.1425 -0.5979  0.3019
 4545TIP3    H235195   0.292   5.629   2.550 -0.6738  0.1083  1.1055
 4546TIP3   OH235196   1.142   4.605   8.507 -0.5028 -0.2274 -0.1472
 4546TIP3    H135197   1.106   4.517   8.498  0.5375 -0.6744 -0.0802
 4546TIP3    H235198   1.114   4.633   8.594 -0.3671 -0.7235  0.0607
 4547TIP3   OH235199   3.566   0.572   7.601  0.2476  0.4932 -0.0674
 4547TIP3    H135200   3.529   0.486   7.577  0.8661 -0.1259  1.0975
 4547TIP3    H235201   3.545   0.628   7.527 -2.5937  0.0596  0.3012
 4548TIP3   OH235202   3.901   0.212   0.682 -0.2607  0.2588 -0.1464
 4548TIP3    H135203   3.921   0.260   0.762 -0.0299  0.0418 -0.0722
 4548TIP3    H235204   3.987   0.187   0.647 -0.3813 -2.4576  1.2411
 4549TIP3   OH235205   1.312   0.074   0.395 -0.0849 -0.0819  0.2898
 4549TIP3    H135206   1.301  -0.015   0.360  0.3468 -0.7562  1.7883
 4549TIP3    H235207   1.342   0.126   0.320  1.2277 -1.5585 -0.2653
 4550TIP3   OH235208   2.574   0.894   8.089  0.6204 -0.1890  0.0716
 4550TIP3    H135209   2.538   0.983   8.080  0.4897 -0.2492 -0.0129
 4550TIP3    H235210   2.669   0.907   8.096  0.6080 -0.0474 -0.0165
 4551TIP3   OH235211   3.214   1.950   1.994  0.5227 -0.0228  0.0451
 4551TIP3    H135212   3.222   2.029   2.047 -2.0695  0.6142 -0.4022
 4551TIP3    H235213   3.156   1.893   2.044  3.0546 -2.1359  0.7985
 4552TIP3   OH235214   5.726   2.579   8.895  0.3073  0.7208  0.4525
 4552TIP3    H135215   5.693   2.668   8.889  0.5181  0.7750  0.0463
 4552TIP3    H235216   5.731   2.549   8.804  2.1239  0.9903  0.4347
 4553TIP3   OH235217   1.267   2.248   7.844 -0.4055 -0.0136  0.0951
 4553TIP3    H135218   1.286   2.311   7.774  1.0576 -0.5050  0.0156
 4553TIP3    H235219   1.270   2.299   7.924  0.4001  0.1102 -0.0024
 4554TIP3   OH235220   3.117   3.034   9.019 -0.2217 -0.3544  0.1377
 4554TIP3    H135221   3.138   3.045   8.926  0.3507  1.4054  0.4344
 4554TIP3    H235222   3.089   3.121   9.047  0.1707 -0.7255  1.7511
 4555TIP3   OH235223   1.871   5.104   9.486 -0.1758  0.6342 -0.1677
 4555TIP3    H135224   1.779   5.082   9.499 -0.0239  0.6741  1.0272
 4555TIP3    H235225   1.877   5.196   9.510  0.2233  0.5680 -0.0056
 4556TIP3   OH235226   1.967   4.977   2.574  0.6770  0.0568 -0.3697
 4556TIP3    H135227   2.049   4.929   2.569  0.1616 -0.7417 -2.4331
 4556TIP3    H235228   1.901   4.910   2.593  0.3529  0.5153  0.1635
 4557TIP3   OH235229   6.362   5.079   9.555  0.3417 -0.0170  0.6087
 4557TIP3    H135230   6.342   4.985   9.551 -0.9644 -0.1068  4.5995
 4557TIP3    H235231   6.301   5.119   9.493 -1.7012 -1.5827  1.4872
 4558TIP3   OH235232   2.486   1.463   2.637  0.5851 -0.7302  0.5834
 4558TIP3    H135233   2.550   1.525   2.671  0.1067  0.2526 -0.2297
 4558TIP3    H235234   2.514   1.446   2.547  1.2213 -2.4281  1.0746
 4559TIP3   OH235235   3.105   0.564   8.606 -0.4838 -0.2468  0.3697
 4559TIP3    H135236   3.041   0.567   8.677  1.6499  2.2399  2.4289
 4559TIP3    H235237   3.088   0.643   8.555  0.7059  0.3236  0.8116
 4560TIP3   OH235238   3.238   4.648   8.234  0.0099 -0.4369 -0.1411
 4560TIP3    H135239   3.256   4.699   8.155 -0.4004  2.3175  1.3915
 4560TIP3    H235240   3.166   4.589   8.209 -0.3716  0.6226 -1.7185
 4561TIP3   OH235241   6.479   1.165   9.373  0.0800 -0.1397  0.2890
 4561TIP3    H135242   6.413   1.178   9.305 -1.1372  0.3515  1.5198
 4561TIP3    H235243   6.511   1.076   9.359  1.2901  0.6129 -2.1193
 4562TIP3   OH235244   4.549   3.121   1.721 -0.1771  0.3337 -0.1335
 4562TIP3    H135245   4.477   3.057   1.724  0.1922 -0.2590 -2.5100
 4562TIP3    H235246   4.599   3.104   1.801 -0.7675 -1.5635 -0.1225
 4563TIP3   OH235247   0.583   3.802   2.234 -0.5649  0.1497  0.6228
 4563TIP3    H135248   0.503   3.800   2.286 -0.6423 -0.5665  0.4798
 4563TIP3    H235249   0.580   3.723   2.181 -1.0421  1.4305 -1.3338
 4564TIP3   OH235250   5.234   5.298   8.219  0.5185  0.0223  0.7046
 4564TIP3    H135251   5.184   5.323   8.297  0.4385  1.1948  0.3010
 4564TIP3    H235252   5.196   5.351   8.149 -0.7846 -2.4766 -0.6034
 4565TIP3   OH235253   5.251   4.450   7.438 -0.2019 -0.4115  0.7279
 4565TIP3    H135254   5.228   4.535   7.476 -0.3797 -0.7085  1.2865
 4565TIP3    H235255   5.269   4.394   7.513  0.2028 -0.7894  0.3477
 4566TIP3   OH235256   4.701   0.498   9.484 -0.1709 -0.1618 -0.7306
 4566TIP3    H135257   4.767   0.429   9.491 -1.8594 -1.7765  0.1546
 4566TIP3    H235258   4.687   0.527   9.574  0.4837  1.3641 -1.0840
 4567TIP3   OH235259   2.734   2.424   0.145 -0.5776  0.2465 -0.6877
 4567TIP3    H135260   2.648   2.398   0.179 -0.2599  0.0480 -0.0261
 4567TIP3    H235261   2.766   2.347   0.098 -2.0311  1.2278 -3.5809
 4568TIP3   OH235262   2.702   0.047   2.087  0.2546  0.5819 -0.1062
 4568TIP3    H135263   2.694   0.004   2.173  1.4189 -1.1202 -0.7946
 4568TIP3    H235264   2.640   0.001   2.031  1.5460 -0.2971 -0.8695
 4569TIP3   OH235265   5.026   4.531   0.142 -0.0571 -0.1923 -0.1833
 4569TIP3    H135266   5.028   4.558   0.050 -0.6064  0.2102 -0.0874
 4569TIP3    H235267   5.003   4.438   0.140 -1.6387  0.1664 -0.4209
 4570TIP3   OH235268   2.222   5.665   1.228  0.4607 -0.0987 -0.1180
 4570TIP3    H135269   2.150   5.681   1.167  0.6604 -0.5066 -0.4675
 4570TIP3    H235270   2.180   5.652   1.312  0.2064  0.8652 -0.0869
 4571TIP3   OH235271   3.924   2.765   8.401  0.3885 -0.2294  0.1398
 4571TIP3    H135272   4.010   2.803   8.383 -0.2736  1.2598 -0.0632
 4571TIP3    H235273   3.885   2.753   8.314  0.3814 -0.8917  0.2317
 4572TIP3   OH235274   1.964   0.645   0.201 -0.1848  0.0461 -0.8872
 4572TIP3    H135275   1.983   0.553   0.219 -0.5764 -0.1504 -1.4374
 4572TIP3    H235276   1.956   0.650   0.106 -1.9129  0.2772 -0.7664
 4573TIP3   OH235277   2.920   2.109   7.757 -0.3852  0.4632  0.7759
 4573TIP3    H135278   3.010   2.141   7.753 -0.4446  0.5413 -0.5053
 4573TIP3    H235279   2.928   2.014   7.770 -0.0875  0.3905  0.1285
 4574TIP3   OH235280   4.357   6.069   8.489 -0.3156 -0.1495 -0.0578
 4574TIP3    H135281   4.432   6.090   8.545  1.6137 -1.7891 -1.8692
 4574TIP3    H235282   4.370   6.122   8.410 -1.3612 -0.0721 -0.1976
 4575TIP3   OH235283   5.936   6.190   1.005 -0.3040  0.1469  0.4300
 4575TIP3    H135284   5.934   6.221   0.915 -0.7426 -0.2227  0.3106
 4575TIP3    H235285   6.028   6.193   1.029 -0.2911  1.2345  0.3176
 4576TIP3   OH235286   1.444   0.199   8.851 -0.1270 -0.0972  0.4472
 4576TIP3    H135287   1.351   0.206   8.832  0.1686 -1.8878 -2.2294
 4576TIP3    H235288   1.449   0.144   8.929 -1.2904  0.3106  0.8252
 4577TIP3   OH235289   4.392   3.229   7.941  0.0361 -0.2458  0.3801
 4577TIP3    H135290   4.369   3.236   7.848  0.0998 -0.7986  0.3169
 4577TIP3    H235291   4.365   3.141   7.965  1.6369 -0.7567  0.4293
 4578TIP3   OH235292   6.406   6.343   1.852 -0.3361 -0.3676 -0.4324
 4578TIP3    H135293   6.434   6.260   1.891  0.5832 -0.3469 -1.0299
 4578TIP3    H235294   6.416   6.331   1.758 -0.4531  0.3380 -0.5446
 4579TIP3   OH235295   2.024   5.582   1.764  0.1209 -0.6274 -0.4140
 4579TIP3    H135296   1.975   5.506   1.793 -0.1942 -0.7017 -1.1219
 4579TIP3    H235297   2.018   5.645   1.837 -0.7199 -0.7705 -0.3570
 4580TIP3   OH235298   0.533   2.902   0.125  0.5902  0.0532 -0.1046
 4580TIP3    H135299   0.586   2.865   0.195  1.3171  0.6380 -0.3442
 4580TIP3    H235300   0.594   2.952   0.071 -0.2850  1.1527 -0.1038
 4581TIP3   OH235301   2.001   2.343   8.710  0.5532 -0.1973  0.3090
 4581TIP3    H135302   1.969   2.431   8.693 -0.4306 -0.7787 -0.9762
 4581TIP3    H235303   2.070   2.355   8.775  0.6357  1.5456 -0.0577
 4582TIP3   OH235304   4.171   0.337   0.563  0.0361  0.4315  0.0428
 4582TIP3    H135305   4.260   0.302   0.572 -0.0614  0.4146  1.0672
 4582TIP3    H235306   4.169   0.373   0.475  1.5081  1.6551  0.4671
 4583TIP3   OH235307   2.313   4.683   2.401  0.6173 -0.0739 -0.5504
 4583TIP3    H135308   2.364   4.624   2.456 -1.1846  1.2007  2.7587
 4583TIP3    H235309   2.252   4.627   2.355  0.4900 -1.0289  0.7297
 4584TIP3   OH235310   0.647   4.645   7.922  0.7866  0.9008  0.4833
 4584TIP3    H135311   0.657   4.603   7.836  0.2602  0.7285  0.5055
 4584TIP3    H235312   0.652   4.739   7.903  2.6464  0.8466  0.5160
 4585TIP3   OH235313   5.941   5.366   0.210 -0.0059 -0.7211  0.2066
 4585TIP3    H135314   5.898   5.297   0.161 -0.7735 -1.9687  2.5089
 4585TIP3    H235315   5.974   5.324   0.289  2.7852  0.8248  0.0237
 4586TIP3   OH235316   5.165   5.866   0.574  0.1578 -0.2319  0.1866
 4586TIP3    H135317   5.259   5.848   0.584  0.0241 -0.7645  0.5266
 4586TIP3    H235318   5.151   5.945   0.625  0.4303 -0.1244  0.0995
 4587TIP3   OH235319   2.765   2.053   1.227 -0.0605 -0.4055  0.2658
 4587TIP3    H135320   2.722   2.119   1.171  0.9769  1.5726  1.6756
 4587TIP3    H235321   2.739   2.077   1.316  1.1138 -1.3513  0.8880
 4588TIP3   OH235322   1.387   4.464   2.124 -0.0046  0.0950  0.5994
 4588TIP3    H135323   1.446   4.401   2.166 -1.7439 -2.2409 -0.2430
 4588TIP3    H235324   1.329   4.493   2.195  0.5613  0.4770  0.9147
 4589TIP3   OH235325   1.299   4.619   0.529 -0.4537  0.7320 -0.0520
 4589TIP3    H135326   1.308   4.707   0.493  1.8130  1.2637  1.6375
 4589TIP3    H235327   1.323   4.627   0.621  1.1745 -1.8418 -0.1356
 4590TIP3   OH235328   3.756   1.644   0.684  0.2290  0.2846 -0.3049
 4590TIP3    H135329   3.810   1.618   0.609  0.0864  1.1268 -0.7050
 4590TIP3    H235330   3.817   1.647   0.757  0.6093  0.6193 -0.6271
 4591TIP3   OH235331   4.029   5.509   9.500 -0.0992 -0.2202  0.0659
 4591TIP3    H135332   4.005   5.475   9.586 -0.8328 -2.5240 -0.9681
 4591TIP3    H235333   4.024   5.433   9.442  2.7965  0.7084 -1.5902
 4592TIP3   OH235334   0.943   5.036   0.953  0.0820  0.6425  0.4701
 4592TIP3    H135335   0.923   4.959   0.901 -0.4410  2.8638 -2.9054
 4592TIP3    H235336   0.865   5.051   1.006  0.2150 -1.0588  1.2211
 4593TIP3   OH235337   4.096   4.352   0.967 -0.1819 -0.0635  0.8390
 4593TIP3    H135338   4.150   4.285   1.010 -1.4187 -1.3093  0.4999
 4593TIP3    H235339   4.088   4.421   1.033  0.6411 -0.4828  1.4036
 4594TIP3   OH235340   4.960   4.941   1.263  0.0668 -0.2147 -0.1475
 4594TIP3    H135341   5.039   4.894   1.292  0.6880  0.4721 -0.6928
 4594TIP3    H235342   4.981   5.033   1.276 -1.2618 -0.0663  1.1979
 4595TIP3   OH235343   0.936   0.256   7.487 -0.3957  0.4080 -0.0897
 4595TIP3    H135344   1.019   0.214   7.511 -0.6102 -0.5131 -0.9049
 4595TIP3    H235345   0.931   0.247   7.392 -0.9341  1.4073 -0.1699
 4596TIP3   OH235346   4.378   4.976   0.883  0.6445 -0.5258  0.2116
 4596TIP3    H135347   4.394   5.036   0.811 -0.4857 -0.7402 -0.2353
 4596TIP3    H235348   4.396   4.889   0.847 -0.6453 -0.7004 -0.0623
 4597TIP3   OH235349   1.215   3.087   8.214  0.4003  0.5858  0.9278
 4597TIP3    H135350   1.151   3.054   8.150  2.3096  1.6612 -1.7163
 4597TIP3    H235351   1.214   3.182   8.202  3.2439  0.5615 -0.0313
 4598TIP3   OH235352   3.091   0.837   8.491  0.0209 -0.1667  0.5733
 4598TIP3    H135353   3.089   0.896   8.415 -1.5063 -1.4744 -0.4650
 4598TIP3    H235354   3.072   0.894   8.565  0.3745  0.9462 -0.1607
 4599TIP3   OH235355   1.376   2.112   0.656  0.4825 -0.0808 -0.2628
 4599TIP3    H135356   1.445   2.129   0.720 -0.0150 -1.7727  0.7929
 4599TIP3    H235357   1.373   2.016   0.649  0.6541  0.0240 -2.9878
 4600TIP3   OH235358   1.550   5.391   1.452 -0.5934 -0.2809 -0.4960
 4600TIP3    H135359   1.627   5.448   1.446 -1.0229  0.9224  2.9899
 4600TIP3    H235360   1.575   5.313   1.403  1.8843  1.0211 -1.5232
 4601TIP3   OH235361   5.208   4.627   1.683 -0.4209  0.5662 -0.4188
 4601TIP3    H135362   5.248   4.560   1.738  1.2335  0.3946 -1.7209
 4601TIP3    H235363   5.118   4.597   1.669 -0.1496 -0.6103  0.2131
 4602TIP3   OH235364   5.542   6.196   9.318  0.0278  0.0989  0.1407
 4602TIP3    H135365   5.535   6.112   9.272  0.0628 -0.8701  1.8196
 4602TIP3    H235366   5.454   6.214   9.350  0.3620 -0.2257  1.2986
 4603TIP3   OH235367   2.606   1.929   9.276  0.4998 -0.8434 -0.1580
 4603TIP3    H135368   2.571   1.973   9.353 -1.2118 -2.6283  0.1765
 4603TIP3    H235369   2.680   1.878   9.308 -0.4284 -1.8672  0.4347
 4604TIP3   OH235370   1.429   0.461   0.654 -0.0155  0.0674  0.1263
 4604TIP3    H135371   1.418   0.457   0.559 -1.5542  0.5430  0.2522
 4604TIP3    H235372   1.370   0.530   0.682  0.4178 -0.0636  1.4432
 4605TIP3   OH235373   2.145   1.475   2.362  0.6577 -0.2627  0.7005
 4605TIP3    H135374   2.074   1.412   2.372  2.1069 -2.0001  0.5796
 4605TIP3    H235375   2.115   1.533   2.292 -0.8341 -0.6210  0.9963
 4606TIP3   OH235376   6.439   1.893   7.111  0.2854  0.1992  0.2584
 4606TIP3    H135377   6.419   1.802   7.132  0.1794  0.5604  1.7944
 4606TIP3    H235378   6.413   1.903   7.019 -0.4208 -1.1032  0.3050
 4607TIP3   OH235379   2.051   5.740   9.499  0.4211  0.2380 -0.2036
 4607TIP3    H135380   2.070   5.743   9.405  3.6862  0.6964  0.3750
 4607TIP3    H235381   2.014   5.826   9.519  0.5360  0.4589 -0.9052
 4608TIP3   OH235382   1.965   3.704   7.968 -0.8420  0.9686 -0.2114
 4608TIP3    H135383   2.057   3.691   7.992 -1.3913  0.0141  1.5290
 4608TIP3    H235384   1.964   3.787   7.921  1.0498  0.5153 -1.1574
 4609TIP3   OH235385   2.069   4.179   1.051  0.4100  0.9123  0.0206
 4609TIP3    H135386   2.131   4.249   1.028  0.3500  0.8228 -0.4300
 4609TIP3    H235387   1.983   4.221   1.044  0.3650  0.7451 -0.4274
 4610TIP3   OH235388   2.766   2.088   0.302  0.0984 -0.6103  0.2939
 4610TIP3    H135389   2.824   2.055   0.370 -0.9107 -0.7785  1.1128
 4610TIP3    H235390   2.809   2.067   0.220  2.0842  0.9362  0.8652
 4611TIP3   OH235391   4.873   1.541   8.875  0.6465  0.1615  0.0283
 4611TIP3    H135392   4.841   1.630   8.862 -1.9207 -0.5460  0.8352
 4611TIP3    H235393   4.821   1.508   8.949  1.3487 -2.0809 -0.4039
 4612TIP3   OH235394   3.818   5.405   2.671 -0.0497 -0.1171 -0.0075
 4612TIP3    H135395   3.900   5.377   2.630 -0.3387 -1.7069  0.4630
 4612TIP3    H235396   3.801   5.491   2.632  2.0792  0.4821  0.2374
 4613TIP3   OH235397   0.200   3.817   8.044 -0.6265 -0.1701 -0.1405
 4613TIP3    H135398   0.143   3.771   7.981 -1.5822  0.7476  0.0293
 4613TIP3    H235399   0.286   3.819   8.002 -1.7056  2.4375 -2.5388
 4614TIP3   OH235400   4.868   0.048   8.106 -0.1530  0.0151 -0.2615
 4614TIP3    H135401   4.836   0.067   8.018 -1.8372  0.4198  0.3847
 4614TIP3    H235402   4.794   0.071   8.163  0.2985 -1.7427  1.1335
 4615TIP3   OH235403   0.249   2.977   9.585  0.6683 -0.5651  0.0820
 4615TIP3    H135404   0.256   3.072   9.595  1.8189 -0.7937  1.7250
 4615TIP3    H235405   0.276   2.961   9.495 -2.0448  0.8561 -1.1395
 4616TIP3   OH235406   0.745   0.059   7.402 -0.8280 -0.5686 -0.1080
 4616TIP3    H135407   0.812   0.118   7.437 -1.7790  1.0440 -0.8640
 4616TIP3    H235408   0.701   0.111   7.335 -2.0299 -2.0147 -0.4859
 4617TIP3   OH235409   0.009   3.115   8.260 -0.0921  0.6326 -0.3782
 4617TIP3    H135410   0.051   3.185   8.310  1.7366 -0.7678  0.1478
 4617TIP3    H235411   0.059   3.111   8.178  1.4821 -1.6338  0.6079
 4618TIP3   OH235412   1.502   3.635   8.386 -0.1294 -0.4595 -0.6518
 4618TIP3    H135413   1.509   3.728   8.365  0.7552  0.1874  2.1438
 4618TIP3    H235414   1.589   3.599   8.368 -0.0154 -0.3889 -0.2507
 4619TIP3   OH235415   2.487   3.060   0.683  0.0623  0.4931 -0.2635
 4619TIP3    H135416   2.511   3.145   0.720 -0.3892  1.0556 -1.2330
 4619TIP3    H235417   2.395   3.049   0.705  0.2910 -0.0685  0.4491
 4620TIP3   OH235418   1.622   2.462   2.163  0.6951 -0.2674  0.0615
 4620TIP3    H135419   1.671   2.534   2.203  1.2107 -0.2870 -0.5135
 4620TIP3    H235420   1.582   2.501   2.085 -0.3245 -0.2203  0.5929
 4621TIP3   OH235421   4.278   2.569   7.292  0.2233  0.4309 -0.2310
 4621TIP3    H135422   4.295   2.586   7.200 -1.4657  2.2131 -0.3068
 4621TIP3    H235423   4.354   2.520   7.323 -0.6028 -3.2687 -3.2906
 4622TIP3   OH235424   1.751   3.796   0.165 -0.6312 -0.6243  0.1388
 4622TIP3    H135425   1.779   3.815   0.075 -1.7845  0.2908 -0.0517
 4622TIP3    H235426   1.804   3.853   0.220  0.2296 -1.3395  0.0780
 4623TIP3   OH235427   5.338   1.609   8.816  0.2287  0.1868  0.1869
 4623TIP3    H135428   5.417   1.560   8.793 -1.2088 -1.6287 -1.2183
 4623TIP3    H235429   5.273   1.542   8.836 -0.7159  1.6328  2.4549
 4624TIP3   OH235430   1.980   1.821   8.622 -0.3980  0.2732 -0.2766
 4624TIP3    H135431   2.073   1.816   8.602 -0.1699  2.3608  0.1000
 4624TIP3    H235432   1.943   1.740   8.586  1.3289  0.0323 -1.6148
 4625TIP3   OH235433   1.084   3.951   7.979  0.4412 -0.1679  0.7994
 4625TIP3    H135434   1.012   3.903   8.021  1.4096 -1.6543  0.8260
 4625TIP3    H235435   1.144   3.883   7.949  1.5515  1.0190  0.2379
 4626TIP3   OH235436   1.628   6.325   9.123  0.4117  0.2378 -0.0726
 4626TIP3    H135437   1.626   6.280   9.039 -0.2921 -1.2425  0.6911
 4626TIP3    H235438   1.625   6.255   9.188 -0.1282  1.3780  1.1915
 4627TIP3   OH235439   0.500   6.159   0.306  0.4302 -0.3251  0.2532
 4627TIP3    H135440   0.540   6.191   0.387  0.3403 -0.2207  0.2579
 4627TIP3    H235441   0.572   6.121   0.257  0.6378  0.3690  0.0122
 4628TIP3   OH235442   5.379   6.477   0.348  0.4073 -0.5840  0.0361
 4628TIP3    H135443   5.368   6.570   0.365 -0.5491 -0.5173 -0.8223
 4628TIP3    H235444   5.362   6.435   0.432  0.8380  0.0137  0.4277
 4629TIP3   OH235445   6.261   2.501   1.107  0.1614  0.3789  0.3936
 4629TIP3    H135446   6.236   2.537   1.023 -0.0879  2.1638  1.1992
 4629TIP3    H235447   6.181   2.503   1.159  0.3985 -0.3533  0.8068
 4630TIP3   OH235448   4.754   4.494   0.168 -0.2968  0.7761  0.7263
 4630TIP3    H135449   4.689   4.564   0.164  0.8263  1.8810  0.9441
 4630TIP3    H235450   4.838   4.540   0.166  0.5551 -0.6793 -1.7374
 4631TIP3   OH235451   6.155   5.513   8.953  0.3189 -0.1214  0.0890
 4631TIP3    H135452   6.218   5.564   8.902 -0.3746  0.0468 -0.6194
 4631TIP3    H235453   6.131   5.570   9.026 -0.0937  0.3937 -0.4370
 4632TIP3   OH235454   6.210   1.146   7.674  0.7013  0.4383  0.3316
 4632TIP3    H135455   6.238   1.081   7.610  1.5656  0.9884  0.1354
 4632TIP3    H235456   6.245   1.115   7.757 -0.7048 -0.4512  0.6157
 4633TIP3   OH235457   2.851   6.123   8.300 -0.1058 -0.6276 -0.3898
 4633TIP3    H135458   2.894   6.042   8.329 -1.7817 -1.3197  0.3284
 4633TIP3    H235459   2.778   6.093   8.246  0.3195  0.5139 -1.6704
 4634TIP3   OH235460   4.584   6.266   0.344 -0.5269  0.5674  0.3358
 4634TIP3    H135461   4.627   6.280   0.428 -0.2638 -0.4766  0.3899
 4634TIP3    H235462   4.491   6.270   0.363 -0.5118 -1.3152  1.0175
 4635TIP3   OH235463   0.638   6.295   9.034  0.1936 -0.2147 -0.0291
 4635TIP3    H135464   0.680   6.372   8.996  0.2684  0.2363  0.9379
 4635TIP3    H235465   0.614   6.322   9.123 -0.5999 -1.0169  0.0171
 4636TIP3   OH235466   4.275   5.397   1.871  0.0396 -0.0470 -0.2397
 4636TIP3    H135467   4.348   5.458   1.861 -0.9339  1.0750 -0.6448
 4636TIP3    H235468   4.200   5.452   1.893 -1.0841 -0.9669 -1.5877
 4637TIP3   OH235469   1.452   2.978   1.608  0.2829  0.5821  0.4649
 4637TIP3    H135470   1.428   3.057   1.561  1.3746  0.9639  0.5328
 4637TIP3    H235471   1.547   2.974   1.602  0.2868 -0.4087  0.9728
 4638TIP3   OH235472   2.294   3.798   0.330  0.1192 -0.0832 -0.4233
 4638TIP3    H135473   2.231   3.774   0.262  1.0412  0.1271 -1.3741
 4638TIP3    H235474   2.378   3.768   0.296  0.5380 -0.4242  0.8638
 4639TIP3   OH235475   1.538   0.689   1.069  0.3684  0.2114 -0.7702
 4639TIP3    H135476   1.583   0.647   0.995 -1.4076  2.3159 -3.2026
 4639TIP3    H235477   1.588   0.769   1.085  0.6797 -0.1796  0.2820
 4640TIP3   OH235478   6.396   4.725   8.101  0.8358 -0.3496  0.4091
 4640TIP3    H135479   6.323   4.779   8.068  1.2102 -0.7896 -1.2724
 4640TIP3    H235480   6.371   4.702   8.190 -1.1510 -0.5740 -0.1589
 4641TIP3   OH235481   3.215   5.297   0.561 -0.0472  0.2108 -0.6982
 4641TIP3    H135482   3.238   5.372   0.505  0.6252 -0.0853 -0.8285
 4641TIP3    H235483   3.137   5.326   0.608 -1.2757  0.0993 -2.5406
 4642TIP3   OH235484   2.725   3.279   9.591  0.2623 -0.0730 -0.1083
 4642TIP3    H135485   2.796   3.224   9.623 -0.7107 -1.1467  0.2882
 4642TIP3    H235486   2.735   3.362   9.638  1.4366 -0.0772 -0.3228
 4643TIP3   OH235487   1.838   0.452   7.840 -0.2016  0.1846  0.3416
 4643TIP3    H135488   1.821   0.382   7.903  0.8664 -1.3301 -0.9714
 4643TIP3    H235489   1.827   0.411   7.755  0.2261  1.6935 -0.4744
 4644TIP3   OH235490   0.830   4.787   0.803  0.5814  0.1428 -0.3265
 4644TIP3    H135491   0.762   4.747   0.857  1.3334  0.0573  0.5764
 4644TIP3    H235492   0.827   4.738   0.721  0.0906 -0.3822 -0.0015
 4645TIP3   OH235493   1.588   3.256   1.426 -0.0714 -0.1074  0.1971
 4645TIP3    H135494   1.642   3.240   1.348  0.5671  1.1412  0.3710
 4645TIP3    H235495   1.504   3.285   1.391  0.1011  0.1174 -0.0350
 4646TIP3   OH235496   6.515   2.936   8.938  0.2260 -0.5935  0.1664
 4646TIP3    H135497   6.530   2.948   9.032 -0.3981 -1.6311  0.4154
 4646TIP3    H235498   6.502   3.024   8.904 -2.9798 -0.3752  1.6531
 4647TIP3   OH235499   1.736   4.765   7.515  0.6322  0.0982  0.1530
 4647TIP3    H135500   1.667   4.705   7.486  0.4203  0.5110 -0.2094
 4647TIP3    H235501   1.818   4.720   7.491  0.4655  0.6704 -1.6467
 4648TIP3   OH235502   4.316   0.045   2.094 -0.9318 -0.9966  0.0648
 4648TIP3    H135503   4.351   0.012   2.177  0.6333  1.6226  0.5852
 4648TIP3    H235504   4.360  -0.007   2.027  3.5383  1.3498  0.7348
 4649TIP3   OH235505   3.123   5.895   2.609  0.3918  0.0859 -0.3884
 4649TIP3    H135506   3.103   5.822   2.668  1.2272 -0.4267 -0.7182
 4649TIP3    H235507   3.052   5.958   2.623 -1.6902 -1.7821 -1.7599
 4650TIP3   OH235508   2.901   3.499   2.261  0.0120 -0.2065 -0.2822
 4650TIP3    H135509   2.905   3.409   2.227 -2.0236 -0.5144  0.1719
 4650TIP3    H235510   2.989   3.516   2.296  0.8914 -1.4307 -1.7857
 4651TIP3   OH235511   0.843   3.072   1.126 -0.3226  0.5158  0.2774
 4651TIP3    H135512   0.827   3.023   1.045  1.0588  1.4351 -0.6059
 4651TIP3    H235513   0.764   3.059   1.178 -0.3579 -1.9144 -0.2642
 4652TIP3   OH235514   3.876   2.659   1.476 -0.0319  0.2997 -0.0923
 4652TIP3    H135515   3.810   2.697   1.417 -1.0421 -0.4715  0.5012
 4652TIP3    H235516   3.951   2.719   1.470  0.0754  0.0167 -2.4720
 4653TIP3   OH235517   3.065   1.642   6.599 -0.1387  0.0160  0.3275
 4653TIP3    H135518   3.134   1.585   6.633  0.3055 -0.1201 -0.7441
 4653TIP3    H235519   2.992   1.632   6.660  0.2073 -1.1247  0.5681
 4654TIP3   OH235520   1.407   0.863   0.901  0.2066 -0.1003  0.0988
 4654TIP3    H135521   1.464   0.921   0.951 -0.9030 -0.3202  1.7015
 4654TIP3    H235522   1.434   0.775   0.928  0.1604 -0.2513 -0.3436
 4655TIP3   OH235523   3.549   0.001   1.700 -0.1601 -0.5816  0.0890
 4655TIP3    H135524   3.625   0.059   1.708 -2.1535  2.2765 -0.4392
 4655TIP3    H235525   3.584  -0.079   1.660  3.2573 -1.0355  3.3725
 4656TIP3   OH235526   2.997   3.071   8.763 -0.4494 -0.0095  0.1056
 4656TIP3    H135527   2.933   3.013   8.721  1.1477 -2.0318  0.3145
 4656TIP3    H235528   2.978   3.158   8.727 -2.7553 -0.6653 -0.4366
 4657TIP3   OH235529   1.483   3.316   8.311 -0.2549  0.0427  0.2229
 4657TIP3    H135530   1.547   3.316   8.240  0.8030 -0.4015  1.1496
 4657TIP3    H235531   1.476   3.225   8.337 -3.1385 -0.3243 -1.4478
 4658TIP3   OH235532   1.403   2.591   0.770  0.2407  0.2296 -0.4377
 4658TIP3    H135533   1.338   2.527   0.800  0.2388 -0.6389 -2.1801
 4658TIP3    H235534   1.487   2.550   0.787  0.2682  0.2983 -0.4100
 4659TIP3   OH235535   3.234   1.354   0.389 -0.1437  0.0790 -0.6992
 4659TIP3    H135536   3.219   1.328   0.298 -0.2540  1.0862 -0.9718
 4659TIP3    H235537   3.176   1.297   0.440  0.4382 -0.9866 -1.1877
 4660TIP3   OH235538   2.166   2.030   9.224 -0.0655 -0.4278 -0.0762
 4660TIP3    H135539   2.111   2.092   9.176  1.6718  0.1954 -1.3333
 4660TIP3    H235540   2.177   2.071   9.310 -0.4871  0.0713 -0.2486
 4661TIP3   OH235541   5.095   4.595   7.838  0.3014  0.1725 -0.0761
 4661TIP3    H135542   5.094   4.499   7.827  0.7893  0.1624 -0.0270
 4661TIP3    H235543   5.096   4.629   7.748 -0.6033  0.1460 -0.1075
 4662TIP3   OH235544   4.814   2.814   7.481 -0.5508  0.0506 -0.0888
 4662TIP3    H135545   4.884   2.808   7.545  0.0822 -0.2262 -0.7839
 4662TIP3    H235546   4.857   2.844   7.401 -1.5837  1.9529  0.0054
 4663TIP3   OH235547   2.926   3.178   7.260  0.3083 -0.0586  0.3967
 4663TIP3    H135548   2.877   3.118   7.203 -0.0314  0.0781  0.5445
 4663TIP3    H235549   2.974   3.235   7.199  0.1780 -0.1036  0.2510
 4664TIP3   OH235550   0.997   3.739   1.617  0.4290 -0.0309  0.2030
 4664TIP3    H135551   0.993   3.761   1.524  0.7599  0.0273  0.2003
 4664TIP3    H235552   0.925   3.788   1.656  0.3404  0.0111 -0.0091
 4665TIP3   OH235553   1.679   2.797   7.862  0.3630 -0.8877  0.2250
 4665TIP3    H135554   1.608   2.740   7.831 -0.0853 -0.3274  0.1999
 4665TIP3    H235555   1.723   2.745   7.930 -0.0317 -1.2709  0.1960
 4666TIP3   OH235556   3.697   3.488   7.305 -0.2877 -0.0427  0.2969
 4666TIP3    H135557   3.764   3.556   7.313  0.2428 -0.5080 -0.1400
 4666TIP3    H235558   3.725   3.418   7.363 -0.3681 -0.2588  0.0792
 4667TIP3   OH235559   6.469   3.340   7.775 -0.5716 -0.2306  0.0495
 4667TIP3    H135560   6.378   3.346   7.748 -0.3274 -1.2062 -1.1005
 4667TIP3    H235561   6.518   3.338   7.693  0.2469 -2.8965  0.5203
 4668TIP3   OH235562   0.665   0.509   2.046 -0.3540 -0.1766  0.5643
 4668TIP3    H135563   0.641   0.433   1.993 -2.7134  0.3818  0.7334
 4668TIP3    H235564   0.634   0.488   2.134 -3.1274  1.7868  0.1814
 4669TIP3   OH235565   5.005   0.175   1.738  0.1130  0.2059 -0.1188
 4669TIP3    H135566   4.941   0.161   1.668  0.4214  0.0851 -0.3824
 4669TIP3    H235567   4.953   0.200   1.814 -0.1545  1.7960 -0.7695
 4670TIP3   OH235568   1.647   2.474   0.852 -0.1561  0.3088  0.3587
 4670TIP3    H135569   1.700   2.397   0.870 -0.2708  0.0602 -0.3554
 4670TIP3    H235570   1.679   2.508   0.769 -3.1091 -1.6702 -1.7832
 4671TIP3   OH235571   4.435   1.340   0.345  0.3652 -0.2894  0.2421
 4671TIP3    H135572   4.489   1.389   0.283  0.5075 -0.5159  0.1857
 4671TIP3    H235573   4.430   1.252   0.308 -0.4824 -0.1356 -0.0301
 4672TIP3   OH235574   1.411   1.946   7.175 -0.1888 -0.1222 -0.4534
 4672TIP3    H135575   1.478   1.881   7.153  0.8956  0.4735  0.9786
 4672TIP3    H235576   1.382   1.979   7.090  2.1946  0.4711 -1.1124
 4673TIP3   OH235577   2.197   3.830   8.289 -0.1740  0.2187  0.3856
 4673TIP3    H135578   2.238   3.815   8.203  0.0317  0.9703  0.3387
 4673TIP3    H235579   2.235   3.913   8.319  0.4506 -0.4819  1.6180
 4674TIP3   OH235580   4.617   4.328   7.356  0.0107  0.1447 -0.4680
 4674TIP3    H135581   4.657   4.279   7.285  1.1146  0.8485 -0.3427
 4674TIP3    H235582   4.614   4.266   7.429  0.7202  0.0335 -0.5277
 4675TIP3   OH235583   4.395   3.284   9.400  0.3385 -0.2905 -0.0046
 4675TIP3    H135584   4.369   3.262   9.490 -2.0961 -0.9920 -0.7839
 4675TIP3    H235585   4.402   3.200   9.356  2.2458  0.0076 -0.3517
 4676TIP3   OH235586   5.064   4.217   0.448  0.2282 -0.1318  0.0376
 4676TIP3    H135587   5.117   4.295   0.461 -3.8698  2.9782  0.1599
 4676TIP3    H235588   5.034   4.193   0.536  0.0043 -0.7277 -0.1922
 4677TIP3   OH235589   6.385   0.950   1.418 -0.1546  0.2669 -0.2353
 4677TIP3    H135590   6.446   0.890   1.375 -1.0896 -1.8798  1.2328
 4677TIP3    H235591   6.419   1.037   1.399  2.3243 -0.7718 -0.9611
 4678TIP3   OH235592   5.871   5.964   0.407  0.5238  0.1195 -0.0182
 4678TIP3    H135593   5.962   5.987   0.422  1.3057 -0.4580 -3.1846
 4678TIP3    H235594   5.874   5.887   0.350 -1.9747 -0.1629  0.0825
 4679TIP3   OH235595   0.397   4.239   0.307  0.2598 -0.1166  0.5029
 4679TIP3    H135596   0.383   4.232   0.401 -1.7235  0.9567  0.3285
 4679TIP3    H235597   0.372   4.329   0.285  0.4205 -0.4261 -1.0925
 4680TIP3   OH235598   5.353   5.001   0.016 -0.1706  0.0195  0.5360
 4680TIP3    H135599   5.334   4.908   0.004 -0.1942  0.2431 -1.4251
 4680TIP3    H235600   5.308   5.045  -0.056 -0.8535  1.6631  1.9015
 4681TIP3   OH235601   2.587   5.237   8.872  0.0205  0.0362  0.0732
 4681TIP3    H135602   2.542   5.307   8.920  1.2269  0.4292  0.6720
 4681TIP3    H235603   2.519   5.171   8.857 -0.1927 -0.7279  3.5439
 4682TIP3   OH235604   4.799   0.597   2.610  0.6305 -0.1412  0.1785
 4682TIP3    H135605   4.850   0.672   2.580 -1.7285  1.5615  0.1508
 4682TIP3    H235606   4.712   0.633   2.628 -0.2055 -2.6175  1.5479
 4683TIP3   OH235607   2.002   5.875   2.448 -0.0720  0.5255  0.0006
 4683TIP3    H135608   2.028   5.889   2.539 -0.1233  2.2863 -0.2200
 4683TIP3    H235609   1.915   5.835   2.454  1.6557 -3.6216  0.7074
 4684TIP3   OH235610   5.503   5.261   2.215 -0.2925  0.6153 -0.3806
 4684TIP3    H135611   5.463   5.253   2.302  0.7499 -0.0689  0.0570
 4684TIP3    H235612   5.568   5.330   2.224  0.9913 -0.5894 -0.1329
 4685TIP3   OH235613   1.179   1.231   7.502 -0.4429 -0.3406  0.6156
 4685TIP3    H135614   1.164   1.144   7.536 -0.5926 -0.6048 -0.1050
 4685TIP3    H235615   1.100   1.252   7.452  1.0218 -1.3374 -2.3593
 4686TIP3   OH235616   4.531   2.378   8.055 -0.8166 -0.0211 -0.5439
 4686TIP3    H135617   4.612   2.370   8.106 -0.8997  1.8172 -0.0228
 4686TIP3    H235618   4.461   2.380   8.121 -1.1312  0.0836 -0.8766
 4687TIP3   OH235619   1.085   1.851   8.131  0.2097  0.3087  0.2378
 4687TIP3    H135620   1.077   1.845   8.036  1.4952  2.7673 -0.0973
 4687TIP3    H235621   1.121   1.765   8.156 -0.3733 -0.4798 -1.4299
 4688TIP3   OH235622   5.895   0.378   8.720  0.1228 -0.0401 -0.1183
 4688TIP3    H135623   5.811   0.345   8.689  0.3948 -1.0541  0.2000
 4688TIP3    H235624   5.928   0.309   8.777  1.6912 -0.1661 -1.1192
 4689TIP3   OH235625   0.674   4.791   8.783 -0.0109 -0.4782  0.2277
 4689TIP3    H135626   0.611   4.781   8.712  1.1885  0.4637 -1.0271
 4689TIP3    H235627   0.698   4.884   8.782  1.2640 -0.7725  0.7542
 4690TIP3   OH235628   0.436   0.712   2.490 -0.8079  0.2694  0.0136
 4690TIP3    H135629   0.422   0.675   2.577  0.9060 -0.7504 -0.1100
 4690TIP3    H235630   0.400   0.647   2.430 -2.6818  1.3135 -0.0638
 4691TIP3   OH235631   0.745   1.295   9.132  0.1120 -0.3226 -0.1103
 4691TIP3    H135632   0.652   1.285   9.154  0.5202  1.3112  2.7409
 4691TIP3    H235633   0.754   1.386   9.106  0.7070 -0.8566 -1.9361
 4692TIP3   OH235634   6.106   3.841   8.003  0.1793  0.4332 -0.6483
 4692TIP3    H135635   6.053   3.898   8.059  0.7228  0.9838 -0.6755
 4692TIP3    H235636   6.144   3.900   7.938  0.2405 -0.0670 -1.0706
 4693TIP3   OH235637   2.296   0.982   7.632 -0.7834  0.0832  0.2885
 4693TIP3    H135638   2.328   1.001   7.720  1.0793 -0.1374 -0.3074
 4693TIP3    H235639   2.292   1.067   7.589  0.5715 -0.0274 -0.1118
 4694TIP3   OH235640   5.482   1.238   9.381 -0.0794  0.2817  0.5291
 4694TIP3    H135641   5.574   1.264   9.375  0.0962 -0.3981  0.2447
 4694TIP3    H235642   5.464   1.192   9.300 -0.4782 -0.1977  0.8824
 4695TIP3   OH235643   5.492   2.229   0.585  0.2379 -0.3999 -0.1024
 4695TIP3    H135644   5.484   2.280   0.504  2.3276  1.8520  0.9804
 4695TIP3    H235645   5.551   2.281   0.640 -1.5016 -1.5778  3.0998
 4696TIP3   OH235646   0.861   5.297   7.781 -0.0984  0.0036  0.2949
 4696TIP3    H135647   0.779   5.297   7.731  0.2031 -0.3495 -0.2149
 4696TIP3    H235648   0.928   5.272   7.717  0.1653 -1.4546  1.0922
 4697TIP3   OH235649   0.122   3.336   7.544 -0.1064  0.2838 -0.1417
 4697TIP3    H135650   0.145   3.259   7.596  0.5283  0.4461 -0.1647
 4697TIP3    H235651   0.176   3.328   7.465 -1.7811 -0.4755 -1.2519
 4698TIP3   OH235652   3.642   0.873   8.119  0.1938  0.0741 -0.4822
 4698TIP3    H135653   3.626   0.918   8.202  0.0411  0.0387 -0.4923
 4698TIP3    H235654   3.658   0.782   8.144  0.3191  0.0977 -0.4771
 4699TIP3   OH235655   6.180   1.886   1.857 -0.1835 -0.0706 -0.0674
 4699TIP3    H135656   6.094   1.926   1.872  0.2805  0.7311  0.5536
 4699TIP3    H235657   6.229   1.952   1.809 -0.2968 -1.0109 -1.5407
 4700TIP3   OH235658   5.513   6.510   9.419  0.8614 -0.6123 -0.0851
 4700TIP3    H135659   5.545   6.431   9.376  2.3361  0.3343 -0.8250
 4700TIP3    H235660   5.479   6.480   9.503  1.7137 -1.9912 -0.2079
 4701TIP3   OH235661   2.638   6.241   9.417 -0.3231  0.2604  0.2817
 4701TIP3    H135662   2.612   6.149   9.418  0.3026  0.0599  1.8090
 4701TIP3    H235663   2.734   6.239   9.421 -0.1965  0.9965 -1.4412
 4702TIP3   OH235664   3.408   3.530   7.280 -0.0407 -0.3714  0.1161
 4702TIP3    H135665   3.396   3.491   7.194  0.8819 -4.4985  1.6158
 4702TIP3    H235666   3.502   3.525   7.297 -0.1996  0.3169  1.4182
 4703TIP3   OH235667   1.881   3.451   1.569 -0.5631  0.4110 -0.1515
 4703TIP3    H135668   1.968   3.488   1.586 -0.5382  0.0128  0.6441
 4703TIP3    H235669   1.832   3.522   1.527 -0.2427  1.0682  0.5570
 4704TIP3   OH235670   0.446   0.234   0.717 -0.4577 -0.1120  0.2358
 4704TIP3    H135671   0.532   0.202   0.688  0.8649  1.4339  2.1054
 4704TIP3    H235672   0.466   0.318   0.759 -2.7334 -0.2535  1.7427
 4705TIP3   OH235673   3.854   1.842   6.747  0.1865 -0.2123 -0.1280
 4705TIP3    H135674   3.949   1.829   6.748  0.3949  1.1478  0.2985
 4705TIP3    H235675   3.842   1.929   6.708 -0.9312 -0.6656 -0.8286
 4706TIP3   OH235676   3.000   2.255   0.671 -0.2108  0.3743  0.1199
 4706TIP3    H135677   3.008   2.190   0.741  2.6221  1.5741  1.0350
 4706TIP3    H235678   2.917   2.300   0.690 -0.3354 -0.4510  1.6927
 4707TIP3   OH235679   4.036   5.515   1.919  0.3733 -0.2530  0.1555
 4707TIP3    H135680   4.006   5.464   1.843  3.6642 -1.4806 -0.4790
 4707TIP3    H235681   4.017   5.606   1.896 -1.0402 -0.7717 -0.9308
 4708TIP3   OH235682   1.496   4.656   1.205 -0.2280 -0.1212 -0.9078
 4708TIP3    H135683   1.415   4.684   1.248  1.9374  0.5718  3.1739
 4708TIP3    H235684   1.493   4.560   1.211 -1.0482 -0.1486 -1.5124
 4709TIP3   OH235685   6.504   5.386   1.978 -0.4410 -0.3639  0.0840
 4709TIP3    H135686   6.497   5.291   1.974 -1.2629 -0.2656 -1.5521
 4709TIP3    H235687   6.474   5.408   2.066 -0.4201 -1.6006  0.4194
 4710TIP3   OH235688   6.213   5.199   0.750  0.2045 -0.3003 -0.9041
 4710TIP3    H135689   6.255   5.117   0.723  0.1964 -0.9148  0.8151
 4710TIP3    H235690   6.227   5.203   0.845 -0.4513  1.3235 -0.8403
 4711TIP3   OH235691   0.187   2.277   7.917 -0.9583 -0.3442  0.5745
 4711TIP3    H135692   0.194   2.321   7.832 -1.0492 -0.1852  0.6485
 4711TIP3    H235693   0.239   2.197   7.907 -0.7283 -0.1827  0.4639
 4712TIP3   OH235694   0.636   4.804   1.046 -0.5117 -0.5805 -0.2315
 4712TIP3    H135695   0.665   4.713   1.040 -1.1644 -0.8098  0.0354
 4712TIP3    H235696   0.556   4.808   0.994  0.4968  0.2824 -1.8116
 4713TIP3   OH235697   6.365   4.746   0.026 -0.0323 -0.0685 -0.0802
 4713TIP3    H135698   6.372   4.668  -0.029  1.1325  0.4295 -0.6830
 4713TIP3    H235699   6.449   4.752   0.071 -0.3311  0.5062  0.4199
 4714TIP3   OH235700   4.086   5.366   1.194  0.0300  0.0627  0.3970
 4714TIP3    H135701   4.173   5.337   1.221  1.2269  1.4645 -1.6831
 4714TIP3    H235702   4.079   5.337   1.103 -2.2662 -1.1619  0.8772
 4715TIP3   OH235703   1.694   0.250   8.446  0.2339  0.3869  0.4694
 4715TIP3    H135704   1.625   0.303   8.405 -1.6072 -3.0598 -1.2717
 4715TIP3    H235705   1.693   0.277   8.538 -1.1381  2.6837 -0.1307
 4716TIP3   OH235706   6.249   4.448   8.363  0.3278  0.1960 -0.5754
 4716TIP3    H135707   6.229   4.373   8.419  0.3731  0.1719 -0.5906
 4716TIP3    H235708   6.184   4.443   8.293  0.1995  0.2932 -0.4623
 4717TIP3   OH235709   1.870   3.498   0.914  0.3479  0.1744 -0.2528
 4717TIP3    H135710   1.866   3.575   0.857  0.2065 -0.1892 -0.7422
 4717TIP3    H235711   1.902   3.532   0.998 -1.5640  1.1097  0.1562
 4718TIP3   OH235712   5.951   2.123   8.123 -0.0057 -0.3792  0.2411
 4718TIP3    H135713   5.880   2.064   8.148 -0.5763  0.0599 -0.3107
 4718TIP3    H235714   6.010   2.068   8.071  0.1584 -0.7872  0.8459
 4719TIP3   OH235715   5.997   4.296   0.659 -0.2397  0.5658 -0.3150
 4719TIP3    H135716   5.936   4.242   0.710  0.9291  0.5311  1.1060
 4719TIP3    H235717   6.082   4.281   0.701  0.6286  1.1781 -1.7964
 4720TIP3   OH235718   1.032   4.306   1.762  0.4585 -0.0511  0.3774
 4720TIP3    H135719   1.003   4.392   1.792  1.1747  0.4134 -0.2351
 4720TIP3    H235720   1.064   4.262   1.841 -0.6909 -0.0851  0.8382
 4721TIP3   OH235721   5.503   3.101   8.801  0.1220  0.2769  0.0769
 4721TIP3    H135722   5.463   3.091   8.888  0.2486  2.6592  0.4891
 4721TIP3    H235723   5.491   3.194   8.781  0.5237 -0.1347 -2.2685
 4722TIP3   OH235724   0.187   5.672   0.575  0.2227  0.2229  1.0269
 4722TIP3    H135725   0.124   5.732   0.534  0.1427  0.4648  1.4952
 4722TIP3    H235726   0.255   5.730   0.610 -0.5414  0.1608  2.6800
 4723TIP3   OH235727   5.561   0.265   1.032 -0.4963  0.4256  0.6644
 4723TIP3    H135728   5.568   0.342   1.089  1.8724 -0.8841  2.3583
 4723TIP3    H235729   5.483   0.219   1.063 -0.9495  1.2932  0.8150
 4724TIP3   OH235730   5.806   0.540   0.194 -0.0668 -0.2850  0.5893
 4724TIP3    H135731   5.757   0.464   0.161 -1.4126  1.0259 -0.5824
 4724TIP3    H235732   5.807   0.601   0.120  0.7084  0.9674  1.6043
 4725TIP3   OH235733   5.323   0.487   8.695 -0.5546 -0.5983 -0.9843
 4725TIP3    H135734   5.251   0.461   8.637 -0.5971  0.3244 -1.3663
 4725TIP3    H235735   5.283   0.549   8.756 -0.0496  0.0588 -1.3125
 4726TIP3   OH235736   4.116   1.522   9.543 -0.8888  0.3169  0.1418
 4726TIP3    H135737   4.150   1.434   9.559  1.1641  1.5175  3.3209
 4726TIP3    H235738   4.186   1.566   9.494 -1.6965  0.4066 -0.9899
 4727TIP3   OH235739   3.538   3.720   0.951  0.4751  0.0183  0.3066
 4727TIP3    H135740   3.508   3.630   0.963 -0.5267  0.4655  1.3377
 4727TIP3    H235741   3.477   3.773   1.003  0.2735  1.4294 -1.2622
 4728TIP3   OH235742   1.329   1.521   2.083 -0.3927 -0.4100  0.2667
 4728TIP3    H135743   1.407   1.467   2.075 -0.8246 -0.8651 -1.1721
 4728TIP3    H235744   1.284   1.512   1.999  0.1219  3.1563 -0.5409
 4729TIP3   OH235745   1.735   2.323   2.566  0.0458 -0.2183  0.4635
 4729TIP3    H135746   1.761   2.231   2.557 -0.3779 -0.3966  1.0144
 4729TIP3    H235747   1.647   2.327   2.528  0.2486  0.0626  0.0115
 4730TIP3   OH235748   4.211   1.653   1.109  0.2434  0.0341 -0.4660
 4730TIP3    H135749   4.194   1.636   1.017 -2.0669 -1.8713  0.2161
 4730TIP3    H235750   4.249   1.571   1.142 -2.4241 -0.7531  0.9725
 4731TIP3   OH235751   4.813   5.007   7.226 -0.4890  0.2513 -0.0921
 4731TIP3    H135752   4.773   5.001   7.312 -1.4745  0.5279 -0.5223
 4731TIP3    H235753   4.831   4.916   7.201 -1.0434  0.1115  0.0147
 4732TIP3   OH235754   5.233   0.238   8.140  0.2096  0.0573 -0.3836
 4732TIP3    H135755   5.147   0.277   8.126  0.8226  1.4484 -0.4023
 4732TIP3    H235756   5.226   0.194   8.225  0.4885  3.2393  1.4214
 4733TIP3   OH235757   1.365   5.958   2.556 -0.0151 -0.2480 -0.1302
 4733TIP3    H135758   1.336   6.014   2.484 -0.9357 -0.2688  0.2051
 4733TIP3    H235759   1.308   5.981   2.629 -0.8121 -2.0048 -0.1405
 4734TIP3   OH235760   2.282   1.363   8.215  0.3965 -0.2388  0.1891
 4734TIP3    H135761   2.364   1.412   8.204 -0.6913  1.9421  1.0739
 4734TIP3    H235762   2.261   1.373   8.308 -1.1807 -0.2179 -0.1493
 4735TIP3   OH235763   4.717   3.006   7.942 -0.2099  0.0084  0.2885
 4735TIP3    H135764   4.775   3.057   7.998  0.9374 -1.7098  0.7676
 4735TIP3    H235765   4.629   3.039   7.961  0.3494  0.8000  1.6482
 4736TIP3   OH235766   5.217   5.077   2.334  0.4862  0.4621 -0.6474
 4736TIP3    H135767   5.196   5.002   2.390 -0.3162  0.0448 -1.4724
 4736TIP3    H235768   5.300   5.052   2.292  1.4700  1.0790  0.8266
 4737TIP3   OH235769   0.395   6.433   0.438  0.1050 -0.2028 -0.2965
 4737TIP3    H135770   0.318   6.417   0.384 -0.1970 -0.9554  0.3277
 4737TIP3    H235771   0.402   6.528   0.443 -0.2635 -0.1284 -1.0861
 4738TIP3   OH235772   3.530   2.682   9.391 -0.4727  0.1998  0.3432
 4738TIP3    H135773   3.439   2.666   9.364 -0.6110  0.5964  0.5767
 4738TIP3    H235774   3.557   2.758   9.340  0.4788 -1.2460 -1.4243
 4739TIP3   OH235775   1.647   2.731   7.166 -0.7650  0.0773 -0.3196
 4739TIP3    H135776   1.593   2.766   7.095 -0.9501  0.0764 -0.1800
 4739TIP3    H235777   1.730   2.707   7.123 -0.4070  1.2340 -0.3107
 4740TIP3   OH235778   5.532   3.555   7.816 -0.1392 -0.5116  1.0560
 4740TIP3    H135779   5.494   3.635   7.852 -0.3770 -0.7064  1.2434
 4740TIP3    H235780   5.456   3.501   7.794 -0.0275 -0.1502 -0.3183
 4741TIP3   OH235781   0.888   0.698   9.470  1.0767 -0.3979 -1.0615
 4741TIP3    H135782   0.877   0.667   9.380  0.5542 -2.9123 -0.2151
 4741TIP3    H235783   0.823   0.649   9.520  1.1895  1.1263  0.6808
 4742TIP3   OH235784   5.696   5.171   0.382 -0.4712  0.4602  0.5055
 4742TIP3    H135785   5.791   5.161   0.380 -0.3571  1.3323 -1.8334
 4742TIP3    H235786   5.663   5.105   0.322 -1.0643  1.9809 -0.9378
 4743TIP3   OH235787   1.993   6.355   9.554  0.5695  0.1190  0.2086
 4743TIP3    H135788   1.991   6.357   9.459  0.0827 -3.8114 -0.0196
 4743TIP3    H235789   2.082   6.328   9.576  0.3360 -0.2431  0.7594
 4744TIP3   OH235790   3.252   4.734   9.427 -0.2935  0.2768  0.8950
 4744TIP3    H135791   3.242   4.755   9.334  1.1531  0.6863  0.7996
 4744TIP3    H235792   3.174   4.684   9.449  0.0614 -1.2406 -0.9507
 4745TIP3   OH235793   6.081   5.452   1.929 -0.0027 -0.0874  0.4444
 4745TIP3    H135794   6.145   5.435   1.859 -0.9067  0.9889 -0.6888
 4745TIP3    H235795   6.132   5.495   1.997  0.8835 -1.0777  0.4330
 4746TIP3   OH235796   4.653   3.075   8.358  0.5235 -0.2457 -0.0180
 4746TIP3    H135797   4.650   3.059   8.452  0.5536 -1.5737 -0.2104
 4746TIP3    H235798   4.648   3.170   8.349  3.9602  0.2351  1.4804
 4747TIP3   OH235799   6.021   3.191   0.434  0.3890 -0.0023 -0.0130
 4747TIP3    H135800   6.038   3.134   0.359 -0.5427 -0.4621  0.1001
 4747TIP3    H235801   6.097   3.249   0.440  1.5646 -1.5287  0.1417
 4748TIP3   OH235802   4.034   6.387   8.822  0.8298  0.5867 -0.5042
 4748TIP3    H135803   3.986   6.432   8.752  1.4273  1.5379 -0.3245
 4748TIP3    H235804   4.062   6.304   8.783  2.0111  1.5278 -1.7278
 4749TIP3   OH235805   4.642   4.993   7.809 -0.2256  0.0177  0.2046
 4749TIP3    H135806   4.718   4.984   7.752  0.6332  2.0120  0.9592
 4749TIP3    H235807   4.590   4.914   7.791 -0.3512  0.7695 -3.7931
 4750TIP3   OH235808   1.317   0.792   8.469  0.4902  0.3497 -0.4296
 4750TIP3    H135809   1.248   0.765   8.409  0.2118 -1.7518  0.7130
 4750TIP3    H235810   1.304   0.736   8.546  3.9234 -0.7497 -0.4771
 4751TIP3   OH235811   4.669   0.752   9.355 -0.5835 -0.4996  0.1026
 4751TIP3    H135812   4.647   0.687   9.422 -1.0574 -1.2968 -0.8030
 4751TIP3    H235813   4.760   0.776   9.374 -1.4407  1.1895  2.5456
 4752TIP3   OH235814   3.952   5.246   8.141  0.0091  0.0957 -0.6297
 4752TIP3    H135815   3.887   5.301   8.099  0.4047  2.8523  2.0106
 4752TIP3    H235816   4.017   5.229   8.073 -1.0490  1.3619 -2.0226
 4753TIP3   OH235817   2.842   1.902   8.008  0.4582  0.0432 -0.5311
 4753TIP3    H135818   2.757   1.867   8.036  0.8111 -0.4881 -0.0877
 4753TIP3    H235819   2.858   1.861   7.923  0.6002 -0.4179 -0.2827
 4754TIP3   OH235820   0.175   6.507   2.978 -0.0700  0.1475 -0.0839
 4754TIP3    H135821   0.171   6.592   2.934  0.6254 -0.3945 -1.2128
 4754TIP3    H235822   0.247   6.461   2.936  0.8895 -0.2656  1.8840
 4755TIP3   OH235823   5.677   5.470   2.315 -0.6066 -0.5520 -0.9180
 4755TIP3    H135824   5.768   5.477   2.342 -0.7793 -0.2330 -0.4133
 4755TIP3    H235825   5.627   5.465   2.397 -0.8014 -4.5470 -1.0924
 4756TIP3   OH235826   5.032   3.192   1.397 -0.5264  0.3764 -0.2377
 4756TIP3    H135827   4.943   3.170   1.370 -0.3324 -0.5465 -0.1491
 4756TIP3    H235828   5.025   3.213   1.490 -0.5996 -0.0467 -0.1457
 4757TIP3   OH235829   3.368   5.457   1.709 -0.7276  0.2245 -0.0124
 4757TIP3    H135830   3.402   5.402   1.780  3.6140 -0.5805 -2.3598
 4757TIP3    H235831   3.406   5.544   1.726 -0.9935  0.4329 -0.4772
 4758TIP3   OH235832   0.767   1.085   1.061  0.4731  0.3815 -0.3985
 4758TIP3    H135833   0.706   1.047   0.997 -0.1916  0.1048  0.3848
 4758TIP3    H235834   0.759   1.179   1.048 -0.2872  0.3607 -0.1742
 4759TIP3   OH235835   1.549   6.333   9.416 -0.3114  0.4613 -0.5715
 4759TIP3    H135836   1.535   6.258   9.358 -1.9670  1.0452 -0.9855
 4759TIP3    H235837   1.610   6.301   9.482  0.3775 -0.7134 -1.7151
 4760TIP3   OH235838   6.023   2.527   8.215 -0.3498  0.0711 -0.0984
 4760TIP3    H135839   6.050   2.452   8.161  0.3479  2.0026 -2.6549
 4760TIP3    H235840   6.105   2.571   8.237 -0.7319 -0.0294  1.6766
 4761TIP3   OH235841   1.362   0.499   1.898 -0.2707  0.5282 -0.7031
 4761TIP3    H135842   1.301   0.573   1.895 -1.5262 -0.5107 -2.8285
 4761TIP3    H235843   1.418   0.518   1.973 -0.9335  3.3065 -0.8049
 4762TIP3   OH235844   1.920   5.521   0.300 -0.3665  0.4733  0.8700
 4762TIP3    H135845   1.980   5.539   0.227 -1.0505 -0.8859 -0.0819
 4762TIP3    H235846   1.966   5.456   0.353 -0.1545  0.9547  1.2805
 4763TIP3   OH235847   5.247   3.742   0.677 -0.0242 -0.0936 -0.7337
 4763TIP3    H135848   5.267   3.655   0.643  0.2867 -0.3166  0.0153
 4763TIP3    H235849   5.152   3.741   0.689  0.0505 -0.5480 -0.1364
 4764TIP3   OH235850   1.609   4.868   9.310  0.1959 -0.0415 -0.2183
 4764TIP3    H135851   1.685   4.824   9.271  0.8706  1.9051 -1.2163
 4764TIP3    H235852   1.641   4.902   9.393 -0.1857 -0.9445  0.3144
 4765TIP3   OH235853   0.824   2.251   0.259  0.0403  0.6683 -0.2578
 4765TIP3    H135854   0.843   2.166   0.220 -1.5222  0.7965 -1.4026
 4765TIP3    H235855   0.884   2.258   0.333  0.2973 -1.3554 -0.2316
 4766TIP3   OH235856   4.615   5.445   7.938  0.0139  0.2448 -0.0708
 4766TIP3    H135857   4.666   5.373   7.901 -0.7630  0.3489 -1.4139
 4766TIP3    H235858   4.593   5.500   7.863  0.8125  2.0698  0.9411
 4767TIP3   OH235859   4.007   1.609   1.693 -0.1399 -0.0180 -0.3761
 4767TIP3    H135860   3.960   1.592   1.774 -0.9907 -1.0208 -1.0631
 4767TIP3    H235861   4.088   1.558   1.701 -0.2196 -0.1070 -0.1454
 4768TIP3   OH235862   3.971   4.794   0.835  0.1321 -0.5762 -0.6395
 4768TIP3    H135863   3.897   4.832   0.786  0.5061 -0.4195 -1.0923
 4768TIP3    H235864   3.982   4.707   0.796 -0.7388 -1.1869  0.4125
 4769TIP3   OH235865   3.721   4.609   7.829 -0.3016 -0.9256  0.0772
 4769TIP3    H135866   3.685   4.602   7.917 -0.7807 -1.7893 -0.1860
 4769TIP3    H235867   3.736   4.519   7.801  1.4437 -0.6252 -0.0822
 4770TIP3   OH235868   5.650   2.766   0.988  0.1364 -0.0233  0.3884
 4770TIP3    H135869   5.587   2.724   1.046  0.9624 -0.2571  1.1326
 4770TIP3    H235870   5.597   2.822   0.931 -0.7110 -0.0196  1.1692
 4771TIP3   OH235871   6.103   0.868   2.675  0.6646 -0.6426 -0.4935
 4771TIP3    H135872   6.009   0.851   2.667  0.5305 -2.3793  2.9811
 4771TIP3    H235873   6.115   0.953   2.633 -2.6262  0.0439 -0.3271
 4772TIP3   OH235874   0.683   1.898   2.017  0.0007 -0.0271 -0.1954
 4772TIP3    H135875   0.720   1.843   1.949  0.7942 -0.0405  0.2392
 4772TIP3    H235876   0.649   1.836   2.082 -0.1729 -0.0083 -0.2667
 4773TIP3   OH235877   3.892   4.486   1.901  0.0254  0.2910  0.6012
 4773TIP3    H135878   3.837   4.542   1.846  1.2351  0.4196 -0.5208
 4773TIP3    H235879   3.848   4.400   1.899 -0.2449  0.4366 -0.1156
 4774TIP3   OH235880   3.772   5.583   2.051  0.7145  0.3195 -0.0132
 4774TIP3    H135881   3.825   5.521   2.101  0.3742 -0.7302 -0.9104
 4774TIP3    H235882   3.763   5.659   2.109  1.4148 -0.3290  0.9838
 4775TIP3   OH235883   4.556   3.748   1.081  0.2665  0.3851  0.4611
 4775TIP3    H135884   4.532   3.727   1.172  0.3050  0.6919  0.5412
 4775TIP3    H235885   4.485   3.711   1.029 -0.1951  0.9518  0.6722
 4776TIP3   OH235886   6.470   0.381   8.627 -0.0279 -0.3062  0.0365
 4776TIP3    H135887   6.425   0.465   8.625  1.0450  0.3337  1.0485
 4776TIP3    H235888   6.404   0.317   8.603 -1.3719  0.6365  1.0625
 4777TIP3   OH235889   5.812   0.490   9.040  0.2208 -0.1734 -0.3216
 4777TIP3    H135890   5.883   0.525   8.986 -0.1101  1.5078  0.2771
 4777TIP3    H235891   5.852   0.477   9.126 -0.1315  0.5949 -0.0341
 4778TIP3   OH235892   6.367   2.810   7.744  0.1223  0.1679 -0.4863
 4778TIP3    H135893   6.402   2.882   7.692 -0.2760  0.8265  0.1468
 4778TIP3    H235894   6.312   2.852   7.809  0.7919 -0.6208  0.6236
 4779TIP3   OH235895   0.070   0.504   7.740 -0.0956 -0.4074 -0.2921
 4779TIP3    H135896   0.160   0.531   7.725 -0.9724  2.0741 -1.7097
 4779TIP3    H235897   0.047   0.451   7.663 -0.5665  1.1601 -1.2864
 4780TIP3   OH235898   5.073   0.023   0.969  0.4553  0.5724 -0.1080
 4780TIP3    H135899   5.026   0.039   0.887  2.1982  2.1055 -0.8812
 4780TIP3    H235900   5.050   0.097   1.025 -0.6905 -0.4455  0.8416
 4781TIP3   OH235901   4.568   3.720   8.905 -0.4623 -0.1085 -0.1332
 4781TIP3    H135902   4.593   3.803   8.865  0.5857 -0.3087  0.0765
 4781TIP3    H235903   4.585   3.655   8.836 -2.9856 -0.0074 -0.9580
 4782TIP3   OH235904   6.524   6.280   0.967  0.5204 -0.1281  0.5559
 4782TIP3    H135905   6.572   6.356   0.935 -1.4325  2.0458  2.4622
 4782TIP3    H235906   6.466   6.314   1.035 -1.7869 -3.0245  0.2588
 4783TIP3   OH235907   6.343   1.097   2.217  0.2528 -0.0114 -0.3035
 4783TIP3    H135908   6.369   1.073   2.128 -1.7986  3.9942 -2.2541
 4783TIP3    H235909   6.398   1.173   2.238  1.1818 -1.2858  2.2597
 4784TIP3   OH235910   3.331   2.793   8.032  0.3900 -0.0882 -0.6260
 4784TIP3    H135911   3.267   2.859   8.060 -1.7298 -2.5300  0.7584
 4784TIP3    H235912   3.393   2.787   8.105  0.1022 -0.2043 -0.3909
 4785TIP3   OH235913   2.238   3.006   0.760  0.7491 -0.1785 -0.5629
 4785TIP3    H135914   2.184   2.965   0.828 -0.9825  2.2542 -0.3147
 4785TIP3    H235915   2.232   2.947   0.685 -0.6607 -0.9779  0.1422
 4786TIP3   OH235916   4.267   0.874   1.760 -0.0192 -0.1745 -0.2041
 4786TIP3    H135917   4.219   0.856   1.679 -0.0885 -0.4211 -0.1081
 4786TIP3    H235918   4.326   0.946   1.737 -1.3414  1.0159  0.0374
 4787TIP3   OH235919   2.486   2.531   8.645  0.6149 -0.1419  0.1243
 4787TIP3    H135920   2.568   2.517   8.599 -0.2265 -1.0946 -1.1738
 4787TIP3    H235921   2.458   2.618   8.618  0.8580 -0.0982  0.0092
 4788TIP3   OH235922   1.984   0.933   2.162  0.4451 -0.5563 -0.0126
 4788TIP3    H135923   2.002   0.985   2.240 -0.7960 -0.0924 -0.0156
 4788TIP3    H235924   2.038   0.974   2.094 -1.4817  1.6255 -0.3325
 4789TIP3   OH235925   5.347   5.601   0.419  0.2747 -0.2024  0.1676
 4789TIP3    H135926   5.306   5.516   0.403 -0.7907  0.2898  0.2231
 4789TIP3    H235927   5.429   5.579   0.464  0.0767 -1.2041  0.0760
 4790TIP3   OH235928   5.009   3.195   1.685 -0.4538 -0.1997  0.1372
 4790TIP3    H135929   4.927   3.243   1.700 -1.2801 -1.6267  0.3150
 4790TIP3    H235930   4.987   3.104   1.704  0.5909 -0.9418 -1.9664
 4791TIP3   OH235931   6.220   2.745   7.027  0.0399 -0.0761  0.4542
 4791TIP3    H135932   6.154   2.709   7.085 -0.2532  2.0702  1.5642
 4791TIP3    H235933   6.300   2.698   7.050 -0.3648 -0.2121  1.6487
 4792TIP3   OH235934   4.224   2.951   7.695 -0.1260  0.2886  0.0365
 4792TIP3    H135935   4.193   2.902   7.619 -0.0623  0.1564  0.0956
 4792TIP3    H235936   4.163   3.024   7.704  0.8962  1.3587 -1.2414
 4793TIP3   OH235937   0.530   4.495   8.876  0.3599  0.2454  0.0677
 4793TIP3    H135938   0.547   4.570   8.932 -0.7050  1.4025 -1.1102
 4793TIP3    H235939   0.526   4.421   8.937  0.8000  1.2180  1.3212
 4794TIP3   OH235940   5.553   4.079   1.378  0.3890 -0.1423 -0.3751
 4794TIP3    H135941   5.569   4.095   1.285 -2.3018 -0.1264 -0.9014
 4794TIP3    H235942   5.607   4.144   1.423  2.5314 -0.8057 -1.8166
 4795TIP3   OH235943   3.424   1.884   7.712 -0.2632  0.7000  0.1893
 4795TIP3    H135944   3.452   1.800   7.746  0.2462  1.1664  0.9405
 4795TIP3    H235945   3.504   1.928   7.684 -0.6998  0.0548 -2.3599
 4796TIP3   OH235946   1.987   3.693   1.218  0.0207  0.1259  0.1574
 4796TIP3    H135947   2.076   3.676   1.185 -0.3024 -0.4848 -0.4365
 4796TIP3    H235948   1.963   3.777   1.179 -0.2899 -0.5065 -1.0881
 4797TIP3   OH235949   3.305   0.112   0.895  0.1032 -0.0148 -0.1656
 4797TIP3    H135950   3.252   0.186   0.864  0.6714  0.4117 -0.1297
 4797TIP3    H235951   3.311   0.126   0.990  1.7533  0.9315 -0.3776
 4798TIP3   OH235952   3.131   2.015   0.157  0.3675 -0.4066  0.3549
 4798TIP3    H135953   3.153   1.929   0.191  1.4313 -0.4909 -0.5162
 4798TIP3    H235954   3.106   2.065   0.235 -0.5362 -1.5571  0.8441
 4799TIP3   OH235955   6.099   2.825   8.811  0.5313  0.1595  0.3727
 4799TIP3    H135956   6.157   2.897   8.787  0.9396 -0.3753 -0.2660
 4799TIP3    H235957   6.096   2.769   8.733 -1.1389  0.3602  0.2487
 4800TIP3   OH235958   0.716   5.959   2.461  0.1984 -0.3625 -0.1475
 4800TIP3    H135959   0.725   5.877   2.413  1.4368  0.3688 -1.2347
 4800TIP3    H235960   0.734   5.936   2.552 -0.7030 -1.5083 -0.2376
 4801TIP3   OH235961   3.246   4.304   7.616 -0.0410  0.0018  0.3314
 4801TIP3    H135962   3.245   4.272   7.526 -2.0612 -0.0184  0.3225
 4801TIP3    H235963   3.266   4.397   7.608 -3.0833  0.6985 -0.4816
 4802TIP3   OH235964   2.592   0.486   1.235  0.5702  0.0587  0.2232
 4802TIP3    H135965   2.529   0.481   1.163  1.6590 -0.2980 -0.7367
 4802TIP3    H235966   2.564   0.562   1.286  0.3626  0.9643 -1.1744
 4803TIP3   OH235967   5.635   3.385   0.638  0.1420 -0.1597  0.1699
 4803TIP3    H135968   5.665   3.475   0.652 -1.0895  0.3535 -0.3622
 4803TIP3    H235969   5.646   3.371   0.544 -0.5279 -0.2292  0.0985
 4804TIP3   OH235970   3.542   0.829   0.406  0.1539  0.2720 -0.1558
 4804TIP3    H135971   3.506   0.788   0.328 -1.4192 -1.2603  1.3051
 4804TIP3    H235972   3.525   0.767   0.476  1.7459  1.4919  1.3958
 4805TIP3   OH235973   2.486   0.104   8.486  0.0575  0.3775 -0.4876
 4805TIP3    H135974   2.445   0.104   8.572 -1.2422  0.0695 -1.0834
 4805TIP3    H235975   2.482   0.195   8.457 -4.1200 -0.1477 -2.2646
 4806TIP3   OH235976   3.875   2.264   1.339  1.0482  0.0935  0.1432
 4806TIP3    H135977   3.835   2.337   1.292  2.0693  0.7939  0.3205
 4806TIP3    H235978   3.813   2.192   1.329 -0.2223  1.1126  0.3829
 4807TIP3   OH235979   5.868   3.883   1.229  0.2347  0.0749 -0.1911
 4807TIP3    H135980   5.874   3.877   1.325 -0.3632 -0.1695 -0.1684
 4807TIP3    H235981   5.951   3.923   1.203  0.9302 -0.9828  0.3292
 4808TIP3   OH235982   1.864   5.260   8.065 -0.2102 -0.0378  0.0291
 4808TIP3    H135983   1.794   5.201   8.040 -1.8431  2.4428 -1.6838
 4808TIP3    H235984   1.923   5.261   7.989  0.2718 -0.0849  0.3931
 4809TIP3   OH235985   3.544   4.822   7.836  0.1047 -0.3062 -0.5353
 4809TIP3    H135986   3.590   4.752   7.883  1.9422  1.4903  0.5160
 4809TIP3    H235987   3.528   4.786   7.749  0.0161 -2.4026  0.2935
 4810TIP3   OH235988   2.969   6.191   9.202  0.0952 -0.1083  0.5206
 4810TIP3    H135989   2.943   6.172   9.292 -1.1921 -0.0914  0.1700
 4810TIP3    H235990   3.025   6.117   9.176  0.0035 -0.3955  1.1340
 4811TIP3   OH235991   1.905   5.330   1.776 -0.4679 -0.2330  0.0172
 4811TIP3    H135992   1.984   5.294   1.735  0.2282  2.3493 -1.0878
 4811TIP3    H235993   1.840   5.259   1.769  0.4562 -0.9507 -3.0444
 4812TIP3   OH235994   3.618   4.075   2.248  0.6779 -0.1311  0.2378
 4812TIP3    H135995   3.591   4.015   2.178 -0.5773  1.8071 -1.0584
 4812TIP3    H235996   3.548   4.067   2.313  2.1762 -2.4270  1.7095
 4813TIP3   OH235997   6.087   1.769   0.197 -0.4570  0.2417  0.2081
 4813TIP3    H135998   6.122   1.791   0.284  0.3215 -0.2286  0.0273
 4813TIP3    H235999   6.090   1.673   0.194 -1.3988  0.2155  0.0306
 4814TIP3   OH236000   4.446   4.091   1.289 -0.0320  0.4225 -0.4211
 4814TIP3    H136001   4.525   4.038   1.282  1.4194  2.2566  1.0092
 4814TIP3    H236002   4.475   4.181   1.276 -1.4878  1.3562  1.9457
 4815TIP3   OH236003   1.594   5.053   9.511 -0.8806 -0.2859 -0.1433
 4815TIP3    H136004   1.600   5.129   9.569 -3.0872  0.8992 -1.3267
 4815TIP3    H236005   1.501   5.034   9.505 -0.3778 -3.2664  0.2383
 4816TIP3   OH236006   3.860   2.462   8.885 -0.2348 -0.2124  0.1640
 4816TIP3    H136007   3.792   2.443   8.949 -0.6688 -0.5997 -0.4055
 4816TIP3    H236008   3.844   2.400   8.814 -0.1026  0.5717 -0.5636
 4817TIP3   OH236009   2.692   5.993   8.866  0.2043 -0.4080  0.5799
 4817TIP3    H136010   2.721   6.054   8.799 -0.5642 -2.5471 -1.8378
 4817TIP3    H236011   2.773   5.953   8.898  0.4972 -0.2964 -0.0100
 4818TIP3   OH236012   5.696   0.089   9.068 -0.9471  0.2177  0.9241
 4818TIP3    H136013   5.684   0.000   9.103  1.1433  0.0855  1.4324
 4818TIP3    H236014   5.778   0.119   9.106 -0.0189  1.1892 -1.6477
 4819TIP3   OH236015   4.740   1.934   0.645 -0.2540  0.4790  0.2193
 4819TIP3    H136016   4.789   1.914   0.725  1.8447 -1.1959 -1.3543
 4819TIP3    H236017   4.662   1.879   0.650  0.4571 -0.5324  0.6233
 4820TIP3   OH236018   1.449   2.708   2.351  0.2321 -0.0770  0.4461
 4820TIP3    H136019   1.513   2.734   2.418  0.7647  0.5177 -0.2782
 4820TIP3    H236020   1.374   2.676   2.401  1.0220 -0.6430  1.3278
 4821TIP3   OH236021   2.000   1.151   0.617 -0.4146  0.5710  0.3230
 4821TIP3    H136022   2.034   1.230   0.575  0.9606 -0.6513 -0.9449
 4821TIP3    H236023   2.029   1.079   0.561 -1.2011 -0.8952  1.7161
 4822TIP3   OH236024   0.942   3.768   8.128  0.3820  0.3522  0.1544
 4822TIP3    H136025   0.894   3.697   8.170 -0.1741  2.0652  2.6580
 4822TIP3    H236026   0.904   3.848   8.165  3.9120  1.8530  0.9120
 4823TIP3   OH236027   0.875   5.707   1.177  0.5627 -0.0323  0.0322
 4823TIP3    H136028   0.782   5.702   1.153  1.1950 -0.2998 -2.7244
 4823TIP3    H236029   0.882   5.786   1.230 -1.3977 -0.6606  1.3594
 4824TIP3   OH236030   4.617   0.929   1.667 -0.2730 -0.2009  0.1597
 4824TIP3    H136031   4.692   0.932   1.726 -0.1034 -0.9059 -0.0065
 4824TIP3    H236032   4.562   1.003   1.693  0.2588  0.0491  0.5774
 4825TIP3   OH236033   0.259   6.040   0.335  0.3622  0.2446  0.4898
 4825TIP3    H136034   0.345   6.069   0.303 -0.0545  1.2997  0.2884
 4825TIP3    H236035   0.198   6.106   0.302 -0.1297  1.2842  3.2482
 4826TIP3   OH236036   2.964   3.909   8.390  0.3807  0.0795 -0.5942
 4826TIP3    H136037   2.950   3.996   8.429  1.9875  0.1695 -0.1102
 4826TIP3    H236038   3.058   3.894   8.402  0.3642 -1.1570 -1.8859
 4827TIP3   OH236039   4.702   6.460   8.603  0.9948  0.9167  0.4051
 4827TIP3    H136040   4.754   6.437   8.680 -0.3333  1.1854  1.4203
 4827TIP3    H236041   4.615   6.481   8.638 -0.1637 -0.6383 -1.3049
 4828TIP3   OH236042   0.353   3.932   8.245 -0.4603 -0.6327  0.1171
 4828TIP3    H136043   0.320   4.001   8.188  1.0362 -0.8797 -1.1087
 4828TIP3    H236044   0.302   3.854   8.221 -2.3008  0.0145  1.6515
 4829TIP3   OH236045   4.338   0.455   1.908 -0.2620 -0.1043  0.0300
 4829TIP3    H136046   4.378   0.384   1.958 -0.7655 -1.0627 -0.8964
 4829TIP3    H236047   4.245   0.433   1.906 -0.4145  0.5530 -0.3289
 4830TIP3   OH236048   5.174   4.702   7.592  0.1018  0.2755 -0.0598
 4830TIP3    H136049   5.112   4.697   7.519 -2.1083 -0.4217  1.7263
 4830TIP3    H236050   5.183   4.795   7.610 -1.5857  0.3654  0.4945
 4831TIP3   OH236051   3.866   3.796   9.070  0.3866 -0.3690 -0.4866
 4831TIP3    H136052   3.931   3.756   9.011 -0.5120 -0.3904 -1.5033
 4831TIP3    H236053   3.790   3.738   9.064  0.2247 -0.2876  0.6048
 4832TIP3   OH236054   5.685   1.920   7.723 -0.1889 -0.3846 -0.3830
 4832TIP3    H136055   5.769   1.933   7.768 -0.6670 -0.1651  0.4756
 4832TIP3    H236056   5.647   1.844   7.767 -0.6078 -0.2531 -0.5162
 4833TIP3   OH236057   5.752   3.416   9.242 -0.4273 -0.1205  0.2681
 4833TIP3    H136058   5.723   3.345   9.184 -2.6628  1.7317 -1.0502
 4833TIP3    H236059   5.711   3.395   9.327 -3.7113  1.0393 -0.8807
 4834TIP3   OH236060   1.731   5.030   7.976 -0.2845  0.3316 -0.2125
 4834TIP3    H136061   1.655   5.002   8.027  0.6710  2.6866  2.8437
 4834TIP3    H236062   1.697   5.099   7.919 -0.4860  1.7371  1.5002
 4835TIP3   OH236063   4.233   1.870   0.216 -0.0041 -0.5488  0.4486
 4835TIP3    H136064   4.298   1.828   0.160  0.1583 -0.2917  0.4439
 4835TIP3    H236065   4.174   1.915   0.156  0.3837  0.0342  0.4964
 4836TIP3   OH236066   2.881   3.545   7.866 -0.2633  0.0076  0.0284
 4836TIP3    H136067   2.870   3.491   7.944  1.7224  0.2029  0.5090
 4836TIP3    H236068   2.862   3.486   7.793  0.8309 -1.0806  0.5786
 4837TIP3   OH236069   5.765   4.480   0.936  0.6879 -0.3513  0.2783
 4837TIP3    H136070   5.765   4.484   1.031 -0.4188  2.6296  0.2674
 4837TIP3    H236071   5.833   4.542   0.909  1.8839 -2.0892 -0.9297
 4838TIP3   OH236072   1.088   1.662   1.700  0.2668  0.3260  0.5108
 4838TIP3    H136073   1.139   1.741   1.717  0.9004 -0.0882  0.6029
 4838TIP3    H236074   1.135   1.593   1.747 -0.2926 -0.0994  0.4580
 4839TIP3   OH236075   4.927   2.334   0.398  0.0898  0.7066  0.0870
 4839TIP3    H136076   4.919   2.417   0.447  1.2339  1.0769 -0.3342
 4839TIP3    H236077   4.874   2.272   0.449  1.4641  1.0054  1.9839
 4840TIP3   OH236078   3.593   5.407   2.214  0.0749  0.0592 -0.4955
 4840TIP3    H136079   3.588   5.449   2.301  0.0612  0.2536 -0.5888
 4840TIP3    H236080   3.607   5.480   2.154  0.5253 -0.1183 -0.6115
 4841TIP3   OH236081   3.300   5.684   2.255  0.1865  0.8872  0.4093
 4841TIP3    H136082   3.225   5.743   2.260  0.3187  1.0339  0.7101
 4841TIP3    H236083   3.341   5.691   2.341 -0.7364 -0.8748  1.0540
 4842TIP3   OH236084   5.649   1.525   0.824  0.1791 -0.4616  0.2136
 4842TIP3    H136085   5.589   1.471   0.771  2.1944  0.5691 -3.4647
 4842TIP3    H236086   5.618   1.614   0.810  0.5010 -0.1883  1.2079
 4843TIP3   OH236087   6.475   2.000   1.336  0.1714 -0.3569  0.1775
 4843TIP3    H136088   6.493   1.959   1.251  2.0066 -0.4514  0.5604
 4843TIP3    H236089   6.407   1.946   1.375 -0.3479 -0.6023 -1.0262
 4844TIP3   OH236090   2.820   0.265   9.489  0.0694  0.0490  0.6265
 4844TIP3    H136091   2.773   0.329   9.543  0.2996  0.7924 -0.0461
 4844TIP3    H236092   2.912   0.278   9.512  0.0091 -1.1394  1.6511
 4845TIP3   OH236093   2.623   0.929   0.351  0.0217 -0.2004 -0.4781
 4845TIP3    H136094   2.635   0.977   0.433  2.2996 -0.0692 -0.8277
 4845TIP3    H236095   2.634   0.837   0.375  0.4543 -0.1788 -0.5837
 4846TIP3   OH236096   0.551   1.017   1.505 -0.5504  0.2714  0.3693
 4846TIP3    H136097   0.590   1.038   1.590 -0.8703 -0.7946  0.8058
 4846TIP3    H236098   0.468   0.975   1.527 -0.6838  0.0798 -0.4761
 4847TIP3   OH236099   1.229   6.383   0.203 -0.1510  0.3596 -0.0725
 4847TIP3    H136100   1.200   6.398   0.113 -0.9218  3.0765  0.5094
 4847TIP3    H236101   1.314   6.342   0.195 -0.0127  0.9417 -2.0717
 4848TIP3   OH236102   4.418   0.937   0.988 -0.9186  0.7307  0.1400
 4848TIP3    H136103   4.506   0.945   1.025 -0.7842 -1.1200  0.2824
 4848TIP3    H236104   4.432   0.901   0.901 -1.5544  0.1800  0.2621
 4849TIP3   OH236105   5.403   3.416   0.288 -0.1217 -0.3959  0.3325
 4849TIP3    H136106   5.485   3.458   0.316  1.3043 -3.5573  1.4011
 4849TIP3    H236107   5.430   3.355   0.219 -1.7688 -0.7322 -0.0511
 4850TIP3   OH236108   1.827   1.576   7.680 -0.5138  0.2783  0.1955
 4850TIP3    H136109   1.764   1.640   7.712 -0.5676  0.1971  0.2536
 4850TIP3    H236110   1.774   1.510   7.637 -0.3279  1.2926 -1.6857
 4851TIP3   OH236111   1.389   3.350   0.928  0.5257 -0.0175 -0.0199
 4851TIP3    H136112   1.456   3.407   0.889 -0.6764  1.2351 -0.3121
 4851TIP3    H236113   1.394   3.270   0.877  1.8228  0.0216 -0.0094
 4852TIP3   OH236114   3.859   3.572   0.390  0.5607  0.3083  0.0334
 4852TIP3    H136115   3.915   3.531   0.325 -0.2212 -0.6134 -0.0910
 4852TIP3    H236116   3.875   3.666   0.380  1.7741  0.0895 -0.2492
 4853TIP3   OH236117   2.106   3.623   2.141  0.1484 -0.4350  0.1101
 4853TIP3    H136118   2.184   3.568   2.141 -0.0527 -0.7394 -0.5486
 4853TIP3    H236119   2.138   3.711   2.120  0.2105 -0.7393 -1.1259
 4854TIP3   OH236120   0.452   3.863   7.966  0.1822  0.1010  0.5743
 4854TIP3    H136121   0.499   3.942   7.940 -1.8459  1.3502  0.4751
 4854TIP3    H236122   0.437   3.816   7.884  0.0680  0.3917  0.4273
 4855TIP3   OH236123   1.706   0.933   2.174 -0.1459  0.3470 -0.0918
 4855TIP3    H136124   1.684   0.894   2.258  0.3426  1.7317  0.7285
 4855TIP3    H236125   1.801   0.924   2.168 -0.3262 -1.2205 -1.3085
 4856TIP3   OH236126   1.934   5.195   7.758 -0.3225 -0.0005  0.0030
 4856TIP3    H136127   1.882   5.230   7.685 -2.2440 -1.3197  0.6719
 4856TIP3    H236128   1.953   5.104   7.733 -0.1441 -0.1653  0.7202
 4857TIP3   OH236129   0.444   2.350   1.500 -0.3139  0.7108 -0.0281
 4857TIP3    H136130   0.416   2.260   1.482  1.4135 -0.1498  1.2176
 4857TIP3    H236131   0.472   2.384   1.415  1.3271 -0.8439 -0.1885
 4858TIP3   OH236132   1.683   0.279   0.587  0.2413 -0.3662  0.1897
 4858TIP3    H136133   1.611   0.311   0.641 -0.1566  1.2835 -1.2216
 4858TIP3    H236134   1.743   0.237   0.648 -0.6643  0.5293  1.7466
 4859TIP3   OH236135   3.389   2.770   0.768 -0.8624  0.3228  0.2564
 4859TIP3    H136136   3.373   2.805   0.680 -2.0887 -0.2769  0.2286
 4859TIP3    H236137   3.425   2.683   0.753 -3.1564 -0.6880  0.3178
 4860TIP3   OH236138   4.064   1.759   1.324  0.5753 -0.3194  0.1773
 4860TIP3    H136139   4.125   1.829   1.347  0.0658 -0.0879  0.8719
 4860TIP3    H236140   4.102   1.719   1.246  1.6674 -0.2513  0.6556
 4861TIP3   OH236141   3.688   6.290   7.380  0.3057  0.0801  0.1294
 4861TIP3    H136142   3.657   6.375   7.348 -0.3805 -0.1063  0.2791
 4861TIP3    H236143   3.610   6.248   7.416  0.6113 -0.6692 -0.0611
 4862TIP3   OH236144   2.139   3.877   8.647  0.3519  0.2788  0.9312
 4862TIP3    H136145   2.052   3.918   8.647  0.5253  0.6561  0.4408
 4862TIP3    H236146   2.173   3.894   8.735  0.0963  0.4925  0.9922
 4863TIP3   OH236147   1.096   5.022   9.127  0.2219 -0.0657  0.2802
 4863TIP3    H136148   1.176   5.002   9.175 -0.4189 -2.4830  0.4860
 4863TIP3    H236149   1.121   5.017   9.035 -0.0106 -2.9221  0.2792
 4864TIP3   OH236150   2.778   6.071   2.579 -0.3274  0.0913  0.0360
 4864TIP3    H136151   2.852   6.073   2.640 -0.3851  3.0086  0.1428
 4864TIP3    H236152   2.753   5.979   2.575  3.2460 -1.0553  0.0551
 4865TIP3   OH236153   2.780   2.222   1.475 -0.3060  0.2136 -0.0334
 4865TIP3    H136154   2.812   2.157   1.538  0.8093 -1.9976 -2.6834
 4865TIP3    H236155   2.824   2.303   1.500  2.4462 -1.2755  0.3414
 4866TIP3   OH236156   2.931   3.232   8.358 -0.2776  0.9713 -0.6045
 4866TIP3    H136157   2.939   3.152   8.410  0.4803  1.3636 -0.0939
 4866TIP3    H236158   3.021   3.264   8.350 -0.4699  1.2840 -1.5855
 4867TIP3   OH236159   3.026   2.687   7.238 -0.4223 -0.0710  0.1244
 4867TIP3    H136160   3.019   2.676   7.333 -1.5564 -2.6239 -0.1905
 4867TIP3    H236161   2.938   2.712   7.211 -0.1073  0.6212 -0.2805
 4868TIP3   OH236162   5.579   0.306   7.758 -0.2721  0.8620 -0.0849
 4868TIP3    H136163   5.521   0.237   7.728  1.0120  0.4760 -1.8018
 4868TIP3    H236164   5.609   0.277   7.844 -0.7628 -0.0761 -0.2250
 4869TIP3   OH236165   1.774   0.276   7.623  0.2613  0.4247 -0.3255
 4869TIP3    H136166   1.808   0.234   7.544  1.5438 -0.1319  0.4854
 4869TIP3    H236167   1.683   0.296   7.602  0.0040 -1.4577 -1.2715
 4870TIP3   OH236168   2.687   5.282   8.495 -0.1428  0.0529 -0.4125
 4870TIP3    H136169   2.592   5.281   8.501 -0.1638  0.6718 -0.6506
 4870TIP3    H236170   2.716   5.305   8.583 -0.2048 -0.2942 -0.2990
 4871TIP3   OH236171   5.770   2.085   1.160 -0.1989  0.2186 -0.3764
 4871TIP3    H136172   5.839   2.038   1.205 -0.6802 -1.7621 -1.6100
 4871TIP3    H236173   5.779   2.059   1.068 -3.0618 -0.7853 -0.4603
 4872TIP3   OH236174   2.778   6.182   1.728  0.1610  0.4844  0.0030
 4872TIP3    H136175   2.691   6.169   1.690  0.0323 -0.5492  0.6193
 4872TIP3    H236176   2.766   6.162   1.821  0.9093  1.0377  0.2281
 4873TIP3   OH236177   0.803   0.946   9.292  0.4643  0.6285  0.4631
 4873TIP3    H136178   0.898   0.946   9.281  0.4846  2.3076  0.4208
 4873TIP3    H236179   0.769   0.948   9.203  0.3838  0.2013  0.4827
 4874TIP3   OH236180   4.709   0.711   1.062 -0.2608 -0.1800 -0.2764
 4874TIP3    H136181   4.769   0.719   1.135 -1.1604  0.8668  0.3788
 4874TIP3    H236182   4.702   0.800   1.026 -1.8158 -0.1582  0.0089
 4875TIP3   OH236183   6.177   4.817   1.922  0.1582 -0.3480 -0.2135
 4875TIP3    H136184   6.208   4.755   1.856  1.5453 -0.2518  0.3000
 4875TIP3    H236185   6.202   4.777   2.005 -0.8525 -0.0998  0.2147
 4876TIP3   OH236186   1.401   5.675   2.890 -0.3080 -0.0311  0.1192
 4876TIP3    H136187   1.495   5.666   2.908 -0.0528 -0.1215 -1.2178
 4876TIP3    H236188   1.389   5.769   2.874  0.0496 -0.3301 -2.2178
 4877TIP3   OH236189   6.024   5.394   0.687  0.1406 -0.1548 -0.0377
 4877TIP3    H136190   6.104   5.348   0.713  0.5166  0.6259  0.2007
 4877TIP3    H236191   5.955   5.330   0.701  0.6076 -0.5134  0.7209
 4878TIP3   OH236192   3.916   5.745   8.477 -0.1358 -0.4363  0.1930
 4878TIP3    H136193   3.933   5.739   8.383 -0.5257  0.5606  0.0464
 4878TIP3    H236194   3.821   5.747   8.484 -0.1855  2.9816  0.2921
 4879TIP3   OH236195   3.447   2.182   8.913  0.2386 -0.2539  0.4126
 4879TIP3    H136196   3.492   2.248   8.966 -1.4384 -0.2808  1.9330
 4879TIP3    H236197   3.395   2.132   8.975 -2.5157  0.2855 -1.3178
 4880TIP3   OH236198   3.031   5.821   2.343 -0.2820  0.1757  0.0057
 4880TIP3    H136199   3.082   5.846   2.420  0.1262  0.8805 -0.4920
 4880TIP3    H236200   2.955   5.775   2.379  1.1967 -1.8378  0.7288
 4881TIP3   OH236201   5.279   4.833   8.859  0.0983 -0.4028  0.0248
 4881TIP3    H136202   5.317   4.866   8.778 -1.8101 -2.1260 -1.7053
 4881TIP3    H236203   5.276   4.909   8.917  2.2475  0.6966 -1.2119
 4882TIP3   OH236204   5.151   0.158   8.719 -0.1944  0.1348  0.1771
 4882TIP3    H136205   5.076   0.199   8.762 -2.1085 -0.4127 -2.3563
 4882TIP3    H236206   5.175   0.220   8.650  0.1240 -0.7551 -0.5323
 4883TIP3   OH236207   2.978   3.254   0.745 -0.3921  0.2866  0.3621
 4883TIP3    H136208   2.926   3.175   0.734  0.1326 -0.0346  0.1788
 4883TIP3    H236209   2.914   3.323   0.763 -0.9426  0.0651 -0.7268
 4884TIP3   OH236210   3.156   2.544   1.950 -0.1788 -0.2569 -0.4051
 4884TIP3    H136211   3.119   2.456   1.936  0.8266 -0.4521 -2.1638
 4884TIP3    H236212   3.084   2.604   1.928 -0.5633 -0.6319 -0.1872
 4885TIP3   OH236213   3.194   0.862   1.723 -0.1771 -0.1544 -0.6325
 4885TIP3    H136214   3.250   0.902   1.789 -0.2721 -1.4843  0.3006
 4885TIP3    H236215   3.114   0.915   1.725 -1.0840 -1.4626  1.9939
 4886TIP3   OH236216   0.261   1.310   1.060  0.2263 -0.1928  0.4440
 4886TIP3    H136217   0.275   1.317   1.154  0.9542 -1.7824  0.4793
 4886TIP3    H236218   0.342   1.342   1.021  0.3582 -0.5786  0.3968
 4887TIP3   OH236219   3.234   5.370   8.979  0.2073  0.2219 -0.2048
 4887TIP3    H136220   3.153   5.320   8.975  0.1598  0.2959 -0.1685
 4887TIP3    H236221   3.288   5.334   8.907  0.8302 -1.0043  0.8320
 4888TIP3   OH236222   2.770   4.630   8.357 -0.1241  0.4279 -0.5089
 4888TIP3    H136223   2.770   4.537   8.334  0.5068  0.3162 -0.0836
 4888TIP3    H236224   2.691   4.665   8.315 -1.9626 -0.8635  1.6457
 4889TIP3   OH236225   0.609   4.043   7.469  0.8939  0.1662 -0.6793
 4889TIP3    H136226   0.535   4.025   7.528  0.6583 -0.7524 -1.2399
 4889TIP3    H236227   0.680   4.070   7.528  0.8536 -1.3258  0.1031
 4890TIP3   OH236228   6.481   1.220   8.037  0.1089 -0.4246 -0.5048
 4890TIP3    H136229   6.409   1.279   8.019 -0.6356 -1.0546  0.3131
 4890TIP3    H236230   6.498   1.177   7.953  0.9596  1.2176 -1.2238
 4891TIP3   OH236231   2.248   0.784   7.923  0.2367 -0.6689  0.0966
 4891TIP3    H136232   2.196   0.862   7.905  1.4253 -0.0232 -0.6514
 4891TIP3    H236233   2.186   0.723   7.964 -1.1553 -0.0208 -0.9636
 4892TIP3   OH236234   2.183   2.067   1.245  0.4525 -0.2505  0.2129
 4892TIP3    H136235   2.202   2.141   1.187  1.2314  0.1492  0.9547
 4892TIP3    H236236   2.237   1.995   1.211 -0.7121 -0.6580 -0.8360
 4893TIP3   OH236237   6.303   1.460   8.053  0.4684 -0.0871 -0.2773
 4893TIP3    H136238   6.343   1.501   7.976 -1.4152 -1.0850 -1.8765
 4893TIP3    H236239   6.344   1.503   8.127 -0.9131  4.3450 -1.7771
 4894TIP3   OH236240   6.117   1.407   7.716 -0.3848  0.3871 -0.3111
 4894TIP3    H136241   6.190   1.463   7.742 -0.9351  1.5273 -1.1453
 4894TIP3    H236242   6.152   1.318   7.724  1.2348  0.9093 -1.0378
 4895TIP3   OH236243   1.074   1.927   0.921 -0.1717 -0.1357 -0.0039
 4895TIP3    H136244   1.099   1.998   0.980  0.0316 -0.5625  0.4287
 4895TIP3    H236245   1.075   1.849   0.976 -0.0452 -0.5291 -0.5614
 4896TIP3   OH236246   1.076   3.641   1.941 -0.2939  0.1805 -0.1585
 4896TIP3    H136247   1.026   3.720   1.960 -2.4150 -0.8672 -1.0523
 4896TIP3    H236248   1.110   3.613   2.026 -1.3430  0.8824  0.5132
 4897TIP3   OH236249   6.170   0.987   8.594  0.7327  0.2476 -0.7714
 4897TIP3    H136250   6.186   1.081   8.609  1.8684 -0.1015  0.4736
 4897TIP3    H236251   6.194   0.946   8.677 -1.6993 -0.9829 -0.5958
 4898TIP3   OH236252   2.745   0.757   7.788 -0.0914 -0.2988 -0.1569
 4898TIP3    H136253   2.661   0.730   7.827  0.2361 -0.8970  0.1480
 4898TIP3    H236254   2.802   0.682   7.800  0.4524  0.0554 -0.4946
 4899TIP3   OH236255   4.258   4.143   1.115 -0.6318  0.7218 -0.1550
 4899TIP3    H136256   4.329   4.114   1.172 -0.5188 -0.7788 -1.0212
 4899TIP3    H236257   4.191   4.075   1.124 -0.6233  0.4627 -1.7767
 4900TIP3   OH236258   2.019   0.290   0.013 -0.0070 -0.1748 -0.4405
 4900TIP3    H136259   1.943   0.342   0.040 -0.6545 -0.4934 -1.6023
 4900TIP3    H236260   2.006   0.205   0.054  0.3266  0.1217  0.3027
 4901TIP3   OH236261   1.679   1.400   8.096 -0.3561  0.2109 -0.6123
 4901TIP3    H136262   1.665   1.442   8.181  0.0172  0.0715 -0.4826
 4901TIP3    H236263   1.722   1.467   8.044  0.5497 -0.1117 -0.2996
 4902TIP3   OH236264   5.343   6.101   0.470  0.3302 -0.1372  0.2327
 4902TIP3    H136265   5.345   6.187   0.512  0.8559  0.4826 -1.0198
 4902TIP3    H236266   5.433   6.068   0.478  0.8963  0.7361 -1.8303
 4903TIP3   OH236267   1.114   0.643   1.862  0.3302 -0.2218 -0.7996
 4903TIP3    H136268   1.085   0.663   1.951 -0.0449 -3.0835 -0.1841
 4903TIP3    H236269   1.035   0.651   1.808  0.2641  0.1435 -0.6549
 4904TIP3   OH236270   5.159   5.039   8.181 -0.2716  0.5293 -0.2961
 4904TIP3    H136271   5.254   5.033   8.172 -0.0105  1.4140  1.4484
 4904TIP3    H236272   5.146   5.089   8.262 -2.2253 -0.5915  0.1270
 4905TIP3   OH236273   4.448   2.592   8.581  0.0410  0.1633  0.3572
 4905TIP3    H136274   4.372   2.562   8.531 -0.1147  0.2840  0.5184
 4905TIP3    H236275   4.413   2.662   8.636  0.3471  0.4680  0.1641
 4906TIP3   OH236276   2.592   5.204   1.036  0.0110 -0.0537  0.4710
 4906TIP3    H136277   2.522   5.256   0.997 -0.3546  0.1019  1.3112
 4906TIP3    H236278   2.619   5.144   0.967  0.6093  1.3942 -0.6120
 4907TIP3   OH236279   0.193   2.460   0.860 -0.5796  0.2830 -0.2715
 4907TIP3    H136280   0.150   2.450   0.944  0.2386 -1.9332 -0.0414
 4907TIP3    H236281   0.124   2.448   0.795 -1.2502  2.2029  0.0215
 4908TIP3   OH236282   1.939   4.190   0.179 -0.7845 -0.7097 -0.1062
 4908TIP3    H136283   1.860   4.234   0.208  0.5488  0.4448  1.9631
 4908TIP3    H236284   1.957   4.227   0.092  0.3173  3.0855  1.5312
 4909TIP3   OH236285   1.200   2.095   8.207  0.1490  0.0914 -0.0133
 4909TIP3    H136286   1.167   2.006   8.198  0.9044 -0.1674 -0.2620
 4909TIP3    H236287   1.169   2.140   8.128  0.1026 -0.0525 -0.0775
 4910TIP3   OH236288   0.833   3.450   9.428  0.2492  0.1781 -0.1173
 4910TIP3    H136289   0.757   3.508   9.427 -0.1364 -0.3149  0.0082
 4910TIP3    H236290   0.874   3.466   9.514  0.7561  1.0294 -0.5090
 4911TIP3   OH236291   2.484   1.702   9.245  0.6946 -0.4705  0.4047
 4911TIP3    H136292   2.526   1.685   9.160  0.1067 -0.2355  0.0566
 4911TIP3    H236293   2.516   1.789   9.270 -0.4661  0.2290 -0.4299
 4912TIP3   OH236294   1.534   4.602   0.346  0.3806  0.6203  0.5342
 4912TIP3    H136295   1.491   4.524   0.311  1.2641  0.3182  0.0907
 4912TIP3    H236296   1.571   4.573   0.429  0.4746  0.6409  0.4995
 4913TIP3   OH236297   6.071   5.374   1.574  0.3609 -0.2011  0.1176
 4913TIP3    H136298   6.025   5.314   1.634 -0.2260 -2.3382 -2.2998
 4913TIP3    H236299   6.152   5.327   1.552  1.0035  0.9712 -0.0752
 4914TIP3   OH236300   0.198   5.425   0.708  0.1129  0.2854 -0.5243
 4914TIP3    H136301   0.154   5.360   0.653 -0.1508 -0.0393  0.0533
 4914TIP3    H236302   0.174   5.509   0.671 -0.0689  0.0739 -0.8957
 4915TIP3   OH236303   5.218   2.599   8.076  0.2345 -0.2297  0.3197
 4915TIP3    H136304   5.291   2.556   8.032  0.2661  0.2493 -0.1020
 4915TIP3    H236305   5.143   2.542   8.059  0.6367 -1.0748  1.3258
 4916TIP3   OH236306   3.600   5.323   7.769 -0.3711 -0.5393 -0.0738
 4916TIP3    H136307   3.518   5.299   7.727 -0.1431 -1.2099 -0.1410
 4916TIP3    H236308   3.666   5.265   7.731  0.4050  0.8992 -1.0343
 4917TIP3   OH236309   6.059   2.323   9.272 -0.1539  0.1950 -1.1039
 4917TIP3    H136310   6.084   2.297   9.184 -0.1653  1.2925 -1.4503
 4917TIP3    H236311   6.069   2.419   9.272 -1.5960  0.3732 -0.3808
 4918TIP3   OH236312   6.233   5.091   7.639 -0.4356  0.3210  0.4168
 4918TIP3    H136313   6.142   5.065   7.654 -0.9643  1.4842 -0.6198
 4918TIP3    H236314   6.241   5.093   7.543  1.4135 -2.2031  0.4135
 4919TIP3   OH236315   3.027   5.391   2.864 -0.1983  0.0175  0.1605
 4919TIP3    H136316   3.007   5.347   2.947  0.5438 -1.3147 -0.3324
 4919TIP3    H236317   2.943   5.400   2.820 -0.2730 -1.8505 -0.1523
 4920TIP3   OH236318   0.673   0.810   0.385 -0.1605 -0.0126 -0.0636
 4920TIP3    H136319   0.768   0.805   0.374  0.1186  0.5685  1.8535
 4920TIP3    H236320   0.647   0.886   0.333  0.5722  0.4622  0.2452
 4921TIP3   OH236321   3.415   0.661   0.582  0.7650 -0.0652  0.0346
 4921TIP3    H136322   3.465   0.585   0.613 -0.5896 -1.0109  0.0024
 4921TIP3    H236323   3.337   0.623   0.540 -0.9541  1.3602  1.7660
 4922TIP3   OH236324   3.672   3.710   8.434 -0.2068  0.3004 -0.3236
 4922TIP3    H136325   3.667   3.617   8.413 -0.1655  0.3611 -0.6112
 4922TIP3    H236326   3.750   3.741   8.387 -0.4353  0.5583 -0.5317
 4923TIP3   OH236327   0.230   3.294   8.333 -0.0499  0.1854  0.0295
 4923TIP3    H136328   0.240   3.364   8.268  0.3272 -1.1922 -1.4580
 4923TIP3    H236329   0.307   3.302   8.389 -0.3216  1.3272  0.2668
 4924TIP3   OH236330   6.384   2.235   8.317  0.1454  0.2434 -0.2468
 4924TIP3    H136331   6.306   2.184   8.337  0.8863 -1.4366 -1.3990
 4924TIP3    H236332   6.418   2.262   8.403 -0.0205 -1.6314  0.4463
 4925TIP3   OH236333   5.107   1.426   8.919 -0.0578  0.4015  0.1026
 4925TIP3    H136334   5.027   1.467   8.888  0.0924  0.8111  0.2409
 4925TIP3    H236335   5.109   1.340   8.877 -0.9084  0.1146  0.6370
 4926TIP3   OH236336   5.711   4.018   0.195 -0.1564 -0.1357  0.5137
 4926TIP3    H136337   5.786   3.984   0.146 -0.7828 -0.0975 -0.4905
 4926TIP3    H236338   5.749   4.077   0.260  0.5756  1.2196 -1.0884
 4927TIP3   OH236339   1.557   6.121   0.524  0.1309 -0.0133  0.3755
 4927TIP3    H136340   1.518   6.055   0.582  2.2545 -1.1307  0.6489
 4927TIP3    H236341   1.648   6.092   0.514  1.3333  3.1968  0.9580
 4928TIP3   OH236342   1.112   4.500   0.977  0.5037  0.4510  0.4567
 4928TIP3    H136343   1.154   4.586   0.973  1.0672  0.1301 -0.6112
 4928TIP3    H236344   1.129   4.470   1.067  0.4906  1.3486  0.7742
 4929TIP3   OH236345   0.158   5.140   0.875  0.0012  0.4890  0.5051
 4929TIP3    H136346   0.114   5.220   0.845 -1.0555 -0.0607  0.5516
 4929TIP3    H236347   0.097   5.070   0.853  0.4723 -0.2087  1.3818
 4930TIP3   OH236348   6.163   0.699   2.165  0.1691 -0.2725  0.7142
 4930TIP3    H136349   6.192   0.760   2.233  2.4616  0.9781 -1.2469
 4930TIP3    H236350   6.222   0.715   2.091 -3.4578  0.0179 -2.4425
 4931TIP3   OH236351   5.701   4.186   8.202 -0.0362  0.3428  0.2043
 4931TIP3    H136352   5.730   4.162   8.290  0.4188  1.6141  0.4297
 4931TIP3    H236353   5.658   4.271   8.213 -0.1465  0.4263 -0.7673
 4932TIP3   OH236354   4.766   1.880   2.069 -0.2490 -0.2733 -0.0812
 4932TIP3    H136355   4.690   1.904   2.016 -0.2497  0.9801  0.4639
 4932TIP3    H236356   4.810   1.963   2.088 -0.3699 -0.6322  2.0584
 4933TIP3   OH236357   3.861   5.717   8.925 -0.6602 -0.6409 -0.0005
 4933TIP3    H136358   3.852   5.658   9.000 -2.1217 -0.8944 -0.3341
 4933TIP3    H236359   3.828   5.666   8.851  1.1908 -0.5522 -0.9240
 4934TIP3   OH236360   0.057   2.729   1.123 -0.0059 -0.0056 -0.2033
 4934TIP3    H136361   0.058   2.634   1.115 -3.2479 -0.0646 -1.1298
 4934TIP3    H236362   0.086   2.762   1.038 -1.9498 -0.2543 -0.9977
 4935TIP3   OH236363   5.588   4.687   7.456  0.2194 -0.6475  0.3868
 4935TIP3    H136364   5.537   4.733   7.390  0.8057  0.5545  0.7216
 4935TIP3    H236365   5.616   4.606   7.414 -0.2869 -0.3847 -0.4694
 4936TIP3   OH236366   4.131   4.244   0.127  0.4889 -0.8822 -0.4587
 4936TIP3    H136367   4.170   4.285   0.050  0.7752 -1.4957 -0.6500
 4936TIP3    H236368   4.168   4.290   0.201 -0.0693 -0.0353 -0.6875
 4937TIP3   OH236369   3.193   2.503   8.303  0.2876  0.1326 -0.0148
 4937TIP3    H136370   3.098   2.495   8.291  0.2093  0.8802  0.0274
 4937TIP3    H236371   3.229   2.497   8.214  0.2322 -0.4909  0.0023
 4938TIP3   OH236372   4.876   0.631   1.740 -0.3313 -0.3569  0.2979
 4938TIP3    H136373   4.796   0.597   1.780 -0.7380  1.1625  0.8477
 4938TIP3    H236374   4.886   0.719   1.777  0.6493  0.1453 -1.0713
 4939TIP3   OH236375   0.199   5.874   8.241 -0.1062  0.2833 -0.4398
 4939TIP3    H136376   0.119   5.846   8.195  0.4680  1.4139 -2.2370
 4939TIP3    H236377   0.244   5.792   8.262 -1.6856 -0.3702  0.5473
 4940TIP3   OH236378   0.170   2.188   6.859  0.4187 -0.2924  0.2088
 4940TIP3    H136379   0.150   2.096   6.872  0.5368 -0.0962  2.0800
 4940TIP3    H236380   0.085   2.231   6.851  0.3707 -0.5829 -1.0617
 4941TIP3   OH236381   3.188   1.029   9.595  0.3795 -0.0678  0.1106
 4941TIP3    H136382   3.143   1.060   9.517  1.5200  1.2584 -0.0638
 4941TIP3    H236383   3.262   0.979   9.562  0.7886  0.3847  0.3238
 4942TIP3   OH236384   3.625   5.990   8.993 -0.4640  0.0469 -0.8343
 4942TIP3    H136385   3.717   5.969   8.981 -0.6588 -0.6669 -1.1387
 4942TIP3    H236386   3.618   6.019   9.084 -0.3526 -2.3312  0.0038
 4943TIP3   OH236387   2.414   4.554   8.990 -0.2712 -0.1505 -0.1508
 4943TIP3    H136388   2.456   4.508   9.064  0.1903 -0.0134 -0.3283
 4943TIP3    H236389   2.485   4.597   8.944 -0.3155 -1.6019 -1.6691
 4944TIP3   OH236390   1.133   4.989   8.327  0.3873  0.1147  0.3115
 4944TIP3    H136391   1.056   4.933   8.324  1.2144 -1.0265 -0.1791
 4944TIP3    H236392   1.099   5.077   8.308 -0.6943 -0.4755 -0.6595
 4945TIP3   OH236393   0.801   2.356   1.307 -0.2093 -0.0694  0.4149
 4945TIP3    H136394   0.762   2.322   1.388  0.0390 -0.7686  0.2479
 4945TIP3    H236395   0.873   2.412   1.337  0.6084 -1.2070  0.6860
 4946TIP3   OH236396   4.230   4.103   7.893 -0.1575  1.0625  0.2929
 4946TIP3    H136397   4.219   4.179   7.950 -1.1408  1.2003 -0.0567
 4946TIP3    H236398   4.203   4.134   7.806 -2.0124 -0.0393  0.4124
 4947TIP3   OH236399   3.693   2.714   7.660 -0.0406  0.3249 -0.5850
 4947TIP3    H136400   3.718   2.750   7.576 -0.8572 -1.5462 -1.7045
 4947TIP3    H236401   3.606   2.751   7.677 -0.3120 -0.0640 -1.0847
 4948TIP3   OH236402   2.258   2.963   2.053  0.7241  0.1781  0.0791
 4948TIP3    H136403   2.310   3.038   2.081  1.2938 -0.4194  0.6320
 4948TIP3    H236404   2.211   2.935   2.132 -0.5864  0.8038 -0.4387
 4949TIP3   OH236405   5.235   5.879   1.379  0.1753 -0.1146  0.5455
 4949TIP3    H136406   5.282   5.918   1.452  0.5337  0.9678 -0.2429
 4949TIP3    H236407   5.261   5.930   1.303 -1.2477 -0.3381 -0.1262
 4950TIP3   OH236408   3.614   4.611   0.375 -0.7348  0.6860 -1.0220
 4950TIP3    H136409   3.658   4.567   0.303 -0.2684 -0.1141 -0.2695
 4950TIP3    H236410   3.566   4.541   0.420  0.5959  0.7806  0.6271
 4951TIP3   OH236411   0.692   4.673   0.175  0.4294 -0.0676  0.2685
 4951TIP3    H136412   0.784   4.675   0.148  0.4412 -1.3425  0.1484
 4951TIP3    H236413   0.645   4.641   0.097 -0.3734  2.1958 -0.2575
 4952TIP3   OH236414   2.740   3.870   1.302  0.1868 -0.6756 -0.5448
 4952TIP3    H136415   2.791   3.949   1.320 -0.4734 -0.1127 -1.0725
 4952TIP3    H236416   2.650   3.896   1.321 -0.3499 -0.5507 -2.9522
 4953TIP3   OH236417   3.820   1.025   0.326 -0.3239 -0.7999 -0.0036
 4953TIP3    H136418   3.825   1.108   0.278 -0.0614 -0.9858 -0.3046
 4953TIP3    H236419   3.831   0.958   0.259 -1.3362 -1.1057  0.1262
 4954TIP3   OH236420   0.915   0.786   0.265  0.7718  0.1869 -0.1849
 4954TIP3    H136421   0.966   0.860   0.232  0.2250  0.5364 -0.2572
 4954TIP3    H236422   0.957   0.709   0.227  1.5248  0.4390  0.1282
 4955TIP3   OH236423   3.293   4.267   2.027  0.1863 -0.4516 -0.2707
 4955TIP3    H136424   3.309   4.264   2.121  0.6053 -1.4975 -0.3651
 4955TIP3    H236425   3.201   4.291   2.019 -0.1529 -1.4576  0.4366
 4956TIP3   OH236426   0.388   5.523   2.629 -0.0707 -0.0334 -0.4237
 4956TIP3    H136427   0.400   5.429   2.642 -4.0441 -0.7750 -1.1036
 4956TIP3    H236428   0.409   5.562   2.715  2.0300 -1.3661 -0.2439
 4957TIP3   OH236429   3.192   6.113   8.686 -0.3046 -0.0764 -0.0823
 4957TIP3    H136430   3.243   6.059   8.747 -1.1764 -0.8231  0.0046
 4957TIP3    H236431   3.131   6.052   8.646 -0.6341  0.6686 -0.7379
 4958TIP3   OH236432   2.301   5.156   8.696 -0.1124 -0.0274  0.2599
 4958TIP3    H136433   2.364   5.084   8.704  0.4925  0.6493  2.2442
 4958TIP3    H236434   2.345   5.219   8.638 -0.7716 -1.3167 -1.7279
 4959TIP3   OH236435   5.139   4.048   8.511  1.0455 -0.7951 -0.3329
 4959TIP3    H136436   5.068   4.111   8.496 -1.0220 -3.6248 -4.5803
 4959TIP3    H236437   5.214   4.086   8.465  0.3046 -0.6298 -1.4600
 4960TIP3   OH236438   1.393   3.594   0.672 -0.1512  0.4810 -0.0539
 4960TIP3    H136439   1.305   3.569   0.699 -0.4621  0.6971 -0.8594
 4960TIP3    H236440   1.404   3.683   0.706  0.4552 -0.1840  1.6318
 4961TIP3   OH236441   5.352   5.158   0.920 -0.0807  0.7490 -0.2803
 4961TIP3    H136442   5.283   5.098   0.949 -0.5005  1.4876  0.2842
 4961TIP3    H236443   5.324   5.187   0.833  0.0405  0.2651 -0.4843
 4962TIP3   OH236444   4.074   1.004   8.018  0.1384 -0.5737 -0.1547
 4962TIP3    H136445   4.072   0.920   8.063  1.4956 -0.2261  0.6136
 4962TIP3    H236446   4.001   1.054   8.055 -0.4908 -1.2888 -0.4052
 4963TIP3   OH236447   3.423   3.812   1.507 -0.2673  0.1270 -0.2301
 4963TIP3    H136448   3.365   3.786   1.436  0.6338 -1.7440 -0.3442
 4963TIP3    H236449   3.446   3.730   1.550  1.6304  0.8993  0.3168
 4964TIP3   OH236450   0.349   4.718   8.986  0.2105 -0.4341 -0.1204
 4964TIP3    H136451   0.309   4.642   8.945  1.4359 -0.4934 -1.2482
 4964TIP3    H236452   0.356   4.783   8.916  0.7352  0.0923  0.4060
 4965TIP3   OH236453   3.634   3.463   8.321  0.3308  0.8010  0.3439
 4965TIP3    H136454   3.570   3.469   8.249  0.7586  0.0223 -0.1042
 4965TIP3    H236455   3.623   3.375   8.356 -1.0903  1.7071  2.4037
 4966TIP3   OH236456   1.914   4.410   0.982  0.0469 -0.2038 -0.0982
 4966TIP3    H136457   1.887   4.501   0.969  1.4691  0.1904 -0.4870
 4966TIP3    H236458   1.848   4.374   1.040 -1.7727  0.4376 -1.6850
 4967TIP3   OH236459   2.908   0.600   8.806 -0.1449 -0.6795  0.9628
 4967TIP3    H136460   2.834   0.655   8.781  0.9144  0.4680  0.2520
 4967TIP3    H236461   2.870   0.533   8.862 -1.7475 -0.2215  0.4715
 4968TIP3   OH236462   3.912   6.215   2.069 -0.3996  0.4564  0.6694
 4968TIP3    H136463   3.850   6.145   2.091  0.1414 -0.4405 -0.5132
 4968TIP3    H236464   3.923   6.207   1.974  2.1840  0.0162  0.9327
 4969TIP3   OH236465   2.996   5.183   3.072 -0.1655 -0.5261 -0.2580
 4969TIP3    H136466   2.947   5.117   3.120 -0.4195  0.2906  0.6556
 4969TIP3    H236467   3.088   5.160   3.087 -0.1746  0.7046  2.1948
 4970TIP3   OH236468   0.445   3.669   9.578 -0.3136 -0.1595 -0.5868
 4970TIP3    H136469   0.503   3.731   9.622 -3.2041  3.4081 -1.2895
 4970TIP3    H236470   0.409   3.616   9.649  2.5895 -1.5896 -0.0138
 4971TIP3   OH236471   5.688   0.314   1.487  0.1126  0.0982 -0.5043
 4971TIP3    H136472   5.767   0.279   1.446  1.0768 -0.5879  1.7977
 4971TIP3    H236473   5.710   0.405   1.508  1.2671 -0.7122  2.2308
 4972TIP3   OH236474   5.958   3.284   8.997  0.3331  0.1413  0.3518
 4972TIP3    H136475   5.866   3.304   8.978 -0.0726 -3.2466 -2.4947
 4972TIP3    H236476   5.954   3.216   9.065  0.5953 -0.7236 -0.4711
 4973TIP3   OH236477   1.576   4.559   1.530  0.0545 -1.0228  0.6968
 4973TIP3    H136478   1.487   4.539   1.500  0.8958 -2.4240 -1.0566
 4973TIP3    H236479   1.616   4.606   1.457  0.6847 -0.1084  1.6048
 4974TIP3   OH236480   4.151   3.520   1.463  0.0363  0.0889  0.2023
 4974TIP3    H136481   4.087   3.571   1.414 -0.8376 -0.6694  0.5309
 4974TIP3    H236482   4.214   3.585   1.495 -1.7053  1.1518  1.6588
 4975TIP3   OH236483   4.573   5.188   9.503  0.4493  0.3000 -0.7949
 4975TIP3    H136484   4.498   5.203   9.561  2.0390  1.3694  1.1008
 4975TIP3    H236485   4.537   5.136   9.431 -1.9542  0.1857  0.3770
 4976TIP3   OH236486   1.645   5.217   7.768  0.1094 -0.1883  0.2641
 4976TIP3    H136487   1.609   5.288   7.715  0.5386  0.5431  0.9313
 4976TIP3    H236488   1.708   5.174   7.711  0.2384  0.3041  0.0315
 4977TIP3   OH236489   1.056   5.959   8.092 -0.3676  0.5823 -0.1573
 4977TIP3    H136490   0.989   5.983   8.156 -0.3000  0.0182  0.1317
 4977TIP3    H236491   1.108   6.039   8.081 -0.5507  0.7667  0.2791
 4978TIP3   OH236492   4.550   0.377   8.381 -0.1235 -0.4303  0.4978
 4978TIP3    H136493   4.586   0.464   8.400  1.1169 -0.6842 -0.5868
 4978TIP3    H236494   4.466   0.394   8.338 -0.2254  0.2157  0.9488
 4979TIP3   OH236495   6.034   2.778   1.677 -0.6867  0.4812 -0.0476
 4979TIP3    H136496   6.129   2.789   1.678 -0.2535 -2.4728 -0.3605
 4979TIP3    H236497   6.011   2.763   1.769 -0.8023  0.6643 -0.0450
 4980TIP3   OH236498   2.445   1.633   9.557  0.3671  0.1843 -0.3937
 4980TIP3    H136499   2.497   1.554   9.545  1.9045  0.8309  1.4564
 4980TIP3    H236500   2.357   1.609   9.528  1.1414 -1.7035 -1.3179
 4981TIP3   OH236501   2.097   5.584   7.597 -0.2571 -0.3455 -0.1591
 4981TIP3    H136502   2.178   5.541   7.624 -0.3719  0.1346  1.0162
 4981TIP3    H236503   2.057   5.523   7.535  0.4581 -1.0929  0.0920
 4982TIP3   OH236504   1.332   1.750   8.779  0.6555  0.3025  0.5581
 4982TIP3    H136505   1.308   1.830   8.734 -1.8652 -0.2931  0.7216
 4982TIP3    H236506   1.426   1.760   8.797  0.6812  2.6223 -0.5344
 4983TIP3   OH236507   0.790   2.762   9.366 -0.1855 -0.0658 -0.1766
 4983TIP3    H136508   0.784   2.672   9.335 -0.7846  0.3026 -1.1755
 4983TIP3    H236509   0.773   2.756   9.460 -0.9245 -0.9218 -0.3470
 4984TIP3   OH236510   5.486   5.716   1.007  0.1796 -0.1178 -0.0727
 4984TIP3    H136511   5.516   5.797   0.965  2.7229 -2.0134 -2.3180
 4984TIP3    H236512   5.559   5.690   1.063  0.6121 -2.0909 -1.4264
 4985TIP3   OH236513   5.741   6.224   1.241  0.0890 -0.4010 -0.0925
 4985TIP3    H136514   5.680   6.221   1.168 -0.0454  0.8730 -0.0558
 4985TIP3    H236515   5.827   6.209   1.201  0.0328  0.4152 -0.5383
 4986TIP3   OH236516   0.674   2.278   9.156 -0.5322 -0.4536 -0.3670
 4986TIP3    H136517   0.740   2.209   9.152 -0.0133 -0.0952  1.0962
 4986TIP3    H236518   0.605   2.242   9.212 -0.9959 -0.3626 -0.8768
 4987TIP3   OH236519   6.154   2.693   9.470  0.6010 -0.0449 -0.3653
 4987TIP3    H136520   6.236   2.703   9.421 -0.6821  2.3143 -2.1862
 4987TIP3    H236521   6.125   2.604   9.450  1.1111  0.1945 -2.3280
 4988TIP3   OH236522   5.850   2.914   8.957  0.5257  0.1912 -0.1285
 4988TIP3    H136523   5.937   2.905   8.919  0.7655 -1.5139  0.7356
 4988TIP3    H236524   5.791   2.922   8.882  1.3101  0.1741 -0.7509
 4989TIP3   OH236525   2.329   1.149   9.188 -0.3738 -0.9198 -0.5665
 4989TIP3    H136526   2.358   1.180   9.102  0.5457  0.2818  0.1318
 4989TIP3    H236527   2.239   1.180   9.196 -0.1094 -0.0948 -0.6821
 4990TIP3   OH236528   6.473   2.265   1.302  0.2879 -0.0118  0.2655
 4990TIP3    H136529   6.399   2.255   1.241  1.4030  0.3146 -1.1948
 4990TIP3    H236530   6.486   2.177   1.338 -0.4355 -0.2015  0.0767
 4991TIP3   OH236531   2.220   4.172   9.279  0.1500 -0.2181  0.6984
 4991TIP3    H136532   2.173   4.096   9.312  0.8878 -0.6092  0.8584
 4991TIP3    H236533   2.304   4.138   9.249 -0.0454  0.3169 -0.5173
 4992TIP3   OH236534   5.442   2.476   0.427 -0.2861  0.0231 -0.0856
 4992TIP3    H136535   5.411   2.498   0.339  0.0469 -0.2488 -0.2720
 4992TIP3    H236536   5.420   2.552   0.480 -0.1612  0.3376 -0.4812
 4993TIP3   OH236537   0.972   3.961   0.144 -0.2274  0.1919 -0.6565
 4993TIP3    H136538   0.957   3.976   0.050  0.8814  1.4734 -0.6595
 4993TIP3    H236539   1.054   4.007   0.163  0.2146 -1.0723  0.6973
 4994TIP3   OH236540   1.022   0.941   2.256  0.1606  0.2532 -0.3883
 4994TIP3    H136541   0.928   0.934   2.237  0.5759 -1.7247 -2.1679
 4994TIP3    H236542   1.041   0.862   2.308  0.5662  1.5335  1.5020
 4995TIP3   OH236543   5.568   3.271   0.127 -0.0469 -0.0182 -0.3967
 4995TIP3    H136544   5.557   3.179   0.148  0.8351  0.1166  0.7628
 4995TIP3    H236545   5.576   3.273   0.031 -1.8796 -0.9184 -0.6063
 4996TIP3   OH236546   4.398   5.137   2.310 -0.5446 -0.0259  0.1191
 4996TIP3    H136547   4.484   5.171   2.336 -1.5197  3.5906 -0.8077
 4996TIP3    H236548   4.349   5.132   2.391 -0.8299  2.5968  0.2086
 4997TIP3   OH236549   5.418   5.805   8.984  0.4500 -0.6726 -0.2026
 4997TIP3    H136550   5.453   5.721   9.013  0.0350 -1.6166 -2.2717
 4997TIP3    H236551   5.447   5.867   9.051 -0.2535 -2.6041  2.0211
 4998TIP3   OH236552   3.007   6.006   1.065 -0.6114 -0.2481  0.0516
 4998TIP3    H136553   2.954   6.011   1.144 -0.7787 -0.2857 -0.0570
 4998TIP3    H236554   3.093   5.980   1.095  0.0635  2.2387  0.5516
 4999TIP3   OH236555   3.673   1.466   8.800  0.5062  0.2284  0.1874
 4999TIP3    H136556   3.601   1.523   8.775  1.6860  1.6242 -0.1976
 4999TIP3    H236557   3.750   1.505   8.758  1.1251 -2.7267 -1.6743
 5000TIP3   OH236558   5.360   5.263   0.143  0.6543 -0.6608 -0.1576
 5000TIP3    H136559   5.267   5.282   0.148  1.0846  1.4721  3.3744
 5000TIP3    H236560   5.365   5.168   0.135 -1.7927 -0.8545 -0.1290
 5001TIP3   OH236561   3.644   0.017   0.112  0.1055  0.7367  0.0569
 5001TIP3    H136562   3.726   0.058   0.084  1.4420 -0.8065  1.4964
 5001TIP3    H236563   3.625   0.057   0.197  0.0208  0.2319  0.2786
 5002TIP3   OH236564   3.441   3.864   7.148 -0.0721  0.3505  0.3973
 5002TIP3    H136565   3.365   3.871   7.206 -0.2284  1.1198  0.1133
 5002TIP3    H236566   3.409   3.816   7.072 -0.1863  0.3954  0.4174
 5003TIP3   OH236567   1.447   2.737   0.127  0.2089  0.2514 -0.2398
 5003TIP3    H136568   1.488   2.810   0.174  0.3274 -1.4421  2.4679
 5003TIP3    H236569   1.358   2.767   0.108  1.2105  2.2938 -2.2404
 5004TIP3   OH236570   2.119   5.046   9.414  0.5385 -0.4892  0.1101
 5004TIP3    H136571   2.028   5.070   9.433  0.1270 -2.1851  0.3937
 5004TIP3    H236572   2.169   5.126   9.433 -0.9136  0.6110 -0.4726
 5005TIP3   OH236573   3.903   1.596   9.347 -0.1114  0.3618  0.0502
 5005TIP3    H136574   3.907   1.527   9.281  0.3868  0.4982 -0.0644
 5005TIP3    H236575   3.989   1.594   9.389 -0.3057  0.5102  0.4559
 5006TIP3   OH236576   2.356   6.502   8.102 -0.4793 -0.1494 -0.2304
 5006TIP3    H136577   2.355   6.582   8.156 -0.1060 -0.0143 -0.4207
 5006TIP3    H236578   2.432   6.454   8.133  0.0069  0.1449 -0.9483
 5007TIP3   OH236579   4.911   2.570   0.543  0.4663 -0.0915 -0.2182
 5007TIP3    H136580   4.959   2.615   0.613 -0.2876  0.2969  0.0638
 5007TIP3    H236581   4.891   2.639   0.480  0.7714 -0.3612 -0.6126
 5008TIP3   OH236582   6.434   4.459   0.784 -0.0884  0.1731  1.2835
 5008TIP3    H136583   6.472   4.470   0.871  0.2595 -0.5637  1.2312
 5008TIP3    H236584   6.386   4.377   0.788  0.1628 -0.0070  0.7004
 5009TIP3   OH236585   5.643   6.106   8.498  0.4361 -0.1330  0.2314
 5009TIP3    H136586   5.650   6.201   8.492 -1.4261  0.3274  3.2223
 5009TIP3    H236587   5.582   6.091   8.570  1.7265 -3.6220  0.7965
 5010TIP3   OH236588   4.509   4.167   0.563  0.0136  0.3022 -0.4104
 5010TIP3    H136589   4.543   4.255   0.580  0.7028 -0.0328  0.0214
 5010TIP3    H236590   4.481   4.135   0.649 -1.4904  0.5894 -0.7662
 5011TIP3   OH236591   5.115   2.253   7.461 -0.0958  0.7719 -0.0333
 5011TIP3    H136592   5.165   2.234   7.382 -0.5781  0.7304 -0.3332
 5011TIP3    H236593   5.128   2.346   7.476  0.1210  0.7481 -0.0725
 5012TIP3   OH236594   6.106   2.645   9.005  0.4586 -0.0401  0.0737
 5012TIP3    H136595   6.085   2.703   8.931 -0.5697 -0.8540 -0.3038
 5012TIP3    H236596   6.192   2.674   9.035  0.3636  1.0844 -0.6847
 5013TIP3   OH236597   4.329   0.382   8.209  0.0473 -0.1219  0.0601
 5013TIP3    H136598   4.340   0.392   8.114  0.0508 -0.6883 -0.0050
 5013TIP3    H236599   4.273   0.305   8.218  0.8390 -0.6517  0.5381
 5014TIP3   OH236600   6.032   4.643   1.542  0.3462  0.1150  0.2761
 5014TIP3    H136601   6.126   4.634   1.526  0.1641  2.0896 -2.5116
 5014TIP3    H236602   5.991   4.587   1.476 -0.4699  0.2949  0.6140
 5015TIP3   OH236603   0.419   1.006   1.819  0.1460  0.2751  0.9068
 5015TIP3    H136604   0.480   1.074   1.791 -0.9830  0.9613  0.0553
 5015TIP3    H236605   0.437   0.994   1.912  0.1345  1.9719  1.1454
 5016TIP3   OH236606   5.890   6.284   2.337 -0.2548 -0.1882  0.6024
 5016TIP3    H136607   5.808   6.256   2.297 -0.0940  1.3116 -0.9059
 5016TIP3    H236608   5.870   6.368   2.377  0.1411 -0.6412  1.7771
 5017TIP3   OH236609   4.874   6.286   8.197 -0.2664 -0.4749 -0.1342
 5017TIP3    H136610   4.789   6.325   8.175  0.2621  0.6009 -0.3322
 5017TIP3    H236611   4.912   6.347   8.261  1.7361  0.8316 -2.4202
 5018TIP3   OH236612   6.122   5.662   1.546 -0.1967 -0.4612 -0.5018
 5018TIP3    H136613   6.198   5.652   1.604 -1.7190  0.2242  1.7885
 5018TIP3    H236614   6.100   5.573   1.520  0.1801 -0.8742  0.5222
 5019TIP3   OH236615   5.962   4.883   1.756  0.6783 -0.3018 -0.4549
 5019TIP3    H136616   5.901   4.951   1.785  1.2082  0.2585 -0.6182
 5019TIP3    H236617   6.035   4.889   1.817  0.9083 -0.4590 -0.7115
 5020TIP3   OH236618   2.961   4.802   0.518 -0.9388 -0.4077 -0.0769
 5020TIP3    H136619   2.950   4.802   0.613 -0.0396  0.4499  0.0402
 5020TIP3    H236620   2.897   4.738   0.487 -2.5473  0.6262  0.9443
 5021TIP3   OH236621   5.706   4.230   2.267 -0.0973 -0.0543  0.1507
 5021TIP3    H136622   5.636   4.209   2.329  2.2306 -1.1844  2.5796
 5021TIP3    H236623   5.735   4.317   2.293 -1.1094  0.8196 -1.4628
 5022TIP3   OH236624   1.765   0.239   0.339 -0.5187  0.3257 -0.5328
 5022TIP3    H136625   1.725   0.281   0.416  0.3047  0.2190 -0.0445
 5022TIP3    H236626   1.692   0.230   0.278 -1.6727 -1.4317  0.9875
 5023TIP3   OH236627   6.323   0.544   0.581  0.1303  0.2090  0.1756
 5023TIP3    H136628   6.319   0.620   0.638 -1.3935 -0.0322  0.4308
 5023TIP3    H236629   6.301   0.578   0.494  0.4029  0.2184  0.1089
 5024TIP3   OH236630   3.071   2.398   9.481  0.1577 -0.1781 -0.1652
 5024TIP3    H136631   3.028   2.329   9.531 -1.3209  0.5651 -0.3596
 5024TIP3    H236632   3.081   2.470   9.544  0.7187 -0.1855 -0.2423
 5025TIP3   OH236633   4.085   2.084   6.543 -0.8360 -0.3006  0.6814
 5025TIP3    H136634   3.990   2.090   6.553 -0.8494 -0.6795  0.7790
 5025TIP3    H236635   4.120   2.117   6.626 -0.9055 -1.2152  1.0870
 5026TIP3   OH236636   5.118   4.290   7.789 -0.0003  0.1118  0.0986
 5026TIP3    H136637   5.173   4.255   7.720  0.2943  1.2681 -0.2801
 5026TIP3    H236638   5.176   4.300   7.864 -0.2137 -0.7052  0.3873
 5027TIP3   OH236639   3.318   0.711   2.060  0.2276 -0.4796 -0.4928
 5027TIP3    H136640   3.257   0.774   2.097 -0.0494 -0.8978 -0.2185
 5027TIP3    H236641   3.391   0.763   2.028 -0.5600  0.0852 -1.4137
 5028TIP3   OH236642   0.962   6.108   2.801  0.1521 -0.5702 -0.6176
 5028TIP3    H136643   0.885   6.159   2.826  0.4688 -0.7718  0.8452
 5028TIP3    H236644   1.036   6.159   2.831  0.5121 -1.3650 -0.1141
 5029TIP3   OH236645   2.539   3.801   7.487  0.1787  0.4143  0.0214
 5029TIP3    H136646   2.589   3.879   7.465 -0.5023  0.7258 -0.4760
 5029TIP3    H236647   2.549   3.744   7.410  2.2721 -0.8541  1.1496
 5030TIP3   OH236648   2.546   2.344   7.565 -0.1968  0.4637  0.3735
 5030TIP3    H136649   2.497   2.343   7.483 -0.3306  2.0594  0.3965
 5030TIP3    H236650   2.580   2.255   7.574  0.7412  0.5172 -1.9582
 5031TIP3   OH236651   1.974   4.774   3.150  0.4000  0.3741  0.6310
 5031TIP3    H136652   1.970   4.851   3.093  0.9567  0.2586  0.4216
 5031TIP3    H236653   1.933   4.705   3.099  2.3819 -0.1538 -0.3815
 5032TIP3   OH236654   1.803   3.391   2.337  0.7202  0.2299  0.2731
 5032TIP3    H136655   1.791   3.426   2.425  1.1662  0.6487  0.1694
 5032TIP3    H236656   1.743   3.316   2.333 -0.2218  0.9564  0.5137
 5033TIP3   OH236657   1.102   3.696   0.216  0.0437  0.5261  0.4561
 5033TIP3    H136658   1.143   3.716   0.300  0.3502  0.0275  0.4306
 5033TIP3    H236659   1.041   3.769   0.201  3.2716  3.1701 -1.0947
 5034TIP3   OH236660   3.288   3.552   0.252 -0.0542  0.1026 -0.4341
 5034TIP3    H136661   3.221   3.606   0.294  1.5375  1.8669 -0.0572
 5034TIP3    H236662   3.369   3.575   0.296  0.8158 -2.1572 -0.7193
 5035TIP3   OH236663   1.704   5.581   0.509  0.0119 -0.3546 -0.7586
 5035TIP3    H136664   1.738   5.626   0.586 -1.0437  2.2696 -1.7139
 5035TIP3    H236665   1.780   5.572   0.451  0.2667  0.1164 -0.5028
 5036TIP3   OH236666   0.052   1.022   2.408  0.5372  0.1627  0.2386
 5036TIP3    H136667  -0.017   0.989   2.465 -1.0279 -0.6822 -1.9866
 5036TIP3    H236668   0.033   1.115   2.398 -0.1567 -0.0117 -0.1505
 5037TIP3   OH236669   2.312   0.656   2.267  0.0968  0.1981  0.1882
 5037TIP3    H136670   2.315   0.663   2.363 -4.3618 -0.8058  0.5802
 5037TIP3    H236671   2.337   0.566   2.248 -0.4061 -0.0159  0.5411
 5038TIP3   OH236672   4.772   2.178   7.754 -0.4517 -0.1562  0.1703
 5038TIP3    H136673   4.821   2.097   7.737  2.8029  1.8566 -1.0197
 5038TIP3    H236674   4.735   2.202   7.669  1.1377  1.0588 -0.2193
 5039TIP3   OH236675   3.360   6.091   0.751  0.2246 -0.0302 -0.5959
 5039TIP3    H136676   3.342   5.998   0.756  3.0253 -0.6721 -0.6004
 5039TIP3    H236677   3.346   6.123   0.840 -0.2140 -0.5578 -0.4713
 5040TIP3   OH236678   4.683   6.482   0.106  0.1274  0.0849  0.0723
 5040TIP3    H136679   4.633   6.405   0.080 -1.6742  0.4810  2.1444
 5040TIP3    H236680   4.686   6.479   0.201  0.8160  2.1034  0.1714
 5041TIP3   OH236681   1.943   0.826   1.571 -0.5526 -0.0058  0.2126
 5041TIP3    H136682   1.961   0.790   1.658  0.8391 -1.1721 -0.5181
 5041TIP3    H236683   1.981   0.762   1.511  1.4465  2.3560 -1.1725
 5042TIP3   OH236684   3.330   2.532   9.596 -0.8295 -0.4721  0.4980
 5042TIP3    H136685   3.258   2.545   9.657 -0.1501  0.8557  1.0508
 5042TIP3    H236686   3.407   2.524   9.651 -0.4833 -1.4996 -0.1044
 5043TIP3   OH236687   4.390   6.073   7.483  0.2329  0.0058  0.6447
 5043TIP3    H136688   4.367   5.989   7.442 -1.0759 -0.3556  2.0145
 5043TIP3    H236689   4.485   6.067   7.497  0.3521 -0.7446 -0.3416
 5044TIP3   OH236690   5.502   5.181   6.834 -0.0214 -0.0154  0.1051
 5044TIP3    H136691   5.571   5.166   6.770 -0.7063  1.6988 -1.1126
 5044TIP3    H236692   5.424   5.142   6.794 -0.3313  0.5540  0.1466
 5045TIP3   OH236693   0.320   3.984   2.128 -0.4632 -1.0610  0.3408
 5045TIP3    H136694   0.314   4.025   2.042 -1.7443  1.3637  1.5102
 5045TIP3    H236695   0.246   3.923   2.130 -0.8162 -0.6513 -0.0262
 5046TIP3   OH236696   4.608   6.319   7.128  0.1237  0.1452 -0.6875
 5046TIP3    H136697   4.579   6.339   7.039  1.9548 -0.8905 -1.5764
 5046TIP3    H236698   4.691   6.365   7.138 -0.4287  0.8872  0.8042
 5047TIP3   OH236699   0.365   0.011   9.286 -0.1712  1.1373  0.4694
 5047TIP3    H136700   0.344   0.079   9.350 -2.3793 -0.8266  2.0515
 5047TIP3    H236701   0.444  -0.031   9.320 -0.0358  1.5434  0.6609
 5048TIP3   OH236702   4.080   0.471   7.059  0.7164  0.2752 -0.4257
 5048TIP3    H136703   4.090   0.399   6.997  0.2491 -1.2683  1.2142
 5048TIP3    H236704   3.987   0.493   7.055  1.0061  1.3825 -1.5223
 5049TIP3   OH236705   3.390   4.248   1.484  0.5433  0.2098 -0.3326
 5049TIP3    H136706   3.311   4.273   1.437  0.5724  1.9276  0.4510
 5049TIP3    H236707   3.360   4.190   1.554 -0.1919  1.5646  0.5200
 5050TIP3   OH236708   0.430   0.279   8.364  0.1138  0.5401  0.4513
 5050TIP3    H136709   0.393   0.222   8.432 -0.9127  1.2395  0.4959
 5050TIP3    H236710   0.373   0.355   8.363 -0.6498  0.0322 -2.0326
 5051TIP3   OH236711   1.654   5.612   2.945 -0.2574  0.0073 -0.2561
 5051TIP3    H136712   1.650   5.545   2.877 -0.4045  1.0086 -1.2593
 5051TIP3    H236713   1.720   5.674   2.915  0.0323  0.2097  0.7635
 5052TIP3   OH236714   3.430   4.254   0.213  0.9236  0.1178 -0.0052
 5052TIP3    H136715   3.462   4.259   0.303  0.5894 -1.2649  0.2075
 5052TIP3    H236716   3.355   4.196   0.217 -0.8161  2.1755 -0.7359
 5053TIP3   OH236717   6.485   5.395   1.485  0.2156  0.1426 -0.0246
 5053TIP3    H136718   6.462   5.304   1.467  0.7466 -0.0599  0.3026
 5053TIP3    H236719   6.550   5.390   1.555 -0.3017  0.8097  0.5155
 5054TIP3   OH236720   1.639   2.918   0.193 -0.7983 -0.0612  1.2135
 5054TIP3    H136721   1.689   2.990   0.155  0.2790 -0.7012  1.3725
 5054TIP3    H236722   1.651   2.846   0.131 -1.1650 -0.3530  1.4767
 5055TIP3   OH236723   3.264   0.507   9.098  0.1857  0.2812 -0.6946
 5055TIP3    H136724   3.351   0.530   9.128 -0.4868  1.3462  0.5085
 5055TIP3    H236725   3.217   0.481   9.177 -0.6570 -0.0761 -1.2941
 5056TIP3   OH236726   1.679   4.400   8.459  0.3676  0.0683  0.4468
 5056TIP3    H136727   1.767   4.423   8.489  0.8803 -0.2396 -0.7563
 5056TIP3    H236728   1.625   4.475   8.483  1.4183  1.2517 -0.7511
 5057TIP3   OH236729   2.210   4.432   9.402  0.2846 -0.4426  0.2564
 5057TIP3    H136730   2.220   4.366   9.333  0.9440 -0.5729  0.4726
 5057TIP3    H236731   2.200   4.514   9.354 -2.5441 -0.8768 -0.0805
 5058TIP3   OH236732   1.222   2.665   7.566 -0.2265 -0.3345  0.0904
 5058TIP3    H136733   1.264   2.751   7.566  1.2888 -1.0423  0.3905
 5058TIP3    H236734   1.295   2.603   7.567 -1.2924 -1.6241  0.5665
 5059TIP3   OH236735   1.433   2.323   7.434 -0.4465  0.0189 -0.0732
 5059TIP3    H136736   1.526   2.313   7.411 -0.4707 -1.5664  0.4487
 5059TIP3    H236737   1.392   2.243   7.403 -0.7235 -1.7062  4.1748
 5060TIP3   OH236738   1.042   5.690   2.370 -0.4808  0.0959  0.1109
 5060TIP3    H136739   1.045   5.782   2.398 -1.6979  1.1779 -2.9070
 5060TIP3    H236740   0.970   5.652   2.421 -1.0938  1.2879  0.1764
 5061TIP3   OH236741   4.316   0.423   1.051  0.0261  0.4906  0.0724
 5061TIP3    H136742   4.398   0.470   1.034  1.9365 -2.4000  0.6355
 5061TIP3    H236743   4.294   0.383   0.967  0.2707 -0.2814  0.3703
 5062TIP3   OH236744   2.582   6.381   8.175  0.5879  0.5035  0.3057
 5062TIP3    H136745   2.596   6.322   8.100 -0.4935 -3.2584  2.7991
 5062TIP3    H236746   2.667   6.388   8.216  0.4845 -0.3782  0.6825
 5063TIP3   OH236747   4.845   0.399   0.634 -0.5440 -0.2897  0.2411
 5063TIP3    H136748   4.839   0.429   0.725  0.3684  1.4319 -0.2316
 5063TIP3    H236749   4.928   0.434   0.603  0.2220 -2.6855 -0.6440
 5064TIP3   OH236750   2.779   3.844   8.110  0.1608  0.0828 -0.1300
 5064TIP3    H136751   2.834   3.889   8.046  0.4024 -0.2956 -0.1954
 5064TIP3    H236752   2.838   3.829   8.184  0.6492 -1.8205 -0.8513
 5065TIP3   OH236753   5.905   1.305   1.006  0.2802  0.8484 -0.3795
 5065TIP3    H136754   5.867   1.266   0.928  0.8680  1.0201 -0.7597
 5065TIP3    H236755   5.912   1.232   1.068  1.5909  0.2631 -1.1630
 5066TIP3   OH236756   3.216   5.658   8.468 -0.6909 -0.3815 -0.2291
 5066TIP3    H136757   3.268   5.580   8.449 -0.0990  0.0176 -0.2788
 5066TIP3    H236758   3.142   5.625   8.518 -1.6228 -1.2769 -2.1186
 5067TIP3   OH236759   0.952   3.095   8.055  0.4642  0.2910 -0.8572
 5067TIP3    H136760   0.938   3.125   7.965 -0.1881  0.5698 -0.6738
 5067TIP3    H236761   0.875   3.040   8.074 -0.8611  2.4340  0.4404
 5068TIP3   OH236762   4.584   0.649   1.748  0.2751  0.5823 -0.2908
 5068TIP3    H136763   4.564   0.734   1.711 -1.4009  0.5572  0.4464
 5068TIP3    H236764   4.529   0.588   1.698 -1.1871  0.4181  1.4276
 5069TIP3   OH236765   2.604   5.844   8.463  0.4695 -0.1743  0.8362
 5069TIP3    H136766   2.662   5.776   8.430 -0.6372 -0.5320 -0.4561
 5069TIP3    H236767   2.630   5.923   8.415  0.4125 -0.1553  0.8362
 5070TIP3   OH236768   1.718   2.847   9.298  0.0817  0.4126  0.2806
 5070TIP3    H136769   1.666   2.790   9.241  1.2201 -0.5693  0.1739
 5070TIP3    H236770   1.681   2.934   9.286 -1.8742 -0.3250  0.6294
 5071TIP3   OH236771   4.856   3.109   8.871 -0.1701  0.4671 -0.8205
 5071TIP3    H136772   4.798   3.068   8.807  0.5104 -2.0978  0.0524
 5071TIP3    H236773   4.826   3.075   8.956  1.5667  0.3080 -0.2210
 5072TIP3   OH236774   1.712   4.348   0.248 -0.2421  0.3723  0.0966
 5072TIP3    H136775   1.651   4.341   0.175  0.3265 -0.8424 -0.2869
 5072TIP3    H236776   1.752   4.434   0.238  1.4799 -0.6017 -2.3932
 5073TIP3   OH236777   3.625   5.653   0.835  0.5700  0.1158 -0.3996
 5073TIP3    H136778   3.690   5.597   0.878  0.9397 -0.7125 -1.9399
 5073TIP3    H236779   3.541   5.610   0.853  0.7916 -0.6206 -1.0691
 5074TIP3   OH236780   3.411   5.618   2.022 -0.3718  0.0312  0.2230
 5074TIP3    H136781   3.371   5.648   2.104  0.6713 -0.5276  0.9574
 5074TIP3    H236782   3.418   5.523   2.033  0.3003  0.0227 -0.2769
 5075TIP3   OH236783   0.695   5.883   0.898  0.6985 -0.2743  0.0050
 5075TIP3    H136784   0.622   5.844   0.850 -2.6291  1.3493  3.2521
 5075TIP3    H236785   0.692   5.842   0.984  2.8056  0.8267  0.6751
 5076TIP3   OH236786   2.342   2.959   0.140  0.2223 -0.2520 -0.0757
 5076TIP3    H136787   2.377   2.906   0.211 -0.7195 -1.1228 -0.2305
 5076TIP3    H236788   2.261   2.996   0.175  0.5227  0.5456 -0.1997
 5077TIP3   OH236789   1.348   4.361   0.490  0.2692 -0.6769 -0.0212
 5077TIP3    H136790   1.353   4.372   0.396 -0.3693 -2.6037 -0.3205
 5077TIP3    H236791   1.328   4.448   0.524  1.5239  0.2499 -1.5471
 5078TIP3   OH236792   6.133   6.181   9.102 -0.0488 -0.3493 -0.5112
 5078TIP3    H136793   6.194   6.113   9.072 -1.0052 -1.8587  0.8177
 5078TIP3    H236794   6.053   6.134   9.126 -0.4902  1.1203  1.1891
 5079TIP3   OH236795   4.509   5.768   0.941 -0.4765  0.8382  0.4112
 5079TIP3    H136796   4.523   5.860   0.917 -0.6618  0.5982 -0.6825
 5079TIP3    H236797   4.493   5.770   1.035 -0.6466  1.9483  0.3767
 5080TIP3   OH236798   4.741   1.984   7.248  0.1229 -1.2366  0.5834
 5080TIP3    H136799   4.828   2.023   7.256  0.4375 -1.1460 -2.1862
 5080TIP3    H236800   4.685   2.056   7.221 -0.4413 -1.6315  0.6794
 5081TIP3   OH236801   1.307   3.217   1.482  0.1424  0.8444  0.1302
 5081TIP3    H136802   1.227   3.180   1.445  0.2394  1.7384 -1.0156
 5081TIP3    H236803   1.280   3.249   1.568 -0.8272  1.4260 -0.3675
 5082TIP3   OH236804   3.004   2.010   7.374  0.4381  0.0310  0.2747
 5082TIP3    H136805   2.962   2.065   7.441  3.9371  2.6023  0.6520
 5082TIP3    H236806   3.094   2.001   7.404  1.3985 -1.2545 -2.6709
 5083TIP3   OH236807   2.381   5.289   0.820 -0.5846  0.5765 -0.2867
 5083TIP3    H136808   2.306   5.236   0.792  0.3355 -0.0285 -1.7200
 5083TIP3    H236809   2.346   5.378   0.826 -1.6559  0.1516  0.0886
 5084TIP3   OH236810   5.239   3.919   8.232 -0.2588 -0.5015  0.1197
 5084TIP3    H136811   5.147   3.943   8.241 -0.2450  0.0250 -0.9541
 5084TIP3    H236812   5.250   3.903   8.138  0.7628 -0.4838  0.2258
 5085TIP3   OH236813   0.571   0.238   1.330 -0.2267  0.0483 -0.2895
 5085TIP3    H136814   0.597   0.269   1.243 -0.2559 -1.5054 -0.8822
 5085TIP3    H236815   0.653   0.216   1.374 -0.2941 -0.6956 -0.5299
 5086TIP3   OH236816   2.316   1.798   0.687 -0.5519 -0.1282  0.5554
 5086TIP3    H136817   2.227   1.828   0.667 -0.1332  1.7551  1.2999
 5086TIP3    H236818   2.365   1.813   0.606 -0.9686 -1.6098 -0.0120
 5087TIP3   OH236819   2.047   3.470   0.406 -0.8239  0.3343  0.4400
 5087TIP3    H136820   1.957   3.497   0.428 -1.2957 -0.3784 -0.5418
 5087TIP3    H236821   2.087   3.549   0.370  0.0340  1.6148  3.7918
 5088TIP3   OH236822   1.881   2.845   2.274 -0.0658 -0.1656 -0.4290
 5088TIP3    H136823   1.864   2.834   2.367 -1.1851 -1.2445 -0.7297
 5088TIP3    H236824   1.945   2.777   2.252 -2.5340 -2.4618 -1.1079
 5089TIP3   OH236825   5.884   2.857   1.139  0.2270 -0.3946 -0.0395
 5089TIP3    H136826   5.862   2.792   1.072 -0.5528 -0.5703  0.3673
 5089TIP3    H236827   5.967   2.895   1.110 -0.6088  0.2803 -1.6481
 5090TIP3   OH236828   1.125   2.822   0.401  1.1148 -0.8650 -0.1527
 5090TIP3    H136829   1.073   2.745   0.425  1.9710 -1.1348  0.8762
 5090TIP3    H236830   1.133   2.816   0.305 -0.7934 -0.7653 -0.3580
 5091TIP3   OH236831   4.472   2.222   1.089  0.3226  0.5970  0.9664
 5091TIP3    H136832   4.466   2.142   1.037 -3.3577  0.3381  1.4972
 5091TIP3    H236833   4.452   2.292   1.027 -1.6732  0.5203  1.4706
 5092TIP3   OH236834   0.735   5.030   7.426 -0.2299 -0.0789  0.1645
 5092TIP3    H136835   0.751   5.124   7.426  1.5589 -0.3339  1.4268
 5092TIP3    H236836   0.768   5.000   7.511 -2.3194 -1.6273  0.4997
 5093TIP3   OH236837   2.331   5.387   3.368  0.0115  0.6915 -0.1820
 5093TIP3    H136838   2.280   5.322   3.319  0.4839 -1.0690  1.5388
 5093TIP3    H236839   2.308   5.471   3.328 -1.9444 -0.3458 -1.3745
 5094TIP3   OH236840   1.656   6.095   7.869 -0.0385  0.7349  0.6155
 5094TIP3    H136841   1.693   6.162   7.812  0.2029  0.5607  0.5656
 5094TIP3    H236842   1.726   6.076   7.932  2.6276 -4.1690 -3.1521
 5095TIP3   OH236843   1.096   3.122   9.501 -0.2311  0.7346  0.2679
 5095TIP3    H136844   1.162   3.181   9.538 -1.6504  1.1463  2.3200
 5095TIP3    H236845   1.097   3.141   9.407  0.8124  2.5365  0.5951
 5096TIP3   OH236846   4.161   6.266   8.295 -0.1470  0.1797 -0.1950
 5096TIP3    H136847   4.091   6.215   8.336 -0.6174 -0.2509 -1.4746
 5096TIP3    H236848   4.211   6.201   8.244 -0.6368  0.9188 -1.6897
 5097TIP3   OH236849   1.438   5.583   7.629  0.2903 -0.3459  0.1770
 5097TIP3    H136850   1.411   5.492   7.619 -0.6515  0.1728 -3.1096
 5097TIP3    H236851   1.507   5.580   7.696 -0.5413 -3.2451  1.0491
 5098TIP3   OH236852   4.628   4.161   2.594 -0.0419  0.3221 -0.2784
 5098TIP3    H136853   4.654   4.228   2.657  0.2145  0.8906 -0.9804
 5098TIP3    H236854   4.655   4.195   2.509  2.7379 -1.8684 -0.4485
 5099TIP3   OH236855   6.041   5.735   7.227 -0.0369  0.1079  0.2177
 5099TIP3    H136856   6.005   5.798   7.290 -0.9398 -0.0160 -0.1635
 5099TIP3    H236857   6.123   5.776   7.197  0.4000  0.1806  1.4302
 5100TIP3   OH236858   1.770   6.292   1.461 -0.0035 -0.3525 -0.7078
 5100TIP3    H136859   1.863   6.271   1.455  0.2641  0.7673 -0.8366
 5100TIP3    H236860   1.739   6.288   1.370  0.3712  1.0978 -0.9259
 5101TIP3   OH236861   2.199   2.986   2.599 -0.1685  0.3908 -0.1872
 5101TIP3    H136862   2.154   2.940   2.671  1.4163  1.5352  1.6331
 5101TIP3    H236863   2.291   2.963   2.610  0.4931  2.7981 -0.0712
 5102TIP3   OH236864   5.495   3.505   8.503 -0.7445  0.6647  0.0196
 5102TIP3    H136865   5.435   3.578   8.487 -1.3593  0.8208  2.5517
 5102TIP3    H236866   5.569   3.544   8.548 -0.4582 -0.0761  0.2069
 5103TIP3   OH236867   5.370   0.612   9.076 -0.1559 -0.5039  0.7087
 5103TIP3    H136868   5.457   0.602   9.038 -0.4472  0.1094 -0.1351
 5103TIP3    H236869   5.374   0.560   9.157 -0.4988 -4.5151 -1.5761
 5104TIP3   OH236870   3.009   3.940   7.658  1.1068 -1.3438  0.2498
 5104TIP3    H136871   3.088   3.986   7.687  1.3327 -1.4098 -0.2472
 5104TIP3    H236872   2.998   3.968   7.567 -0.8800  0.6760  1.0165
 5105TIP3   OH236873   0.391   0.501   8.846 -0.5582  0.3019 -0.2774
 5105TIP3    H136874   0.384   0.437   8.775  1.3627  1.6524 -1.7819
 5105TIP3    H236875   0.400   0.448   8.925 -3.2237 -1.2601 -0.9015
 5106TIP3   OH236876   2.114   0.064   7.379  0.6958  0.0239 -0.6331
 5106TIP3    H136877   2.180   0.133   7.376  0.4522  0.3652  1.1514
 5106TIP3    H236878   2.160  -0.012   7.415  0.1825  0.2161  0.4643
 5107TIP3   OH236879   3.348   0.036   0.588 -0.0951  0.3427  0.1150
 5107TIP3    H136880   3.387  -0.041   0.630 -1.3438  0.8064  2.2766
 5107TIP3    H236881   3.407   0.108   0.611  0.1974  0.3110 -0.5173
 5108TIP3   OH236882   1.141   5.916   7.243  0.3230 -0.2233 -0.2553
 5108TIP3    H136883   1.188   5.834   7.225  0.5971 -0.2374  0.5019
 5108TIP3    H236884   1.199   5.984   7.207  0.3703 -0.3156 -0.3567
 5109TIP3   OH236885   4.077   2.185   7.794 -0.7744  0.3618  0.0756
 5109TIP3    H136886   4.099   2.096   7.821 -0.4571  0.4117 -0.0217
 5109TIP3    H236887   4.161   2.231   7.790 -0.9196  0.6197 -0.0406
 5110TIP3   OH236888   5.792   5.063   1.057 -0.0357 -0.2995 -0.3276
 5110TIP3    H136889   5.857   5.076   1.126  0.1474  1.6564 -0.7957
 5110TIP3    H236890   5.718   5.020   1.101  0.6170 -0.3322  0.7678
 5111TIP3   OH236891   5.900   1.250   1.806  0.8291  0.5888 -0.3779
 5111TIP3    H136892   5.864   1.335   1.778 -2.7458  0.8793  3.8980
 5111TIP3    H236893   5.979   1.273   1.855 -1.2594  1.9543  2.6297
 5112TIP3   OH236894   5.464   6.240   8.953 -0.4918 -0.3220 -0.0431
 5112TIP3    H136895   5.530   6.288   9.004  0.8867 -0.4231 -1.6312
 5112TIP3    H236896   5.393   6.223   9.015  0.2308  1.2707  1.2981
 5113TIP3   OH236897   6.476   2.952   7.295 -0.0867 -0.5055  0.0975
 5113TIP3    H136898   6.479   3.032   7.348 -2.5770  0.3574 -0.8910
 5113TIP3    H236899   6.528   2.973   7.217  0.8725 -0.5817  0.7059
 5114TIP3   OH236900   2.012   6.057   8.444  0.0177  0.5940 -0.3476
 5114TIP3    H136901   1.991   6.000   8.371  0.5468  0.5941 -0.5007
 5114TIP3    H236902   1.937   6.117   8.450 -0.2808  0.2411 -0.5339
 5115TIP3   OH236903   1.388   1.032   7.837 -0.6848  0.0141 -0.1559
 5115TIP3    H136904   1.415   1.082   7.759  0.5302 -1.7006 -0.9179
 5115TIP3    H236905   1.312   0.982   7.808 -0.9593  0.2717  0.1237
 5116TIP3   OH236906   6.519   2.955   8.507 -0.0268  0.2689  0.3823
 5116TIP3    H136907   6.499   3.000   8.425  1.6184  0.4140  0.0208
 5116TIP3    H236908   6.533   3.025   8.570 -2.5497  0.1533  1.1754
 5117TIP3   OH236909   3.730   3.364   8.930 -0.2005 -0.3424  0.5839
 5117TIP3    H136910   3.714   3.453   8.960 -0.0884  0.0887 -0.5540
 5117TIP3    H236911   3.703   3.365   8.838 -1.0461 -1.7238  0.7853
 5118TIP3   OH236912   0.145   5.093   6.989 -1.0333 -0.2717  0.1203
 5118TIP3    H136913   0.239   5.104   6.975 -0.9046 -0.4992  0.7520
 5118TIP3    H236914   0.132   4.998   6.987 -1.1027 -0.2862  0.8701
 5119TIP3   OH236915   0.253   0.325   8.669  0.2736 -0.2916  0.0881
 5119TIP3    H136916   0.167   0.359   8.645  0.2311 -0.6493 -0.2642
 5119TIP3    H236917   0.252   0.234   8.641 -0.0243 -0.9457  2.0790
 5120TIP3   OH236918   1.219   2.403   8.823 -0.2490 -0.3487  0.1173
 5120TIP3    H136919   1.265   2.327   8.788 -1.0669 -0.7896 -0.0229
 5120TIP3    H236920   1.240   2.474   8.762  0.2193 -0.5493  0.0440
 5121TIP3   OH236921   1.010   3.562   8.896  0.6485  0.1354 -0.1822
 5121TIP3    H136922   1.028   3.594   8.985  1.1944  3.3824 -1.3231
 5121TIP3    H236923   0.925   3.519   8.904  0.9842 -0.2765  2.0140
 5122TIP3   OH236924   4.599   4.143   1.551 -0.1880  0.0311  0.6644
 5122TIP3    H136925   4.601   4.082   1.625  0.7043 -1.7414 -0.7226
 5122TIP3    H236926   4.507   4.148   1.526 -0.2947 -0.6215  0.9122
 5123TIP3   OH236927   0.215   1.817   9.578 -0.3808  0.5787 -0.4888
 5123TIP3    H136928   0.177   1.758   9.513 -0.7509 -0.9278  1.0308
 5123TIP3    H236929   0.295   1.850   9.537  1.0794 -2.7597 -0.6031
 5124TIP3   OH236930   3.992   0.849   7.332 -0.1570  0.1672  0.1110
 5124TIP3    H136931   3.904   0.812   7.343 -1.3302  2.3496 -1.1991
 5124TIP3    H236932   3.995   0.921   7.395  0.8452 -0.1262  0.4030
 5125TIP3   OH236933   5.008   0.620   0.490 -0.2709 -0.5553 -0.1407
 5125TIP3    H136934   5.084   0.585   0.443  0.7989 -0.6974  1.6184
 5125TIP3    H236935   4.944   0.637   0.421  1.6090  0.3058 -1.7822
 5126TIP3   OH236936   0.617   2.705   1.981  0.1375 -0.0022 -0.1211
 5126TIP3    H136937   0.536   2.666   1.949  0.0602 -0.2351  0.3497
 5126TIP3    H236938   0.685   2.668   1.926 -0.1731  0.9443 -1.1636
 5127TIP3   OH236939   5.261   2.991   8.211  0.0510 -0.5016  0.3890
 5127TIP3    H136940   5.300   2.904   8.207 -0.8450 -0.8851 -0.7689
 5127TIP3    H236941   5.329   3.050   8.180  0.4580 -0.8722  0.5699
 5128TIP3   OH236942   0.948   5.500   8.242 -0.4006  0.7520  0.4297
 5128TIP3    H136943   1.000   5.561   8.189  2.4713 -1.1985  0.7770
 5128TIP3    H236944   0.893   5.455   8.179 -0.2577  1.5088 -0.2583
 5129TIP3   OH236945   4.439   3.512   0.934 -0.1753 -0.0432  0.8397
 5129TIP3    H136946   4.459   3.442   0.996 -1.2333 -0.4654  0.7245
 5129TIP3    H236947   4.377   3.472   0.872  0.3846  0.5484 -0.1324
 5130TIP3   OH236948   5.109   0.529   7.225  0.4889 -0.1989 -0.1036
 5130TIP3    H136949   5.185   0.582   7.200 -1.0171  2.6846  0.9812
 5130TIP3    H236950   5.034   0.574   7.185 -1.1408  0.0345  2.9263
 5131TIP3   OH236951   0.400   3.249   7.569  0.2629  0.0943 -0.0175
 5131TIP3    H136952   0.476   3.252   7.628  0.2378 -0.7794  0.0736
 5131TIP3    H236953   0.339   3.188   7.612 -0.3292  0.4984 -0.2807
 5132TIP3   OH236954   3.173   0.102   1.348 -0.4903  0.9232  0.2174
 5132TIP3    H136955   3.249   0.045   1.345 -0.6185  0.7642 -0.1016
 5132TIP3    H236956   3.117   0.064   1.416  0.7752  2.4108  2.1904
 5133TIP3   OH236957   6.463   6.160   2.102  0.2942  0.3586 -0.2104
 5133TIP3    H136958   6.490   6.245   2.136  1.8960 -1.3444  3.1659
 5133TIP3    H236959   6.545   6.112   2.088 -0.6222 -1.6062  0.7888
 5134TIP3   OH236960   4.486   6.025   0.597 -0.0968  0.0985  0.2983
 5134TIP3    H136961   4.455   6.011   0.507 -1.8894 -0.5853  0.9934
 5134TIP3    H236962   4.551   6.095   0.588 -0.8726  0.6707 -1.4198
 5135TIP3   OH236963   6.123   3.422   0.813  0.2445 -0.0991 -0.0494
 5135TIP3    H136964   6.056   3.361   0.844  1.4234 -2.1006 -1.2218
 5135TIP3    H236965   6.205   3.372   0.818  1.6808  2.2222  1.2248
 5136TIP3   OH236966   3.230   2.494   7.004 -0.2409 -0.2084 -0.0943
 5136TIP3    H136967   3.172   2.436   6.954 -1.7702  0.9351  0.2465
 5136TIP3    H236968   3.243   2.450   7.087 -0.7285 -0.4373 -0.1367
 5137TIP3   OH236969   2.219   5.855   1.695 -0.0738 -0.1390  0.1486
 5137TIP3    H136970   2.258   5.771   1.671  0.6479  0.0145  0.7453
 5137TIP3    H236971   2.127   5.836   1.710 -0.1368 -0.6179 -0.7638
 5138TIP3   OH236972   1.302   3.305   6.953  0.1053 -0.0328 -0.0101
 5138TIP3    H136973   1.254   3.329   7.032  0.2235  1.2339 -0.3095
 5138TIP3    H236974   1.394   3.309   6.979  0.1413  0.3031 -0.1847
 5139TIP3   OH236975   2.989   3.269   9.179  0.3281  0.5629  0.6621
 5139TIP3    H136976   2.911   3.294   9.229  0.8551  1.6036  0.9822
 5139TIP3    H236977   3.021   3.352   9.142  2.0194  0.3458  1.5930
 5140TIP3   OH236978   0.187   5.797   9.413  0.1627  0.0253 -0.5914
 5140TIP3    H136979   0.125   5.730   9.442 -1.8656  1.6104 -0.9626
 5140TIP3    H236980   0.138   5.879   9.420  0.3952  0.9144 -5.5638
 5141TIP3   OH236981   3.809   0.965   7.930  0.0035  0.1409  0.1557
 5141TIP3    H136982   3.779   0.894   7.874  1.6997 -1.6651  1.3992
 5141TIP3    H236983   3.767   0.949   8.015  0.4578  0.5462  0.4682
 5142TIP3   OH236984   2.307   5.348   1.703 -0.3358 -0.4901  0.2171
 5142TIP3    H136985   2.368   5.276   1.690 -0.2958 -0.7547  1.6550
 5142TIP3    H236986   2.251   5.347   1.625  0.1008 -1.6313 -0.1027
 5143TIP3   OH236987   5.087   3.107   0.870  0.0465 -0.2937  0.0948
 5143TIP3    H136988   5.156   3.058   0.825 -0.1911 -0.1969 -0.3796
 5143TIP3    H236989   5.023   3.128   0.802 -0.1201  0.2091  0.3965
 5144TIP3   OH236990   5.860   2.940   0.826  0.5114  0.5226 -0.4558
 5144TIP3    H136991   5.767   2.933   0.847  0.7520 -1.5338  0.1341
 5144TIP3    H236992   5.862   2.974   0.736 -0.8140  0.1282 -0.6453
 5145TIP3   OH236993   4.159   5.267   8.312 -0.4419  0.3645 -0.6506
 5145TIP3    H136994   4.090   5.255   8.248 -0.5040  1.1188 -0.7408
 5145TIP3    H236995   4.197   5.353   8.291 -0.0171  0.3190 -0.1056
 5146TIP3   OH236996   5.311   1.168   7.418  0.0533 -0.4844 -0.0407
 5146TIP3    H136997   5.313   1.140   7.510 -1.2114 -0.4431  0.0243
 5146TIP3    H236998   5.289   1.261   7.421  0.6325 -0.3330 -0.3717
 5147TIP3   OH236999   1.841   4.027   1.461 -0.3253  0.2569 -0.1381
 5147TIP3    H137000   1.794   4.104   1.492  0.9359  0.5408  1.1604
 5147TIP3    H237001   1.807   3.955   1.515 -1.1449 -0.0325 -1.0119
 5148TIP3   OH237002   3.539   3.869   9.353  0.1321  0.8750  0.0027
 5148TIP3    H137003   3.626   3.831   9.351 -0.2845 -0.2709  1.4910
 5148TIP3    H237004   3.517   3.873   9.446 -1.2622  1.4643 -0.3267
 5149TIP3   OH237005   0.004   3.876   7.624 -0.1408  0.3436  0.4650
 5149TIP3    H137006   0.003   3.781   7.616 -0.0081  0.2583  1.3728
 5149TIP3    H237007   0.037   3.907   7.539  0.4048 -0.4456  0.3790
 5150TIP3   OH237008   2.758   6.367   7.696 -0.4004 -0.0731  0.2028
 5150TIP3    H137009   2.824   6.436   7.706  1.4116 -1.8660  1.4661
 5150TIP3    H237010   2.714   6.363   7.781 -1.7484  0.6842 -0.4330
 5151TIP3   OH237011   3.399   5.289   8.774  0.0428  0.0030  0.0824
 5151TIP3    H137012   3.414   5.383   8.770  1.3317 -0.2273 -1.1572
 5151TIP3    H237013   3.356   5.268   8.691 -2.3702 -0.1959  1.2939
 5152TIP3   OH237014   3.662   5.621   7.693 -0.4397 -0.1230  0.1440
 5152TIP3    H137015   3.705   5.570   7.625 -1.9576 -1.5185  0.1677
 5152TIP3    H237016   3.585   5.659   7.650 -2.1270 -2.0523  1.2924
 5153TIP3   OH237017   2.647   5.486   0.829 -0.2489 -0.0388  0.3633
 5153TIP3    H137018   2.610   5.459   0.745  0.4562  0.7169 -0.2111
 5153TIP3    H237019   2.699   5.564   0.809  2.5427 -1.6008  0.8669
 5154TIP3   OH237020   0.255   6.295   2.213  0.2082 -0.6713  0.1983
 5154TIP3    H137021   0.226   6.385   2.200  1.2250 -0.2400  0.7668
 5154TIP3    H237022   0.331   6.286   2.155  2.1039 -0.0938  2.4280
 5155TIP3   OH237023   0.448   2.029   7.440 -0.0238 -0.0822 -0.2577
 5155TIP3    H137024   0.487   2.112   7.415 -1.9751  0.9516 -0.0946
 5155TIP3    H237025   0.380   2.014   7.375 -0.7898 -0.6952  0.6480
 5156TIP3   OH237026   0.113   0.284   7.911 -0.2395 -0.0176 -0.1903
 5156TIP3    H137027   0.066   0.365   7.888  1.5525  1.4696  1.1652
 5156TIP3    H237028   0.165   0.264   7.833 -0.3673  0.3649 -0.3775
 5157TIP3   OH237029   4.114   5.107   8.937 -0.0976  0.2034  0.1437
 5157TIP3    H137030   4.101   5.191   8.894  0.1101 -0.7790 -1.9457
 5157TIP3    H237031   4.178   5.061   8.883 -2.0745 -2.2681 -0.2800
 5158TIP3   OH237032   5.878   6.412   8.773  0.1218 -0.1405 -0.9658
 5158TIP3    H137033   5.891   6.387   8.864  0.1854 -0.1471 -0.9774
 5158TIP3    H237034   5.878   6.329   8.725  0.0080 -0.1436 -0.9617
 5159TIP3   OH237035   4.834   3.702   8.630 -0.3748  0.0546  0.5923
 5159TIP3    H137036   4.909   3.702   8.689 -0.4870 -0.3228  0.7402
 5159TIP3    H237037   4.773   3.640   8.670 -0.6726  0.1948  0.3570
 5160TIP3   OH237038   5.239   2.799   8.528 -0.2897 -0.6315 -0.3291
 5160TIP3    H137039   5.144   2.794   8.540 -0.4992 -1.1493 -2.0146
 5160TIP3    H237040   5.275   2.757   8.607 -1.4208  0.0934  0.6072
 5161TIP3   OH237041   2.798   3.908   9.188  0.1909 -0.1990 -0.0281
 5161TIP3    H137042   2.715   3.951   9.209  1.5056  1.7414  1.5991
 5161TIP3    H237043   2.856   3.931   9.260  2.2953 -1.0589 -1.3493
 5162TIP3   OH237044   1.123   3.854   8.851  0.6055 -0.4058 -0.6259
 5162TIP3    H137045   1.139   3.881   8.760 -0.1308  0.2049 -0.5873
 5162TIP3    H237046   1.197   3.798   8.873  0.4268 -1.1403 -1.8373
 5163TIP3   OH237047   3.549   4.340   7.735  0.3826 -0.0888 -0.2624
 5163TIP3    H137048   3.470   4.290   7.715  0.7816 -0.5284 -0.7894
 5163TIP3    H237049   3.617   4.297   7.684  0.8195  0.7376 -0.3814
 5164TIP3   OH237050   0.335   2.578   8.468  0.0956 -0.0772 -0.2552
 5164TIP3    H137051   0.308   2.664   8.438 -1.7742 -0.5594 -0.0556
 5164TIP3    H237052   0.292   2.567   8.552 -0.8690 -1.7500 -0.9164
 5165TIP3   OH237053   4.357   4.508   2.009 -0.9657  1.1949  0.5082
 5165TIP3    H137054   4.283   4.564   1.985 -1.0370  1.4413  1.2788
 5165TIP3    H237055   4.355   4.505   2.105 -0.7787  0.1183  0.4886
 5166TIP3   OH237056   0.172   4.183   8.643 -0.2382  0.1572  0.1499
 5166TIP3    H137057   0.133   4.270   8.645  0.1616  0.4935 -2.5970
 5166TIP3    H237058   0.098   4.123   8.656 -0.9577  0.8753 -0.5028
 5167TIP3   OH237059   1.911   5.362   2.111 -0.4353  0.3709  0.4473
 5167TIP3    H137060   1.998   5.324   2.102 -0.0711  1.4465 -0.7115
 5167TIP3    H237061   1.873   5.358   2.023 -1.0677  1.0620  0.6773
 5168TIP3   OH237062   1.375   2.097   0.350 -0.0414  0.2297  0.2976
 5168TIP3    H137063   1.304   2.039   0.319  0.2091  0.1716 -0.1878
 5168TIP3    H237064   1.386   2.074   0.442  2.0349 -2.6648 -0.5092
 5169TIP3   OH237065   4.368   0.460   1.630  0.3130  0.5680  0.5768
 5169TIP3    H137066   4.275   0.464   1.605  0.4363 -0.3863 -0.1272
 5169TIP3    H237067   4.367   0.440   1.723 -0.2242 -0.8393  0.2985
 5170TIP3   OH237068   1.359   4.998   9.247 -0.2269  0.4322 -0.0139
 5170TIP3    H137069   1.335   5.017   9.338  0.2297  1.1498 -0.0322
 5170TIP3    H237070   1.436   4.942   9.255 -0.3412  0.2823  0.0417
 5171TIP3   OH237071   0.676   2.401   0.856 -0.1797 -0.3645  0.3631
 5171TIP3    H137072   0.642   2.473   0.910 -0.1178 -0.4972  0.5774
 5171TIP3    H237073   0.608   2.387   0.789  1.2730  2.2417 -1.8779
 5172TIP3   OH237074   6.297   3.643   7.474  0.2018 -0.2940  0.2431
 5172TIP3    H137075   6.318   3.736   7.474  0.8958 -0.4050  2.0325
 5172TIP3    H237076   6.365   3.604   7.418  1.1941  0.0657  1.1492
 5173TIP3   OH237077   1.750   1.235   1.613  0.3828 -0.0950 -0.0416
 5173TIP3    H137078   1.726   1.225   1.521 -1.8129  1.9556  0.2093
 5173TIP3    H237079   1.705   1.315   1.641  1.2178 -0.4917  2.7547
 5174TIP3   OH237080   4.467   5.660   8.628 -0.7072  0.1274  0.3297
 5174TIP3    H137081   4.410   5.732   8.653  1.3273  1.9695  0.0311
 5174TIP3    H237082   4.471   5.665   8.532 -0.0217  0.0867  0.3477
 5175TIP3   OH237083   5.882   5.594   0.969 -0.5975 -0.1539  0.1600
 5175TIP3    H137084   5.806   5.613   1.025 -2.2010 -1.1500 -1.5979
 5175TIP3    H237085   5.901   5.502   0.984 -1.2169 -0.5027 -1.1064
 5176TIP3   OH237086   4.337   0.562   2.188 -0.8707  0.2807  0.8469
 5176TIP3    H137087   4.297   0.583   2.273 -0.6797  0.1598  0.9647
 5176TIP3    H237088   4.376   0.476   2.199 -0.6091  0.3812  0.7165
 5177TIP3   OH237089   3.456   0.313   1.152  0.4500  0.1467 -0.2160
 5177TIP3    H137090   3.464   0.353   1.239 -0.2410 -0.2076  0.0186
 5177TIP3    H237091   3.403   0.375   1.102  1.7847  0.8953 -0.7449
 5178TIP3   OH237092   2.956   1.200   8.510 -0.4272  0.0370  0.0684
 5178TIP3    H137093   2.871   1.178   8.547 -0.5590  0.2154 -0.1283
 5178TIP3    H237094   2.972   1.290   8.538 -1.4056  0.8783 -1.8923
 5179TIP3   OH237095   1.741   6.306   7.707  0.5076 -0.1466 -0.5395
 5179TIP3    H137096   1.696   6.306   7.623  1.7580 -2.0827 -1.2761
 5179TIP3    H237097   1.805   6.376   7.699  0.3610 -0.0649 -1.0552
 5180TIP3   OH237098   5.402   4.474   2.270 -0.6269  0.4527 -0.5267
 5180TIP3    H137099   5.329   4.448   2.327 -0.8796 -0.3686 -1.1921
 5180TIP3    H237100   5.435   4.391   2.235  0.3446  0.8527 -0.5850
 5181TIP3   OH237101   4.428   2.518   9.293  0.0063  0.1092 -0.3136
 5181TIP3    H137102   4.457   2.437   9.251  0.5278  0.7623 -1.2443
 5181TIP3    H237103   4.509   2.568   9.308 -0.2882  0.3819  0.4389
 5182TIP3   OH237104   4.855   5.558   0.402  0.3727 -0.5855 -0.5154
 5182TIP3    H137105   4.931   5.556   0.344  1.1776 -0.5876  0.4951
 5182TIP3    H237106   4.891   5.585   0.487 -0.9704  0.6980 -0.3168
 5183TIP3   OH237107   0.707   0.814   8.916 -0.0723  0.5621  0.2888
 5183TIP3    H137108   0.634   0.816   8.978 -1.1044 -0.0303 -0.8674
 5183TIP3    H237109   0.749   0.899   8.925 -1.9032  1.5576 -0.1684
 5184TIP3   OH237110   2.406   4.757   2.946 -0.1170  0.1308  0.1055
 5184TIP3    H137111   2.442   4.696   2.882  0.4658  1.6705 -1.1045
 5184TIP3    H237112   2.338   4.805   2.898 -0.3702  0.6288  0.9254
 5185TIP3   OH237113   0.915   1.280   9.432  0.3806 -0.2609  0.7667
 5185TIP3    H137114   0.832   1.326   9.445  1.9064  2.6838  0.8252
 5185TIP3    H237115   0.934   1.240   9.517 -0.9015 -0.9223  0.7701
 5186TIP3   OH237116   6.471   2.228   0.886 -0.1246  0.3509  0.0371
 5186TIP3    H137117   6.514   2.287   0.947  0.5738 -0.6664  0.5533
 5186TIP3    H237118   6.427   2.286   0.823  1.1198  1.4056  0.1046
 5187TIP3   OH237119   4.288   4.072   0.398  0.1809  0.0662  0.0847
 5187TIP3    H137120   4.370   4.090   0.444  0.2686 -0.2611  0.0535
 5187TIP3    H237121   4.221   4.116   0.451  0.2288 -0.6349  0.7499
 5188TIP3   OH237122   5.284   5.939   0.196  0.0839  0.0380  0.0419
 5188TIP3    H137123   5.235   6.019   0.176  0.6658  0.4309  0.1658
 5188TIP3    H237124   5.308   5.947   0.288 -0.7947 -0.7970  0.3587
 5189TIP3   OH237125   0.217   2.911   0.646  0.3612  0.1177  0.2692
 5189TIP3    H137126   0.215   2.820   0.674 -1.0383  0.1670  0.3999
 5189TIP3    H237127   0.130   2.927   0.611  0.2785  1.6607  1.0906
 5190TIP3   OH237128   1.189   2.410   0.814 -0.2950  0.4726 -0.0125
 5190TIP3    H137129   1.103   2.444   0.841  0.1343  0.5295  1.3555
 5190TIP3    H237130   1.219   2.359   0.889 -0.3164 -1.8596 -1.5011
 5191TIP3   OH237131   6.200   1.121   0.822 -0.1519 -0.7371 -0.1833
 5191TIP3    H137132   6.160   1.205   0.798 -0.3308 -0.3678  1.3329
 5191TIP3    H237133   6.253   1.140   0.899  0.8639 -1.7674 -0.5910
 5192TIP3   OH237134   4.868   6.365   2.356 -0.4224  0.0538  0.8713
 5192TIP3    H137135   4.776   6.386   2.340 -0.3944 -0.2073  0.3261
 5192TIP3    H237136   4.917   6.428   2.302 -0.3500 -2.0328 -1.7284
 5193TIP3   OH237137   4.309   2.971   0.894 -0.1805  0.3062 -0.4930
 5193TIP3    H137138   4.274   2.939   0.811  0.0711 -1.1551 -0.0797
 5193TIP3    H237139   4.398   3.001   0.874  1.3917 -3.5664 -0.2040
 5194TIP3   OH237140   0.849   1.769   8.870 -0.0221 -0.8853  0.2279
 5194TIP3    H137141   0.800   1.845   8.842 -0.4164 -1.1312  0.2444
 5194TIP3    H237142   0.814   1.747   8.956  0.6159 -0.6289  0.5641
 5195TIP3   OH237143   5.144   4.944   9.253 -0.0980  0.5952  0.0095
 5195TIP3    H137144   5.202   4.982   9.187 -1.1227  1.5473 -0.3778
 5195TIP3    H237145   5.164   4.850   9.251  0.3965  0.7018 -1.1498
 5196TIP3   OH237146   1.758   2.451   0.409  0.7388  0.2908  0.5114
 5196TIP3    H137147   1.685   2.417   0.460  1.0740 -3.2255 -0.9939
 5196TIP3    H237148   1.719   2.485   0.328  0.6456 -1.0344 -0.0306
 5197TIP3   OH237149   4.316   4.586   1.262  0.4848 -0.3348  0.5604
 5197TIP3    H137150   4.314   4.612   1.170  0.4824 -1.5239  0.2067
 5197TIP3    H237151   4.385   4.640   1.300  0.0916  0.5867  0.0003
 5198TIP3   OH237152   3.643   5.554   1.553 -0.0873  0.0432  1.2160
 5198TIP3    H137153   3.695   5.485   1.595 -0.5650 -1.2892 -0.2871
 5198TIP3    H237154   3.558   5.513   1.536 -0.1822  0.7962 -0.2482
 5199TIP3   OH237155   0.189   2.241   8.207  0.5700 -0.0609 -0.2180
 5199TIP3    H137156   0.151   2.314   8.255  0.4344  0.8349 -1.6480
 5199TIP3    H237157   0.180   2.265   8.115 -0.0195 -2.1375 -0.7590
 5200TIP3   OH237158   5.956   6.417   0.500 -0.0606 -0.2073 -0.4558
 5200TIP3    H137159   5.874   6.463   0.482 -0.6065 -0.2656  1.6358
 5200TIP3    H237160   5.972   6.366   0.421 -2.4092 -0.6948 -0.7088
 5201TIP3   OH237161   6.151   3.064   1.414 -0.3309  0.2627  0.5825
 5201TIP3    H137162   6.189   3.092   1.331  0.8630 -0.2875  0.9247
 5201TIP3    H237163   6.171   3.135   1.475 -0.1118  0.1034  0.6961
 5202TIP3   OH237164   0.798   4.124   7.635 -0.1631  0.1038  0.7125
 5202TIP3    H137165   0.886   4.123   7.597 -0.3625 -0.8350  0.2255
 5202TIP3    H237166   0.798   4.051   7.697 -0.5637  0.1578  0.7780
 5203TIP3   OH237167   4.754   1.005   8.426  0.1011  0.4635  0.2909
 5203TIP3    H137168   4.736   0.923   8.380  1.6959 -0.1989  0.7760
 5203TIP3    H237169   4.849   1.008   8.434 -0.0222  1.4370  1.9407
 5204TIP3   OH237170   1.377   1.174   0.091  0.0565  0.2003  0.3531
 5204TIP3    H137171   1.308   1.108   0.096  2.6344 -2.7993 -0.4039
 5204TIP3    H237172   1.335   1.249   0.050 -2.6130 -1.6754 -0.6243
 5205TIP3   OH237173   0.125   5.026   7.821 -0.4315 -0.1145  0.0843
 5205TIP3    H137174   0.186   4.957   7.797 -0.3384 -0.1385  0.3892
 5205TIP3    H237175   0.043   5.002   7.779 -0.2733 -0.1643 -0.1971
 5206TIP3   OH237176   0.346   2.770   8.719  0.2200  0.2710  0.1210
 5206TIP3    H137177   0.337   2.863   8.697  0.3413  0.2753  0.0927
 5206TIP3    H237178   0.266   2.750   8.768  0.2354  0.4124  0.2050
 5207TIP3   OH237179   3.495   2.832   0.027 -0.0055  0.0811 -0.2013
 5207TIP3    H137180   3.486   2.774  -0.049 -0.1695  1.3952 -1.2314
 5207TIP3    H237181   3.567   2.794   0.078  0.5358 -0.4885 -1.3561
 5208TIP3   OH237182   4.176   0.956   9.372 -0.5580 -0.5479 -0.1229
 5208TIP3    H137183   4.191   0.875   9.324  0.4104 -0.2757 -0.2935
 5208TIP3    H237184   4.261   1.001   9.372 -0.9660  0.2552  0.3580
 5209TIP3   OH237185   4.977   1.494   0.617 -0.3539  0.6517  0.2987
 5209TIP3    H137186   4.941   1.425   0.561 -0.3645 -0.3665  1.5126
 5209TIP3    H237187   4.905   1.518   0.675  0.2920  0.0137  1.4172
 5210TIP3   OH237188   5.987   1.185   8.933 -0.1800  0.9941  0.0743
 5210TIP3    H137189   5.934   1.258   8.964 -1.4162  0.2964 -0.3394
 5210TIP3    H237190   6.077   1.212   8.951 -0.7181  1.5999  2.0865
 5211TIP3   OH237191   4.753   3.541   7.526  0.2911 -0.1936 -0.1547
 5211TIP3    H137192   4.804   3.621   7.514 -1.2142  0.5094 -2.6676
 5211TIP3    H237193   4.704   3.555   7.606  2.4444 -0.0413  1.2195
 5212TIP3   OH237194   3.985   0.419   0.866 -0.7305  0.2998  0.2440
 5212TIP3    H137195   3.968   0.511   0.849  0.2884  0.2967 -1.0008
 5212TIP3    H237196   4.051   0.395   0.801 -0.6991 -1.2106  0.7933
 5213TIP3   OH237197   5.170   3.802   6.563  0.3213 -0.3651  0.1788
 5213TIP3    H137198   5.120   3.883   6.557  0.8481  0.1085  1.7118
 5213TIP3    H237199   5.145   3.752   6.486  0.8450  1.7364 -1.4427
 5214TIP3   OH237200   2.455   2.469   8.293  0.8550  0.1579  0.1228
 5214TIP3    H137201   2.472   2.424   8.376 -0.0351 -0.8448 -0.2076
 5214TIP3    H237202   2.531   2.449   8.239  0.2749 -1.4186 -0.1831
 5215TIP3   OH237203   1.384   2.296   1.612 -0.2672  0.4912  0.1359
 5215TIP3    H137204   1.471   2.273   1.579  0.8312  2.9209  1.1013
 5215TIP3    H237205   1.383   2.266   1.703 -0.3208  0.7642  0.2262
 5216TIP3   OH237206   5.795   5.556   0.304 -0.4124 -0.4128  0.7027
 5216TIP3    H137207   5.837   5.476   0.273  1.1829  0.9527 -0.8861
 5216TIP3    H237208   5.701   5.538   0.295 -0.0782 -1.5314 -1.3190
 5217TIP3   OH237209   1.683   6.355   8.556  0.4593 -0.4235  0.2664
 5217TIP3    H137210   1.658   6.442   8.587 -0.3036 -1.0890  1.6252
 5217TIP3    H237211   1.728   6.371   8.473 -0.4074  1.1899  0.0622
 5218TIP3   OH237212   0.349   1.826   9.219 -0.0679  0.4473 -0.5548
 5218TIP3    H137213   0.260   1.856   9.237  0.7468  3.1340 -0.5878
 5218TIP3    H237214   0.339   1.760   9.150 -2.0763 -0.0177  0.1104
 5219TIP3   OH237215   2.347   0.296   1.906  0.0539 -0.0778  0.3031
 5219TIP3    H137216   2.273   0.324   1.852 -0.3420 -1.1884  0.2588
 5219TIP3    H237217   2.396   0.236   1.849  0.0240 -0.7065  0.9373
 5220TIP3   OH237218   6.280   4.002   7.627  0.1771  0.2431  0.4050
 5220TIP3    H137219   6.303   4.091   7.655 -1.3166  0.8465 -0.1853
 5220TIP3    H237220   6.363   3.954   7.631  1.1993  1.8651 -0.0642
 5221TIP3   OH237221   5.152   3.597   1.517  0.1247  0.3748 -0.1527
 5221TIP3    H137222   5.191   3.682   1.497 -2.4531  1.6343 -0.2214
 5221TIP3    H237223   5.168   3.544   1.438  2.3341  0.4939  0.1536
 5222TIP3   OH237224   4.239   0.472   9.280  0.1769 -0.0065  0.2451
 5222TIP3    H137225   4.308   0.439   9.222  1.3790 -0.0026  1.6010
 5222TIP3    H237226   4.244   0.416   9.357 -0.5996  0.6975  0.8231
 5223TIP3   OH237227   5.073   2.553   8.697 -0.5701  0.3447 -0.1072
 5223TIP3    H137228   5.017   2.494   8.748  0.8842 -2.0376 -1.0964
 5223TIP3    H237229   5.127   2.597   8.763 -1.2064  0.0480  0.6313
 5224TIP3   OH237230   1.567   6.345   2.289  0.2419  0.2033  0.3246
 5224TIP3    H137231   1.631   6.367   2.222  0.1551  1.8096  0.7268
 5224TIP3    H237232   1.532   6.429   2.318 -1.8150 -0.6072  0.3690
 5225TIP3   OH237233   5.932   4.327   8.937 -0.2691 -0.2339 -0.2910
 5225TIP3    H137234   5.977   4.255   8.892  0.1082  0.0511 -0.3757
 5225TIP3    H237235   5.952   4.313   9.030  0.6842  0.3398 -0.3861
 5226TIP3   OH237236   0.388   3.823   9.155 -0.6257  0.2180 -0.5189
 5226TIP3    H137237   0.459   3.860   9.102 -1.3150  2.8825  0.2775
 5226TIP3    H237238   0.421   3.827   9.244  0.1002 -3.2360 -0.5022
 5227TIP3   OH237239   0.382   2.041   2.121  0.2452  0.8216 -0.2016
 5227TIP3    H137240   0.418   1.981   2.187 -0.8513 -0.7022 -0.9436
 5227TIP3    H237241   0.373   2.124   2.168 -0.0968 -0.0977  1.4603
 5228TIP3   OH237242   0.617   6.089   2.198 -0.0021 -0.1662  0.6937
 5228TIP3    H137243   0.700   6.046   2.218 -0.4976 -0.2988  2.6619
 5228TIP3    H237244   0.551   6.034   2.240 -1.2514 -0.6670 -1.7389
 5229TIP3   OH237245   6.026   1.553   9.441 -0.1411 -0.2848  0.0731
 5229TIP3    H137246   5.958   1.506   9.393  0.7676  0.2976 -1.9014
 5229TIP3    H237247   6.015   1.645   9.417  2.3270 -0.3474 -1.7682
 5230TIP3   OH237248   0.614   5.699   1.116  0.8319  0.0196 -0.3139
 5230TIP3    H137249   0.570   5.618   1.091  0.5198 -0.3085  1.1939
 5230TIP3    H237250   0.558   5.736   1.185  1.5826  0.9128 -0.1608
 5231TIP3   OH237251   0.274   4.946   9.260 -1.1065  0.4143  0.6222
 5231TIP3    H137252   0.292   4.856   9.230  0.7934  0.3068  1.9517
 5231TIP3    H237253   0.181   4.960   9.238 -1.1410 -1.4386 -0.6583
 5232TIP3   OH237254   4.615   4.802   1.813  0.3355  0.9635  0.1647
 5232TIP3    H137255   4.607   4.707   1.807 -0.2326  0.9646  0.7891
 5232TIP3    H237256   4.546   4.828   1.875  1.3467  1.6480  1.0270
 5233TIP3   OH237257   1.107   2.564   9.584 -0.2419 -0.4828  0.4076
 5233TIP3    H137258   1.022   2.522   9.599 -0.8463  0.6124  0.1963
 5233TIP3    H237259   1.128   2.543   9.493 -0.5741 -0.2749  0.2800
 5234TIP3   OH237260   5.572   2.296   0.098 -0.0669  0.2859 -0.4237
 5234TIP3    H137261   5.658   2.295   0.139 -0.2119  0.9024 -0.0918
 5234TIP3    H237262   5.550   2.204   0.087  0.2593  0.1099  0.2941
 5235TIP3   OH237263   3.648   2.898   9.270  0.2693 -0.1947 -0.2358
 5235TIP3    H137264   3.709   2.928   9.203  1.9585 -1.1130  0.8335
 5235TIP3    H237265   3.562   2.924   9.237  1.1448  0.4280 -2.1714
 5236TIP3   OH237266   6.250   5.306   8.619  0.0045  0.5257 -0.1898
 5236TIP3    H137267   6.269   5.274   8.531 -0.6713 -1.2860  0.2701
 5236TIP3    H237268   6.230   5.227   8.670  0.0014  1.5533  1.4982
 5237TIP3   OH237269   4.596   3.867   9.231 -0.8354 -0.1170 -0.0410
 5237TIP3    H137270   4.572   3.908   9.148  2.2985 -1.8866 -1.9952
 5237TIP3    H237271   4.560   3.778   9.225 -0.8319 -0.1693  0.6458
 5238TIP3   OH237272   4.855   5.066   1.932 -0.1930 -0.2193 -0.2757
 5238TIP3    H137273   4.838   5.160   1.923  1.5794  0.2235  0.5117
 5238TIP3    H237274   4.868   5.054   2.026 -2.5607 -1.7087 -0.0571
 5239TIP3   OH237275   3.876   1.558   1.937 -0.3458 -0.0916 -0.1589
 5239TIP3    H137276   3.926   1.517   2.007 -0.7551 -1.0895 -0.4393
 5239TIP3    H237277   3.785   1.539   1.959 -0.4439 -1.4324 -1.5547
 5240TIP3   OH237278   3.124   5.560   7.435 -0.1440  0.3727 -0.3438
 5240TIP3    H137279   3.114   5.649   7.404  1.6787  1.0840  0.8962
 5240TIP3    H237280   3.154   5.511   7.358  0.3384  1.1899 -0.6918
 5241TIP3   OH237281   6.263   1.174   7.157 -0.3562  0.5595  0.4147
 5241TIP3    H137282   6.171   1.182   7.131 -0.3413  0.1947  0.2483
 5241TIP3    H237283   6.310   1.162   7.075 -0.2720 -0.2751  0.5802
 5242TIP3   OH237284   6.274   5.813   0.588 -0.2627 -0.4019  0.4628
 5242TIP3    H137285   6.222   5.736   0.563 -0.3966 -0.3444  0.5689
 5242TIP3    H237286   6.244   5.836   0.675 -0.3110 -0.1501  0.3800
 5243TIP3   OH237287   1.242   4.505   9.470  0.2388  0.5749 -0.0902
 5243TIP3    H137288   1.186   4.580   9.486  2.0213  1.7700  0.9000
 5243TIP3    H237289   1.315   4.539   9.418  1.1437 -0.4089  0.4762
 5244TIP3   OH237290   1.357   5.411   8.871 -0.0149  0.0889  0.8384
 5244TIP3    H137291   1.419   5.352   8.913 -1.1813 -0.4794  1.8245
 5244TIP3    H237292   1.272   5.386   8.907 -0.7798  1.0803 -0.2032
 5245TIP3   OH237293   3.613   5.228   2.579  0.1702  0.0059 -0.2976
 5245TIP3    H137294   3.646   5.178   2.504  0.3171 -0.1391 -0.1364
 5245TIP3    H237295   3.684   5.288   2.601  0.4971 -0.6027  0.3196
 5246TIP3   OH237296   2.709   2.709   0.121 -0.7306  0.0389 -0.0634
 5246TIP3    H137297   2.736   2.618   0.120 -0.5821  0.0876 -0.5020
 5246TIP3    H237298   2.680   2.727   0.032 -1.2187  0.2837  0.1402
 5247TIP3   OH237299   5.423   4.391   0.021  0.2192 -0.3157  0.2614
 5247TIP3    H137300   5.362   4.449  -0.025 -2.8303 -3.9144 -0.7769
 5247TIP3    H237301   5.411   4.412   0.113 -1.0508  0.5328 -0.0689
 5248TIP3   OH237302   1.850   2.203   9.360  0.1860 -0.1081 -0.1780
 5248TIP3    H137303   1.821   2.283   9.405 -0.3904 -0.6070  0.3715
 5248TIP3    H237304   1.930   2.228   9.315  0.8758  0.3933  1.2505
 5249TIP3   OH237305   3.380   6.428   0.154 -0.3520 -0.1467 -0.5454
 5249TIP3    H137306   3.398   6.361   0.220 -1.8302 -0.2328 -0.2028
 5249TIP3    H237307   3.467   6.453   0.121  0.3026 -1.2520  0.2781
 5250TIP3   OH237308   2.265   5.787   2.396 -0.0088 -0.0988 -0.1876
 5250TIP3    H137309   2.233   5.711   2.347 -1.1146 -0.9392  1.7442
 5250TIP3    H237310   2.189   5.845   2.403 -0.0990 -0.3604  1.1939
 5251TIP3   OH237311   0.448   0.805   7.813 -0.2376 -0.9581 -0.1696
 5251TIP3    H137312   0.514   0.867   7.781 -0.9894 -0.5318 -0.9299
 5251TIP3    H237313   0.499   0.735   7.854  0.6486 -0.1504  0.1433
 5252TIP3   OH237314   5.230   3.320   8.645  0.1935  0.5047  0.2312
 5252TIP3    H137315   5.262   3.270   8.570 -0.0711 -0.0598  0.4844
 5252TIP3    H237316   5.219   3.254   8.714  0.3010  0.9922  0.7230
 5253TIP3   OH237317   2.946   3.149   1.349 -0.2613 -0.1223  0.6467
 5253TIP3    H137318   2.975   3.233   1.384  0.7273 -0.7124  1.2836
 5253TIP3    H237319   3.027   3.104   1.323 -0.9161  0.1108 -2.0527
 5254TIP3   OH237320   6.505   6.475   2.164  0.3086 -0.6301  0.1051
 5254TIP3    H137321   6.543   6.540   2.222  1.9659 -0.5039 -1.0417
 5254TIP3    H237322   6.455   6.526   2.100 -0.9615 -0.7243  0.9969
 5255TIP3   OH237323   2.644   2.344   1.092  0.0481  0.3172  0.1883
 5255TIP3    H137324   2.718   2.393   1.126  0.0088 -0.3745  1.3309
 5255TIP3    H237325   2.569   2.374   1.145 -0.0007 -0.8421  0.8004
 5256TIP3   OH237326   3.610   0.429   9.231 -0.0395 -0.4759 -0.5803
 5256TIP3    H137327   3.627   0.406   9.140 -3.0540 -0.4577 -1.2444
 5256TIP3    H237328   3.656   0.512   9.245  1.2759 -0.9777 -1.7294
 5257TIP3   OH237329   4.703   4.866   9.151 -0.0330  0.1483 -0.2726
 5257TIP3    H137330   4.714   4.802   9.081 -1.7961 -0.9621  0.4061
 5257TIP3    H237331   4.707   4.951   9.107  1.7885 -0.4086 -1.2639
 5258TIP3   OH237332   3.718   6.079   2.215  0.0804 -0.4017 -0.5173
 5258TIP3    H137333   3.719   6.025   2.294 -1.2748  1.7743  1.1393
 5258TIP3    H237334   3.637   6.054   2.170  0.6634 -1.3801 -1.0522
 5259TIP3   OH237335   6.255   0.130   1.056 -0.4980  0.4840 -0.0135
 5259TIP3    H137336   6.260   0.126   1.152 -1.0956  0.6533  0.0241
 5259TIP3    H237337   6.165   0.108   1.035 -0.4377  0.7073 -0.5281
 5260TIP3   OH237338   3.835   3.258   0.428  0.6918 -0.1786 -0.2480
 5260TIP3    H137339   3.746   3.226   0.446  0.9196 -0.1709  0.9932
 5260TIP3    H237340   3.830   3.352   0.441  0.8452 -0.1567 -0.3420
 5261TIP3   OH237341   1.143   4.808   2.389 -0.0949  0.4297  0.0187
 5261TIP3    H137342   1.093   4.783   2.466  0.4805 -0.7849  0.0242
 5261TIP3    H237343   1.112   4.896   2.368 -2.5477 -0.4213 -0.2505
 5262TIP3   OH237344   3.041   4.162   8.230 -0.0363 -0.1861  0.2731
 5262TIP3    H137345   3.024   4.074   8.197  0.9869 -0.1616 -0.3321
 5262TIP3    H237346   3.134   4.162   8.254 -0.0570  0.6874  0.3940
 5263TIP3   OH237347   0.493   5.396   7.938  0.5468  0.2151 -0.8916
 5263TIP3    H137348   0.455   5.483   7.926 -1.6210 -0.5488 -0.0925
 5263TIP3    H237349   0.435   5.338   7.889  0.0386 -1.1268  1.1818
 5264TIP3   OH237350   4.016   1.797   7.332 -0.4486  0.1767 -0.0773
 5264TIP3    H137351   4.048   1.737   7.264 -1.7967 -0.6546 -0.0234
 5264TIP3    H237352   4.090   1.806   7.392 -0.1834 -1.4434 -0.1041
 5265TIP3   OH237353   0.363   4.993   8.860 -0.3957  0.6491  0.2452
 5265TIP3    H137354   0.285   4.997   8.916 -0.0767 -1.1207  0.8860
 5265TIP3    H237355   0.340   4.931   8.791 -0.5853  2.3922 -1.3367
 5266TIP3   OH237356   0.874   2.119   9.591 -0.0364  1.1560 -0.8024
 5266TIP3    H137357   0.954   2.071   9.614 -0.0820  1.4063 -0.1020
 5266TIP3    H237358   0.811   2.050   9.568 -0.0302  0.8830 -0.0273
 5267TIP3   OH237359   1.979   0.056   9.319 -0.0177  0.7914  0.1396
 5267TIP3    H137360   2.011  -0.033   9.302  0.3177  0.3987  2.4738
 5267TIP3    H237361   1.884   0.050   9.307  0.2976  1.2619 -3.9650
 5268TIP3   OH237362   0.077   1.509   7.961  0.1090 -0.1935 -0.6936
 5268TIP3    H137363   0.060   1.443   7.893 -1.7937 -0.7088  0.2128
 5268TIP3    H237364   0.132   1.464   8.025  0.9867 -0.0554 -1.3410
 5269TIP3   OH237365   1.846   5.015   1.954  0.1480 -0.6361 -0.5487
 5269TIP3    H137366   1.765   5.043   1.997  0.0636  0.2730 -1.2776
 5269TIP3    H237367   1.823   5.008   1.861  0.3400 -2.5053 -0.4958
 5270TIP3   OH237368   0.284   4.824   8.374 -0.4742 -0.3629 -0.0504
 5270TIP3    H137369   0.285   4.915   8.344  2.2260  0.7546  2.8580
 5270TIP3    H237370   0.345   4.778   8.316  0.7161  0.5102  0.4819
 5271TIP3   OH237371   2.106   3.781   0.785  0.0921  0.6322  0.3114
 5271TIP3    H137372   2.116   3.876   0.776  1.4648  0.4540 -0.3138
 5271TIP3    H237373   2.194   3.750   0.805 -0.4228 -0.4774  0.9296
 5272TIP3   OH237374   4.235   6.049   1.679 -0.0128 -0.2734  0.3331
 5272TIP3    H137375   4.248   6.043   1.584  2.1963 -0.4601  0.5849
 5272TIP3    H237376   4.216   5.959   1.706 -1.3184 -0.1055 -0.0027
 5273TIP3   OH237377   4.680   3.974   1.815  0.4710 -0.2406 -0.0547
 5273TIP3    H137378   4.621   3.907   1.850  0.5866 -1.2425 -1.6605
 5273TIP3    H237379   4.764   3.928   1.804  1.2267  0.8281  1.0289
 5274TIP3   OH237380   1.804   3.821   7.740  0.1754 -0.2983  0.2890
 5274TIP3    H137381   1.798   3.844   7.647  0.4219  0.4392  0.4502
 5274TIP3    H237382   1.862   3.887   7.777 -0.4867 -0.1650  1.1100
 5275TIP3   OH237383   1.629   1.776   1.957 -0.6345 -0.4640  0.4540
 5275TIP3    H137384   1.588   1.841   1.900 -0.2761 -0.2135  0.4747
 5275TIP3    H237385   1.603   1.803   2.045  0.0347  0.0293  0.5048
 5276TIP3   OH237386   0.846   5.470   1.582 -0.3464 -0.4293  0.2666
 5276TIP3    H137387   0.798   5.465   1.664 -0.7195  0.3079  0.0969
 5276TIP3    H237388   0.923   5.522   1.602 -1.4974  1.5871 -0.3296
 5277TIP3   OH237389   6.467   5.338   8.004  0.0795  0.7106 -0.3798
 5277TIP3    H137390   6.481   5.367   7.914  1.4929  1.5449  0.0732
 5277TIP3    H237391   6.519   5.399   8.057 -0.7303  0.2458  1.0050
 5278TIP3   OH237392   1.012   5.519   7.709 -0.3917 -0.4715 -0.4043
 5278TIP3    H137393   0.978   5.435   7.741 -1.2613 -0.5101 -1.3784
 5278TIP3    H237394   1.033   5.503   7.617  0.0083  0.2184 -0.4395
 5279TIP3   OH237395   5.274   4.937   1.220  0.0705 -0.0159 -0.0170
 5279TIP3    H137396   5.230   4.903   1.297  0.3299 -1.3650 -0.4354
 5279TIP3    H237397   5.319   4.861   1.182  3.0882  1.3032  0.5922
 5280TIP3   OH237398   0.140   2.665   9.385 -0.0969  0.1028  0.1106
 5280TIP3    H137399   0.213   2.695   9.330  0.3218  0.7132  0.9831
 5280TIP3    H237400   0.179   2.647   9.470 -0.8029 -0.5190  0.3150
 5281TIP3   OH237401   6.457   2.653   1.940 -0.4602 -0.2513  0.2296
 5281TIP3    H137402   6.399   2.642   2.015 -1.1271 -2.2347 -0.5274
 5281TIP3    H237403   6.534   2.601   1.961 -0.5006 -0.5317 -0.3032
 5282TIP3   OH237404   1.929   5.354   0.001  0.0624  0.1628 -0.1659
 5282TIP3    H137405   1.983   5.418   0.048 -0.2060  0.7283 -0.6186
 5282TIP3    H237406   1.843   5.359   0.044  0.0718  0.0195 -0.1283
 5283TIP3   OH237407   4.606   3.498   7.758 -0.2175 -0.0791 -0.4028
 5283TIP3    H137408   4.587   3.510   7.851  2.2226  1.0909  0.0326
 5283TIP3    H237409   4.587   3.406   7.741  0.0222 -0.5159  1.4641
 5284TIP3   OH237410   2.481   6.396   2.001  0.1448 -0.0360 -0.3352
 5284TIP3    H137411   2.504   6.304   2.007 -1.8179 -0.4924  1.4986
 5284TIP3    H237412   2.409   6.399   1.938 -1.6439 -0.2479  1.5971
 5285TIP3   OH237413   0.319   4.077   0.526  0.0859 -0.0131 -0.1221
 5285TIP3    H137414   0.408   4.042   0.537  0.3422  0.3084 -1.0872
 5285TIP3    H237415   0.262   4.006   0.555  0.6536  0.1945  1.6489
 5286TIP3   OH237416   5.148   2.365   9.237 -0.1375 -0.1873 -0.0261
 5286TIP3    H137417   5.056   2.390   9.232 -0.3682 -0.1545  2.9677
 5286TIP3    H237418   5.148   2.287   9.292  1.7416  0.6708  1.2661
 5287TIP3   OH237419   4.353   2.177   0.205 -0.2306  0.0097 -0.0608
 5287TIP3    H137420   4.423   2.237   0.180  0.0120  0.0028  0.5848
 5287TIP3    H237421   4.384   2.091   0.176 -0.0490  0.0291  0.0782
 5288TIP3   OH237422   3.792   0.869   8.535 -0.1004  0.4977  0.2381
 5288TIP3    H137423   3.852   0.798   8.555 -0.1096  0.0523 -1.1955
 5288TIP3    H237424   3.739   0.836   8.462 -0.3661  1.8272 -0.2038
 5289TIP3   OH237425   2.834   6.126   0.845 -0.2582 -0.3944 -0.4140
 5289TIP3    H137426   2.757   6.127   0.902 -0.1096 -0.8096 -0.2036
 5289TIP3    H237427   2.906   6.099   0.902  0.1027  0.2769 -0.5372
 5290TIP3   OH237428   0.735   2.922   1.802  0.0650 -0.7285 -0.4328
 5290TIP3    H137429   0.811   2.975   1.826 -1.6890  1.0804  1.4400
 5290TIP3    H237430   0.759   2.833   1.828  0.6754  0.1741  2.3769
 5291TIP3   OH237431   1.986   4.468   0.415  0.0993  0.0508  0.0411
 5291TIP3    H137432   1.925   4.401   0.446 -0.2117  0.9724  1.5033
 5291TIP3    H237433   2.055   4.471   0.481  0.9563  0.0663 -0.8353
 5292TIP3   OH237434   0.559   0.673   8.708 -0.0846  0.6833  0.1870
 5292TIP3    H137435   0.586   0.733   8.778  1.4539 -1.6383  1.7272
 5292TIP3    H237436   0.493   0.617   8.748  1.4609 -1.2710  0.1479
 5293TIP3   OH237437   3.647   3.934   0.482 -0.4170  0.2789 -0.5391
 5293TIP3    H137438   3.615   3.844   0.494 -0.2513  0.1329 -1.1354
 5293TIP3    H237439   3.739   3.930   0.508 -0.2823  0.1600 -1.0225
 5294TIP3   OH237440   5.624   4.566   8.738  0.0665 -0.0039 -0.0663
 5294TIP3    H137441   5.545   4.582   8.686  0.1332  1.1755  0.1621
 5294TIP3    H237442   5.695   4.599   8.683  0.3226 -0.3785  0.0385
 5295TIP3   OH237443   1.311   2.480   0.169 -0.1725 -0.3263  0.5442
 5295TIP3    H137444   1.337   2.544   0.235  0.0357  0.2759 -0.1067
 5295TIP3    H237445   1.264   2.532   0.103  2.6444 -0.2417 -1.5684
 5296TIP3   OH237446   1.646   2.449   7.908  0.3115  0.5767 -0.1019
 5296TIP3    H137447   1.577   2.510   7.885 -0.9135 -0.2085  1.2928
 5296TIP3    H237448   1.609   2.398   7.980  1.9458 -0.6090 -0.0568
 5297TIP3   OH237449   0.198   0.559   1.802  0.2535  0.2523 -0.7675
 5297TIP3    H137450   0.286   0.536   1.773  0.0859  1.7166 -2.6907
 5297TIP3    H237451   0.207   0.650   1.833 -0.7537  0.8610 -2.1484
 5298TIP3   OH237452   0.097   1.099   1.009 -0.3801 -0.0047  0.4343
 5298TIP3    H137453   0.123   1.020   0.961 -0.4119 -1.5239  2.7380
 5298TIP3    H237454   0.172   1.158   1.001 -0.3043 -0.2617 -1.2323
 5299TIP3   OH237455   0.382   1.011   0.645  0.1923  0.3874 -0.0347
 5299TIP3    H137456   0.464   1.059   0.630 -0.2258  0.6774 -1.6176
 5299TIP3    H237457   0.326   1.037   0.572 -1.2016 -0.0766  0.8340
 5300TIP3   OH237458   0.867   5.271   0.180  0.2696 -0.2122  0.5831
 5300TIP3    H137459   0.854   5.365   0.166  1.4432  0.0171  0.9765
 5300TIP3    H237460   0.873   5.262   0.275  1.2512 -0.5289  0.4982
 5301TIP3   OH237461   4.142   4.635   1.944 -0.0934  0.7126 -0.0111
 5301TIP3    H137462   4.070   4.572   1.933  0.1264  0.4615 -0.0345
 5301TIP3    H237463   4.127   4.700   1.876  0.3350  0.0509 -0.7588
 5302TIP3   OH237464   0.404   1.377   8.909  0.4152  0.3254  0.5020
 5302TIP3    H137465   0.359   1.317   8.850 -0.1639  0.9744  0.2745
 5302TIP3    H237466   0.493   1.383   8.875 -0.1363  1.3496 -0.8236
 5303TIP3   OH237467   0.459   0.052   9.018  0.5723 -0.2977  0.0188
 5303TIP3    H137468   0.441   0.145   9.006 -3.0782 -0.9677 -0.8125
 5303TIP3    H237469   0.443   0.036   9.111  0.2180 -0.2739 -0.0381
 5304TIP3   OH237470   5.370   6.478   8.116 -0.3246  0.2388  0.3566
 5304TIP3    H137471   5.291   6.497   8.064 -0.0518  1.5108  0.3771
 5304TIP3    H237472   5.345   6.501   8.206 -0.8462 -2.1033  0.8834
 5305TIP3   OH237473   3.097   6.315   7.841 -0.2428 -0.3579 -0.0996
 5305TIP3    H137474   3.070   6.255   7.772 -0.2319  0.6576 -1.0182
 5305TIP3    H237475   3.028   6.381   7.844 -0.1819 -0.3262  0.7860
 5306TIP3   OH237476   5.411   0.009   8.381  0.4870  0.7395 -0.6071
 5306TIP3    H137477   5.350  -0.024   8.447 -1.3845 -0.1178 -2.6498
 5306TIP3    H237478   5.470   0.066   8.430 -0.9341  0.3282  1.7568
 5307TIP3   OH237479   2.375   6.271   7.763 -0.0263  0.7081  0.0870
 5307TIP3    H137480   2.351   6.360   7.738 -0.9807  0.7675  1.1067
 5307TIP3    H237481   2.331   6.215   7.699  1.8524  0.9700 -1.5277
 5308TIP3   OH237482   2.967   2.668   6.941 -0.4962  0.0309  0.2135
 5308TIP3    H137483   2.937   2.593   6.891  0.7201 -0.7679  0.6411
 5308TIP3    H237484   2.900   2.735   6.927 -0.9560 -0.6882 -1.2139
 5309TIP3   OH237485   0.394   5.707   7.918 -0.2230 -0.1348 -0.9980
 5309TIP3    H137486   0.468   5.721   7.859 -0.9629  2.4699 -1.4173
 5309TIP3    H237487   0.343   5.788   7.912 -1.2041 -0.4338  1.9881
 5310TIP3   OH237488   0.811   4.574   9.544  0.2027  0.3767 -0.1032
 5310TIP3    H137489   0.893   4.608   9.508  1.3368 -2.4221 -0.3736
 5310TIP3    H237490   0.838   4.509   9.609 -1.7875 -0.8052 -0.3811
 5311TIP3   OH237491   4.657   3.897   7.987  0.4449 -0.3645 -0.2543
 5311TIP3    H137492   4.615   3.847   7.916  0.3741 -0.3106 -0.2507
 5311TIP3    H237493   4.749   3.871   7.983  0.3959 -0.5456 -0.2097
 5312TIP3   OH237494   4.933   1.273   7.888  0.3666  0.1634 -0.2078
 5312TIP3    H137495   4.934   1.281   7.984 -3.1072  0.8621 -0.0858
 5312TIP3    H237496   4.897   1.186   7.872 -0.5670  0.6446 -0.8112
 5313TIP3   OH237497   3.065   5.873   0.129  0.0319 -0.3407  0.7054
 5313TIP3    H137498   3.025   5.882   0.043 -1.6045  1.1855  1.5545
 5313TIP3    H237499   3.154   5.844   0.111  0.4613  2.0050 -1.6776
 5314TIP3   OH237500   6.312   5.772   7.833 -0.4276  0.4061  0.4232
 5314TIP3    H137501   6.291   5.690   7.788 -1.2590  0.6792  0.3010
 5314TIP3    H237502   6.365   5.821   7.771  1.2152 -0.5684  0.9825
 5315TIP3   OH237503   4.112   5.017   0.019 -0.2130  0.1498 -0.0748
 5315TIP3    H137504   4.119   4.992  -0.073  0.6521 -1.7757  0.4580
 5315TIP3    H237505   4.021   5.047   0.029 -0.6875 -0.7885 -1.2968
 5316TIP3   OH237506   4.185   3.730   0.943 -0.0273 -0.0982 -0.2158
 5316TIP3    H137507   4.206   3.764   1.030  1.3873 -0.1566 -0.5136
 5316TIP3    H237508   4.200   3.636   0.950 -1.2153 -0.3085 -0.1776
 5317TIP3   OH237509   3.204   2.422   0.699  0.1210 -0.4018  0.4794
 5317TIP3    H137510   3.189   2.446   0.790 -0.0051 -1.3000  0.7098
 5317TIP3    H237511   3.138   2.355   0.681  1.1275 -1.3452  0.2051
 5318TIP3   OH237512   5.277   4.474   0.787 -0.9082  0.6920 -0.5573
 5318TIP3    H137513   5.361   4.511   0.815  0.2680 -1.4390 -1.0125
 5318TIP3    H237514   5.253   4.414   0.858 -2.0922  1.3131 -0.4139
 5319TIP3   OH237515   0.851   5.038   8.241  0.1694 -0.4617 -0.2519
 5319TIP3    H137516   0.802   4.957   8.255  1.2062 -1.2894 -1.1512
 5319TIP3    H237517   0.833   5.061   8.150 -0.2342  0.4127  0.0445
 5320TIP3   OH237518   1.454   2.105   9.457 -0.4623  0.6720  0.8145
 5320TIP3    H137519   1.524   2.063   9.508  1.1384  1.8930 -0.2675
 5320TIP3    H237520   1.410   2.163   9.519 -1.1177 -0.7403  1.7228
 5321TIP3   OH237521   1.217   5.432   7.935  0.3158 -0.0458 -0.1153
 5321TIP3    H137522   1.191   5.340   7.940  0.1480  0.0570  1.2970
 5321TIP3    H237523   1.164   5.468   7.864 -1.4230 -0.4927  0.9006
 5322TIP3   OH237524   1.310   5.345   1.951 -0.0388 -0.2190 -0.4752
 5322TIP3    H137525   1.374   5.384   1.891  0.3704 -0.4720 -0.2120
 5322TIP3    H237526   1.243   5.307   1.894  1.1074 -1.7857 -0.8664
 5323TIP3   OH237527   5.243   0.536   0.075  0.1644 -0.0284 -0.0906
 5323TIP3    H137528   5.227   0.543  -0.019  0.3219  0.7399 -0.0634
 5323TIP3    H237529   5.320   0.591   0.091  0.6803 -0.8457  0.3538
 5324TIP3   OH237530   5.947   5.041   0.315  0.1840  0.8389 -0.5688
 5324TIP3    H137531   5.966   5.011   0.226 -0.7154 -1.5205 -0.0097
 5324TIP3    H237532   6.010   4.994   0.370  0.1216  1.5746  0.1481
 5325TIP3   OH237533   3.745   2.815   2.114 -0.7313  0.4230  0.2778
 5325TIP3    H137534   3.696   2.749   2.064  1.3637  0.7714 -2.4906
 5325TIP3    H237535   3.739   2.785   2.205 -4.3526 -0.5546 -0.0958
 5326TIP3   OH237536   1.698   5.824   9.000 -0.9338  0.6170  0.1700
 5326TIP3    H137537   1.613   5.782   9.008 -0.5685 -0.2633 -0.3988
 5326TIP3    H237538   1.714   5.864   9.086 -2.3600  1.6896 -0.0248
 5327TIP3   OH237539   3.576   6.293   9.432 -0.0982 -0.0035  0.1570
 5327TIP3    H137540   3.482   6.277   9.444 -0.2878  0.6072 -0.4622
 5327TIP3    H237541   3.618   6.237   9.498 -0.8101 -1.6047 -0.6765
 5328TIP3   OH237542   3.458   5.337   9.243  0.1013  0.2404 -0.1061
 5328TIP3    H137543   3.366   5.315   9.228 -0.1864 -0.1527  1.8840
 5328TIP3    H237544   3.494   5.260   9.287  0.8125  1.1763  1.0111
 5329TIP3   OH237545   4.612   4.398   0.621  0.0063  0.2947  0.7106
 5329TIP3    H137546   4.679   4.453   0.581 -1.1672 -0.3542 -2.4348
 5329TIP3    H237547   4.550   4.460   0.659 -0.4804  1.1686 -1.3768
 5330TIP3   OH237548   5.582   5.507   8.363  0.7454 -0.0844  0.3686
 5330TIP3    H137549   5.613   5.585   8.316 -1.5205  1.3574  1.0906
 5330TIP3    H237550   5.573   5.440   8.295  4.9120 -0.6078  0.0440
 5331TIP3   OH237551   5.281   4.352   2.480 -0.1986 -0.0031 -0.1763
 5331TIP3    H137552   5.222   4.277   2.492  0.8860 -0.8065  0.3840
 5331TIP3    H237553   5.280   4.396   2.565 -0.2921  0.2022 -0.2853
 5332TIP3   OH237554   2.297   1.016   7.250 -0.8011 -0.1336 -0.3671
 5332TIP3    H137555   2.225   0.957   7.228  1.3733 -2.8263 -0.7673
 5332TIP3    H237556   2.352   1.017   7.172  1.6428 -1.4725  1.2052
 5333TIP3   OH237557   1.105   5.809   8.769  0.6502  0.1139 -0.0144
 5333TIP3    H137558   1.024   5.757   8.771  0.4097  0.2519 -2.6411
 5333TIP3    H237559   1.115   5.841   8.859 -0.0699 -3.0835  1.3232
 5334TIP3   OH237560   0.949   4.631   2.133  0.3454 -0.3001  0.1481
 5334TIP3    H137561   0.987   4.709   2.093 -1.7798  0.2616 -0.9216
 5334TIP3    H237562   0.878   4.665   2.189 -0.9596 -1.4501 -0.7446
 5335TIP3   OH237563   6.460   0.509   9.181 -0.2601  0.1703  0.0792
 5335TIP3    H137564   6.513   0.432   9.203  0.8798  1.2658  1.2717
 5335TIP3    H237565   6.521   0.582   9.184 -1.0730  1.0134 -2.2375
 5336TIP3   OH237566   1.171   1.810   8.428  0.2892  0.1585  0.3911
 5336TIP3    H137567   1.110   1.842   8.362 -1.1625 -0.4549  1.3885
 5336TIP3    H237568   1.117   1.761   8.490  2.1368 -2.9008 -0.1981
 5337TIP3   OH237569   4.185   5.979   9.505 -0.5053 -0.6144  0.0164
 5337TIP3    H137570   4.261   5.988   9.448 -1.2579 -0.7468 -1.0261
 5337TIP3    H237571   4.222   5.983   9.594  0.7184 -0.7351 -0.4603
 5338TIP3   OH237572   1.885   5.573   2.354 -0.0797  0.1367 -0.2088
 5338TIP3    H137573   1.831   5.648   2.381 -2.2234 -1.3641 -0.0361
 5338TIP3    H237574   1.879   5.512   2.428  2.2376  0.0501 -0.0307
 5339TIP3   OH237575   0.103   2.218   8.629  0.0487  0.4438  0.2038
 5339TIP3    H137576   0.195   2.217   8.654  0.1683  2.3558 -0.0112
 5339TIP3    H237577   0.098   2.161   8.553  0.9804  0.0314  0.4371
 5340TIP3   OH237578   3.681   2.061   8.252 -0.1925  0.2025 -0.0209
 5340TIP3    H137579   3.736   2.014   8.190  1.0680 -0.0717  1.2372
 5340TIP3    H237580   3.662   1.996   8.320  0.2014  1.0399  0.9129
 5341TIP3   OH237581   4.413   0.307   2.150 -0.1062  0.3439 -0.0806
 5341TIP3    H137582   4.487   0.277   2.203 -2.0654 -0.0407  2.7091
 5341TIP3    H237583   4.369   0.226   2.122 -0.6089  0.5527  0.0828
 5342TIP3   OH237584   5.465   4.730   1.910  0.0378 -0.2990 -0.4667
 5342TIP3    H137585   5.396   4.733   1.977  0.3721  2.3351 -0.1564
 5342TIP3    H237586   5.502   4.642   1.918 -1.4645 -0.8326  1.2167
 5343TIP3   OH237587   0.078   6.237   8.438  0.0117  0.3950 -0.2115
 5343TIP3    H137588   0.060   6.157   8.487  1.7751 -1.3881 -2.2094
 5343TIP3    H237589  -0.003   6.287   8.442 -1.2527 -1.6087  0.9465
 5344TIP3   OH237590   1.323   2.327   9.185 -0.2879  0.2911 -0.0580
 5344TIP3    H137591   1.411   2.364   9.195 -0.5573  0.8128  0.4922
 5344TIP3    H237592   1.337   2.241   9.145  0.6300 -0.4061  1.6536
 5345TIP3   OH237593   4.534   4.707   0.153 -1.3729 -0.3229 -1.0520
 5345TIP3    H137594   4.541   4.774   0.085  2.2362  0.7569  0.1305
 5345TIP3    H237595   4.511   4.755   0.232  1.1370 -0.3473 -0.2136
 5346TIP3   OH237596   1.361   5.131   1.313  0.4866 -0.4836 -0.5261
 5346TIP3    H137597   1.406   5.107   1.232 -1.7876 -1.1158 -1.7093
 5346TIP3    H237598   1.329   5.220   1.297 -0.9745 -1.0367 -0.8553
 5347TIP3   OH237599   2.033   3.283   0.790  0.3902 -0.0490  0.3425
 5347TIP3    H137600   1.954   3.335   0.805 -0.1333 -0.8006  0.2986
 5347TIP3    H237601   2.007   3.223   0.719  1.5228  0.7761 -0.8174
 5348TIP3   OH237602   3.567   4.720   7.548 -0.1193  0.2139 -0.1745
 5348TIP3    H137603   3.532   4.809   7.547  0.3695  0.4139 -1.5644
 5348TIP3    H237604   3.593   4.703   7.457  1.9702 -0.4796  0.4870
 5349TIP3   OH237605   3.845   0.042   8.180 -0.1688 -0.0732  0.4563
 5349TIP3    H137606   3.904   0.019   8.109 -1.5699 -0.0660 -0.7565
 5349TIP3    H237607   3.902   0.055   8.256  1.8864  3.6625 -1.4602
 5350TIP3   OH237608   0.030   5.642   1.011  0.0926  0.2160  0.3542
 5350TIP3    H137609   0.005   5.625   0.920 -0.3556 -1.0052  0.6891
 5350TIP3    H237610  -0.053   5.648   1.058  0.2103  3.0856  0.3511
 5351TIP3   OH237611   0.743   6.266   8.621 -0.5388 -0.4161 -0.0314
 5351TIP3    H137612   0.808   6.210   8.664  1.0954 -0.0955 -1.9142
 5351TIP3    H237613   0.776   6.355   8.632  0.2662 -0.3588 -2.3251
 5352TIP3   OH237614   1.303   5.341   1.578 -0.1922 -0.3396 -0.1215
 5352TIP3    H137615   1.360   5.360   1.504 -1.2317  0.7930 -0.6755
 5352TIP3    H237616   1.229   5.294   1.541  0.4603 -2.0468  0.6349
 5353TIP3   OH237617   0.994   5.945   2.442  0.1373  0.0361  0.3694
 5353TIP3    H137618   1.044   6.027   2.439  1.6982 -0.9105 -0.5749
 5353TIP3    H237619   0.905   5.973   2.464  1.0935  1.7592  2.4425
 5354TIP3   OH237620   0.107   1.424   8.647  0.0970  0.4432  0.4358
 5354TIP3    H137621   0.092   1.454   8.557  0.9036 -1.1914 -0.2844
 5354TIP3    H237622   0.086   1.500   8.701 -0.5744  1.4176 -1.1135
 5355TIP3   OH237623   4.957   6.009   0.961  0.4242  0.3052 -0.2075
 5355TIP3    H137624   4.969   6.030   0.868  0.1162  1.4993 -0.0034
 5355TIP3    H237625   5.004   6.080   1.006 -2.2689  1.7282  0.5683
 5356TIP3   OH237626   5.851   6.463   1.569 -0.1647 -0.6322 -0.4340
 5356TIP3    H137627   5.878   6.433   1.656  1.6507  1.5069 -0.1591
 5356TIP3    H237628   5.794   6.394   1.536 -0.6458 -1.6764  2.3105
 5357TIP3   OH237629   6.528   5.891   9.121  0.3479  0.0312  0.1131
 5357TIP3    H137630   6.611   5.847   9.101  1.3481  1.9828 -0.2052
 5357TIP3    H237631   6.534   5.976   9.077 -2.5134 -0.3646 -1.3032
 5358TIP3   OH237632   5.874   3.840   1.487  0.3866  0.1174  0.1370
 5358TIP3    H137633   5.874   3.880   1.574  0.3816  1.3451 -0.4030
 5358TIP3    H237634   5.833   3.754   1.500  1.4933 -0.2408  1.5493
 5359TIP3   OH237635   1.470   3.669   6.900 -0.2062  1.0670  0.3387
 5359TIP3    H137636   1.561   3.641   6.888  0.4725  2.9354  0.8195
 5359TIP3    H237637   1.424   3.634   6.823  1.4050  2.0170 -1.1325
 5360TIP3   OH237638   2.099   5.714   8.898  0.2512 -0.0601  0.6202
 5360TIP3    H137639   2.101   5.770   8.820  0.3080  0.7015  1.1514
 5360TIP3    H237640   2.007   5.696   8.913  0.1301  0.9187  1.1431
 5361TIP3   OH237641   5.724   5.348   7.590  0.0801  0.3391  0.2279
 5361TIP3    H137642   5.660   5.277   7.591  1.6553 -1.2071  2.5732
 5361TIP3    H237643   5.675   5.425   7.619 -1.4694  0.0852 -1.5149
 5362TIP3   OH237644   1.519   2.060   1.975 -0.6271  0.5814  0.5035
 5362TIP3    H137645   1.475   2.142   1.953 -0.7806  0.9937  2.1782
 5362TIP3    H237646   1.535   2.066   2.069  1.6925 -0.2221  0.2203
 5363TIP3   OH237647   4.670   3.571   0.821  0.3207  0.1498 -0.4228
 5363TIP3    H137648   4.584   3.551   0.859  1.5001 -0.8186  1.9304
 5363TIP3    H237649   4.723   3.600   0.896  2.4077 -0.4937 -1.5727
 5364TIP3   OH237650   6.086   2.051   7.896 -0.4287  0.0700 -0.5001
 5364TIP3    H137651   6.089   2.059   7.800  2.1906 -1.5931 -0.6848
 5364TIP3    H237652   6.068   1.958   7.911 -0.7993  0.3166  0.6266
 5365TIP3   OH237653   4.680   3.127   0.382 -0.6257 -0.0702 -0.2812
 5365TIP3    H137654   4.657   3.212   0.420 -0.6970  0.3353 -1.2255
 5365TIP3    H237655   4.690   3.144   0.289 -1.9620 -1.3654 -0.6988
 5366TIP3   OH237656   5.387   4.577   8.598 -0.0356 -0.7807  0.2253
 5366TIP3    H137657   5.350   4.646   8.543  2.0920  2.0822  2.0294
 5366TIP3    H237658   5.346   4.496   8.568 -0.6183  0.8435 -3.9621
 5367TIP3   OH237659   2.733   6.439   1.632  0.1840 -0.0354 -1.0119
 5367TIP3    H137660   2.650   6.433   1.585  0.4800 -2.4459 -1.3718
 5367TIP3    H237661   2.752   6.349   1.659  1.3630  0.8454  1.4449
 5368TIP3   OH237662   1.293   0.123   0.089  0.7294 -0.6560 -0.4906
 5368TIP3    H137663   1.201   0.140   0.069  0.9555 -0.5685 -1.4872
 5368TIP3    H237664   1.325   0.071   0.016  1.9992  1.0190 -1.2041
 5369TIP3   OH237665   5.555   0.261   0.706  0.1296  0.2003  0.4392
 5369TIP3    H137666   5.503   0.221   0.775  0.0098  0.6214  0.5918
 5369TIP3    H237667   5.493   0.317   0.658  0.3289  0.3190  0.3172
 5370TIP3   OH237668   4.029   6.206   7.984 -0.0506 -0.4802  0.3352
 5370TIP3    H137669   4.082   6.267   8.035 -0.7442  0.3727  0.0626
 5370TIP3    H237670   4.025   6.244   7.897 -2.8154  0.6342  0.8392
 5371TIP3   OH237671   1.663   4.131   0.895  0.5255  0.5298  0.3169
 5371TIP3    H137672   1.590   4.193   0.894  1.2557  1.4479 -1.5389
 5371TIP3    H237673   1.655   4.086   0.979 -2.2283  0.5088  0.1348
 5372TIP3   OH237674   4.283   2.723   1.168  0.0275  0.1084  0.5854
 5372TIP3    H137675   4.264   2.811   1.200  1.7866 -0.2713  3.0192
 5372TIP3    H237676   4.288   2.669   1.247 -2.1330 -2.5027 -0.8772
 5373TIP3   OH237677   3.536   6.503   0.825  0.1020  0.0407 -0.0956
 5373TIP3    H137678   3.462   6.557   0.850 -0.6139 -0.7426 -0.5001
 5373TIP3    H237679   3.599   6.514   0.897 -0.1519  1.1611 -0.0350
 5374TIP3   OH237680   4.617   1.827   7.632  0.1612  0.1761 -0.1707
 5374TIP3    H137681   4.655   1.841   7.719  0.0241  0.6201 -0.1841
 5374TIP3    H237682   4.603   1.915   7.597 -4.5833  0.3121  1.4205
 5375TIP3   OH237683   0.995   0.175   7.215 -0.2119 -0.4943 -0.0786
 5375TIP3    H137684   0.990   0.092   7.168  0.4513 -1.4800  1.5493
 5375TIP3    H237685   1.074   0.218   7.180 -0.0366 -0.9596 -0.2548
 5376TIP3   OH237686   4.192   1.625   0.343  0.5802 -0.8550 -0.0337
 5376TIP3    H137687   4.211   1.715   0.318  1.0225 -0.8643  0.2598
 5376TIP3    H237688   4.122   1.597   0.283 -1.5585  0.5640  1.6424
 5377TIP3   OH237689   4.526   5.728   9.592 -0.7972  0.2994 -0.2655
 5377TIP3    H137690   4.619   5.747   9.584 -0.6046 -0.5261 -0.1276
 5377TIP3    H237691   4.482   5.797   9.542 -0.0817  0.3465 -0.8369
 5378TIP3   OH237692   2.077   1.667   2.186 -0.0561  0.3961 -0.8240
 5378TIP3    H137693   2.026   1.680   2.106  0.2795  0.8804 -0.9603
 5378TIP3    H237694   2.119   1.751   2.201 -3.0123  1.5903  1.9535
 5379TIP3   OH237695   3.386   0.353   9.321  0.3740  0.3622 -0.0284
 5379TIP3    H137696   3.422   0.301   9.392  1.6427  0.7282 -0.3779
 5379TIP3    H237697   3.462   0.392   9.279 -0.3833  0.4368 -1.3749
 5380TIP3   OH237698   1.706   4.340   0.656  0.7040 -0.5885  0.1996
 5380TIP3    H137699   1.710   4.311   0.747 -1.0937 -1.6729 -0.0214
 5380TIP3    H237700   1.656   4.271   0.611  1.8619 -0.2760 -1.7005
 5381TIP3   OH237701   0.140   3.337   1.721  0.4641 -0.3820 -0.9020
 5381TIP3    H137702   0.130   3.243   1.739 -2.2852  0.0749  0.5899
 5381TIP3    H237703   0.118   3.347   1.629 -3.0556 -0.8938 -0.2558
 5382TIP3   OH237704   2.871   3.437   1.336  0.7005 -0.1198  0.1973
 5382TIP3    H137705   2.799   3.482   1.290 -0.9928  1.6089  4.0759
 5382TIP3    H237706   2.950   3.463   1.288 -0.7612  2.5557 -1.0209
 5383TIP3   OH237707   2.341   3.296   8.848  0.0025  0.0290 -0.2552
 5383TIP3    H137708   2.426   3.337   8.830 -1.0748  0.9072 -4.6324
 5383TIP3    H237709   2.363   3.215   8.894  2.9515  1.4024  1.0478
 5384TIP3   OH237710   3.603   5.787   1.878 -0.6175 -0.2164  0.4895
 5384TIP3    H137711   3.674   5.735   1.840  0.8095  0.8875  1.5252
 5384TIP3    H237712   3.555   5.726   1.933 -0.8328 -1.1054 -0.6318
 5385TIP3   OH237713   2.299   4.060   2.607  0.2846  0.2875  0.2474
 5385TIP3    H137714   2.325   4.146   2.641  0.8161  0.3115 -0.2008
 5385TIP3    H237715   2.374   4.004   2.624 -0.6662 -0.5308  2.0342
 5386TIP3   OH237716   0.322   2.508   6.795 -0.0026  0.1494  0.1222
 5386TIP3    H137717   0.227   2.522   6.804  0.2132  1.6426  0.4234
 5386TIP3    H237718   0.355   2.592   6.761  1.3243 -0.0365  0.8728
 5387TIP3   OH237719   1.164   1.009   9.299 -0.2325  0.5677  0.0288
 5387TIP3    H137720   1.183   1.093   9.339 -1.2681  0.3136  1.0959
 5387TIP3    H237721   1.175   0.945   9.369  0.4273 -0.1857 -0.7343
 5388TIP3   OH237722   5.981   4.913   1.484  0.1115 -0.0412 -0.0429
 5388TIP3    H137723   5.981   4.833   1.536 -1.1143 -1.2426 -1.7772
 5388TIP3    H237724   5.977   4.984   1.549 -2.4894 -1.4660  1.5431
 5389TIP3   OH237725   4.617   0.064   7.959 -1.0333  0.4624  0.4030
 5389TIP3    H137726   4.578   0.146   7.929 -0.6096  0.1341 -1.1054
 5389TIP3    H237727   4.621   0.009   7.881  0.6977 -0.1998  0.9190
 5390TIP3   OH237728   5.559   2.460   8.012  0.1476 -0.2901  0.3210
 5390TIP3    H137729   5.633   2.399   8.002  0.3845 -0.2295  1.5983
 5390TIP3    H237730   5.600   2.545   8.026 -0.1740 -0.1573  0.4600
 5391TIP3   OH237731   5.186   2.421   8.949  0.0312  0.2925 -0.8303
 5391TIP3    H137732   5.274   2.395   8.921 -0.2640 -1.5916 -0.1734
 5391TIP3    H237733   5.189   2.416   9.045 -0.3985  1.6381 -0.7296
 5392TIP3   OH237734   4.474   3.865   7.509 -0.3156  0.3579  0.6065
 5392TIP3    H137735   4.402   3.873   7.446  0.2657 -1.2654 -0.3162
 5392TIP3    H237736   4.542   3.923   7.475  0.4637 -1.4050 -1.0101
 5393TIP3   OH237737   4.839   5.775   0.141  0.2470  0.4378  0.1093
 5393TIP3    H137738   4.830   5.761   0.047 -0.7346 -1.2244  0.4053
 5393TIP3    H237739   4.836   5.687   0.179  1.3063  1.0136  1.6609
 5394TIP3   OH237740   4.091   0.831   8.990  0.8111 -0.3921  0.3809
 5394TIP3    H137741   4.130   0.783   9.063  1.0357  1.3397  1.4581
 5394TIP3    H237742   4.139   0.801   8.913  1.4253 -1.3503  1.1181
 5395TIP3   OH237743   1.357   3.257   8.654 -0.0173  0.1589 -0.2898
 5395TIP3    H137744   1.383   3.347   8.635 -0.1344  0.1421 -0.5272
 5395TIP3    H237745   1.415   3.203   8.602 -1.4776  0.1531 -2.0138
 5396TIP3   OH237746   4.633   4.198   8.431 -0.8200 -0.6089  0.2172
 5396TIP3    H137747   4.660   4.107   8.441 -0.5593 -0.5327  0.2108
 5396TIP3    H237748   4.699   4.236   8.372  0.1473  0.0666  1.6778
 5397TIP3   OH237749   1.726   1.843   0.775 -0.3350 -0.0870  0.5383
 5397TIP3    H137750   1.681   1.858   0.858 -2.2116 -0.3976 -0.3522
 5397TIP3    H237751   1.662   1.793   0.723  0.5275  0.6592 -1.3027
 5398TIP3   OH237752   4.778   1.235   0.817 -0.6655 -0.0093  0.2429
 5398TIP3    H137753   4.738   1.286   0.887 -1.2610 -0.7823  0.4847
 5398TIP3    H237754   4.769   1.289   0.739 -0.0666  0.8256  0.7325
 5399TIP3   OH237755   0.921   2.627   1.185 -0.2223  0.4745  0.4058
 5399TIP3    H137756   1.006   2.608   1.223  0.2407  2.0338  0.2019
 5399TIP3    H237757   0.930   2.602   1.093  0.3199  1.4651  0.1802
 5400TIP3   OH237758   0.732   4.460   7.300 -0.4676 -0.1083  0.4531
 5400TIP3    H137759   0.735   4.511   7.219 -1.2743  1.1873  1.1989
 5400TIP3    H237760   0.822   4.463   7.333 -0.7696  2.2679  1.2791
 5401TIP3   OH237761   4.545   4.031   8.986  0.0289  0.3260 -0.3807
 5401TIP3    H137762   4.518   4.061   8.900 -0.0411  0.5252 -0.2894
 5401TIP3    H237763   4.633   4.068   8.998 -0.7594  2.0353  0.4832
 5402TIP3   OH237764   5.221   5.501   7.294 -0.0645  0.2291  0.0428
 5402TIP3    H137765   5.277   5.466   7.364 -1.1287  1.3931  1.5541
 5402TIP3    H237766   5.280   5.556   7.242  0.4421  0.5888  0.9653
 5403TIP3   OH237767   1.104   1.901   9.009  0.5877  0.0760  0.0287
 5403TIP3    H137768   1.107   1.881   9.102  1.9718 -2.0495 -0.3839
 5403TIP3    H237769   1.061   1.824   8.970  2.0096 -0.0916 -1.2765
 5404TIP3   OH237770   4.287   1.966   1.036 -0.3820 -0.1678 -0.1831
 5404TIP3    H137771   4.200   1.994   1.006 -0.3801 -0.4145 -0.4283
 5404TIP3    H237772   4.273   1.876   1.066 -0.6558  0.4732  1.7497
 5405TIP3   OH237773   5.569   2.406   9.328 -0.0467 -0.1434 -1.0283
 5405TIP3    H137774   5.571   2.415   9.233 -0.5598  0.4963 -0.9823
 5405TIP3    H237775   5.646   2.353   9.349  1.0304  1.1316 -1.6441
 5406TIP3   OH237776   6.278   6.323   1.470 -0.0294  0.5171  0.3238
 5406TIP3    H137777   6.194   6.279   1.456 -0.3060  1.3345 -0.6769
 5406TIP3    H237778   6.257   6.399   1.524  0.0228  0.8611 -0.1358
 5407TIP3   OH237779   6.353   2.019   7.451 -0.2390  0.2070 -0.7897
 5407TIP3    H137780   6.432   2.044   7.402 -0.2805  1.6997 -0.1438
 5407TIP3    H237781   6.283   2.021   7.386 -0.2400  1.8764 -0.7817
 5408TIP3   OH237782   5.705   5.625   1.176 -0.3250  0.1661  0.0756
 5408TIP3    H137783   5.729   5.686   1.246  1.4159 -1.7147  1.2196
 5408TIP3    H237784   5.664   5.551   1.221 -0.5827 -0.4134 -1.0609
 5409TIP3   OH237785   4.342   1.031   2.578  0.5233 -0.5802 -0.5125
 5409TIP3    H137786   4.278   1.073   2.521  0.0586 -1.2208 -0.4700
 5409TIP3    H237787   4.293   1.008   2.657  0.8305 -0.9735 -0.4337
 5410TIP3   OH237788   6.212   0.743   7.895  0.1756 -0.3186 -0.3929
 5410TIP3    H137789   6.176   0.738   7.983  1.8953 -2.4370  0.2623
 5410TIP3    H237790   6.238   0.835   7.885 -0.2483  0.0065  1.2144
 5411TIP3   OH237791   3.048   3.173   7.742 -0.1444 -0.1051  0.3658
 5411TIP3    H137792   3.097   3.097   7.713 -0.2631 -0.1965  0.4031
 5411TIP3    H237793   3.097   3.248   7.708 -0.6021 -0.2214 -0.5948
 5412TIP3   OH237794   0.167   0.986   1.298 -0.0936 -0.0619  0.0927
 5412TIP3    H137795   0.104   0.970   1.227 -1.0086  0.0610  0.8536
 5412TIP3    H237796   0.236   0.921   1.284 -0.8505 -0.8178 -0.2262
 5413TIP3   OH237797   4.655   1.383   9.566  0.4883 -0.4542 -0.5364
 5413TIP3    H137798   4.717   1.405   9.635 -0.0937  0.8663 -0.4123
 5413TIP3    H237799   4.698   1.413   9.485  1.1183 -1.8928 -0.7736
 5414TIP3   OH237800   6.234   6.465   0.409  0.3256  0.5531 -0.2476
 5414TIP3    H137801   6.209   6.546   0.364 -0.3657  1.2484  1.3313
 5414TIP3    H237802   6.163   6.448   0.470  2.6442  1.5592  3.0545
 5415TIP3   OH237803   2.922   6.210   1.458  0.0969 -0.3571  0.3549
 5415TIP3    H137804   2.909   6.127   1.506 -0.9690  0.4994  1.6375
 5415TIP3    H237805   2.948   6.272   1.526 -1.5723  0.9320 -0.1045
 5416TIP3   OH237806   5.980   5.110   9.523  0.1953  0.1024 -0.0724
 5416TIP3    H137807   6.036   5.054   9.576  1.5371  0.3694 -1.1552
 5416TIP3    H237808   5.893   5.099   9.560  0.8568 -0.7727  1.2942
 5417TIP3   OH237809   3.778   6.057   7.948 -0.3989  0.0224  0.4073
 5417TIP3    H137810   3.849   6.105   7.991 -0.1534 -0.0045  0.0456
 5417TIP3    H237811   3.810   5.967   7.944 -1.7917 -0.6855  3.1160
 5418TIP3   OH237812   3.175   5.598   0.865  0.0725 -0.2813  0.1837
 5418TIP3    H137813   3.123   5.584   0.944  0.5956 -1.1738  0.3908
 5418TIP3    H237814   3.110   5.607   0.795 -0.3773 -1.5727  0.4035
 5419TIP3   OH237815   1.565   1.563   1.097  0.4509 -0.3010  0.0287
 5419TIP3    H137816   1.489   1.620   1.110  0.8750  0.8079 -1.8543
 5419TIP3    H237817   1.607   1.559   1.183 -1.6014 -0.8123  1.0727
 5420TIP3   OH237818   1.956   0.977   1.332 -0.0437  0.0181  0.7027
 5420TIP3    H137819   1.982   0.956   1.422 -0.1377  0.1177  0.7537
 5420TIP3    H237820   2.034   0.961   1.280 -0.1407 -0.5402  0.7297
 5421TIP3   OH237821   0.576   4.453   8.601 -0.0937  0.4350 -0.4208
 5421TIP3    H137822   0.494   4.419   8.566  0.3540 -2.3699  1.0109
 5421TIP3    H237823   0.551   4.497   8.682 -0.0937 -1.5665  0.7032
 5422TIP3   OH237824   2.631   2.045   9.025 -0.0747 -0.0237  0.1163
 5422TIP3    H137825   2.600   1.987   9.094  0.2984 -0.9550 -0.4884
 5422TIP3    H237826   2.587   2.014   8.946  0.0865  0.5562 -0.2084
 5423TIP3   OH237827   1.064   2.802   8.518 -0.3458 -0.6001  0.1292
 5423TIP3    H137828   1.005   2.737   8.556 -1.0780 -1.0326 -1.6410
 5423TIP3    H237829   1.065   2.874   8.581 -1.5888 -1.2157  0.8874
 5424TIP3   OH237830   5.131   5.095   6.869  0.5351 -0.0911  0.2583
 5424TIP3    H137831   5.093   5.013   6.901 -0.3568  0.5420  0.8633
 5424TIP3    H237832   5.206   5.068   6.816  1.4169 -1.2365  1.9962
 5425TIP3   OH237833   3.924   5.492   8.269 -0.2738 -0.0379  0.0707
 5425TIP3    H137834   3.972   5.411   8.253 -0.9373 -0.2373 -1.0112
 5425TIP3    H237835   3.975   5.559   8.226  0.4176  0.1779  1.1961
 5426TIP3   OH237836   4.851   2.478   9.158 -0.4228  0.4189 -0.8654
 5426TIP3    H137837   4.798   2.398   9.165 -0.5485  0.4361 -1.5597
 5426TIP3    H237838   4.795   2.547   9.192 -1.0646  0.5205 -2.0578
 5427TIP3   OH237839   0.566   2.860   2.208 -0.2143 -0.0643 -0.1497
 5427TIP3    H137840   0.591   2.816   2.127  0.0646  0.7757 -0.5327
 5427TIP3    H237841   0.552   2.789   2.271 -0.4856 -0.7269 -0.9407
 5428TIP3   OH237842   5.500   2.944   8.483 -0.2358  0.0981  0.1156
 5428TIP3    H137843   5.422   2.903   8.522  0.2115  2.1415  3.5619
 5428TIP3    H237844   5.480   3.038   8.484  1.2477  0.4748 -1.5043
 5429TIP3   OH237845   4.423   0.676   8.479  0.5926  0.1104  0.0611
 5429TIP3    H137846   4.465   0.683   8.393 -0.2546  0.9373 -0.2974
 5429TIP3    H237847   4.409   0.767   8.506 -1.1668 -0.1221  0.0547
 5430TIP3   OH237848   0.430   2.155   0.398  0.1436 -0.0287  0.2039
 5430TIP3    H137849   0.481   2.236   0.393 -0.8515  0.5622 -0.9454
 5430TIP3    H237850   0.401   2.150   0.489  0.7010  0.5881  0.4230
 5431TIP3   OH237851   5.484   4.444   7.847 -0.0960 -0.0347  0.2132
 5431TIP3    H137852   5.529   4.403   7.773 -2.1720 -1.9082 -0.1115
 5431TIP3    H237853   5.481   4.537   7.825  1.6619 -0.1645 -0.7469
 5432TIP3   OH237854   2.802   1.576   8.333 -0.0759  0.4054  0.4104
 5432TIP3    H137855   2.755   1.621   8.403 -0.0426  2.2805 -0.7081
 5432TIP3    H237856   2.737   1.566   8.263  0.3085 -0.0102  0.1077
 5433TIP3   OH237857   4.993   2.707   9.437 -0.7172 -0.0589  0.6213
 5433TIP3    H137858   4.906   2.747   9.438 -1.4866 -1.5988  2.3967
 5433TIP3    H237859   4.999   2.662   9.522  0.5312 -2.5918 -0.6947
 5434TIP3   OH237860   1.167   5.090   7.199 -0.2279 -0.1051 -0.6923
 5434TIP3    H137861   1.115   5.064   7.123  1.9460 -0.6290 -2.0636
 5434TIP3    H237862   1.174   5.185   7.191 -0.9460 -0.0324 -0.5054
 5435TIP3   OH237863   5.062   4.860   7.007  0.5347 -0.9198 -0.4486
 5435TIP3    H137864   5.075   4.891   7.097 -0.1257 -0.2723 -0.5609
 5435TIP3    H237865   5.147   4.825   6.981  1.5609  1.4097 -0.5199
 5436TIP3   OH237866   4.994   3.665   0.024  0.4500  0.0296  0.2752
 5436TIP3    H137867   5.036   3.714  -0.047  0.0132 -0.3760 -0.2670
 5436TIP3    H237868   5.067   3.620   0.068  0.7783  0.6513  0.3928
 5437TIP3   OH237869   4.057   4.259   2.107  0.4168 -0.2676 -0.2752
 5437TIP3    H137870   3.995   4.212   2.163  1.5116  0.3588  1.5576
 5437TIP3    H237871   4.062   4.347   2.146  0.6939  0.4268 -1.8050
 5438TIP3   OH237872   1.937   2.599   1.332  0.4641  0.4421  0.3614
 5438TIP3    H137873   1.870   2.645   1.281 -2.8243 -2.0478  2.0572
 5438TIP3    H237874   1.960   2.660   1.402  0.6471  1.6578 -0.7207
 5439TIP3   OH237875   0.153   2.188   9.534 -0.1438  0.1771 -0.3877
 5439TIP3    H137876   0.223   2.173   9.597  0.7028  3.1478 -0.4534
 5439TIP3    H237877   0.150   2.108   9.482  0.9623 -1.3004  1.6602
 5440TIP3   OH237878   3.322   4.381   9.438 -0.4897 -0.0194 -0.5617
 5440TIP3    H137879   3.272   4.433   9.501  0.6748  1.2706 -0.6405
 5440TIP3    H237880   3.257   4.324   9.397 -2.1287  2.2572 -1.3505
 5441TIP3   OH237881   2.562   5.336   2.485  0.7689 -0.5682 -0.2252
 5441TIP3    H137882   2.583   5.429   2.483 -1.2797 -0.0356 -2.8189
 5441TIP3    H237883   2.551   5.315   2.578 -0.7677  2.2850  0.3324
 5442TIP3   OH237884   6.431   4.047   7.973  0.0096 -0.2682  0.5246
 5442TIP3    H137885   6.346   4.061   7.931 -0.4728 -1.7602  0.9433
 5442TIP3    H237886   6.490   4.025   7.901  0.1428  1.0373  0.1984
 5443TIP3   OH237887   0.713   5.126   9.532  0.3063 -0.1753  0.7590
 5443TIP3    H137888   0.804   5.100   9.519  0.2881  0.0658  0.1630
 5443TIP3    H237889   0.712   5.220   9.516 -0.2702 -0.3686 -0.4027
 5444TIP3   OH237890   2.301   1.814   1.411  0.6466 -0.4087  0.1776
 5444TIP3    H137891   2.344   1.834   1.329 -0.4617 -0.8614 -0.5340
 5444TIP3    H237892   2.207   1.814   1.390  0.3958 -1.6889  1.1625
 5445TIP3   OH237893   3.953   6.137   8.402  0.5531  0.2669 -0.2839
 5445TIP3    H137894   3.890   6.150   8.332  0.9995 -0.9303 -0.9445
 5445TIP3    H237895   3.908   6.165   8.482 -1.0558 -1.1264 -0.6491
 5446TIP3   OH237896   1.554   4.160   7.507  0.2029 -0.0635 -0.4307
 5446TIP3    H137897   1.563   4.237   7.564  0.1137  0.3212 -0.9292
 5446TIP3    H237898   1.577   4.192   7.420  1.3634 -0.8982 -0.4533
 5447TIP3   OH237899   6.325   0.928   8.825  0.5359 -0.2228 -0.9547
 5447TIP3    H137900   6.355   0.854   8.772  2.7122 -1.6970  1.9926
 5447TIP3    H237901   6.234   0.908   8.846  0.6865 -1.3841 -1.3324
 5448TIP3   OH237902   3.560   0.447   0.619 -0.2932  0.3391 -0.3094
 5448TIP3    H137903   3.576   0.369   0.566  0.9576  0.5381 -0.2446
 5448TIP3    H237904   3.644   0.493   0.622 -0.6383  0.9458  0.8657
 5449TIP3   OH237905   1.145   3.595   8.644 -0.2814  0.6596  0.4744
 5449TIP3    H137906   1.132   3.586   8.738  3.0318 -1.9274  0.8606
 5449TIP3    H237907   1.201   3.673   8.635  0.2846  0.2899  0.7669
 5450TIP3   OH237908   4.243   1.873   1.855  0.6987  0.2230 -0.2908
 5450TIP3    H137909   4.314   1.897   1.914  1.0734 -1.0653 -0.1768
 5450TIP3    H237910   4.263   1.917   1.772  1.1328  0.5951  0.0130
 5451TIP3   OH237911   4.467   1.314   0.817  0.2132  0.2432 -0.3900
 5451TIP3    H137912   4.389   1.265   0.841  0.2563  0.1859 -0.3679
 5451TIP3    H237913   4.511   1.332   0.900 -0.8888  2.1711 -0.1564
 5452TIP3   OH237914   2.156   4.367   1.997  0.5739  0.4433  0.4034
 5452TIP3    H137915   2.090   4.413   1.945  1.1448  0.6627 -0.1407
 5452TIP3    H237916   2.113   4.286   2.025 -0.0504  0.7587  0.3823
 5453TIP3   OH237917   1.055   2.134   7.961  0.1611  0.1705  0.3070
 5453TIP3    H137918   1.054   2.044   7.929  0.7853  0.4654 -0.6167
 5453TIP3    H237919   1.116   2.179   7.902 -1.5624  1.6360 -0.4641
 5454TIP3   OH237920   0.375   3.995   7.606  0.7010  0.2824 -0.0364
 5454TIP3    H137921   0.362   3.932   7.677  0.1132  1.1082  0.6050
 5454TIP3    H237922   0.310   3.971   7.541  0.5837  0.1300  0.1365
 5455TIP3   OH237923   4.910   4.944   1.693  0.7857 -0.1047 -0.3754
 5455TIP3    H137924   4.891   4.983   1.778  1.4330 -3.0420  1.2875
 5455TIP3    H237925   4.989   4.989   1.662 -0.0953  1.7676 -0.0310
 5456TIP3   OH237926   0.858   4.944   2.145 -0.2892  0.0132 -0.0400
 5456TIP3    H137927   0.864   4.981   2.233  0.5919  0.6182 -0.3388
 5456TIP3    H237928   0.790   4.996   2.101 -0.5733 -0.1455  0.2098
 5457TIP3   OH237929   2.573   2.625   7.335 -0.0669  0.6091 -0.0344
 5457TIP3    H137930   2.541   2.607   7.423  0.9585 -2.5117 -0.1905
 5457TIP3    H237931   2.503   2.594   7.277  0.7957 -0.9028 -0.3086
 5458TIP3   OH237932   4.836   0.349   8.118 -0.0988  0.4760  0.0794
 5458TIP3    H137933   4.799   0.272   8.162 -0.0224  1.5155  2.0603
 5458TIP3    H237934   4.759   0.399   8.089 -0.1497 -0.0967 -0.8245
 5459TIP3   OH237935   3.253   1.491   0.619  0.2325 -0.2793 -0.1871
 5459TIP3    H137936   3.255   1.426   0.549 -0.2778  0.8162 -1.2579
 5459TIP3    H237937   3.282   1.573   0.578 -0.8607  0.5737  0.6419
 5460TIP3   OH237938   0.915   2.121   2.142  0.1060 -0.0891  0.2865
 5460TIP3    H137939   0.969   2.104   2.064 -0.0343  1.9672 -0.2988
 5460TIP3    H237940   0.827   2.095   2.116 -0.0519  1.1287 -0.4922
 5461TIP3   OH237941   4.601   5.556   7.674  0.6917  0.3929 -0.4937
 5461TIP3    H137942   4.509   5.528   7.673  1.3212 -1.8750 -0.8570
 5461TIP3    H237943   4.598   5.649   7.655 -1.5545  0.4564 -0.1298
 5462TIP3   OH237944   1.633   0.754   7.069 -0.3692 -0.2531  0.1347
 5462TIP3    H137945   1.653   0.803   6.989 -1.2899  3.1493  1.8079
 5462TIP3    H237946   1.716   0.751   7.116 -0.4012  0.1699  0.2264
 5463TIP3   OH237947   5.557   0.399   1.261 -0.3294  0.1972  0.2725
 5463TIP3    H137948   5.499   0.407   1.337 -0.7953  1.8370 -0.2082
 5463TIP3    H237949   5.643   0.381   1.299 -0.1414  2.9402  1.4366
 5464TIP3   OH237950   5.856   2.086   8.502  0.0385  0.0227 -0.1524
 5464TIP3    H137951   5.849   1.992   8.485  0.5388  0.0930 -0.7450
 5464TIP3    H237952   5.780   2.124   8.457 -1.1480 -0.2661  1.5164
 5465TIP3   OH237953   4.142   3.827   2.015 -0.4727 -0.2522 -0.2594
 5465TIP3    H137954   4.056   3.788   1.999  0.9158 -3.4600 -0.6496
 5465TIP3    H237955   4.172   3.787   2.097  0.7351  0.6466 -0.2244
 5466TIP3   OH237956   5.366   1.874   7.785 -0.6874 -0.1392  0.0746
 5466TIP3    H137957   5.332   1.950   7.737 -1.1954 -1.1768 -1.2679
 5466TIP3    H237958   5.407   1.820   7.718  1.8308  0.0595  1.3532
 5467TIP3   OH237959   2.731   5.176   9.237 -0.2303  0.2465 -0.1028
 5467TIP3    H137960   2.669   5.165   9.310 -0.0775  1.3020  0.2075
 5467TIP3    H237961   2.679   5.158   9.159 -0.3572 -1.0648  0.2592
 5468TIP3   OH237962   2.571   1.252   8.865 -0.2247  0.3270 -0.0388
 5468TIP3    H137963   2.517   1.323   8.901 -1.1620 -0.4108  0.0503
 5468TIP3    H237964   2.612   1.290   8.788 -1.3446  0.7444 -0.4482
 5469TIP3   OH237965   3.117   4.474   1.819  0.5139  0.2560 -0.0222
 5469TIP3    H137966   3.179   4.525   1.766  1.1233 -0.5658 -0.1234
 5469TIP3    H237967   3.080   4.538   1.880  0.1202  1.1305 -1.1433
 5470TIP3   OH237968   2.171   4.527   2.242  0.4669  0.0727  0.4782
 5470TIP3    H137969   2.098   4.589   2.245  0.5494  0.1903  0.1714
 5470TIP3    H237970   2.167   4.490   2.154  2.0859  1.7113 -0.3469
 5471TIP3   OH237971   1.301   3.358   8.070 -0.1770  0.2008  0.2591
 5471TIP3    H137972   1.224   3.409   8.046  0.3348  1.1574  0.6137
 5471TIP3    H237973   1.355   3.356   7.991  0.3395  1.2153  0.5684
 5472TIP3   OH237974   2.182   3.454   7.818  0.4091  0.1791 -0.3256
 5472TIP3    H137975   2.172   3.431   7.911  1.1623 -0.8761 -0.4912
 5472TIP3    H237976   2.105   3.507   7.799 -0.0306 -0.0251  0.7708
 5473TIP3   OH237977   1.939   5.196   2.409  0.3483 -0.4513  0.5282
 5473TIP3    H137978   1.906   5.251   2.480  0.0845 -0.4315  0.3910
 5473TIP3    H237979   1.969   5.116   2.453  0.1772 -0.4436  0.6614
 5474TIP3   OH237980   3.723   1.479   0.237 -0.0193  0.3669  0.0016
 5474TIP3    H137981   3.668   1.551   0.208 -0.2892 -0.0942 -0.6327
 5474TIP3    H237982   3.662   1.410   0.263  0.2310  0.4539  0.8580
 5475TIP3   OH237983   6.270   6.441   0.757  0.1831 -0.1158  0.3171
 5475TIP3    H137984   6.297   6.532   0.770  2.7296 -0.9906  1.6942
 5475TIP3    H237985   6.340   6.402   0.704 -1.3627 -1.0706 -1.1228
 5476TIP3   OH237986   0.876   4.277   8.183 -0.1754  0.4056  0.1667
 5476TIP3    H137987   0.922   4.289   8.100 -0.8994 -2.6932 -0.8262
 5476TIP3    H237988   0.788   4.310   8.167 -0.3368 -0.2611 -0.3834
 5477TIP3   OH237989   4.099   3.192   7.985  0.1130 -0.1701 -0.9155
 5477TIP3    H137990   4.159   3.214   8.057  0.4060 -0.2522 -1.1321
 5477TIP3    H237991   4.056   3.112   8.014  0.6272 -0.5049 -1.0613
 5478TIP3   OH237992   5.324   4.419   1.824 -0.8670 -0.1982  0.4391
 5478TIP3    H137993   5.294   4.332   1.848 -0.5497 -0.2825  0.5353
 5478TIP3    H237994   5.417   4.419   1.844 -0.9674  0.3317  0.9334
 5479TIP3   OH237995   1.858   1.144   1.968  0.3138  0.5466 -0.2004
 5479TIP3    H137996   1.763   1.143   1.952 -0.0701  3.4162  1.3694
 5479TIP3    H237997   1.868   1.112   2.057  0.9195 -0.3648 -0.5822
 5480TIP3   OH237998   6.115   3.924   1.143  0.3124 -0.0406  0.1482
 5480TIP3    H137999   6.155   3.983   1.206  2.3989  1.1402 -2.0913
 5480TIP3    H238000   6.182   3.857   1.127 -0.2521 -0.4329 -0.6511
 5481TIP3   OH238001   0.346   5.911   3.314 -0.5921 -0.8683 -0.0388
 5481TIP3    H138002   0.360   6.005   3.298 -0.3025 -0.9048 -0.0094
 5481TIP3    H238003   0.252   5.899   3.302 -0.2564 -1.1613 -3.2605
 5482TIP3   OH238004   2.609   3.519   7.740 -0.2822  0.2215 -0.3346
 5482TIP3    H138005   2.684   3.465   7.715  0.2285  0.8161 -0.0911
 5482TIP3    H238006   2.553   3.459   7.790  0.2786 -0.0833 -0.0588
 5483TIP3   OH238007   1.827   6.069   0.181 -0.2408 -0.4072 -0.1250
 5483TIP3    H138008   1.914   6.097   0.209 -1.0784  0.5727  1.6599
 5483TIP3    H238009   1.817   5.981   0.219  0.5159 -1.1932 -1.6410
 5484TIP3   OH238010   3.861   4.325   9.524  0.1180 -0.3926 -0.0475
 5484TIP3    H138011   3.770   4.315   9.552  0.6975 -0.0907  2.1842
 5484TIP3    H238012   3.860   4.398   9.463 -1.1641 -0.5003 -0.1754
 5485TIP3   OH238013   0.667   0.304   2.245 -0.2277  0.1538  0.1743
 5485TIP3    H138014   0.705   0.346   2.321  0.9796 -0.5596 -0.0188
 5485TIP3    H238015   0.725   0.231   2.225 -1.5528 -0.8325 -0.2839
 5486TIP3   OH238016   0.102   4.109   0.361 -0.1459  0.0692  0.6012
 5486TIP3    H138017   0.187   4.110   0.405  0.8632 -2.5969 -1.0948
 5486TIP3    H238018   0.039   4.096   0.432  0.9972  0.3354  1.7015
 5487TIP3   OH238019   0.388   2.158   0.131 -0.3754 -0.1272 -0.4869
 5487TIP3    H138020   0.417   2.242   0.095 -0.1723 -0.4524 -1.0929
 5487TIP3    H238021   0.443   2.145   0.208  1.9120 -1.2548 -2.2169
 5488TIP3   OH238022   3.572   0.729   2.535  0.3903 -0.2657  0.0422
 5488TIP3    H138023   3.574   0.718   2.440 -1.7984 -0.2486 -0.0557
 5488TIP3    H238024   3.537   0.817   2.549 -0.6889 -0.7927  0.8399
 5489TIP3   OH238025   3.692   5.887   9.515  0.5698 -0.2974 -0.3472
 5489TIP3    H138026   3.663   5.838   9.438  0.5294  0.2712 -0.6972
 5489TIP3    H238027   3.721   5.820   9.577  2.2686 -0.6951 -1.5128
 5490TIP3   OH238028   5.836   0.684   0.418  0.2243  0.4392 -0.6642
 5490TIP3    H138029   5.844   0.613   0.481  1.1467  1.2730  0.2093
 5490TIP3    H238030   5.822   0.641   0.333 -2.9474 -0.6723  0.3103
 5491TIP3   OH238031   4.579   2.717   7.546  0.2920  0.4098 -0.2251
 5491TIP3    H138032   4.548   2.712   7.456  2.1425  1.1759 -0.9677
 5491TIP3    H238033   4.664   2.761   7.539  0.4368  0.5645  1.9094
 5492TIP3   OH238034   2.738   3.195   8.166 -0.0526 -0.5210  0.5865
 5492TIP3    H138035   2.790   3.197   8.247  1.2452 -1.0911 -0.1893
 5492TIP3    H238036   2.803   3.189   8.096 -1.1655 -0.7168 -0.4703
 5493TIP3   OH238037   5.116   5.269   1.279  0.3163 -0.5982  0.3404
 5493TIP3    H138038   5.049   5.259   1.346  0.5155  3.7199  1.4578
 5493TIP3    H238039   5.199   5.255   1.326  0.3587 -0.6589  0.2477
 5494TIP3   OH238040   1.228   0.656   9.286  0.2862 -0.1435 -0.6125
 5494TIP3    H138041   1.207   0.724   9.350 -1.4435 -0.0594 -1.2053
 5494TIP3    H238042   1.291   0.600   9.330  1.5677  1.6807 -0.0152
 5495TIP3   OH238043   5.516   3.864   7.492  0.0180  0.0422 -0.6139
 5495TIP3    H138044   5.546   3.947   7.453  0.0927  0.1736 -0.2785
 5495TIP3    H238045   5.567   3.856   7.572 -0.2943 -0.1185 -0.4335
 5496TIP3   OH238046   0.066   3.384   1.466  0.7577  0.2197  0.1108
 5496TIP3    H138047   0.064   3.369   1.372  1.2387  2.1756 -0.2537
 5496TIP3    H238048  -0.026   3.392   1.491  0.6234 -0.4419 -0.1560
 5497TIP3   OH238049   0.883   5.639   8.798  0.2461 -0.0615  0.0257
 5497TIP3    H138050   0.883   5.572   8.730  1.3992 -0.5273  0.4577
 5497TIP3    H238051   0.827   5.708   8.764  0.4200 -0.4928 -1.1779
 5498TIP3   OH238052   3.548   3.412   9.283  0.1530 -0.1612  0.1758
 5498TIP3    H138053   3.623   3.449   9.330  0.4164  1.2175 -1.2558
 5498TIP3    H238054   3.503   3.488   9.246  0.6857 -1.1646 -2.8590
 5499TIP3   OH238055   3.646   0.884   1.495  0.4496 -0.3156  0.6167
 5499TIP3    H138056   3.569   0.829   1.480 -0.0848  0.2545  1.2206
 5499TIP3    H238057   3.610   0.970   1.517  1.2581  0.4612 -0.8797
 5500TIP3   OH238058   4.397   4.240   9.520  0.0282  0.6130  0.6471
 5500TIP3    H138059   4.412   4.321   9.568 -0.3122  0.5135  0.9247
 5500TIP3    H238060   4.388   4.268   9.429  0.8344  0.7847  0.6094
 5501TIP3   OH238061   5.232   1.614   9.089  0.3060  0.0453 -0.7864
 5501TIP3    H138062   5.325   1.602   9.108 -0.1584 -0.8263  1.2475
 5501TIP3    H238063   5.209   1.539   9.034  0.8654  0.4915 -1.6584
 5502TIP3   OH238064   2.672   2.642   0.557 -0.5119 -0.3623 -0.7128
 5502TIP3    H138065   2.609   2.703   0.595  0.1443  0.1099 -0.3716
 5502TIP3    H238066   2.747   2.644   0.616  0.0719 -0.4638 -1.4392
 5503TIP3   OH238067   5.142   2.534   7.340  0.6394 -0.2085 -0.4667
 5503TIP3    H138068   5.214   2.575   7.389  0.0572  1.0258 -0.6247
 5503TIP3    H238069   5.069   2.533   7.401 -0.0378  1.1673 -1.2245
 5504TIP3   OH238070   4.125   4.376   9.394  0.0357  0.0715 -0.0712
 5504TIP3    H138071   4.049   4.402   9.446  0.1319  1.1458 -0.4467
 5504TIP3    H238072   4.090   4.366   9.305  0.4358  1.1865 -0.3694
 5505TIP3   OH238073   4.285   0.873   0.048  0.0685  0.1299 -0.0326
 5505TIP3    H138074   4.219   0.861  -0.020  0.3774  3.0422 -0.9688
 5505TIP3    H238075   4.367   0.888   0.001  0.4671  1.3034  0.9692
 5506TIP3   OH238076   1.761   0.267   2.052  0.4133 -0.6804  0.0860
 5506TIP3    H138077   1.671   0.267   2.019  0.3312 -0.4312  0.3062
 5506TIP3    H238078   1.753   0.244   2.145  0.3543  1.4128  0.6556
 5507TIP3   OH238079   0.763   1.287   2.626 -0.0702  0.4698 -0.4957
 5507TIP3    H138080   0.852   1.264   2.654  0.0566 -1.4648 -2.2414
 5507TIP3    H238081   0.773   1.371   2.582  1.0279  0.0402 -1.1146
 5508TIP3   OH238082   5.985   5.023   7.719  0.3141  0.1127 -0.1589
 5508TIP3    H138083   5.978   4.928   7.711  0.6979  0.0826 -0.1627
 5508TIP3    H238084   5.963   5.042   7.810  1.6097 -0.1258  0.2231
 5509TIP3   OH238085   1.334   0.054   8.032 -0.0879 -0.1423 -0.0666
 5509TIP3    H138086   1.408   0.002   8.003  1.2195  2.5187 -1.8966
 5509TIP3    H238087   1.342   0.057   8.128  2.2046  0.0820 -0.2212
 5510TIP3   OH238088   2.048   5.855   8.652  0.2054 -0.5024 -0.4804
 5510TIP3    H138089   2.111   5.921   8.622 -1.0872  1.5268  0.9496
 5510TIP3    H238090   1.966   5.879   8.609 -0.7916  0.2179  1.6906
 5511TIP3   OH238091   4.461   4.917   0.312 -0.2435  0.5359 -0.6272
 5511TIP3    H138092   4.380   4.897   0.265 -0.2513 -0.7385 -0.1077
 5511TIP3    H238093   4.431   4.962   0.391 -0.2297  2.6961 -1.7638
 5512TIP3   OH238094   1.985   1.653   9.115 -0.4336 -0.3510  0.1293
 5512TIP3    H138095   2.072   1.694   9.120 -0.8220  0.4719  0.1885
 5512TIP3    H238096   1.924   1.726   9.107 -1.0100 -0.9747 -1.5181
 5513TIP3   OH238097   3.014   1.409   6.939 -0.4194  0.6144 -0.5280
 5513TIP3    H138098   2.921   1.391   6.953 -0.1958  1.4590  3.3735
 5513TIP3    H238099   3.050   1.327   6.906 -2.6824  0.7055 -3.6167
 5514TIP3   OH238100   5.830   3.768   9.561  0.3328  0.2818 -0.1882
 5514TIP3    H138101   5.749   3.788   9.514  0.1772  0.4196  0.1276
 5514TIP3    H238102   5.892   3.835   9.532 -0.5205  2.0712  1.7324
 5515TIP3   OH238103   3.785   5.811   1.527  0.3259 -0.0802  0.0900
 5515TIP3    H138104   3.699   5.773   1.545  0.0164  0.6243  0.1136
 5515TIP3    H238105   3.832   5.741   1.481 -0.2438 -0.4826  0.1025
 5516TIP3   OH238106   3.957   6.018   9.272  0.8843  0.6038 -0.3643
 5516TIP3    H138107   3.931   6.099   9.316  0.7525  0.0040  0.7242
 5516TIP3    H238108   3.992   6.045   9.188 -0.5415  1.6703 -0.6350
 5517TIP3   OH238109   2.997   4.873   8.157  0.8732 -0.0488 -0.0784
 5517TIP3    H138110   2.948   4.839   8.082 -1.8917  0.7993  1.2108
 5517TIP3    H238111   3.084   4.833   8.149  0.6007 -0.2472 -3.5012
 5518TIP3   OH238112   1.883   2.793   7.679 -0.0832  0.7408  0.0385
 5518TIP3    H138113   1.952   2.840   7.727  1.1583 -0.7636 -0.1864
 5518TIP3    H238114   1.815   2.778   7.744  0.5491  0.7757  0.7296
 5519TIP3   OH238115   1.546   2.408   8.874 -0.0868  0.8711 -0.0828
 5519TIP3    H138116   1.573   2.493   8.838 -1.6233  1.2754 -0.3140
 5519TIP3    H238117   1.516   2.358   8.797  1.9032 -0.3585 -0.1390
 5520TIP3   OH238118   5.415   0.914   9.203 -0.1290  0.1708 -0.5035
 5520TIP3    H138119   5.467   0.853   9.151  0.4434 -0.2761  0.5609
 5520TIP3    H238120   5.411   0.994   9.150 -0.0352 -0.4504 -1.4629
 5521TIP3   OH238121   0.705   3.827   8.632 -0.2228  0.0615  0.2294
 5521TIP3    H138122   0.782   3.849   8.579 -0.7753 -0.7522 -0.9745
 5521TIP3    H238123   0.637   3.886   8.600  0.1101  1.4920  1.9942
 5522TIP3   OH238124   5.972   3.070   1.865  0.7111 -0.4836  0.1075
 5522TIP3    H138125   6.042   3.010   1.890  0.7644 -0.5799 -0.2791
 5522TIP3    H238126   5.911   3.016   1.814 -0.6052 -0.8893  1.9693
 5523TIP3   OH238127   0.071   1.800   0.703 -0.7809  0.0519  0.3920
 5523TIP3    H138128   0.011   1.778   0.632 -1.1664  0.3535  0.6201
 5523TIP3    H238129   0.019   1.854   0.763 -0.4943 -0.3080  0.9710
 5524TIP3   OH238130   6.223   0.255   1.555  0.0938  0.0031  0.2934
 5524TIP3    H138131   6.222   0.181   1.615  0.7362 -0.2941 -0.0580
 5524TIP3    H238132   6.193   0.329   1.608 -0.7148 -0.5340  0.5996
 5525TIP3   OH238133   1.861   6.206   2.536  0.0085  0.1670  0.1506
 5525TIP3    H138134   1.772   6.182   2.509  0.5574 -2.0271  0.1118
 5525TIP3    H238135   1.902   6.240   2.456 -0.0696 -1.1046 -0.4494
 5526TIP3   OH238136   2.134   5.368   0.997 -0.3198 -0.4820 -0.1800
 5526TIP3    H138137   2.194   5.435   0.963 -0.5284  0.8175  1.8268
 5526TIP3    H238138   2.055   5.377   0.944 -0.5671  1.3284  0.4187
 5527TIP3   OH238139   3.314   2.802   6.863 -0.0177  0.3594 -0.0668
 5527TIP3    H138140   3.316   2.795   6.767 -1.3781 -0.2084 -0.0779
 5527TIP3    H238141   3.361   2.883   6.882  0.7151  0.2268 -1.1793
 5528TIP3   OH238142   0.891   1.354   0.286  0.7644 -0.0273 -0.0184
 5528TIP3    H138143   0.874   1.276   0.233  0.6852 -1.1881  1.6344
 5528TIP3    H238144   0.978   1.383   0.259  1.1004 -1.1234 -0.1624
 5529TIP3   OH238145   6.067   5.073   8.915 -0.3875  0.0445 -0.5209
 5529TIP3    H138146   6.111   4.989   8.928  1.5028  1.1050  0.2889
 5529TIP3    H238147   6.090   5.098   8.825  2.7457  1.6441  0.5886
 5530TIP3   OH238148   1.623   5.301   0.540  0.5036 -0.2064  0.4808
 5530TIP3    H138149   1.632   5.394   0.519 -1.7472 -0.1533 -0.5429
 5530TIP3    H238150   1.609   5.299   0.634  2.9998  0.2274  0.9332
 5531TIP3   OH238151   2.613   4.805   2.487 -0.2769  0.5713  0.0431
 5531TIP3    H138152   2.694   4.844   2.453 -0.1989  1.0865  0.8001
 5531TIP3    H238153   2.635   4.713   2.499 -0.0512  0.5473 -0.5083
 5532TIP3   OH238154   0.681   5.112   1.026  0.0151  0.1807 -0.1331
 5532TIP3    H138155   0.633   5.029   1.022 -2.1570  1.2896  1.0232
 5532TIP3    H238156   0.647   5.162   0.951 -0.5006  0.8972  0.5674
 5533TIP3   OH238157   5.130   1.914   0.145  0.6642  1.0395  0.0014
 5533TIP3    H138158   5.162   1.973   0.077 -0.6340  0.4323 -1.1980
 5533TIP3    H238159   5.203   1.854   0.161  1.0756  1.3470 -0.6801
 5534TIP3   OH238160   1.539   4.233   0.063  0.0614 -0.1834  0.0093
 5534TIP3    H138161   1.545   4.210  -0.030 -2.1881  0.6786 -0.4261
 5534TIP3    H238162   1.514   4.152   0.107 -0.6914 -0.2007 -0.4336
 5535TIP3   OH238163   5.939   4.753   1.278  0.1131 -0.1005 -0.1542
 5535TIP3    H138164   5.870   4.802   1.233 -0.6440 -0.9900 -0.0043
 5535TIP3    H238165   5.950   4.797   1.362  1.6191  1.6496 -1.2227
 5536TIP3   OH238166   1.970   2.665   0.208 -0.3723  0.0214  0.0143
 5536TIP3    H138167   1.927   2.592   0.163 -0.7153  1.5113 -2.2047
 5536TIP3    H238168   1.899   2.709   0.255 -0.8569  0.9324 -1.5051
 5537TIP3   OH238169   4.304   0.638   0.702 -0.0694 -0.0381 -0.7718
 5537TIP3    H138170   4.220   0.606   0.670 -1.1526  0.3319  1.4932
 5537TIP3    H238171   4.298   0.734   0.697 -1.1052  0.1703  2.1450
 5538TIP3   OH238172   0.791   6.053   8.976  0.4322  0.1210 -0.3198
 5538TIP3    H138173   0.843   6.107   8.915  1.7112 -0.3350  0.3330
 5538TIP3    H238174   0.724   6.113   9.009  2.3052  1.6131  1.0109
 5539TIP3   OH238175   6.452   3.325   9.239  0.1876 -0.1647 -0.2687
 5539TIP3    H138176   6.415   3.259   9.297  1.0672  1.4146  2.2564
 5539TIP3    H238177   6.377   3.369   9.200 -0.4308 -1.0617 -0.1100
 5540TIP3   OH238178   3.802   2.222   7.092  0.0428  0.5280 -0.0690
 5540TIP3    H138179   3.835   2.207   7.003 -0.7160 -0.9179 -0.1356
 5540TIP3    H238180   3.873   2.267   7.137  1.4042 -0.8623 -0.7432
 5541TIP3   OH238181   6.219   0.992   1.080  0.4359  0.0451 -0.5294
 5541TIP3    H138182   6.221   1.081   1.046 -0.1255 -0.3911 -1.7853
 5541TIP3    H238183   6.130   0.980   1.113  0.7738  0.2328  0.4821
 5542TIP3   OH238184   2.197   4.861   0.268  0.4019 -0.2591  0.1362
 5542TIP3    H138185   2.262   4.855   0.198 -0.5967 -1.2193 -0.7562
 5542TIP3    H238186   2.114   4.875   0.221 -0.4734 -2.1554  1.0162
 5543TIP3   OH238187   6.354   4.435   9.213 -0.5129 -0.4003  0.5735
 5543TIP3    H138188   6.383   4.357   9.166  0.4001 -0.1380  0.6669
 5543TIP3    H238189   6.325   4.403   9.299 -2.0875 -0.8685 -0.0967
 5544TIP3   OH238190   3.367   5.104   1.748 -0.5230 -0.2712 -0.5605
 5544TIP3    H138191   3.394   5.122   1.658  0.9680 -0.2452 -0.1481
 5544TIP3    H238192   3.278   5.070   1.741 -1.2364  1.6709 -1.8622
 5545TIP3   OH238193   2.823   5.241   1.615 -0.3470 -0.1494 -0.5236
 5545TIP3    H138194   2.754   5.208   1.671  0.0864 -2.1245 -1.0901
 5545TIP3    H238195   2.830   5.177   1.544  0.7916  0.9893 -1.5058
 5546TIP3   OH238196   1.184   2.821   2.138  0.3429 -0.1414 -0.0601
 5546TIP3    H138197   1.233   2.744   2.110  1.6674  0.3788  0.7333
 5546TIP3    H238198   1.206   2.832   2.231 -1.3366  0.0905  0.3510
 5547TIP3   OH238199   0.455   3.888   9.422  0.5475 -0.3808  0.3936
 5547TIP3    H138200   0.403   3.950   9.474 -0.6513 -1.1283  0.1250
 5547TIP3    H238201   0.439   3.803   9.464  3.1078 -0.4090  1.4878
 5548TIP3   OH238202   0.603   1.001   0.178  0.2011 -0.3292 -0.2620
 5548TIP3    H138203   0.538   1.067   0.155 -0.1545 -0.3279  0.6915
 5548TIP3    H238204   0.677   1.019   0.120  0.0368  0.7939 -0.1445
 5549TIP3   OH238205   2.285   1.184   8.804 -0.1047  0.0814 -0.4766
 5549TIP3    H138206   2.337   1.252   8.848  2.0242 -0.1019 -2.5029
 5549TIP3    H238207   2.292   1.206   8.711 -2.8839 -0.5855 -0.9162
 5550TIP3   OH238208   3.787   4.324   8.511  0.2335 -0.0290 -0.1457
 5550TIP3    H138209   3.801   4.292   8.422 -1.1204 -4.5815  0.9879
 5550TIP3    H238210   3.719   4.268   8.547  0.5873  1.6536  3.7539
 5551TIP3   OH238211   2.045   2.673   2.535 -0.5019 -0.4012  0.0176
 5551TIP3    H138212   1.965   2.621   2.537  0.1009 -1.3548 -0.1261
 5551TIP3    H238213   2.107   2.619   2.486  0.2096  0.3544  0.0706
 5552TIP3   OH238214   1.033   4.375   0.764 -0.5986  0.3268 -0.2194
 5552TIP3    H138215   1.054   4.408   0.851  0.0779  3.0395 -1.3110
 5552TIP3    H238216   0.937   4.375   0.760 -0.7194 -1.8307  1.1529
 5553TIP3   OH238217   0.532   6.269   9.291  0.1460  1.0931 -0.9374
 5553TIP3    H138218   0.574   6.184   9.304  0.6956  1.2813 -1.4484
 5553TIP3    H238219   0.578   6.328   9.351 -0.5204  0.9501 -0.2675
 5554TIP3   OH238220   1.864   5.752   7.679  0.4117 -0.3612  0.2087
 5554TIP3    H138221   1.937   5.690   7.675 -0.1343 -0.9790 -1.0172
 5554TIP3    H238222   1.787   5.696   7.693 -0.3681 -0.2907 -2.9427
 5555TIP3   OH238223   6.481   1.563   8.227 -0.2893  0.0984  0.0117
 5555TIP3    H138224   6.520   1.622   8.163 -2.3683  0.2844 -1.1767
 5555TIP3    H238225   6.434   1.621   8.287  0.1040 -0.1907  0.6064
 5556TIP3   OH238226   0.417   3.948   8.840 -0.3921 -0.3948 -0.5658
 5556TIP3    H138227   0.501   3.933   8.884 -0.8074  1.9718  1.2510
 5556TIP3    H238228   0.419   4.041   8.818 -2.4909 -0.3212 -0.6034
 5557TIP3   OH238229   3.909   0.681   9.473  0.4655 -0.0358 -0.4788
 5557TIP3    H138230   3.927   0.774   9.486 -0.1530  0.0517 -0.2280
 5557TIP3    H238231   3.858   0.678   9.392 -0.6296 -0.0293  0.2026
 5558TIP3   OH238232   2.403   3.084   9.051 -0.4009  0.4427 -0.2460
 5558TIP3    H138233   2.329   3.059   9.107  0.5351 -0.9868  0.4221
 5558TIP3    H238234   2.476   3.034   9.085  0.4132  0.1814 -2.2478
 5559TIP3   OH238235   2.537   0.742   1.247  0.4081 -0.1065 -0.4460
 5559TIP3    H138236   2.508   0.831   1.271  0.0827 -0.5489  0.8712
 5559TIP3    H238237   2.500   0.728   1.160 -1.5207  0.1921  0.2834
 5560TIP3   OH238238   1.765   2.746   9.571  0.5763 -0.9782  0.3499
 5560TIP3    H138239   1.742   2.779   9.485  0.2318 -1.3632  0.2936
 5560TIP3    H238240   1.859   2.766   9.580  0.2788  0.4270  0.5084
 5561TIP3   OH238241   4.977   0.101   7.018 -0.1468  0.8320  0.1719
 5561TIP3    H138242   4.914   0.165   6.986 -2.3573  0.1714  2.8634
 5561TIP3    H238243   5.042   0.154   7.066  0.4546  1.3552 -1.1648
 5562TIP3   OH238244   3.181   2.954   0.831 -0.1237  0.0990  0.4857
 5562TIP3    H138245   3.263   2.906   0.834  1.2582  2.3370  1.5485
 5562TIP3    H238246   3.175   2.987   0.741 -0.1614 -0.5222  0.2581
 5563TIP3   OH238247   0.780   5.532   8.510  0.3968 -0.6760 -0.1325
 5563TIP3    H138248   0.697   5.488   8.495  0.7113 -1.2905 -0.0983
 5563TIP3    H238249   0.831   5.515   8.431 -0.1847  1.2974 -0.9780
 5564TIP3   OH238250   3.409   2.581   8.453 -0.7524  0.3261  0.0765
 5564TIP3    H138251   3.414   2.541   8.540 -1.1142  2.0317  0.9164
 5564TIP3    H238252   3.324   2.555   8.419 -0.9056  0.2351  0.5253
 5565TIP3   OH238253   0.653   1.397   8.538 -0.4338  0.2174  0.0299
 5565TIP3    H138254   0.563   1.397   8.505 -0.8675  2.3581  1.0767
 5565TIP3    H238255   0.645   1.413   8.632  1.0076 -0.6485  0.3337
 5566TIP3   OH238256   5.076   1.993   0.404 -0.0314 -0.5698 -0.3986
 5566TIP3    H138257   5.144   2.060   0.398 -1.5783  1.0296 -0.7425
 5566TIP3    H238258   5.078   1.947   0.320 -0.3648  0.4779 -0.9884
 5567TIP3   OH238259   1.015   2.230   9.394 -0.1308 -0.3127  0.3842
 5567TIP3    H138260   0.948   2.193   9.452  0.8156 -1.2229  0.9321
 5567TIP3    H238261   1.017   2.171   9.319 -1.2244  0.7632 -0.5296
 5568TIP3   OH238262   2.321   1.875   8.313  0.4758  0.0772  0.6253
 5568TIP3    H138263   2.323   1.960   8.268 -0.5947  0.5624  1.4417
 5568TIP3    H238264   2.265   1.820   8.258  0.1628  0.2953  0.7176
 5569TIP3   OH238265   6.132   3.683   6.976  0.4245 -0.1628 -0.6127
 5569TIP3    H138266   6.038   3.699   6.975  0.7342  1.9096 -2.0013
 5569TIP3    H238267   6.142   3.599   6.930 -0.6529  0.4726 -2.1131
 5570TIP3   OH238268   1.381   4.593   8.815  0.1057  0.0066 -0.3738
 5570TIP3    H138269   1.349   4.661   8.874  0.8231  0.0314  0.0006
 5570TIP3    H238270   1.314   4.525   8.817 -0.7747  0.8325 -1.0041
 5571TIP3   OH238271   3.590   2.482   1.565 -0.1959 -0.1511  0.5588
 5571TIP3    H138272   3.515   2.453   1.617 -0.7283 -0.7697 -0.5041
 5571TIP3    H238273   3.604   2.573   1.592 -1.0997 -0.1378  1.0395
 5572TIP3   OH238274   2.842   1.079   1.868 -0.2899  0.8048  0.3707
 5572TIP3    H138275   2.923   1.068   1.818  0.2059  4.7187  0.0070
 5572TIP3    H238276   2.772   1.064   1.805  0.1781 -0.2982  0.0922
 5573TIP3   OH238277   2.498   1.667   1.038  0.2909 -0.5500  0.6281
 5573TIP3    H138278   2.569   1.627   1.088  0.6889 -0.3489  0.2304
 5573TIP3    H238279   2.517   1.645   0.947 -0.2886 -0.6999  0.5398
 5574TIP3   OH238280   2.545   2.283   2.179 -0.8140 -0.3464  0.1722
 5574TIP3    H138281   2.584   2.210   2.132  0.0817  0.4046 -0.2792
 5574TIP3    H238282   2.614   2.349   2.183 -1.8073  0.7525 -0.0549
 5575TIP3   OH238283   6.263   2.312   2.111  1.0458  0.0203 -0.1393
 5575TIP3    H138284   6.215   2.387   2.146  0.7145 -0.3491  0.2160
 5575TIP3    H238285   6.355   2.331   2.130  0.9756  0.3818 -0.1504
 5576TIP3   OH238286   0.778   6.143   0.271 -0.0624 -0.0766  0.0671
 5576TIP3    H138287   0.855   6.094   0.303 -0.1885 -0.3397 -0.0261
 5576TIP3    H238288   0.781   6.226   0.318  0.5345  0.0973 -0.2694
 5577TIP3   OH238289   3.514   1.128   8.561  0.0986 -0.2892 -0.2684
 5577TIP3    H138290   3.567   1.119   8.640  0.6952 -0.6215 -0.6944
 5577TIP3    H238291   3.424   1.127   8.592  0.2895 -1.5958  0.3061
 5578TIP3   OH238292   5.698   1.679   7.886 -0.6126  0.7209 -0.4385
 5578TIP3    H138293   5.679   1.699   7.978 -1.9661 -0.9428 -0.3087
 5578TIP3    H238294   5.640   1.606   7.865 -0.9757  1.6163 -2.8844
 5579TIP3   OH238295   4.991   2.965   2.198 -0.1602 -0.2121  0.0690
 5579TIP3    H138296   5.078   2.957   2.237  0.1934  1.8443 -0.2097
 5579TIP3    H238297   4.967   3.057   2.211 -1.3445 -0.2033 -1.8002
 5580TIP3   OH238298   1.774   5.350   8.652  1.0621  0.1446  0.1987
 5580TIP3    H138299   1.848   5.406   8.677  0.5931 -0.0528  2.2310
 5580TIP3    H238300   1.719   5.405   8.597  1.7409  0.9432  0.3059
 5581TIP3   OH238301   0.371   3.387   9.008 -0.1883  0.7788 -0.4815
 5581TIP3    H138302   0.449   3.434   9.036  0.6387 -0.5442 -0.4700
 5581TIP3    H238303   0.351   3.330   9.082 -0.1452 -0.1187 -1.1511
 5582TIP3   OH238304   5.713   4.190   0.492  0.1960  0.2334 -0.0488
 5582TIP3    H138305   5.656   4.191   0.415  0.4372 -0.4095 -0.2400
 5582TIP3    H238306   5.653   4.199   0.566 -0.1828 -0.6045 -0.2422
 5583TIP3   OH238307   0.541   5.598   2.837 -0.2386 -0.0498 -0.0300
 5583TIP3    H138308   0.600   5.561   2.772 -0.5586 -0.1361 -0.2713
 5583TIP3    H238309   0.551   5.542   2.914 -0.2853 -0.2872 -0.1971
 5584TIP3   OH238310   4.048   3.688   8.886 -0.0996 -0.1159  0.0593
 5584TIP3    H138311   4.016   3.705   8.798 -1.7513 -0.9889  0.4329
 5584TIP3    H238312   4.143   3.686   8.878 -0.2086  0.0680 -1.6361
 5585TIP3   OH238313   5.347   0.530   0.924  0.1557 -0.0618  0.4443
 5585TIP3    H138314   5.394   0.568   0.850  1.3503  2.0064  2.1559
 5585TIP3    H238315   5.363   0.435   0.916  0.9272  0.1916 -1.4720
 5586TIP3   OH238316   3.902   1.334   1.634  0.3148 -0.2443 -0.0613
 5586TIP3    H138317   3.836   1.302   1.696  0.2025  0.8139  0.3909
 5586TIP3    H238318   3.984   1.332   1.683 -0.1561  3.0802  1.1263
 5587TIP3   OH238319   1.601   3.511   0.838 -0.7274  0.2619  0.2707
 5587TIP3    H138320   1.696   3.521   0.839 -0.5524 -1.1817  0.9284
 5587TIP3    H238321   1.572   3.567   0.766  0.6238  0.6371 -0.0226
 5588TIP3   OH238322   3.781   1.418   0.974  0.3393  0.4217 -0.0372
 5588TIP3    H138323   3.706   1.395   0.918  0.8446 -0.0691 -0.5224
 5588TIP3    H238324   3.741   1.444   1.057 -0.3536 -0.3219 -0.1206
 5589TIP3   OH238325   3.597   1.472   2.430  0.2396  0.0900  0.0998
 5589TIP3    H138326   3.679   1.440   2.393  0.5208  0.3098  0.5219
 5589TIP3    H238327   3.579   1.553   2.383 -0.2526 -0.4491 -0.6751
 5590TIP3   OH238328   6.268   0.785   1.895 -0.2549  0.1294 -0.3895
 5590TIP3    H138329   6.198   0.832   1.848  0.1275  1.9524  0.7518
 5590TIP3    H238330   6.346   0.837   1.877  0.6980 -1.4443 -0.9910
 5591TIP3   OH238331   0.529   3.161   0.277  0.5662 -0.2604 -0.1213
 5591TIP3    H138332   0.527   3.081   0.224  1.2294  0.5847 -1.4634
 5591TIP3    H238333   0.559   3.131   0.363  1.5227 -1.3581 -0.8021
 5592TIP3   OH238334   4.534   1.224   7.607  0.6744 -0.7159 -0.4807
 5592TIP3    H138335   4.553   1.317   7.618 -3.7920  0.2415  0.7724
 5592TIP3    H238336   4.522   1.191   7.696 -1.3979 -1.5451 -1.0242
 5593TIP3   OH238337   5.822   3.595   0.673  0.3348 -0.6595  0.1118
 5593TIP3    H138338   5.869   3.513   0.654  0.3041 -0.5869 -0.2945
 5593TIP3    H238339   5.847   3.653   0.601 -0.7004 -0.7579 -0.3425
 5594TIP3   OH238340   4.588   5.893   1.255  0.0710 -0.0421 -0.0231
 5594TIP3    H138341   4.549   5.973   1.219 -1.8928 -0.9722 -0.0888
 5594TIP3    H238342   4.680   5.916   1.270 -0.0992  1.7740 -1.3782
 5595TIP3   OH238343   0.822   5.860   2.164  0.4242 -0.1771 -0.7298
 5595TIP3    H138344   0.911   5.895   2.164 -0.4724  2.3095 -0.1409
 5595TIP3    H238345   0.823   5.791   2.230  1.7645  0.2450 -0.2785
 5596TIP3   OH238346   4.150   2.151   0.400  0.4293 -0.2644  0.2063
 5596TIP3    H138347   4.220   2.153   0.335  0.6099 -0.5258  0.3921
 5596TIP3    H238348   4.177   2.084   0.463 -0.4349 -1.0405 -0.2283
 5597TIP3   OH238349   3.755   6.486   9.331  0.4641 -0.3394  0.4715
 5597TIP3    H138350   3.742   6.480   9.236  1.7838 -0.3526  0.2724
 5597TIP3    H238351   3.684   6.433   9.368  0.4744 -1.0962 -0.5387
 5598TIP3   OH238352   1.159   2.933   8.824  0.0398  0.3744  0.2283
 5598TIP3    H138353   1.220   2.877   8.871 -1.1052  0.7254  2.2458
 5598TIP3    H238354   1.189   3.022   8.840 -1.1268  0.5705  1.5251
 5599TIP3   OH238355   2.783   0.117   1.778  0.3122 -0.1526  0.7906
 5599TIP3    H138356   2.786   0.037   1.727 -1.3684 -1.4002  2.4865
 5599TIP3    H238357   2.693   0.148   1.769  1.2611  2.3880 -0.9492
 5600TIP3   OH238358   2.568   2.504   9.415 -0.7011 -0.2443 -0.6867
 5600TIP3    H138359   2.534   2.540   9.497 -1.9444 -2.1455 -0.3102
 5600TIP3    H238360   2.493   2.460   9.375  0.1029 -0.1231 -2.4307
 5601TIP3   OH238361   3.055   2.366   7.228  0.0565  0.5119 -0.5829
 5601TIP3    H138362   2.974   2.400   7.266  0.1892 -1.3909  1.7120
 5601TIP3    H238363   3.121   2.385   7.295  0.2737 -3.2191  0.4783
 5602TIP3   OH238364   5.568   6.423   7.410  0.0667  0.2166  0.0350
 5602TIP3    H138365   5.579   6.328   7.406  1.4721  0.3872 -1.0093
 5602TIP3    H238366   5.512   6.443   7.335 -0.0954  0.2345  0.1602
 5603TIP3   OH238367   0.713   5.200   2.037  0.2567  0.3011  0.3139
 5603TIP3    H138368   0.639   5.141   2.029  0.0514  0.6263 -0.2563
 5603TIP3    H238369   0.674   5.287   2.044  0.5072  0.3148  2.2142
 5604TIP3   OH238370   6.259   0.499   8.774  0.5382 -0.1464  0.5497
 5604TIP3    H138371   6.327   0.450   8.820 -0.8287 -0.3342  2.4601
 5604TIP3    H238372   6.190   0.512   8.839 -1.1233  0.3351 -1.2235
 5605TIP3   OH238373   0.775   1.623   8.461  0.6384 -0.9765 -0.3574
 5605TIP3    H138374   0.734   1.538   8.475 -0.6907 -0.8481 -2.8359
 5605TIP3    H238375   0.742   1.652   8.376  3.2842  0.7322 -0.9494
 5606TIP3   OH238376   0.017   0.390   7.477  0.4492  0.0653 -0.0948
 5606TIP3    H138377   0.065   0.379   7.395 -1.5262 -0.7735 -1.2106
 5606TIP3    H238378  -0.074   0.400   7.450 -0.2752 -0.4094  2.0083
 5607TIP3   OH238379   2.542   0.542   1.508 -0.4032 -0.3278  0.2563
 5607TIP3    H138380   2.482   0.469   1.493 -0.5005 -0.1442 -0.2630
 5607TIP3    H238381   2.486   0.619   1.518 -0.2597 -0.1415 -0.3165
 5608TIP3   OH238382   5.897   4.425   7.540  0.3601  0.7006 -0.1927
 5608TIP3    H138383   5.814   4.377   7.541  0.7585 -0.0690  2.2847
 5608TIP3    H238384   5.954   4.371   7.485  0.5073 -1.2433  1.7609
 5609TIP3   OH238385   2.592   4.905   1.700 -0.2076 -0.1482  0.0478
 5609TIP3    H138386   2.539   4.864   1.768  2.2355 -1.2413  1.4022
 5609TIP3    H238387   2.611   4.835   1.639 -0.5669  0.3272 -0.6299
 5610TIP3   OH238388   5.317   1.624   8.288  0.0131 -0.4735 -0.1104
 5610TIP3    H138389   5.243   1.564   8.298  0.0672 -0.4992  0.1403
 5610TIP3    H238390   5.346   1.641   8.378 -1.1972  1.4568 -0.0310
 5611TIP3   OH238391   5.578   4.347   0.748 -0.0776  0.1503 -0.4899
 5611TIP3    H138392   5.514   4.343   0.820 -0.1791 -1.0882 -0.6384
 5611TIP3    H238393   5.659   4.376   0.790 -0.3348  0.1955 -0.0151
 5612TIP3   OH238394   0.050   1.610   1.410  0.2845  0.0997 -0.5173
 5612TIP3    H138395  -0.033   1.652   1.387  1.1733  1.7550 -0.8019
 5612TIP3    H238396   0.067   1.638   1.500  0.0945 -0.9998 -0.1226
 5613TIP3   OH238397   4.715   2.195   9.278  0.2798 -0.0937 -0.5273
 5613TIP3    H138398   4.758   2.132   9.219 -2.0358  0.2570 -2.7276
 5613TIP3    H238399   4.751   2.174   9.364  4.2013 -0.3187 -2.0205
 5614TIP3   OH238400   2.296   1.859   7.835 -0.3053  0.0344  0.2589
 5614TIP3    H138401   2.326   1.772   7.861 -1.4803 -0.4713 -0.0116
 5614TIP3    H238402   2.201   1.855   7.841 -0.3843  1.2969  0.1964
 5615TIP3   OH238403   0.034   3.774   0.896  0.4848 -0.2629 -0.6234
 5615TIP3    H138404   0.047   3.764   0.990  0.5916  1.0007 -0.4851
 5615TIP3    H238405  -0.055   3.808   0.887 -0.3238 -2.3495 -1.1377
 5616TIP3   OH238406   2.730   3.719   0.658 -0.2025 -0.3074 -0.2004
 5616TIP3    H138407   2.719   3.748   0.568  1.5447  0.6642 -0.1446
 5616TIP3    H238408   2.668   3.647   0.668 -2.1210  1.0558 -1.4477
 5617TIP3   OH238409   3.563   3.613   2.485 -0.0833 -0.7044 -0.2309
 5617TIP3    H138410   3.537   3.538   2.430  0.7303 -1.8377  0.8854
 5617TIP3    H238411   3.488   3.627   2.542  0.6933 -2.3792  1.3044
 5618TIP3   OH238412   4.680   4.606   0.839 -0.3798  0.8259 -0.3477
 5618TIP3    H138413   4.638   4.555   0.909 -0.5018  0.4654 -0.6818
 5618TIP3    H238414   4.726   4.542   0.786  0.0703  1.1499 -0.3575
 5619TIP3   OH238415   4.867   4.306   7.641  0.1580  0.6856 -0.1800
 5619TIP3    H138416   4.821   4.247   7.700  2.2146 -3.1232 -1.9845
 5619TIP3    H238417   4.927   4.356   7.697 -1.7276  1.2582  1.4277
 5620TIP3   OH238418   0.230   3.815   1.722 -0.2769 -0.2553 -0.1539
 5620TIP3    H138419   0.172   3.742   1.744 -0.1591 -0.5434 -0.7652
 5620TIP3    H238420   0.284   3.826   1.800 -0.9104 -0.2154  0.2865
 5621TIP3   OH238421   6.231   5.553   1.093 -0.2221  0.3196 -0.6970
 5621TIP3    H138422   6.147   5.565   1.139 -0.7237 -1.1920 -1.1450
 5621TIP3    H238423   6.248   5.637   1.051 -0.3361  1.3882  1.2657
 5622TIP3   OH238424   3.374   4.227   8.239 -0.2267  0.3534  0.2477
 5622TIP3    H138425   3.423   4.299   8.198 -1.1229  0.0057 -1.5767
 5622TIP3    H238426   3.351   4.170   8.166 -2.6341  0.0940  1.1076
 5623TIP3   OH238427   2.154   5.542   2.339 -0.4256 -0.0646  0.4937
 5623TIP3    H138428   2.167   5.447   2.330 -0.4001  0.1026 -2.1688
 5623TIP3    H238429   2.059   5.553   2.335 -0.5011 -0.0148  1.9224
 5624TIP3   OH238430   2.483   1.862   6.507  0.3045  0.5413 -0.8221
 5624TIP3    H138431   2.413   1.846   6.570 -0.7353  2.0133 -1.5494
 5624TIP3    H238432   2.549   1.796   6.528 -0.0786  0.8508  1.6777
 5625TIP3   OH238433   2.615   4.448   2.248 -0.4910 -0.0333  0.5259
 5625TIP3    H138434   2.639   4.478   2.336 -0.8680  0.3205  0.5100
 5625TIP3    H238435   2.632   4.353   2.249  0.2266  0.0963  0.7364
 5626TIP3   OH238436   3.477   0.712   1.716  0.0021  0.0382  0.0291
 5626TIP3    H138437   3.423   0.790   1.729  1.0531  0.9409 -0.7841
 5626TIP3    H238438   3.566   0.746   1.708  0.4190 -1.2011 -0.8856
 5627TIP3   OH238439   1.448   3.932   7.616 -0.7423  0.1869  0.0661
 5627TIP3    H138440   1.461   3.848   7.573 -1.0031 -0.4455  1.1811
 5627TIP3    H238441   1.487   3.996   7.557  1.5238 -0.9443  0.2557
 5628TIP3   OH238442   3.695   2.437   0.843 -0.0652 -0.2392  0.2659
 5628TIP3    H138443   3.674   2.389   0.924  1.7155  1.8795  2.1168
 5628TIP3    H238444   3.775   2.398   0.811 -1.7253 -2.3255 -1.6774
 5629TIP3   OH238445   5.736   3.384   8.819 -0.5514  0.4058  0.8851
 5629TIP3    H138446   5.721   3.474   8.789 -0.6732  0.4054  0.9406
 5629TIP3    H238447   5.648   3.347   8.826 -0.4999  0.2772  0.8479
 5630TIP3   OH238448   0.707   4.484   9.197 -0.1530  0.8817  0.1478
 5630TIP3    H138449   0.727   4.451   9.285 -1.4072 -1.7759 -0.4646
 5630TIP3    H238450   0.683   4.576   9.212  2.2749  1.3065  2.1648
 5631TIP3   OH238451   2.320   4.273   0.890 -0.6036 -0.5030 -0.3063
 5631TIP3    H138452   2.296   4.365   0.881  2.6768  0.5428  0.6268
 5631TIP3    H238453   2.414   4.273   0.907 -0.3429 -4.0825 -0.8982
 5632TIP3   OH238454   0.273   4.258   0.749  0.3688 -0.1059 -0.2530
 5632TIP3    H138455   0.330   4.311   0.693  1.4247 -2.1741 -1.2670
 5632TIP3    H238456   0.212   4.217   0.688  0.1919 -0.7927  0.3784
 5633TIP3   OH238457   6.427   4.424   8.656 -0.2823  0.2951  0.3096
 5633TIP3    H138458   6.398   4.361   8.722 -0.8456 -0.6811 -0.8252
 5633TIP3    H238459   6.392   4.390   8.573  1.3969  0.8362 -0.6693
 5634TIP3   OH238460   3.907   6.055   1.518 -0.0427  0.0847  0.1965
 5634TIP3    H138461   3.953   6.073   1.436  0.3529 -1.5763  0.0087
 5634TIP3    H238462   3.861   5.972   1.502  1.4423 -1.2262  2.1517
 5635TIP3   OH238463   0.219   6.487   0.095  0.2953 -0.1297 -0.0914
 5635TIP3    H138464   0.173   6.470   0.013 -0.7575  1.7759  0.0437
 5635TIP3    H238465   0.276   6.561   0.076 -0.9846  1.2584  1.1856
 5636TIP3   OH238466   4.635   2.260   8.912  0.3086 -0.6655  0.8143
 5636TIP3    H138467   4.699   2.190   8.902  2.2904  1.1693  0.0067
 5636TIP3    H238468   4.645   2.314   8.833  1.0142  2.1778  2.7025
 5637TIP3   OH238469   0.648   1.448   1.575 -0.4944  0.5790 -0.6380
 5637TIP3    H138470   0.713   1.498   1.624 -1.0897  2.3544 -1.5676
 5637TIP3    H238471   0.570   1.503   1.576 -1.6012 -0.9350 -0.6301
 5638TIP3   OH238472   3.040   2.128   1.122 -0.1178 -0.2459 -1.0316
 5638TIP3    H138473   3.106   2.092   1.180  0.1568  0.3493 -0.9758
 5638TIP3    H238474   2.959   2.082   1.147  0.5093 -2.0102 -2.0296
 5639TIP3   OH238475   2.184   4.729   0.502 -0.2144  0.1438 -0.3940
 5639TIP3    H138476   2.188   4.800   0.566  1.7846 -1.0340  0.8754
 5639TIP3    H238477   2.201   4.771   0.417  0.4573  1.2386  0.2717
 5640TIP3   OH238478   4.358   5.436   0.835 -0.4350  0.0356  0.3071
 5640TIP3    H138479   4.435   5.455   0.889 -0.3990  0.3025  0.1629
 5640TIP3    H238480   4.387   5.454   0.745 -0.7513  0.4136  0.2802
 5641TIP3   OH238481   4.979   6.398   0.088 -0.3061 -0.1508 -0.6157
 5641TIP3    H138482   4.982   6.311   0.127  0.5338 -0.0354 -0.3859
 5641TIP3    H238483   4.889   6.427   0.099 -0.6669 -1.1084 -0.9678
 5642TIP3   OH238484   0.105   0.837   1.945 -0.6901  0.0584  0.8512
 5642TIP3    H138485   0.094   0.799   2.032 -1.0030  1.2488  1.3466
 5642TIP3    H238486   0.148   0.921   1.960  0.3805 -0.2535 -0.2621
 5643TIP3   OH238487   3.100   2.177   7.004  0.9172 -0.5590  0.4893
 5643TIP3    H138488   3.091   2.222   7.088 -0.3686  1.1050 -0.4695
 5643TIP3    H238489   3.106   2.085   7.026  0.4757 -0.1661  2.4065
 5644TIP3   OH238490   2.936   0.674   8.319  0.1186 -0.2629 -1.4268
 5644TIP3    H138491   2.897   0.590   8.344 -0.0486  0.5898  1.5345
 5644TIP3    H238492   2.956   0.717   8.402 -0.7929  3.1078 -2.7815
 5645TIP3   OH238493   1.415   2.198   8.709 -0.1968 -0.0982 -0.1398
 5645TIP3    H138494   1.350   2.128   8.714 -4.1485  3.1347 -0.5636
 5645TIP3    H238495   1.441   2.201   8.617 -0.7820 -0.3974 -0.3148
 5646TIP3   OH238496   0.813   3.427   1.574 -0.5679  0.2140 -0.1330
 5646TIP3    H138497   0.862   3.445   1.493 -0.7875 -0.5762 -0.4497
 5646TIP3    H238498   0.732   3.477   1.565 -0.6860 -0.0406 -0.5020
 5647TIP3   OH238499   4.095   1.886   8.787  0.0158  0.2533 -0.1170
 5647TIP3    H138500   4.118   1.964   8.837 -0.9212  1.2293 -1.1440
 5647TIP3    H238501   4.009   1.906   8.749 -1.1080 -1.9750  1.0188
 5648TIP3   OH238502   4.986   3.463   7.090 -0.5975 -0.2864 -0.0049
 5648TIP3    H138503   4.947   3.549   7.102 -1.0965 -0.2761 -1.5574
 5648TIP3    H238504   4.931   3.404   7.142 -1.7108 -0.0146 -0.8412
 5649TIP3   OH238505   2.869   0.990   7.614  0.3352  0.2612  0.5579
 5649TIP3    H138506   2.803   1.029   7.671 -1.3122  1.2141 -1.8409
 5649TIP3    H238507   2.896   0.910   7.660 -0.8841  0.9620  2.6284
 5650TIP3   OH238508   5.845   5.854   7.987  0.4034  0.3254  0.4037
 5650TIP3    H138509   5.871   5.944   7.971  2.6055 -0.6896 -2.5717
 5650TIP3    H238510   5.759   5.846   7.946 -0.0535  1.1437  1.1550
 5651TIP3   OH238511   2.121   5.326   7.930 -0.1474  0.2118  0.1077
 5651TIP3    H138512   2.071   5.276   7.866  0.6016  0.0275 -0.3397
 5651TIP3    H238513   2.178   5.382   7.878  0.5074  0.0204  0.6054
 5652TIP3   OH238514   3.541   1.270   9.409 -0.0168 -0.0650 -0.0508
 5652TIP3    H138515   3.612   1.232   9.358  1.3859  1.1408  0.9389
 5652TIP3    H238516   3.545   1.225   9.494  0.4904  0.9622  0.4914
 5653TIP3   OH238517   6.211   5.533   8.065  0.2516  0.2399 -0.3677
 5653TIP3    H138518   6.298   5.500   8.044 -0.2966 -0.6495 -1.3474
 5653TIP3    H238519   6.186   5.585   7.989 -1.1396 -1.7573 -1.3826
 5654TIP3   OH238520   3.529   0.082   1.301 -0.0976  0.3402  0.1393
 5654TIP3    H138521   3.490   0.159   1.342 -1.4176 -0.4873  0.5000
 5654TIP3    H238522   3.560   0.113   1.216 -1.7423  1.0164 -0.2525
 5655TIP3   OH238523   4.060   1.141   1.291  0.0353 -0.4025 -0.3552
 5655TIP3    H138524   4.045   1.051   1.260 -0.4273 -0.5733  0.3318
 5655TIP3    H238525   4.082   1.190   1.212 -0.4810 -0.9534 -0.8547
 5656TIP3   OH238526   1.368   3.998   2.142 -0.0936  0.3421 -0.7781
 5656TIP3    H138527   1.419   4.059   2.088 -0.4928  0.3832 -1.1131
 5656TIP3    H238528   1.376   3.914   2.097  1.4705 -0.1545  0.3312
 5657TIP3   OH238529   6.349   4.161   7.368 -0.0675  0.1995  0.4303
 5657TIP3    H138530   6.442   4.145   7.385 -0.3454 -1.1733  0.7241
 5657TIP3    H238531   6.307   4.076   7.377 -0.9288  0.1601 -2.6868
 5658TIP3   OH238532   3.785   5.438   1.794  0.0704 -0.1400 -0.0982
 5658TIP3    H138533   3.793   5.506   1.862  1.0420 -1.2371  0.9232
 5658TIP3    H238534   3.785   5.356   1.842 -0.1248 -0.9153 -1.3856
 5659TIP3   OH238535   4.858   3.583   1.023  0.1140 -0.5278 -0.1042
 5659TIP3    H138536   4.851   3.619   1.111 -1.7430 -1.3556  0.1201
 5659TIP3    H238537   4.932   3.521   1.028  1.8478  1.4400  0.0845
 5660TIP3   OH238538   4.461   4.923   1.514 -0.2370  1.0026 -0.3541
 5660TIP3    H138539   4.386   4.969   1.476  0.7707  1.9139 -1.3328
 5660TIP3    H238540   4.467   4.841   1.466 -2.7200 -0.8421  2.1369
 5661TIP3   OH238541   0.837   4.422   8.979  0.3760  0.3484  0.0553
 5661TIP3    H138542   0.814   4.490   9.043  1.0972  1.1373 -0.5047
 5661TIP3    H238543   0.763   4.361   8.982 -0.3275  1.1941  0.5088
 5662TIP3   OH238544   0.866   0.382   0.729 -0.2281  0.3678 -0.2557
 5662TIP3    H138545   0.894   0.473   0.741  1.7234 -0.2513  0.2912
 5662TIP3    H238546   0.914   0.333   0.796  0.7891 -1.4145 -2.1483
 5663TIP3   OH238547   6.244   3.097   1.123  0.2901 -0.1613  0.1690
 5663TIP3    H138548   6.187   3.045   1.067 -1.3654 -0.0792  1.7034
 5663TIP3    H238549   6.198   3.181   1.133  1.2509  0.3429  0.4968
 5664TIP3   OH238550   5.309   0.624   8.077 -0.1568  0.2761 -0.1430
 5664TIP3    H138551   5.319   0.592   7.987 -1.0237  1.5344 -0.7312
 5664TIP3    H238552   5.255   0.558   8.121  2.1014 -1.4713  0.1444
 5665TIP3   OH238553   6.374   3.709   7.119  0.8263  0.6108 -0.3105
 5665TIP3    H138554   6.308   3.657   7.073  1.8132 -1.2882  0.3503
 5665TIP3    H238555   6.452   3.701   7.065  1.3144  0.4126  0.4136
 5666TIP3   OH238556   5.518   4.647   0.927 -0.0754  0.2105  0.3004
 5666TIP3    H138557   5.610   4.652   0.954  0.2875  1.9375 -1.0972
 5666TIP3    H238558   5.505   4.724   0.873 -2.3678 -0.0241  0.4365
 5667TIP3   OH238559   3.962   2.655   0.615  0.0459  0.1473 -0.5303
 5667TIP3    H138560   4.025   2.652   0.686 -0.0255 -2.2106 -0.4714
 5667TIP3    H238561   3.948   2.563   0.592  0.0803  0.8060 -3.6178
 5668TIP3   OH238562   4.540   3.933   2.725  0.6624  0.8260 -0.0578
 5668TIP3    H138563   4.593   3.990   2.669  1.2499  0.0722 -0.2858
 5668TIP3    H238564   4.452   3.936   2.686  0.9282  0.7678 -0.6717
 5669TIP3   OH238565   1.003   6.478   2.010 -0.4935 -0.0836 -0.0109
 5669TIP3    H138566   1.038   6.536   1.943  0.8326  0.3064  0.9672
 5669TIP3    H238567   1.037   6.391   1.987 -1.1214 -0.1908 -0.5562
 5670TIP3   OH238568   3.365   3.598   8.496 -0.0142 -0.1700 -0.0610
 5670TIP3    H138569   3.435   3.589   8.561  0.2952  2.7492  0.1502
 5670TIP3    H238570   3.404   3.648   8.425 -1.5827  0.6466 -0.4002
 5671TIP3   OH238571   0.030   5.872   8.780  0.3386  0.0989  0.8545
 5671TIP3    H138572   0.036   5.963   8.808  0.5614 -0.3833  2.5210
 5671TIP3    H238573   0.116   5.853   8.742 -0.4643  1.2020 -1.7358
 5672TIP3   OH238574   1.992   1.973   1.565 -0.8386  0.0414  0.0480
 5672TIP3    H138575   1.999   1.960   1.659 -1.7336  0.7567  0.2180
 5672TIP3    H238576   2.029   2.060   1.550  0.1340 -0.4253 -0.3948
 5673TIP3   OH238577   3.129   2.956   1.269 -0.0017 -0.3879  1.0601
 5673TIP3    H138578   3.208   2.983   1.222 -0.2916 -1.9397 -0.4198
 5673TIP3    H238579   3.097   2.879   1.221 -2.1383 -0.1150  1.9155
 5674TIP3   OH238580   6.415   4.431   8.026  0.4615  0.3558 -0.0348
 5674TIP3    H138581   6.326   4.411   8.056 -0.2094 -0.1071 -2.1327
 5674TIP3    H238582   6.465   4.444   8.106 -1.6403  1.3221  1.2182
 5675TIP3   OH238583   3.733   2.786   7.389  0.2119  0.8650 -0.7421
 5675TIP3    H138584   3.667   2.844   7.351  0.3560  1.6382  0.1461
 5675TIP3    H238585   3.815   2.815   7.350 -0.0882 -1.2034 -3.1765
 5676TIP3   OH238586   4.870   1.032   0.373 -0.6272  0.5549 -0.3727
 5676TIP3    H138587   4.848   0.986   0.454 -1.6220  0.2603 -0.7951
 5676TIP3    H238588   4.873   1.125   0.398  2.3235  0.2689  0.6902
 5677TIP3   OH238589   2.714   1.376   6.958  0.2848  0.4134 -0.5702
 5677TIP3    H138590   2.689   1.404   6.870  0.2841 -1.1189 -1.1023
 5677TIP3    H238591   2.631   1.355   7.001  0.3834 -2.4442 -1.5456
 5678TIP3   OH238592   3.648   3.270   0.809 -0.4093 -0.3097 -0.4860
 5678TIP3    H138593   3.671   3.270   0.902  1.9344  0.1704 -1.0010
 5678TIP3    H238594   3.690   3.191   0.774  0.4745  0.5584 -1.4758
 5679TIP3   OH238595   2.844   2.476   7.378 -0.2913 -0.6529  0.5462
 5679TIP3    H138596   2.816   2.392   7.413  0.1016 -1.4885 -1.0579
 5679TIP3    H238597   2.763   2.517   7.346 -1.0018  1.0182  4.0210
 5680TIP3   OH238598   5.905   1.755   0.663  0.1336  0.1248 -0.1573
 5680TIP3    H138599   5.916   1.809   0.584  1.2988  0.6547  0.3450
 5680TIP3    H238600   5.913   1.665   0.632  1.1125  0.3435 -0.5874
 5681TIP3   OH238601   4.297   1.914   0.473 -0.6357  0.3305  0.4189
 5681TIP3    H138602   4.377   1.869   0.503 -0.9435  0.8879  2.1801
 5681TIP3    H238603   4.290   1.890   0.381  0.5267 -1.2867  0.6953
 5682TIP3   OH238604   2.441   0.353   8.425  0.1939 -0.1591  0.3962
 5682TIP3    H138605   2.485   0.438   8.422 -1.1223  0.5944  1.5081
 5682TIP3    H238606   2.349   0.374   8.442  0.0543 -1.8606  2.0405
 5683TIP3   OH238607   5.022   3.287   8.380  0.3576  0.2187  0.1233
 5683TIP3    H138608   5.014   3.192   8.380 -0.5273  0.2751 -0.9033
 5683TIP3    H238609   5.004   3.313   8.470 -0.1184 -0.5373  0.2504
 5684TIP3   OH238610   2.862   5.927   9.491  0.0837 -0.2369  0.1031
 5684TIP3    H138611   2.878   5.848   9.542  1.2503 -0.0084  0.1202
 5684TIP3    H238612   2.800   5.900   9.423  1.5331 -1.5423 -0.7649
 5685TIP3   OH238613   5.146   1.167   8.875 -0.5517  0.4227  0.1595
 5685TIP3    H138614   5.187   1.099   8.822  0.2493  0.4771  0.6864
 5685TIP3    H238615   5.055   1.168   8.846 -0.1896  0.2935 -1.0343
 5686TIP3   OH238616   2.839   3.562   0.077 -0.3955 -0.0237  0.3921
 5686TIP3    H138617   2.825   3.601  -0.009  1.9944 -1.0519 -0.5596
 5686TIP3    H238618   2.871   3.634   0.131  0.1572  0.1889 -0.2109
 5687TIP3   OH238619   2.666   1.719   0.567  0.5231  0.5268 -0.0304
 5687TIP3    H138620   2.607   1.792   0.587 -0.2755 -0.8691  3.3613
 5687TIP3    H238621   2.625   1.674   0.493 -1.5550  0.8041  0.9040
 5688TIP3   OH238622   4.243   4.359   8.371 -0.4604 -0.2293 -0.4413
 5688TIP3    H138623   4.275   4.270   8.364  2.6357  0.6811  0.6832
 5688TIP3    H238624   4.220   4.369   8.464 -2.0835 -0.1791 -0.8077
 5689TIP3   OH238625   4.508   4.411   0.940  0.0300  0.4252 -0.2505
 5689TIP3    H138626   4.507   4.338   0.877  0.3238  1.0436 -0.9967
 5689TIP3    H238627   4.491   4.370   1.024 -2.5636 -0.1929 -0.9824
 5690TIP3   OH238628   4.489   6.522   1.087 -0.2732  0.4303 -0.2009
 5690TIP3    H138629   4.438   6.602   1.097 -0.4152  0.2594  0.5228
 5690TIP3    H238630   4.499   6.488   1.176  1.9040  0.9442 -0.1986
 5691TIP3   OH238631   5.545   1.704   7.120  0.3545  0.4536 -0.1882
 5691TIP3    H138632   5.488   1.635   7.088 -0.9508  1.3229  0.1700
 5691TIP3    H238633   5.529   1.778   7.062  0.5635  0.9363  0.3514
 5692TIP3   OH238634   5.857   1.708   1.616  0.3363 -0.0589  0.2494
 5692TIP3    H138635   5.859   1.776   1.684  0.8609 -0.3129  0.4901
 5692TIP3    H238636   5.823   1.631   1.661  2.1253 -0.6707  0.6513
 5693TIP3   OH238637   1.548   3.710   2.107  0.1413  0.0209 -0.0024
 5693TIP3    H138638   1.637   3.679   2.088  0.0446  0.2199 -0.7851
 5693TIP3    H238639   1.527   3.668   2.191  0.7264 -0.5413 -0.1205
 5694TIP3   OH238640   6.048   1.066   8.246  0.0391 -0.0441 -0.2264
 5694TIP3    H138641   6.113   0.997   8.257 -0.7361 -1.0599 -1.5498
 5694TIP3    H238642   6.057   1.121   8.323  1.2188 -1.1895  0.4942
 5695TIP3   OH238643   5.613   3.721   0.871 -0.1961  0.1671  0.1850
 5695TIP3    H138644   5.698   3.697   0.833 -1.0023 -0.1553 -1.5402
 5695TIP3    H238645   5.631   3.732   0.964  1.4727 -1.1633  0.0802
 5696TIP3   OH238646   1.796   4.256   1.173 -0.5345  0.1803  0.5588
 5696TIP3    H138647   1.726   4.192   1.164 -0.0213 -0.2102 -1.0549
 5696TIP3    H238648   1.774   4.305   1.252 -2.4247 -0.1492  0.2846
 5697TIP3   OH238649   6.298   0.942   9.149  0.8144 -0.2304 -0.2831
 5697TIP3    H138650   6.233   1.013   9.151 -0.0877 -0.9873 -1.3588
 5697TIP3    H238651   6.246   0.863   9.164  1.2876 -0.9623 -2.2814
 5698TIP3   OH238652   2.896   6.253   0.564  0.0107  1.0598  0.7082
 5698TIP3    H138653   2.906   6.189   0.635 -0.1283  0.5030  0.2393
 5698TIP3    H238654   2.929   6.335   0.600  1.2926  0.4629  0.9600
 5699TIP3   OH238655   0.730   4.383   0.866  0.3845 -0.2649 -0.1395
 5699TIP3    H138656   0.691   4.372   0.779 -2.5198  2.0749  0.6855
 5699TIP3    H238657   0.660   4.359   0.927  1.1460  1.4047  1.4954
 5700TIP3   OH238658   5.127   0.676   2.708  0.6504 -0.1673 -0.3675
 5700TIP3    H138659   5.165   0.590   2.722 -0.4717 -0.5846  0.2427
 5700TIP3    H238660   5.163   0.705   2.624  0.9237 -1.2835 -0.6442
 5701TIP3   OH238661   2.827   2.916   7.987  0.5876 -0.2221 -0.6485
 5701TIP3    H138662   2.893   2.847   7.987  3.4176  1.9926  3.9840
 5701TIP3    H238663   2.878   2.998   7.980 -1.9541  1.5343  0.0057
 5702TIP3   OH238664   0.495   0.329   1.903 -0.4408 -0.1074 -0.5400
 5702TIP3    H138665   0.456   0.248   1.872  0.1351 -0.6827  0.2117
 5702TIP3    H238666   0.442   0.355   1.978 -1.2595  0.7874 -1.3895
 5703TIP3   OH238667   5.935   6.380   1.809  0.1357  0.4987 -0.3583
 5703TIP3    H138668   5.889   6.442   1.865 -0.3909 -0.7987  0.7065
 5703TIP3    H238669   6.018   6.364   1.854  0.3450  0.5816 -0.7181
 5704TIP3   OH238670   0.117   3.574   8.439  0.2933 -0.0787 -0.0636
 5704TIP3    H138671   0.083   3.660   8.415  1.5358  0.7264  0.9481
 5704TIP3    H238672   0.091   3.563   8.530  1.4214 -0.1134  0.2603
 5705TIP3   OH238673   2.519   4.074   0.667 -0.0765 -0.4150  0.1488
 5705TIP3    H138674   2.465   4.001   0.635  0.7578 -0.4949 -1.1981
 5705TIP3    H238675   2.457   4.141   0.694 -0.8472 -1.0723  0.0317
 5706TIP3   OH238676   5.644   0.395   0.396  0.5914 -0.2927 -0.2213
 5706TIP3    H138677   5.668   0.395   0.304  0.8068  1.7072 -0.2084
 5706TIP3    H238678   5.728   0.394   0.443  0.6241  2.0169 -0.1272
 5707TIP3   OH238679   2.801   6.414   0.245  0.8783  0.0645  0.3098
 5707TIP3    H138680   2.756   6.398   0.328  2.3950 -2.8856  0.7120
 5707TIP3    H238681   2.874   6.472   0.268  0.9569 -0.2716  0.9426
 5708TIP3   OH238682   3.066   4.767   8.734  0.3318 -0.1720 -0.0653
 5708TIP3    H138683   3.155   4.788   8.763  0.0803 -0.3612  0.8913
 5708TIP3    H238684   3.028   4.851   8.707  0.1637  0.2382  1.3719
 5709TIP3   OH238685   5.599   0.617   8.889 -0.4265 -0.0088 -0.0376
 5709TIP3    H138686   5.587   0.607   8.794  1.0324  1.8901 -0.4909
 5709TIP3    H238687   5.653   0.542   8.914 -0.3202 -0.2107 -0.8212
 5710TIP3   OH238688   0.021   1.210   0.728  0.4187 -0.3850  0.7013
 5710TIP3    H138689  -0.001   1.303   0.729 -1.6862 -0.7843 -0.3219
 5710TIP3    H238690   0.025   1.185   0.820  2.1998  0.9179  1.0256
 5711TIP3   OH238691   6.305   2.966   8.241 -0.4372 -0.0993  0.0114
 5711TIP3    H138692   6.377   3.029   8.238  0.0405 -0.6507 -0.3114
 5711TIP3    H238693   6.253   2.992   8.317  0.1186  0.2883  0.2628
 5712TIP3   OH238694   3.325   3.833   0.504 -0.2133 -0.2179 -0.1747
 5712TIP3    H138695   3.317   3.906   0.565 -1.2287 -2.1662  2.2115
 5712TIP3    H238696   3.395   3.779   0.540 -0.0043 -0.8282 -1.4523
 5713TIP3   OH238697   6.235   1.668   0.885  0.2504 -0.5549  0.2064
 5713TIP3    H138698   6.165   1.642   0.944  1.3637  0.8909  2.2625
 5713TIP3    H238699   6.315   1.653   0.934  1.3648 -1.0131 -1.6322
 5714TIP3   OH238700   5.610   4.057   7.336  0.4636  0.0445  0.6473
 5714TIP3    H138701   5.638   4.147   7.355  0.6668  0.3240 -0.8779
 5714TIP3    H238702   5.590   4.057   7.243 -0.7478 -1.1974  0.8828
 5715TIP3   OH238703   0.219   5.806   2.980  0.0059 -0.3779 -0.5260
 5715TIP3    H138704   0.214   5.714   3.006  1.4715 -0.3100  0.1521
 5715TIP3    H238705   0.197   5.854   3.060  0.7495 -0.1610 -0.4433
 5716TIP3   OH238706   1.379   6.065   0.143  0.0292  0.1787  0.2791
 5716TIP3    H138707   1.406   6.145   0.187  1.5503 -1.4857  2.5878
 5716TIP3    H238708   1.451   6.004   0.155 -1.3443 -1.8005 -0.7679
 5717TIP3   OH238709   0.180   4.451   9.384 -0.5108  0.3956 -0.1877
 5717TIP3    H138710   0.111   4.490   9.438 -0.1411  0.4377  0.2600
 5717TIP3    H238711   0.222   4.525   9.342  2.6992  1.0542  3.5484
 5718TIP3   OH238712   3.030   0.033   9.519 -0.3007  0.0918  0.2063
 5718TIP3    H138713   2.937   0.012   9.513 -0.0794 -0.6403 -1.5014
 5718TIP3    H238714   3.064   0.015   9.431  1.0998  2.0945  0.2581
 5719TIP3   OH238715   1.836   3.724   7.475  0.2948 -0.0311 -0.1928
 5719TIP3    H138716   1.741   3.714   7.474  0.2386  0.4394  0.0788
 5719TIP3    H238717   1.870   3.642   7.438 -0.1280 -1.2243  1.9214
 5720TIP3   OH238718   4.110   0.746   7.019 -0.2152 -0.2994 -0.1099
 5720TIP3    H138719   4.116   0.742   6.923  0.9500  0.6872 -0.1042
 5720TIP3    H238720   4.122   0.656   7.047 -1.0776 -0.6812 -0.9066
 5721TIP3   OH238721   6.160   0.287   0.051  0.1613  0.0888  0.3130
 5721TIP3    H138722   6.142   0.297   0.144 -0.9674 -1.6360  0.3131
 5721TIP3    H238723   6.214   0.208   0.045  0.3756  0.2834 -0.4864
 5722TIP3   OH238724   1.476   6.314   1.860 -0.1357  0.0149 -0.2236
 5722TIP3    H138725   1.483   6.286   1.769 -1.0029  0.1382 -0.3348
 5722TIP3    H238726   1.534   6.390   1.867  0.1778 -0.1872 -0.5824
 5723TIP3   OH238727   3.338   5.301   7.676 -0.2381 -0.0388 -0.3755
 5723TIP3    H138728   3.314   5.393   7.661  2.0117  0.8029  0.7445
 5723TIP3    H238729   3.315   5.285   7.767 -0.0554 -0.3771 -0.3895
 5724TIP3   OH238730   2.221   0.451   0.161 -0.1616  0.3366 -0.0366
 5724TIP3    H138731   2.209   0.416   0.248  0.1767  0.9266  0.2568
 5724TIP3    H238732   2.209   0.376   0.102 -1.5809  0.1746  0.4307
 5725TIP3   OH238733   1.191   4.440   1.220 -0.3577  0.5947  0.2852
 5725TIP3    H138734   1.162   4.500   1.289 -0.8150 -1.3854  1.9268
 5725TIP3    H238735   1.154   4.355   1.245  0.1883 -0.3929 -1.9664
 5726TIP3   OH238736   0.267   3.466   1.193  0.8913  0.5453  0.0081
 5726TIP3    H138737   0.354   3.498   1.218  0.2052  1.0257  1.8771
 5726TIP3    H238738   0.219   3.544   1.165 -0.1069  0.9224  2.5709
 5727TIP3   OH238739   0.339   2.655   0.708  0.3697 -0.1978 -0.2111
 5727TIP3    H138740   0.288   2.577   0.687  0.4453  0.0918 -1.5878
 5727TIP3    H238741   0.423   2.621   0.740  0.2595 -0.6813 -0.4275
 5728TIP3   OH238742   2.855   0.569   0.630  0.7513 -0.3779  1.0154
 5728TIP3    H138743   2.921   0.508   0.596 -0.2586 -1.6293  1.1919
 5728TIP3    H238744   2.905   0.644   0.661  2.1116 -1.3868  1.3611
 5729TIP3   OH238745   2.559   2.172   8.584 -0.5982 -0.1098  0.0259
 5729TIP3    H138746   2.472   2.210   8.566  0.0073  0.9957 -0.7583
 5729TIP3    H238747   2.618   2.248   8.583  0.2064 -0.6563  1.9522
 5730TIP3   OH238748   3.017   1.463   8.477  0.2545 -0.6577  0.4277
 5730TIP3    H138749   3.080   1.448   8.407  1.7346  2.8574  0.8005
 5730TIP3    H238750   2.948   1.516   8.437 -1.9359 -3.2957  0.3855
 5731TIP3   OH238751   6.151   0.864   7.537  0.1684 -0.3804  0.4478
 5731TIP3    H138752   6.190   0.777   7.540  0.5700 -0.2092  0.3127
 5731TIP3    H238753   6.213   0.916   7.486  0.1564  0.0995  0.9109
 5732TIP3   OH238754   3.551   2.655   2.023 -0.2299 -0.0411  0.3107
 5732TIP3    H138755   3.563   2.560   2.026  0.2995  0.0033 -0.1731
 5732TIP3    H238756   3.460   2.668   2.047 -0.6592 -0.7566 -0.8744
 5733TIP3   OH238757   2.114   4.341   1.294 -0.1668 -0.1154 -0.0098
 5733TIP3    H138758   2.109   4.245   1.295  0.4083 -0.2059 -2.0457
 5733TIP3    H238759   2.023   4.370   1.304 -0.6716 -0.9483 -1.8070
 5734TIP3   OH238760   4.057   5.317   2.599  0.4395 -0.3313  0.1783
 5734TIP3    H138761   4.112   5.241   2.581  0.0273 -0.6694  0.3524
 5734TIP3    H238762   4.092   5.386   2.542  0.4021 -0.8318 -0.4568
 5735TIP3   OH238763   2.094   0.487   9.021  0.9781 -0.0373  0.2566
 5735TIP3    H138764   2.084   0.468   9.114 -1.1378  0.4282  0.1648
 5735TIP3    H238765   2.058   0.410   8.976 -2.2862  1.5353 -0.1045
 5736TIP3   OH238766   5.549   5.365   1.048  0.3358  0.0528  0.2892
 5736TIP3    H138767   5.505   5.432   0.996  1.2753  0.0784 -0.4960
 5736TIP3    H238768   5.521   5.282   1.008 -0.2074  0.0040  0.7648
 5737TIP3   OH238769   5.181   5.134   9.442  0.1360  0.0241 -0.0107
 5737TIP3    H138770   5.171   5.224   9.412  3.0516 -0.3416 -2.4347
 5737TIP3    H238771   5.162   5.080   9.365 -1.7782 -1.5685  1.4380
 5738TIP3   OH238772   5.361   2.721   8.274 -0.4122 -0.2168  0.3853
 5738TIP3    H138773   5.304   2.677   8.211  0.0294 -0.3812  0.0991
 5738TIP3    H238774   5.305   2.737   8.350 -0.9786  0.0745 -0.0849
 5739TIP3   OH238775   0.294   1.567   1.282 -0.4315 -0.2585  0.2547
 5739TIP3    H138776   0.302   1.472   1.280 -0.0596 -0.2139 -0.8426
 5739TIP3    H238777   0.203   1.583   1.307 -0.1223 -0.8710  1.8930
 5740TIP3   OH238778   5.859   3.713   2.126 -0.0159 -0.7300 -0.9828
 5740TIP3    H138779   5.868   3.793   2.177  1.7899 -0.4363 -1.6793
 5740TIP3    H238780   5.791   3.733   2.062 -1.8547 -0.8876  0.8271
 5741TIP3   OH238781   4.308   6.486   8.946 -0.2937  0.2113  0.2905
 5741TIP3    H138782   4.260   6.483   8.863  0.3369  1.4910 -0.1409
 5741TIP3    H238783   4.239   6.482   9.013 -1.2255  3.2161 -0.3048
 5742TIP3   OH238784   2.780   2.474   9.033  0.2959  0.3177  0.8939
 5742TIP3    H138785   2.811   2.447   9.120  0.3007 -0.8742  0.5394
 5742TIP3    H238786   2.706   2.417   9.015 -0.0119  0.8878  0.3101
 5743TIP3   OH238787   1.456   2.779   9.443 -0.2989  0.2769  0.5265
 5743TIP3    H138788   1.483   2.715   9.508 -1.1571 -0.3139  0.3096
 5743TIP3    H238789   1.451   2.730   9.361 -1.2029  0.5526  0.4085
 5744TIP3   OH238790   5.263   1.598   7.961 -0.3684 -0.5437  0.2519
 5744TIP3    H138791   5.178   1.630   7.990 -0.9536 -0.7075 -1.2072
 5744TIP3    H238792   5.325   1.666   7.988 -0.5829 -1.4467  3.3568
 5745TIP3   OH238793   6.387   0.079   9.299  0.0234 -0.3932  0.0229
 5745TIP3    H138794   6.337   0.093   9.219 -0.2456 -2.2269 -0.1775
 5745TIP3    H238795   6.384   0.163   9.345 -0.8192  0.3402 -1.3244
 5746TIP3   OH238796   5.304   0.146   9.349 -0.0141  0.3895  0.4683
 5746TIP3    H138797   5.381   0.098   9.380  0.7070  1.3941  0.2862
 5746TIP3    H238798   5.231   0.087   9.367  0.7928 -0.6222  0.5852
 5747TIP3   OH238799   0.342   0.553   8.366  0.4185 -0.3617 -0.6325
 5747TIP3    H138800   0.286   0.590   8.434  2.1770  1.1285  0.0824
 5747TIP3    H238801   0.302   0.582   8.283 -0.2363  0.0964 -0.1677
 5748TIP3   OH238802   2.672   4.204   1.986  0.2956  0.5055 -0.5230
 5748TIP3    H138803   2.579   4.204   1.966  0.3482 -1.1563 -0.8503
 5748TIP3    H238804   2.676   4.198   2.082  0.0782  1.3135 -0.4572
 5749TIP3   OH238805   5.762   0.558   9.344 -0.0992  0.1623  0.1558
 5749TIP3    H138806   5.674   0.528   9.320 -0.9412  3.7679 -2.0492
 5749TIP3    H238807   5.747   0.637   9.396  1.8505  1.0230 -0.5049
 5750TIP3   OH238808   4.907   3.565   1.622 -0.1690 -0.6540  0.2033
 5750TIP3    H138809   4.989   3.572   1.573  0.7114  0.8914  1.7776
 5750TIP3    H238810   4.865   3.487   1.587  1.2272 -0.6218 -1.7326
 5751TIP3   OH238811   3.032   4.391   8.446 -0.0583 -0.3407 -0.1082
 5751TIP3    H138812   2.993   4.418   8.363  1.2142  0.9758 -0.3270
 5751TIP3    H238813   3.007   4.459   8.508  0.5897 -0.2941  0.1115
 5752TIP3   OH238814   5.176   1.514   1.498  0.5332 -0.7285 -0.8690
 5752TIP3    H138815   5.090   1.555   1.498  0.8141 -0.0695 -2.2401
 5752TIP3    H238816   5.158   1.420   1.511 -0.2110 -0.3701  0.9369
 5753TIP3   OH238817   0.767   3.307   0.897  0.4040  0.3218  0.6864
 5753TIP3    H138818   0.849   3.306   0.946  0.2535  0.8723  0.9535
 5753TIP3    H238819   0.701   3.330   0.961  0.2542  1.4526  0.1572
 5754TIP3   OH238820   2.343   0.092   0.942 -0.2055 -0.2516  0.1157
 5754TIP3    H138821   2.336   0.033   0.867 -1.5557  0.1821 -0.1246
 5754TIP3    H238822   2.353   0.034   1.017  0.6774 -0.7046 -0.3390
 5755TIP3   OH238823   4.486   1.607   8.768  0.3832  0.2519  0.4087
 5755TIP3    H138824   4.434   1.535   8.733 -0.0393  1.1070 -0.8203
 5755TIP3    H238825   4.468   1.607   8.862  0.8283 -1.5550  0.5314
 5756TIP3   OH238826   2.412   2.922   9.469 -0.2195 -0.2897  0.6829
 5756TIP3    H138827   2.401   2.941   9.562  0.1460  0.4904  0.5821
 5756TIP3    H238828   2.501   2.886   9.462  0.1857  0.6897  0.5126
 5757TIP3   OH238829   6.017   5.964   8.824 -0.0829  0.1741 -0.1806
 5757TIP3    H138830   6.073   5.902   8.870 -0.1543 -0.0607 -0.4106
 5757TIP3    H238831   6.078   6.024   8.781  0.0967 -1.6604 -2.6698
 5758TIP3   OH238832   0.693   1.734   0.179  0.8663 -0.3111  0.2385
 5758TIP3    H138833   0.646   1.814   0.156  2.8488  0.8704  0.1310
 5758TIP3    H238834   0.664   1.670   0.114 -0.2597  0.4652 -0.0593
 5759TIP3   OH238835   0.260   2.652   0.342 -0.2519 -0.1576  0.5160
 5759TIP3    H138836   0.355   2.651   0.344 -0.1511  0.5720 -1.3783
 5759TIP3    H238837   0.237   2.745   0.345 -0.8601 -0.2961  0.3241
 5760TIP3   OH238838   2.024   1.833   0.589 -0.2043  0.1215 -0.3658
 5760TIP3    H138839   2.013   1.896   0.518 -0.2485  0.7698  0.2091
 5760TIP3    H238840   1.955   1.769   0.574 -0.7567  0.7188 -0.4194
 5761TIP3   OH238841   0.952   6.362   2.327  0.5718 -0.1154 -0.3238
 5761TIP3    H138842   0.868   6.362   2.280  0.6940 -1.7264 -0.5879
 5761TIP3    H238843   0.948   6.285   2.383  1.2877  0.6307  0.7892
 5762TIP3   OH238844   1.967   4.897   1.043 -0.3726 -0.1416  0.2666
 5762TIP3    H138845   2.053   4.859   1.026  0.0208  1.0173 -0.4872
 5762TIP3    H238846   1.964   4.974   0.986 -1.2044  0.8405  1.5810
 5763TIP3   OH238847   5.334   2.124   1.480  0.3732  0.3033 -0.4384
 5763TIP3    H138848   5.317   2.201   1.426 -0.5767  0.2381 -0.2503
 5763TIP3    H238849   5.274   2.134   1.555  0.1613 -0.6691 -0.4701
 5764TIP3   OH238850   0.752   4.245   8.729 -0.1906  0.2921  0.6036
 5764TIP3    H138851   0.701   4.322   8.704 -0.0978 -0.4121 -2.1063
 5764TIP3    H238852   0.707   4.172   8.687  1.9295 -0.5932 -0.2752
 5765TIP3   OH238853   4.267   2.743   0.337  0.1015 -0.0527 -0.0983
 5765TIP3    H138854   4.235   2.653   0.334 -0.3345  0.0563  0.7713
 5765TIP3    H238855   4.319   2.754   0.257  1.9694 -1.7528  0.8045
 5766TIP3   OH238856   4.910   3.955   7.778  0.4382 -0.0864 -0.1837
 5766TIP3    H138857   4.980   3.981   7.719 -0.5709  2.3824 -0.4076
 5766TIP3    H238858   4.916   3.859   7.782  2.1593 -0.1340 -2.2114
 5767TIP3   OH238859   4.531   4.655   8.817  0.2285 -0.0564  0.6748
 5767TIP3    H138860   4.511   4.562   8.827 -0.7084 -0.0489 -0.8531
 5767TIP3    H238861   4.496   4.678   8.731  1.0931  1.5455  0.7188
 5768TIP3   OH238862   2.486   0.443   9.058  0.1941 -0.4695 -0.4851
 5768TIP3    H138863   2.483   0.347   9.053  0.9618 -0.4931 -0.6142
 5768TIP3    H238864   2.427   0.472   8.989 -0.5698 -0.8477 -0.0041
 5769TIP3   OH238865   4.089   1.990   9.283 -0.4493  0.3255  0.4616
 5769TIP3    H138866   4.024   2.013   9.350 -1.8358 -2.7995  0.4007
 5769TIP3    H238867   4.058   2.033   9.204 -1.8417 -0.1666  0.7047
 5770TIP3   OH238868   1.551   0.236   0.160  0.1402  0.2820  0.5179
 5770TIP3    H138869   1.473   0.180   0.153  0.4696 -0.2339  0.8937
 5770TIP3    H238870   1.572   0.258   0.070  0.1833 -0.4616  0.3367
 5771TIP3   OH238871   3.977   6.097   9.012  0.7395  0.2217 -0.3486
 5771TIP3    H138872   3.951   6.188   9.021 -0.1145 -0.1284  1.0142
 5771TIP3    H238873   3.991   6.085   8.918  0.0298  1.5159 -0.6411
 5772TIP3   OH238874   5.946   2.793   1.942  0.4654 -0.4540  0.0926
 5772TIP3    H138875   5.866   2.842   1.959  0.8092  1.2388 -2.5360
 5772TIP3    H238876   6.007   2.820   2.011 -0.2271  0.7405  0.2512
 5773TIP3   OH238877   6.420   3.116   9.511 -0.1486  0.5550 -0.0042
 5773TIP3    H138878   6.364   3.137   9.586  1.0736  3.2530  0.2791
 5773TIP3    H238879   6.505   3.155   9.534  2.2723 -4.0805  0.0224
 5774TIP3   OH238880   0.781   2.946   1.429  0.3856 -0.3125 -0.0826
 5774TIP3    H138881   0.870   2.914   1.443 -0.2170 -1.7655  0.6696
 5774TIP3    H238882   0.759   2.916   1.341 -0.0120 -1.6635  0.4477
 5775TIP3   OH238883   6.213   0.087   7.644 -0.6261 -0.5241  0.1202
 5775TIP3    H138884   6.259   0.168   7.623 -1.9310  0.2430  0.0607
 5775TIP3    H238885   6.121   0.114   7.652 -1.1889 -2.1356 -0.6411
 5776TIP3   OH238886   5.642   0.756   9.111 -0.4045  0.3370  0.0045
 5776TIP3    H138887   5.638   0.712   9.027 -0.9372  1.1222 -0.3933
 5776TIP3    H238888   5.734   0.753   9.136 -0.5589 -1.9820  0.5392
 5777TIP3   OH238889   1.153   1.147   9.005  0.3530  0.1531 -0.2496
 5777TIP3    H138890   1.149   1.103   9.090 -1.4122  1.0716  0.1843
 5777TIP3    H238891   1.209   1.223   9.021 -0.0926  0.4058  0.1361
 5778TIP3   OH238892   1.217   4.012   9.522 -0.0004 -0.0205  0.0159
 5778TIP3    H138893   1.198   4.049   9.435  0.5080 -0.5484 -0.3247
 5778TIP3    H238894   1.166   3.932   9.524  0.1885 -0.1371  0.1066
 5779TIP3   OH238895   5.503   4.490   2.571  0.1481 -0.3895 -0.3341
 5779TIP3    H138896   5.452   4.444   2.504 -1.5711  0.1988  0.5145
 5779TIP3    H238897   5.595   4.475   2.546 -0.4017 -2.1176 -1.4863
 5780TIP3   OH238898   4.790   6.120   2.231  0.0215  0.1389 -0.0396
 5780TIP3    H138899   4.817   6.165   2.311 -2.1307 -0.1571  0.9275
 5780TIP3    H238900   4.797   6.027   2.252  1.6650 -0.0127 -1.0424
 5781TIP3   OH238901   0.009   5.377   8.687 -0.2621  0.3387  0.1568
 5781TIP3    H138902   0.001   5.332   8.602  1.9558  1.1382 -0.5607
 5781TIP3    H238903  -0.059   5.443   8.686 -1.4633 -0.8678 -0.1849
 5782TIP3   OH238904   5.321   3.053   0.708  0.0170 -0.3036 -0.0399
 5782TIP3    H138905   5.362   3.012   0.632  0.4560 -1.4343  0.7736
 5782TIP3    H238906   5.325   3.146   0.690 -0.4860 -0.5746 -1.6985
 5783TIP3   OH238907   5.909   6.064   9.202 -0.0368  0.7252  0.1842
 5783TIP3    H138908   5.864   6.086   9.283 -0.7052  2.2288 -0.5758
 5783TIP3    H238909   5.840   6.038   9.141  0.5256 -1.2255  0.3103
 5784TIP3   OH238910   3.714   2.603   0.461 -0.7052 -0.2172 -0.0093
 5784TIP3    H138911   3.769   2.617   0.539  0.8606  0.4153 -1.1793
 5784TIP3    H238912   3.764   2.542   0.408 -1.1768  0.3097 -1.0781
 5785TIP3   OH238913   1.078   1.709   2.545  0.2110 -0.0941 -0.2699
 5785TIP3    H138914   1.135   1.634   2.561  0.9371  0.8061  1.8987
 5785TIP3    H238915   1.003   1.695   2.603  0.2598  0.7197  0.0116
 5786TIP3   OH238916   0.037   0.727   1.460 -0.6008  0.6376 -0.5287
 5786TIP3    H138917   0.126   0.736   1.424 -0.9756 -0.4673 -1.8455
 5786TIP3    H238918   0.041   0.771   1.544  1.9840 -1.7489  0.7796
 5787TIP3   OH238919   1.154   1.198   0.378 -0.4547 -0.0332  0.7182
 5787TIP3    H138920   1.152   1.127   0.314  0.6630 -0.4478  1.1227
 5787TIP3    H238921   1.154   1.278   0.325  1.7288 -0.3749  0.1140
 5788TIP3   OH238922   1.645   5.576   1.060  0.0173 -0.7671 -0.0576
 5788TIP3    H138923   1.688   5.556   0.977 -1.1288 -1.6683 -0.4650
 5788TIP3    H238924   1.701   5.537   1.127  0.8699 -0.1631 -0.4102
 5789TIP3   OH238925   2.458   2.486   1.933  0.0607  0.0462 -0.3584
 5789TIP3    H138926   2.549   2.474   1.961  0.1329 -0.6602 -0.8786
 5789TIP3    H238927   2.413   2.514   2.012  0.1986 -2.2074  0.6084
 5790TIP3   OH238928   4.701   0.432   0.169 -0.1511 -0.0730 -0.5404
 5790TIP3    H138929   4.665   0.404   0.253 -0.9904  0.9784 -0.5249
 5790TIP3    H238930   4.699   0.354   0.114  0.7474 -0.8735  0.5058
 5791TIP3   OH238931   2.783   4.474   9.518 -0.5178  0.0900  0.2577
 5791TIP3    H138932   2.712   4.530   9.550 -0.0476  1.3582 -0.8179
 5791TIP3    H238933   2.788   4.403   9.582 -0.3612  1.8793  2.3442
 5792TIP3   OH238934   5.022   2.839   7.654 -0.7190 -0.1268  0.9490
 5792TIP3    H138935   5.057   2.861   7.741 -0.6927  0.2511  0.8445
 5792TIP3    H238936   5.095   2.856   7.594 -0.3646 -1.4691  0.9666
 5793TIP3   OH238937   5.931   0.568   2.222 -0.4043  0.4246  0.0216
 5793TIP3    H138938   5.932   0.486   2.173  0.5591  0.2046  0.3812
 5793TIP3    H238939   6.018   0.605   2.207 -0.3402  0.6896  1.0037
 5794TIP3   OH238940   5.389   2.788   9.132 -0.4804 -0.2701  0.0253
 5794TIP3    H138941   5.485   2.783   9.126 -0.2729  2.7254 -0.5095
 5794TIP3    H238942   5.365   2.711   9.184  2.0677 -1.7659 -0.7910
 5795TIP3   OH238943   3.328   5.706   2.528  0.0891 -0.2223 -0.1986
 5795TIP3    H138944   3.300   5.636   2.588 -0.4372 -0.7179 -1.0037
 5795TIP3    H238945   3.303   5.787   2.572 -0.1103 -0.5727  0.3456
 5796TIP3   OH238946   4.907   0.347   1.994  0.3874  0.5093  0.0650
 5796TIP3    H138947   4.899   0.329   2.088  0.4873 -0.8980 -0.1757
 5796TIP3    H238948   4.851   0.423   1.979 -0.1733  0.3261  1.1409
 5797TIP3   OH238949   5.448   4.820   8.385  0.1260  0.6919 -0.7420
 5797TIP3    H138950   5.407   4.754   8.330 -0.4871  1.3682 -1.1147
 5797TIP3    H238951   5.541   4.817   8.363  0.5469 -1.7288  1.0009
 5798TIP3   OH238952   1.850   6.371   1.794  0.0850  0.1190  0.5106
 5798TIP3    H138953   1.763   6.412   1.794 -1.6372 -3.1658  1.5236
 5798TIP3    H238954   1.880   6.381   1.885  1.4118  2.2746 -0.0953
 5799TIP3   OH238955   2.544   4.540   0.681 -0.3655 -0.8532 -0.6737
 5799TIP3    H138956   2.450   4.538   0.699 -0.3420 -1.1431 -0.5878
 5799TIP3    H238957   2.554   4.487   0.602  0.1099 -3.4484  1.0180
 5800TIP3   OH238958   1.685   5.945   8.745  0.2634  0.1468 -0.4839
 5800TIP3    H138959   1.707   5.910   8.832  1.1696 -0.3750 -0.9038
 5800TIP3    H238960   1.705   6.038   8.750  1.0665 -0.0241 -0.3545
 5801TIP3   OH238961   0.521   5.002   1.460  0.3351  0.2979  0.3223
 5801TIP3    H138962   0.596   5.061   1.468 -0.7396  2.0513 -1.4284
 5801TIP3    H238963   0.559   4.917   1.438  1.8548  1.4661 -2.0256
 5802TIP3   OH238964   6.207   0.751   7.262  0.0527 -0.3307 -0.1608
 5802TIP3    H138965   6.292   0.753   7.219 -0.0901 -0.1833 -0.4358
 5802TIP3    H238966   6.146   0.720   7.195 -0.3139  0.6988 -0.3166
 5803TIP3   OH238967   4.454   1.585   0.233 -0.3116 -0.2261 -0.7641
 5803TIP3    H138968   4.381   1.588   0.295  0.1216  0.3253 -0.2641
 5803TIP3    H238969   4.413   1.597   0.147 -0.8212  0.0051 -0.4941
 5804TIP3   OH238970   2.897   4.527   7.897  0.3594 -0.3913 -0.1825
 5804TIP3    H138971   2.849   4.610   7.892 -0.3188 -0.7899 -0.3052
 5804TIP3    H238972   2.830   4.460   7.906  0.9710 -0.8032  1.8207
 5805TIP3   OH238973   2.581   3.866   8.288  0.2402  0.5988 -0.0919
 5805TIP3    H138974   2.577   3.776   8.320  0.2172  1.1100  1.4297
 5805TIP3    H238975   2.643   3.863   8.215  0.2577 -0.6431 -0.0486
 5806TIP3   OH238976   4.666   3.087   1.066 -0.1278 -0.4684 -0.5264
 5806TIP3    H138977   4.762   3.082   1.069 -0.0439  1.1376  1.1233
 5806TIP3    H238978   4.637   3.033   1.140 -0.4769 -0.3150 -0.5500
 5807TIP3   OH238979   2.166   2.912   2.321 -0.3055 -0.6348  0.3163
 5807TIP3    H138980   2.173   2.929   2.415 -4.1872  2.5639  0.2921
 5807TIP3    H238981   2.085   2.862   2.311  0.7297 -2.1272 -1.3314
 5808TIP3   OH238982   3.262   1.675   1.446  0.1457  0.1360 -0.5637
 5808TIP3    H138983   3.233   1.614   1.514  3.1760 -1.4529 -0.5446
 5808TIP3    H238984   3.194   1.670   1.379 -0.3946 -2.2532  0.0717
 5809TIP3   OH238985   4.941   5.236   1.493 -0.2763  0.5911 -0.3554
 5809TIP3    H138986   4.995   5.215   1.569  0.2019 -0.9153 -1.0701
 5809TIP3    H238987   4.860   5.186   1.506  0.2520 -0.5770 -1.3327
 5810TIP3   OH238988   0.582   3.049   0.858 -0.4155  0.6723 -0.3571
 5810TIP3    H138989   0.634   3.111   0.808 -1.7642  1.4056 -0.8669
 5810TIP3    H238990   0.523   3.009   0.795 -0.3311 -0.3406  0.1695
 5811TIP3   OH238991   6.399   2.256   9.190  0.8235  0.1217 -0.4683
 5811TIP3    H138992   6.321   2.280   9.140  0.3140  0.8259  0.6354
 5811TIP3    H238993   6.394   2.309   9.269  1.8686 -0.6230  0.1162
 5812TIP3   OH238994   3.965   5.579   1.454 -0.2630 -0.3836 -0.4623
 5812TIP3    H138995   4.012   5.512   1.502 -0.3330 -0.4419 -0.4749
 5812TIP3    H238996   4.033   5.636   1.418 -0.2323  0.9942  1.5791
 5813TIP3   OH238997   5.254   4.734   0.308 -0.0045 -0.4194  0.2951
 5813TIP3    H138998   5.336   4.780   0.328  0.3493 -1.2376  0.7744
 5813TIP3    H238999   5.271   4.691   0.224 -0.6890  1.1339 -0.6658
 5814TIP3   OH239000   1.544   0.260   7.817 -0.1950 -0.6555  0.0071
 5814TIP3    H139001   1.607   0.253   7.888 -1.0236 -1.1821  0.7170
 5814TIP3    H239002   1.550   0.176   7.771 -1.6509 -1.4433  1.1956
 5815TIP3   OH239003   3.113   0.252   7.634 -0.2898  0.8817 -0.2261
 5815TIP3    H139004   3.179   0.234   7.567  0.6007  1.2864  0.5165
 5815TIP3    H239005   3.155   0.315   7.692 -0.7310 -0.1042  1.2039
 5816TIP3   OH239006   2.665   3.105   7.694  0.3720 -0.6615 -0.1918
 5816TIP3    H139007   2.726   3.050   7.644 -0.0597 -0.4705 -0.9516
 5816TIP3    H239008   2.613   3.042   7.744  2.0025 -0.7676  1.4612
 5817TIP3   OH239009   3.677   1.176   9.074 -0.4763  0.0470  0.0532
 5817TIP3    H139010   3.627   1.164   9.155 -0.8881  0.8427 -0.0725
 5817TIP3    H239011   3.762   1.136   9.092 -0.9782 -0.8835  0.4466
 5818TIP3   OH239012   2.398   0.625   9.586 -0.3579 -0.3761  0.2151
 5818TIP3    H139013   2.306   0.653   9.585 -0.2096  0.1102 -0.9492
 5818TIP3    H239014   2.407   0.576   9.668 -1.6667 -0.4726  0.3237
 5819TIP3   OH239015   3.497   1.792   8.781  0.6668 -0.0378 -0.2166
 5819TIP3    H139016   3.435   1.856   8.816  0.8589 -0.6994  1.4054
 5819TIP3    H239017   3.570   1.844   8.748  0.8729  0.5863  1.1891
 5820TIP3   OH239018   4.585   4.692   8.069 -0.6485 -0.7383  0.1425
 5820TIP3    H139019   4.525   4.624   8.101 -2.3971  0.7358  0.1951
 5820TIP3    H239020   4.552   4.714   7.982  0.7038 -0.8540 -0.4156
 5821TIP3   OH239021   5.715   1.316   8.464  0.1571 -0.4658 -0.0951
 5821TIP3    H139022   5.733   1.227   8.494 -2.8995 -0.6549  1.5839
 5821TIP3    H239023   5.698   1.306   8.370  1.7039 -1.2797 -0.3268
 5822TIP3   OH239024   2.236   2.574   1.800 -0.2532 -0.5728 -0.0059
 5822TIP3    H139025   2.235   2.668   1.816 -1.6458 -0.8070  1.5917
 5822TIP3    H239026   2.296   2.539   1.866  0.0894 -0.8334 -0.4500
 5823TIP3   OH239027   1.431   5.793   9.339  0.3853 -0.0883 -0.1559
 5823TIP3    H139028   1.526   5.804   9.344  0.3519  0.2349 -0.2044
 5823TIP3    H239029   1.395   5.871   9.380  0.1396  1.3218 -2.8556
 5824TIP3   OH239030   4.564   1.517   1.934 -0.1944  0.0351 -0.0859
 5824TIP3    H139031   4.510   1.561   2.000  1.6744  3.7679 -0.7910
 5824TIP3    H239032   4.601   1.442   1.980 -1.9867  0.2645  1.8945
 5825TIP3   OH239033   5.771   0.121   0.693  0.3702  0.3332  0.1208
 5825TIP3    H139034   5.847   0.177   0.676 -0.9504  1.4262 -2.8687
 5825TIP3    H239035   5.695   0.176   0.671 -1.1836 -1.4569  0.7395
 5826TIP3   OH239036   4.919   5.239   9.321  0.1461  0.1412 -0.0339
 5826TIP3    H139037   4.866   5.175   9.368 -1.5444  0.9269 -0.7704
 5826TIP3    H239038   4.903   5.322   9.366 -0.3346  0.6342 -1.0833
 5827TIP3   OH239039   0.676   2.107   9.393 -0.4927  0.0707 -0.1472
 5827TIP3    H139040   0.661   2.191   9.436  0.3655  0.0894  0.1314
 5827TIP3    H239041   0.605   2.100   9.329 -0.5389  1.0325 -0.2190
 5828TIP3   OH239042   3.041   3.729   8.108 -0.5772  0.0933 -0.2078
 5828TIP3    H139043   3.113   3.671   8.134 -0.1439  0.5479 -0.3971
 5828TIP3    H239044   2.979   3.671   8.064  0.1974 -0.1124 -1.0706
 5829TIP3   OH239045   1.983   4.314   9.510 -0.1478  0.3868  0.1274
 5829TIP3    H139046   2.073   4.340   9.491 -0.6199  0.4838 -2.2261
 5829TIP3    H239047   1.932   4.394   9.497 -0.5501  0.5500  2.2481
 5830TIP3   OH239048   2.836   5.708   9.273  0.1084 -0.4570 -0.3813
 5830TIP3    H139049   2.908   5.751   9.227 -0.3739  0.1824 -0.5511
 5830TIP3    H239050   2.829   5.622   9.232  1.4711 -0.9570  0.3555
 5831TIP3   OH239051   2.039   1.371   0.039 -0.1535 -0.6032  0.1751
 5831TIP3    H139052   1.998   1.369   0.125  1.0943 -1.5051  0.7714
 5831TIP3    H239053   1.969   1.398  -0.020 -0.9050  0.5421  1.5296
 5832TIP3   OH239054   1.168   1.449   0.256  0.2783 -0.4526  0.0866
 5832TIP3    H139055   1.262   1.453   0.239  0.2280  1.9879  0.0629
 5832TIP3    H239056   1.149   1.529   0.305 -1.8995 -0.5835 -0.4426
 5833TIP3   OH239057   3.867   1.214   7.813 -0.3314 -0.0880 -0.2186
 5833TIP3    H139058   3.856   1.133   7.863 -2.7743  1.0653  1.3002
 5833TIP3    H239059   3.793   1.215   7.753  1.1702 -0.1997 -2.1433
 5834TIP3   OH239060   0.333   3.311   1.485  0.0693 -0.4110  0.3730
 5834TIP3    H139061   0.254   3.357   1.456  0.4958  1.0530  1.4038
 5834TIP3    H239062   0.404   3.353   1.436  0.5399  0.5541  1.8222
 5835TIP3   OH239063   4.586   6.013   8.058 -0.3337 -0.3218 -0.6942
 5835TIP3    H139064   4.569   6.082   8.122 -3.7993 -0.1332 -1.6295
 5835TIP3    H239065   4.606   6.060   7.977 -1.2237 -0.4137 -0.9762
 5836TIP3   OH239066   2.236   1.012   9.461  0.0211  0.2334  0.2046
 5836TIP3    H139067   2.317   1.063   9.464 -0.9126  1.7889  0.1596
 5836TIP3    H239068   2.192   1.041   9.382 -0.8897 -0.0903  0.5778
 5837TIP3   OH239069   5.040   0.930   8.497  0.5506 -0.0464 -0.4510
 5837TIP3    H139070   5.052   0.846   8.541  0.8771  0.8927  1.3532
 5837TIP3    H239071   5.106   0.932   8.428 -0.7296 -2.0482 -1.8459
 5838TIP3   OH239072   4.181   6.102   0.191  0.4967 -0.7780  0.1515
 5838TIP3    H139073   4.103   6.062   0.230 -0.4212  0.9370  0.1739
 5838TIP3    H239074   4.153   6.190   0.166  2.3251 -0.2631 -0.2501
 5839TIP3   OH239075   4.903   0.220   0.321 -0.2524 -0.1375 -0.3688
 5839TIP3    H139076   4.877   0.309   0.345 -1.1866  0.1456 -2.2496
 5839TIP3    H239077   4.938   0.229   0.233  2.3081 -1.2285  0.4599
 5840TIP3   OH239078   1.286   4.999   1.765 -0.4907  0.1105 -0.3493
 5840TIP3    H139079   1.321   4.981   1.677  1.8660  1.7231  0.1818
 5840TIP3    H239080   1.214   4.936   1.775  0.8826 -1.9382 -2.3758
 5841TIP3   OH239081   2.593   3.645   7.246 -0.4838  0.7398  0.0714
 5841TIP3    H139082   2.624   3.674   7.160 -0.9819  2.3405  0.4029
 5841TIP3    H239083   2.541   3.566   7.227 -0.0139  0.6668 -1.0043
 5842TIP3   OH239084   6.115   5.565   8.342  0.3406 -0.4094 -0.1236
 5842TIP3    H139085   6.085   5.655   8.328  0.3944 -0.5765 -1.3905
 5842TIP3    H239086   6.183   5.552   8.276  0.4868 -1.3184  0.1942
 5843TIP3   OH239087   2.821   2.117   9.202 -0.7162  0.5342  0.4022
 5843TIP3    H139088   2.750   2.095   9.142 -0.2097  1.2874 -0.4920
 5843TIP3    H239089   2.899   2.118   9.147 -0.5888  4.0459  0.4178
 5844TIP3   OH239090   1.687   3.849   1.605  0.0381  0.3354  0.9021
 5844TIP3    H139091   1.764   3.821   1.655  0.7287 -0.0694 -0.3477
 5844TIP3    H239092   1.614   3.803   1.646  0.9985 -2.6496 -0.4693
 5845TIP3   OH239093   3.211   2.726   8.766 -0.2585  0.3169 -0.6681
 5845TIP3    H139094   3.139   2.678   8.807  0.0964  0.2354 -0.1311
 5845TIP3    H239095   3.189   2.726   8.673 -0.9037  0.2127 -0.5251
 5846TIP3   OH239096   1.713   0.921   1.670 -0.1095 -0.2638  0.5350
 5846TIP3    H139097   1.743   0.898   1.581 -0.5202 -0.7264  0.5096
 5846TIP3    H239098   1.707   1.016   1.669  0.6305 -0.2125  0.3072
 5847TIP3   OH239099   4.088   3.969   8.197 -0.1535 -0.4946 -0.2095
 5847TIP3    H139100   4.042   3.988   8.116 -0.7032  0.5982  0.3418
 5847TIP3    H239101   4.100   4.054   8.239 -1.4076 -1.1809  1.6693
 5848TIP3   OH239102   4.813   3.518   9.425 -0.8861 -0.4304 -0.4691
 5848TIP3    H139103   4.720   3.499   9.414 -0.7075 -1.1733 -0.7433
 5848TIP3    H239104   4.819   3.568   9.506 -1.2748 -2.2852  0.7420
 5849TIP3   OH239105   2.365   0.753   8.581  0.2482  0.5138  0.2128
 5849TIP3    H139106   2.293   0.697   8.609 -0.6102  1.7516  0.5155
 5849TIP3    H239107   2.342   0.780   8.492  1.5021 -0.9606 -0.6101
 5850TIP3   OH239108   5.510   2.983   0.137 -0.3592 -0.2585  0.1125
 5850TIP3    H139109   5.566   2.932   0.078  0.5697  0.7335  0.1009
 5850TIP3    H239110   5.421   2.970   0.103  0.2003  0.8375 -1.9567
 5851TIP3   OH239111   4.987   2.062   7.946  0.2100 -0.7329 -0.5018
 5851TIP3    H139112   4.997   2.094   7.856 -1.4093 -1.1646 -0.8648
 5851TIP3    H239113   5.002   2.139   8.001 -1.8878  0.3137 -1.2874
 5852TIP3   OH239114   3.387   3.342   7.469  0.3978  0.6079 -0.1742
 5852TIP3    H139115   3.440   3.284   7.414  1.3421  0.8149  0.4771
 5852TIP3    H239116   3.374   3.421   7.417 -1.1989 -0.2848 -1.2109
 5853TIP3   OH239117   5.593   1.465   8.712  0.4861  0.2870 -0.1442
 5853TIP3    H139118   5.661   1.531   8.724  1.6104 -0.1125 -3.3090
 5853TIP3    H239119   5.631   1.403   8.650 -2.3423 -0.6186 -1.1102
 5854TIP3   OH239120   5.117   6.104   0.690  0.3278 -0.0582 -0.3872
 5854TIP3    H139121   5.139   6.170   0.755  1.6923  0.1502 -1.0326
 5854TIP3    H239122   5.110   6.152   0.607 -0.6346 -0.4348 -0.5402
 5855TIP3   OH239123   4.569   0.041   0.382 -0.0408 -0.1376  0.0603
 5855TIP3    H139124   4.594   0.129   0.352 -0.6542  0.2051  0.5338
 5855TIP3    H239125   4.487   0.022   0.336 -0.2594 -0.1843  0.4708
 5856TIP3   OH239126   0.995   3.227   0.195 -0.3312  0.1290 -0.2887
 5856TIP3    H139127   1.089   3.215   0.182 -0.7026 -0.7311 -2.5534
 5856TIP3    H239128   0.969   3.153   0.250  0.4506  0.9870  1.3056
 5857TIP3   OH239129   4.130   2.919   8.805 -0.3417  0.5598  0.1677
 5857TIP3    H139130   4.078   2.839   8.814 -0.1669  0.6020  2.0238
 5857TIP3    H239131   4.089   2.981   8.865 -0.0210  1.6346 -0.6952
 5858TIP3   OH239132   0.057   4.658   7.331  0.4431 -0.0547 -0.6003
 5858TIP3    H139133  -0.012   4.609   7.376  1.4419 -2.5237 -1.5843
 5858TIP3    H239134   0.040   4.642   7.238  0.9956  1.2802 -0.9534
 5859TIP3   OH239135   3.626   4.514   8.314  0.1574  1.1700  0.0747
 5859TIP3    H139136   3.682   4.438   8.299 -0.0935  1.3933 -2.3138
 5859TIP3    H239137   3.570   4.489   8.387 -1.3087 -1.7905 -1.8974
 5860TIP3   OH239138   3.967   2.674   1.745 -0.1916  0.1398 -0.0638
 5860TIP3    H139139   4.061   2.692   1.748  0.0162 -0.7028 -0.8504
 5860TIP3    H239140   3.949   2.657   1.653 -0.6266 -2.0820  0.3747
 5861TIP3   OH239141   5.109   1.256   1.542  0.4483 -0.1149 -0.5112
 5861TIP3    H139142   5.068   1.190   1.598  4.4738 -0.7925  2.1078
 5861TIP3    H239143   5.155   1.205   1.475 -0.9905  0.4602 -1.9752
 5862TIP3   OH239144   3.714   3.403   8.662 -0.0945  0.0486 -0.2736
 5862TIP3    H139145   3.800   3.401   8.621  1.3778 -1.2877  2.5273
 5862TIP3    H239146   3.660   3.345   8.608  0.8112  0.6588 -1.8996
 5863TIP3   OH239147   6.143   1.014   7.910 -0.1433  0.0749 -0.5434
 5863TIP3    H139148   6.147   1.103   7.945  1.5986  0.2269 -1.0345
 5863TIP3    H239149   6.064   1.012   7.857  0.3704  1.6864 -1.4135
 5864TIP3   OH239150   2.903   4.156   8.532 -0.1315 -0.3365  0.4124
 5864TIP3    H139151   2.891   4.166   8.626  0.7025 -0.9496  0.5909
 5864TIP3    H239152   2.953   4.233   8.506  1.1741 -1.0386  0.7837
 5865TIP3   OH239153   5.887   5.329   0.993  0.0972 -0.5289  0.0529
 5865TIP3    H139154   5.929   5.248   1.023  0.9006 -0.3799 -0.6248
 5865TIP3    H239155   5.799   5.325   1.030  0.3324 -1.3989  0.5692
 5866TIP3   OH239156   1.099   5.595   2.143 -0.1084 -0.5419 -0.2066
 5866TIP3    H139157   1.061   5.632   2.222 -1.0058 -1.3822 -0.2282
 5866TIP3    H239158   1.173   5.543   2.173  0.4567  0.3140 -0.0740
 5867TIP3   OH239159   4.797   3.723   6.538 -0.3453  0.4922  0.1678
 5867TIP3    H139160   4.753   3.704   6.620 -2.2038 -1.3883 -1.1562
 5867TIP3    H239161   4.764   3.809   6.512  0.4606  1.2233  1.4541
 5868TIP3   OH239162   2.103   3.791   7.661 -0.0287  0.3997 -0.0173
 5868TIP3    H139163   2.013   3.768   7.638  0.2671  1.2987 -2.3371
 5868TIP3    H239164   2.101   3.886   7.676  0.5779  0.4654 -0.3175
 5869TIP3   OH239165   0.886   0.966   1.373  0.3071  0.3474 -0.0836
 5869TIP3    H139166   0.924   0.883   1.343 -0.1480  0.4802 -1.0917
 5869TIP3    H239167   0.960   1.026   1.377  0.5836 -0.0174  0.3079
 5870TIP3   OH239168   6.465   0.984   8.235 -0.1203 -0.0205  0.4388
 5870TIP3    H139169   6.452   0.901   8.190 -2.3850  0.6517 -0.3096
 5870TIP3    H239170   6.440   1.050   8.171 -0.3702  1.1191  1.6692
 5871TIP3   OH239171   0.263   2.658   8.154  0.2188  0.3062  0.0581
 5871TIP3    H139172   0.187   2.706   8.120 -1.3311 -1.0753  1.3995
 5871TIP3    H239173   0.229   2.610   8.230  1.8659 -2.1904 -0.6613
 5872TIP3   OH239174   4.504   1.352   1.239 -0.0107  0.0961 -0.1454
 5872TIP3    H139175   4.491   1.436   1.283 -1.0086  0.3967 -0.9606
 5872TIP3    H239176   4.562   1.302   1.297 -0.1339  1.0067  0.7799
 5873TIP3   OH239177   3.966   3.308   0.204  0.3197 -0.2797  0.1384
 5873TIP3    H139178   3.917   3.270   0.277  1.4562 -0.2827  0.9412
 5873TIP3    H239179   3.903   3.365   0.159 -0.5496 -0.6997  0.7928
 5874TIP3   OH239180   2.347   6.429   1.169  0.0278  0.2602  0.1730
 5874TIP3    H139181   2.302   6.347   1.150  1.5537 -0.0860 -2.4246
 5874TIP3    H239182   2.419   6.404   1.226  1.0997 -0.4803 -1.4152
 5875TIP3   OH239183   1.105   2.461   1.901 -0.4908 -0.2307  0.3016
 5875TIP3    H139184   1.032   2.520   1.884  0.2975  1.2315  1.7316
 5875TIP3    H239185   1.151   2.455   1.817 -1.3929  0.0400 -0.2234
 5876TIP3   OH239186   2.244   1.848   8.561  0.1692  0.5853 -0.6124
 5876TIP3    H139187   2.232   1.754   8.543  1.5560  0.3589 -0.4913
 5876TIP3    H239188   2.274   1.885   8.478 -0.9190  1.0419 -0.8106
 5877TIP3   OH239189   6.433   5.090   8.738 -0.3875 -0.2987  0.4983
 5877TIP3    H139190   6.478   5.031   8.798  0.2827  1.9729  2.3771
 5877TIP3    H239191   6.472   5.176   8.754 -0.6258  0.5894 -2.7750
 5878TIP3   OH239192   5.640   5.321   7.929  0.4211 -0.1424  0.1667
 5878TIP3    H139193   5.691   5.399   7.953 -0.4426  0.9020 -1.2139
 5878TIP3    H239194   5.577   5.312   8.001  0.4752  0.4906  0.3060
 5879TIP3   OH239195   2.003   1.741   7.848  0.3924  0.4390 -0.0555
 5879TIP3    H139196   1.998   1.689   7.767 -1.8598  1.9300 -0.9722
 5879TIP3    H239197   2.007   1.832   7.818  1.0221  0.9719  1.5376
 5880TIP3   OH239198   1.519   0.219   9.487  0.0339 -0.3506  0.0224
 5880TIP3    H139199   1.450   0.186   9.429 -0.0745 -1.6682  0.8701
 5880TIP3    H239200   1.539   0.306   9.452 -1.0278 -0.5293 -1.1202
 5881TIP3   OH239201   0.406   4.231   8.790 -0.4057  0.1174 -0.4995
 5881TIP3    H139202   0.333   4.207   8.732 -0.8795 -0.1841  0.2159
 5881TIP3    H239203   0.384   4.318   8.822 -1.2612 -0.6036  0.9606
 5882TIP3   OH239204   3.576   1.424   1.614 -0.4090 -0.0556 -0.8009
 5882TIP3    H139205   3.624   1.475   1.679 -0.8497 -0.8833  0.2102
 5882TIP3    H239206   3.573   1.480   1.537  0.3943  0.8322 -0.2101
 5883TIP3   OH239207   3.438   0.114   8.648  0.0258  0.7152  0.0396
 5883TIP3    H139208   3.387   0.151   8.720 -0.0506  1.0076 -0.1604
 5883TIP3    H239209   3.503   0.059   8.691  0.1779  1.1285  0.3537
 5884TIP3   OH239210   0.641   5.680   9.390 -0.0685  0.3222  0.1971
 5884TIP3    H139211   0.722   5.715   9.354  0.1263 -0.2296  0.0836
 5884TIP3    H239212   0.628   5.596   9.345 -0.3668  0.1107  0.6597
 5885TIP3   OH239213   2.606   5.741   1.705 -0.3283  0.6491 -0.2586
 5885TIP3    H139214   2.567   5.666   1.661 -0.0991 -0.1610  0.8780
 5885TIP3    H239215   2.700   5.735   1.685 -0.5106  1.5392 -1.4571
 5886TIP3   OH239216   0.337   4.860   1.225  0.0090 -0.0885 -0.0464
 5886TIP3    H139217   0.413   4.804   1.210  0.5976  1.2718 -2.5705
 5886TIP3    H239218   0.354   4.900   1.310  1.3042 -1.0232  0.1742
 5887TIP3   OH239219   2.698   3.679   7.003  0.4150  0.1001  0.5100
 5887TIP3    H139220   2.777   3.718   6.967  0.0063  1.4795  1.0560
 5887TIP3    H239221   2.665   3.623   6.933  1.1452  0.5512 -0.2105
 5888TIP3   OH239222   3.832   4.839   8.594  0.0266 -0.5562  0.4545
 5888TIP3    H139223   3.772   4.910   8.617  0.0606 -0.3943  0.0494
 5888TIP3    H239224   3.798   4.763   8.640 -0.2850 -0.3857  0.5090
 5889TIP3   OH239225   4.284   3.399   0.743 -0.0773  0.1267  0.3113
 5889TIP3    H139226   4.235   3.322   0.715 -0.9174  1.0470 -0.8894
 5889TIP3    H239227   4.238   3.472   0.703  0.2289  1.3427  2.0729
 5890TIP3   OH239228   2.877   0.148   8.534 -0.7657  0.0151 -0.4364
 5890TIP3    H139229   2.816   0.075   8.525 -0.3057 -0.4283 -0.0734
 5890TIP3    H239230   2.963   0.109   8.517 -0.5535  0.5600 -0.6219
 5891TIP3   OH239231   0.037   0.335   9.502  0.5598  0.2692 -0.1615
 5891TIP3    H139232  -0.042   0.348   9.448  0.3090 -0.7711 -0.0588
 5891TIP3    H239233   0.009   0.277   9.572  1.7275 -1.2369 -0.8782
 5892TIP3   OH239234   4.657   3.620   8.382  0.2376 -0.5449 -0.6324
 5892TIP3    H139235   4.698   3.535   8.398 -2.2616 -1.6233  0.6912
 5892TIP3    H239236   4.605   3.607   8.303  0.9604  0.2215 -1.2449
 5893TIP3   OH239237   2.912   0.443   2.759  0.7252  1.1309  0.1719
 5893TIP3    H139238   2.849   0.512   2.737  0.5174  1.3600  1.4335
 5893TIP3    H239239   2.868   0.389   2.824  1.2924  0.4245 -0.0172
 5894TIP3   OH239240   6.236   4.505   0.585  0.1453  0.6655  0.4834
 5894TIP3    H139241   6.227   4.427   0.640  0.0353 -0.7110 -1.3907
 5894TIP3    H239242   6.316   4.547   0.616  0.4072 -0.3994  1.2889
 5895TIP3   OH239243   4.808   1.341   0.486  0.0909 -0.0800 -0.4757
 5895TIP3    H139244   4.791   1.413   0.425  0.6794  0.2711 -0.2360
 5895TIP3    H239245   4.722   1.313   0.515 -0.1037  1.4968  0.5399
 5896TIP3   OH239246   6.293   0.574   0.272 -0.2603  0.4338 -0.0293
 5896TIP3    H139247   6.316   0.607   0.185  0.2348 -0.8905 -0.4302
 5896TIP3    H239248   6.209   0.529   0.259  0.3237 -0.6665 -0.0585
 5897TIP3   OH239249   1.901   5.995   1.917  0.0496 -0.4837  0.0828
 5897TIP3    H139250   1.924   5.978   2.008  0.0235 -1.0867 -0.0153
 5897TIP3    H239251   1.810   6.022   1.919  0.6080  1.5703  0.4402
 5898TIP3   OH239252   6.258   5.175   1.538 -0.6631 -0.3255  0.2120
 5898TIP3    H139253   6.285   5.124   1.614 -1.7460  0.3249  1.0701
 5898TIP3    H239254   6.266   5.115   1.464 -0.0504 -1.1227  0.9070
 5899TIP3   OH239255   2.381   4.941   2.515  0.2923  0.7330 -0.2251
 5899TIP3    H139256   2.323   4.888   2.461  0.5564 -0.8349  0.9610
 5899TIP3    H239257   2.466   4.898   2.511  0.5160  1.0346  0.7826
 5900TIP3   OH239258   2.369   3.537   8.565  0.2190  0.3347  0.1298
 5900TIP3    H139259   2.303   3.604   8.548  0.1723  0.3848  0.4940
 5900TIP3    H239260   2.430   3.545   8.492 -0.7295 -0.4142 -0.7827
 5901TIP3   OH239261   3.783   4.063   8.391  0.1704 -0.0201  0.1656
 5901TIP3    H139262   3.738   4.073   8.474  3.5403 -0.2839  2.2149
 5901TIP3    H239263   3.828   3.979   8.397  2.0231  0.8084 -1.0790
 5902TIP3   OH239264   6.428   3.267   7.423 -0.0034 -0.4136  0.5780
 5902TIP3    H139265   6.501   3.322   7.450 -1.1861  1.7578 -0.3671
 5902TIP3    H239266   6.399   3.304   7.340 -1.9625 -1.3955  0.7483
 5903TIP3   OH239267   4.448   4.715   6.853  0.3383 -0.5575 -0.3082
 5903TIP3    H139268   4.514   4.777   6.882  0.1446 -0.1782 -0.6611
 5903TIP3    H239269   4.466   4.702   6.759 -0.4543  0.0194 -0.5491
 5904TIP3   OH239270   6.291   4.499   6.820  0.0102  0.1206  0.0910
 5904TIP3    H139271   6.221   4.546   6.865 -1.0619 -0.8353 -0.5280
 5904TIP3    H239272   6.266   4.407   6.826  1.5664 -0.3227  0.4340
 5905TIP3   OH239273   0.259   0.503   7.269  0.5313 -0.1572  0.3803
 5905TIP3    H139274   0.310   0.432   7.309  1.7213  0.0938 -0.6356
 5905TIP3    H239275   0.323   0.573   7.253 -0.5953  1.1087  1.2309
 5906TIP3   OH239276   1.706   0.712   7.796  0.2271  0.4373 -0.3012
 5906TIP3    H139277   1.718   0.628   7.840  0.5673  0.3491 -0.5605
 5906TIP3    H239278   1.646   0.761   7.853 -1.9504 -0.9019 -1.3480
 5907TIP3   OH239279   3.451   2.473   7.244  0.0223  0.2877 -0.4145
 5907TIP3    H139280   3.544   2.478   7.269  0.1399  1.3165 -1.0024
 5907TIP3    H239281   3.415   2.404   7.300  0.7269  1.1244  1.1371
 5908TIP3   OH239282   2.390   1.421   2.156 -0.2621 -0.4532 -0.5613
 5908TIP3    H139283   2.396   1.465   2.071  1.2676 -1.2205 -0.8929
 5908TIP3    H239284   2.430   1.482   2.218 -0.7239 -0.1947 -0.5157
 5909TIP3   OH239285   0.996   6.456   1.451 -0.1973  0.1239  0.0866
 5909TIP3    H139286   1.030   6.542   1.476 -0.3087 -0.3301  1.9208
 5909TIP3    H239287   1.069   6.412   1.409 -0.1850  1.1584 -1.0297
 5910TIP3   OH239288   0.283   1.613   8.987  1.1343  0.2290  0.0131
 5910TIP3    H139289   0.335   1.542   8.949  1.9611  1.4932 -1.3321
 5910TIP3    H239290   0.197   1.604   8.946  1.4494  0.4163 -0.7093
 5911TIP3   OH239291   4.517   0.349   0.767  0.3929  0.2844  0.2696
 5911TIP3    H139292   4.489   0.427   0.815  1.3704 -1.2256  3.5620
 5911TIP3    H239293   4.613   0.358   0.761  0.6655 -1.1691  1.8096
 5912TIP3   OH239294   0.540   1.173   8.297  0.1121 -0.1666  0.2057
 5912TIP3    H139295   0.503   1.246   8.249  1.7717  0.9898  0.5927
 5912TIP3    H239296   0.563   1.209   8.382  0.0865 -1.3942  0.7555
 5913TIP3   OH239297   1.498   2.891   8.746 -0.2956  0.0088 -0.2157
 5913TIP3    H139298   1.451   2.936   8.816 -2.7933  1.0430 -2.3909
 5913TIP3    H239299   1.567   2.951   8.721 -0.8477  0.6858 -0.1483
 5914TIP3   OH239300   3.702   1.070   2.110  0.1792  0.0977  0.2909
 5914TIP3    H139301   3.786   1.117   2.117  1.4254 -1.9862  0.0600
 5914TIP3    H239302   3.638   1.129   2.151  1.5863  2.1126 -0.2600
 5915TIP3   OH239303   3.002   5.441   8.546  0.5124 -0.4970 -0.2906
 5915TIP3    H139304   2.947   5.412   8.619  1.1003 -0.4672  0.1724
 5915TIP3    H239305   2.942   5.491   8.490 -0.2402 -1.6192 -0.5106
 5916TIP3   OH239306   4.608   3.216   7.646 -0.3351  0.1712  0.2974
 5916TIP3    H139307   4.589   3.124   7.666 -1.2313  0.2525 -0.1496
 5916TIP3    H239308   4.669   3.212   7.573  0.0510 -0.0685  0.6258
 5917TIP3   OH239309   0.315   0.644   1.374 -0.4803  0.6674 -0.0036
 5917TIP3    H139310   0.295   0.556   1.407  0.2575  1.0898  1.7154
 5917TIP3    H239311   0.387   0.630   1.312  0.8749  0.1813  1.5952
 5918TIP3   OH239312   2.393   2.424   8.894  0.7906 -0.5320 -0.4003
 5918TIP3    H139313   2.348   2.504   8.920 -0.4543 -1.2075 -0.3752
 5918TIP3    H239314   2.425   2.442   8.806 -1.5287 -0.7574 -1.3620
 5919TIP3   OH239315   1.471   2.208   1.168  0.4230 -0.1721 -0.0255
 5919TIP3    H139316   1.536   2.142   1.189 -0.6789 -1.0839  0.6368
 5919TIP3    H239317   1.444   2.244   1.252  1.1611  1.3106 -0.3866
 5920TIP3   OH239318   2.200   2.664   9.421  0.0040 -0.6923  0.2430
 5920TIP3    H139319   2.115   2.632   9.450  0.1656  0.5295  2.2541
 5920TIP3    H239320   2.180   2.738   9.363 -0.2986 -0.8622  0.1282
 5921TIP3   OH239321   4.359   0.401   7.937 -0.3676 -0.4859  0.6096
 5921TIP3    H139322   4.311   0.480   7.912  1.7404 -0.0270 -2.5891
 5921TIP3    H239323   4.312   0.330   7.892  0.1696 -0.4283 -0.0645
 5922TIP3   OH239324   4.605   2.295   0.170  0.5249 -0.2380 -0.0080
 5922TIP3    H139325   4.662   2.218   0.165 -0.0921 -0.6141 -2.4218
 5922TIP3    H239326   4.656   2.366   0.131  0.0035 -0.1803 -0.6157
 5923TIP3   OH239327   5.303   3.164   8.426  0.0928 -0.2691 -0.4657
 5923TIP3    H139328   5.391   3.192   8.402 -0.0081  1.1837  0.7242
 5923TIP3    H239329   5.266   3.128   8.345  2.0565 -1.7717 -0.7721
 5924TIP3   OH239330   0.978   6.413   7.663  0.5933 -0.3612 -0.2177
 5924TIP3    H139331   1.034   6.350   7.619  0.6067 -0.7641  0.3616
 5924TIP3    H239332   1.039   6.473   7.706  0.6086 -0.9835  0.6761
 5925TIP3   OH239333   1.091   4.336   9.063 -0.1446  0.1135 -0.2726
 5925TIP3    H139334   1.002   4.350   9.031 -0.9452 -1.4391  1.1221
 5925TIP3    H239335   1.137   4.417   9.042 -1.6434  0.6306 -1.7800
 5926TIP3   OH239336   0.442   5.921   2.568  0.7109  0.5961  0.7243
 5926TIP3    H139337   0.430   6.009   2.533  1.2406 -0.3408 -2.1213
 5926TIP3    H239338   0.458   5.934   2.661  1.8022  3.5915  0.2396
 5927TIP3   OH239339   4.759   1.560   0.360  0.2003  0.2308  0.1956
 5927TIP3    H139340   4.806   1.605   0.430 -1.0287  0.8669  0.6574
 5927TIP3    H239341   4.684   1.617   0.341 -1.0589 -1.2840  0.3487
 5928TIP3   OH239342   2.029   4.163   2.864  0.4024 -0.1502 -0.2224
 5928TIP3    H139343   1.942   4.134   2.893  0.1002  0.6716 -0.2734
 5928TIP3    H239344   2.066   4.088   2.818 -0.1377 -0.6257  0.1103
 5929TIP3   OH239345   0.755   4.601   0.590  0.4395  0.1022 -0.3668
 5929TIP3    H139346   0.849   4.600   0.573  0.5387  0.3768  0.1540
 5929TIP3    H239347   0.716   4.560   0.512  1.2427 -3.5332  0.9475
 5930TIP3   OH239348   5.891   1.486   8.033 -0.8016 -0.0255  0.0208
 5930TIP3    H139349   5.832   1.560   8.021 -0.1311  0.9909  2.4886
 5930TIP3    H239350   5.961   1.500   7.968 -0.1106  2.1635  1.1444
 5931TIP3   OH239351   5.154   5.721   8.960  0.4883 -0.5308 -0.0190
 5931TIP3    H139352   5.248   5.722   8.939  0.4267 -2.5052 -0.6393
 5931TIP3    H239353   5.111   5.718   8.875 -0.0395 -1.6617  0.2692
 5932TIP3   OH239354   2.288   3.692   7.485 -0.0567 -0.2119 -0.3240
 5932TIP3    H139355   2.231   3.710   7.559 -1.6072 -2.1391 -0.9637
 5932TIP3    H239356   2.362   3.752   7.496 -1.6557  1.6130  1.1306
 5933TIP3   OH239357   0.762   3.922   1.608 -0.1325 -0.3840  0.4461
 5933TIP3    H139358   0.672   3.892   1.622  0.1017 -2.5065 -1.8604
 5933TIP3    H239359   0.758   3.972   1.527  0.7920 -0.7286  0.1751
 5934TIP3   OH239360   4.699   3.838   2.096 -0.2835 -0.3811  0.1565
 5934TIP3    H139361   4.650   3.795   2.166 -4.0207  1.0038 -1.3217
 5934TIP3    H239362   4.741   3.766   2.049 -0.5969 -1.6690  1.7487
 5935TIP3   OH239363   2.882   1.850   9.359 -0.3904  0.0191  0.1736
 5935TIP3    H139364   2.927   1.787   9.303  1.7380  0.3532  1.3916
 5935TIP3    H239365   2.892   1.934   9.315 -0.7214 -0.0557 -0.0477
 5936TIP3   OH239366   5.624   4.904   1.788 -0.4860 -0.0254  0.2020
 5936TIP3    H139367   5.621   4.996   1.814  1.4741  0.2336 -0.3572
 5936TIP3    H239368   5.566   4.859   1.849 -2.0882  1.6691  0.0116
 5937TIP3   OH239369   4.227   3.971   8.853 -0.1422  0.1389 -0.0476
 5937TIP3    H139370   4.186   4.056   8.874 -3.2017 -1.3126  0.4263
 5937TIP3    H239371   4.230   3.925   8.937  3.6998  0.4797  0.1843
 5938TIP3   OH239372   4.851   1.165   8.832  0.1463  0.5791  0.2499
 5938TIP3    H139373   4.784   1.163   8.900  0.2665  2.0074  0.4360
 5938TIP3    H239374   4.821   1.233   8.771  0.3461 -0.2604 -0.8084
 5939TIP3   OH239375   6.500   1.458   9.161 -0.4309  0.2840  0.5348
 5939TIP3    H139376   6.529   1.398   9.092 -2.0139  0.1438 -0.0491
 5939TIP3    H239377   6.531   1.418   9.242  1.4442  0.4306 -0.0481
 5940TIP3   OH239378   0.665   6.209   7.435  0.1681 -0.1155 -0.0881
 5940TIP3    H139379   0.748   6.240   7.401  0.0590 -0.1324 -0.3711
 5940TIP3    H239380   0.604   6.218   7.362 -0.3367  0.9589  0.4373
 5941TIP3   OH239381   0.876   4.371   2.296  0.6304  0.2128 -0.0230
 5941TIP3    H139382   0.918   4.332   2.373  0.6995 -0.3235 -0.3243
 5941TIP3    H239383   0.784   4.349   2.306  0.2557  2.0911  1.0579
 5942TIP3   OH239384   4.862   4.235   0.218  0.5947 -0.0104 -0.8879
 5942TIP3    H139385   4.924   4.259   0.287  1.8431  1.4128 -2.4135
 5942TIP3    H239386   4.814   4.315   0.200  0.1663 -0.4069 -1.5500
 5943TIP3   OH239387   1.650   0.961   1.029  0.0174  0.2587 -0.1718
 5943TIP3    H139388   1.727   0.907   1.047 -0.8785 -0.8220  0.5794
 5943TIP3    H239389   1.680   1.025   0.964  1.1771 -1.0473 -0.9873
 5944TIP3   OH239390   0.742   2.502   0.568  0.7055  0.1004  0.6591
 5944TIP3    H139391   0.751   2.508   0.663  0.1948 -1.0160  0.7999
 5944TIP3    H239392   0.774   2.414   0.547 -0.5794 -0.2342 -0.0017
 5945TIP3   OH239393   4.581   1.100   8.622 -0.4493  0.2848  0.1141
 5945TIP3    H139394   4.602   1.191   8.644  0.2060  0.5620 -1.5198
 5945TIP3    H239395   4.625   1.085   8.538  0.7291 -2.0102  1.0653
 5946TIP3   OH239396   0.612   1.965   8.836  0.3355 -0.0634 -0.2416
 5946TIP3    H139397   0.630   1.958   8.743  1.4091  1.1883 -0.1386
 5946TIP3    H239398   0.636   2.054   8.860 -0.9064 -0.0219  1.0329
 5947TIP3   OH239399   3.592   3.003   7.674  0.4172  0.5377  0.1823
 5947TIP3    H139400   3.677   3.045   7.659  0.4551  0.7058  0.8383
 5947TIP3    H239401   3.555   2.993   7.587  1.7464 -0.8875 -0.2720
 5948TIP3   OH239402   5.551   6.449   2.342  0.0173  0.2324  0.2750
 5948TIP3    H139403   5.559   6.355   2.326 -0.0226  0.4015 -0.8052
 5948TIP3    H239404   5.640   6.478   2.364 -0.0705 -0.1407  1.1894
 5949TIP3   OH239405   2.750   2.735   7.165 -0.5940 -0.0641 -0.2617
 5949TIP3    H139406   2.684   2.707   7.228 -0.1919  0.5527  0.4545
 5949TIP3    H239407   2.776   2.655   7.120 -2.9021 -0.1118 -1.6511
 5950TIP3   OH239408   0.218   6.102   0.010  0.1542  0.0212  0.2844
 5950TIP3    H139409   0.190   6.188   0.042  1.2022  0.4651  0.0341
 5950TIP3    H239410   0.157   6.081  -0.060 -1.5272 -0.4832  1.8352
 5951TIP3   OH239411   0.473   1.567   7.171  0.1042  0.3350 -0.4959
 5951TIP3    H139412   0.564   1.592   7.158  0.5074 -0.3855  0.7862
 5951TIP3    H239413   0.475   1.502   7.241 -1.4142  0.4317 -0.3178
 5952TIP3   OH239414   1.516   2.665   1.218  0.2400  0.2038 -0.4489
 5952TIP3    H139415   1.521   2.690   1.126 -0.6621  0.3556 -0.4635
 5952TIP3    H239416   1.545   2.743   1.266  0.8428  0.0797 -0.5930
 5953TIP3   OH239417   4.811   3.949   0.662 -0.4523  0.3023  0.1478
 5953TIP3    H139418   4.731   3.943   0.714 -0.2727 -2.7715  0.2604
 5953TIP3    H239419   4.787   4.005   0.588 -2.4807  0.0851  0.5750
 5954TIP3   OH239420   2.207   3.321   0.990  0.2563 -0.1901  0.5636
 5954TIP3    H139421   2.192   3.287   1.078  0.2400 -0.0987  0.5966
 5954TIP3    H239422   2.137   3.284   0.937  0.7253 -0.8796  0.4188
 5955TIP3   OH239423   0.671   2.663   7.581  0.2625 -0.4050 -0.2960
 5955TIP3    H139424   0.627   2.737   7.624  0.6123 -0.0754 -0.5067
 5955TIP3    H239425   0.764   2.685   7.583  0.3452 -0.7127 -0.5996
 5956TIP3   OH239426   0.444   4.318   7.039  0.3327  0.5359 -0.7353
 5956TIP3    H139427   0.480   4.264   6.969 -3.2169 -0.0657 -2.2964
 5956TIP3    H239428   0.500   4.299   7.114 -0.4352 -5.3076 -1.1379
 5957TIP3   OH239429   5.452   4.644   9.120  0.5166 -0.0703 -0.3805
 5957TIP3    H139430   5.484   4.730   9.094  0.4810 -0.4771 -1.8581
 5957TIP3    H239431   5.448   4.594   9.039 -3.5728 -0.1579 -0.3270
 5958TIP3   OH239432   1.664   4.611   0.635  0.4157  0.1705  0.2276
 5958TIP3    H139433   1.659   4.516   0.641  0.2928  0.0580 -1.2590
 5958TIP3    H239434   1.723   4.637   0.706  1.6807 -1.1659 -0.3013
 5959TIP3   OH239435   4.216   3.504   9.299 -0.1213  0.4652 -0.4084
 5959TIP3    H139436   4.223   3.581   9.355  1.1786  0.4804 -0.5554
 5959TIP3    H239437   4.266   3.436   9.343  0.8419  0.4476 -1.4731
 5960TIP3   OH239438   3.018   3.636   8.877  0.1342 -0.1737  0.1485
 5960TIP3    H139439   3.088   3.641   8.812  0.5809 -2.1231  0.4355
 5960TIP3    H239440   2.986   3.726   8.884  1.3791  0.4270 -1.3230
 5961TIP3   OH239441   3.357   5.515   8.170 -0.2692 -0.6748  0.3244
 5961TIP3    H139442   3.319   5.489   8.086  0.2438 -0.0897 -0.0948
 5961TIP3    H239443   3.423   5.449   8.188  1.7485  0.8095 -1.2365
 5962TIP3   OH239444   4.985   3.937   8.840 -0.0169  0.4018  0.1054
 5962TIP3    H139445   4.988   3.842   8.851  0.8003  0.5110  0.9300
 5962TIP3    H239446   5.067   3.968   8.878 -1.4602  1.6673  2.3729
 5963TIP3   OH239447   4.412   4.094   7.178  0.4343 -0.0553 -0.4128
 5963TIP3    H139448   4.383   4.013   7.218  1.3949 -0.2004  0.0140
 5963TIP3    H239449   4.486   4.069   7.122  1.2935  0.6209  0.3790
 5964TIP3   OH239450   1.174   2.878   2.419 -0.9364  0.1779  0.2897
 5964TIP3    H139451   1.247   2.940   2.423  1.4238 -2.4383  1.1664
 5964TIP3    H239452   1.096   2.933   2.409  0.9042  3.2571  1.4883
 5965TIP3   OH239453   0.078   0.652   1.100  0.4581  0.2760 -0.2065
 5965TIP3    H139454   0.025   0.725   1.133 -0.8224  1.4816 -4.2717
 5965TIP3    H239455   0.014   0.592   1.061  1.6327 -2.2461  1.5199
 5966TIP3   OH239456   3.034   3.370   0.030 -0.4772  0.2858  0.8393
 5966TIP3    H139457   3.086   3.405  -0.041 -0.6806 -1.2582 -0.1109
 5966TIP3    H239458   2.980   3.444   0.059  1.7011  1.7460  1.4288
 5967TIP3   OH239459   0.719   1.483   8.105 -0.1617  0.0184  0.2501
 5967TIP3    H139460   0.641   1.446   8.065 -0.3603 -0.2945  0.9266
 5967TIP3    H239461   0.695   1.574   8.125 -1.3611 -0.8155  3.0548
 5968TIP3   OH239462   3.265   2.591   0.475  0.4346 -0.2674 -0.1837
 5968TIP3    H139463   3.263   2.580   0.570  2.8982  0.2400 -0.0118
 5968TIP3    H239464   3.239   2.505   0.441 -0.2350 -0.5310  0.9219
 5969TIP3   OH239465   4.659   5.270   2.306  0.1412 -0.0495  0.0314
 5969TIP3    H139466   4.676   5.347   2.360 -0.6599 -1.6793  2.8155
 5969TIP3    H239467   4.704   5.198   2.352 -0.6273 -1.5592 -1.4581
 5970TIP3   OH239468   2.129   3.310   7.598  0.0528  0.0621 -0.1212
 5970TIP3    H139469   2.188   3.352   7.535  0.1606  0.0323 -0.0401
 5970TIP3    H239470   2.161   3.338   7.683 -1.1709  1.5416 -0.1122
 5971TIP3   OH239471   4.758   5.225   1.219 -0.5225 -0.1118 -0.6780
 5971TIP3    H139472   4.792   5.174   1.145  0.2929  1.5319 -1.4912
 5971TIP3    H239473   4.720   5.303   1.179 -0.6990  0.4856  0.6022
 5972TIP3   OH239474   1.968   0.928   9.252  0.2552  0.0080  0.0371
 5972TIP3    H139475   1.880   0.958   9.275  0.0262  0.6469 -1.5481
 5972TIP3    H239476   2.014   1.006   9.223  1.3117 -0.3524  0.6780
 5973TIP3   OH239477   5.015   2.059   1.064 -0.6559  0.1568  0.3042
 5973TIP3    H139478   4.958   2.036   1.137 -0.3002 -1.7039  0.0249
 5973TIP3    H239479   5.101   2.027   1.090 -0.0995  1.2928 -0.0779
 5974TIP3   OH239480   1.649   4.450   9.309  0.1593  0.0284 -0.6422
 5974TIP3    H139481   1.709   4.413   9.243  0.4405  1.4720 -1.2353
 5974TIP3    H239482   1.705   4.470   9.383  0.5399  1.7335 -1.3387
 5975TIP3   OH239483   1.920   2.623   9.291  0.4579 -0.0799 -0.9500
 5975TIP3    H139484   1.862   2.557   9.329 -2.1126  2.5396  0.0096
 5975TIP3    H239485   1.865   2.701   9.281  3.4299  2.1027 -1.5842
 5976TIP3   OH239486   4.964   4.506   1.633  0.4015  0.1288  0.2162
 5976TIP3    H139487   4.972   4.504   1.538  0.3711 -0.3647  0.2220
 5976TIP3    H239488   4.909   4.431   1.655 -0.6933  1.0012  0.5237
 5977TIP3   OH239489   2.974   5.066   0.407 -0.5801  0.0906  0.2710
 5977TIP3    H139490   2.947   5.075   0.498 -1.5007 -0.1141  0.0291
 5977TIP3    H239491   2.968   5.155   0.371 -0.5769  0.1071  0.3114
 5978TIP3   OH239492   5.659   5.231   1.287 -0.0091 -0.4447  0.2060
 5978TIP3    H139493   5.623   5.280   1.213  0.7429  2.3971  1.5674
 5978TIP3    H239494   5.752   5.255   1.289  0.3907 -1.9609  0.9766
 5979TIP3   OH239495   1.415   3.586   1.403  0.0525  0.0906 -0.0972
 5979TIP3    H139496   1.414   3.561   1.496 -0.0574 -3.2080 -0.8571
 5979TIP3    H239497   1.325   3.573   1.374  0.2381  0.4438 -0.8426
 5980TIP3   OH239498   5.777   5.523   8.056 -0.0436  0.0497  0.6474
 5980TIP3    H139499   5.846   5.458   8.071 -0.6812 -0.7074  0.3786
 5980TIP3    H239500   5.776   5.576   8.136  2.2849  1.4632 -0.1634
 5981TIP3   OH239501   2.517   2.637   9.156  0.2367 -0.2447 -0.5368
 5981TIP3    H139502   2.611   2.624   9.170 -0.0368 -1.3736  0.4152
 5981TIP3    H239503   2.476   2.569   9.209 -1.2549  2.2587  1.6987
 5982TIP3   OH239504   1.492   3.930   8.359 -0.1022 -0.1969 -0.5174
 5982TIP3    H139505   1.430   3.999   8.383  1.2942  0.6442  0.8793
 5982TIP3    H239506   1.562   3.937   8.424  0.3019 -2.6734 -0.5868
 5983TIP3   OH239507   6.148   3.829   1.480  0.3642 -0.1010 -0.7361
 5983TIP3    H139508   6.054   3.848   1.475  0.6354  1.2478 -1.1326
 5983TIP3    H239509   6.190   3.899   1.430  1.5660 -0.9760 -1.0281
 5984TIP3   OH239510   0.608   1.821   8.115  0.0785  0.2407  0.3093
 5984TIP3    H139511   0.659   1.836   8.035 -0.7101  0.2295 -0.2020
 5984TIP3    H239512   0.611   1.905   8.160  1.9546 -0.2074  1.1317
 5985TIP3   OH239513   2.748   3.361   9.316  0.3570 -0.0870  0.0016
 5985TIP3    H139514   2.705   3.446   9.308 -0.5384 -0.6267 -1.2046
 5985TIP3    H239515   2.730   3.333   9.405  1.7533  1.5352  0.8484
 5986TIP3   OH239516   6.101   6.052   2.784 -0.2052  0.5300 -0.0344
 5986TIP3    H139517   6.189   6.015   2.776 -0.5463 -0.1771 -0.6696
 5986TIP3    H239518   6.098   6.123   2.721 -0.0140  0.6996  0.1485
 5987TIP3   OH239519   2.876   5.139   0.650 -0.2482 -0.2585 -0.3885
 5987TIP3    H139520   2.799   5.177   0.608  0.1775  0.3194 -0.6746
 5987TIP3    H239521   2.881   5.181   0.735 -0.4976 -0.6280 -0.1884
 5988TIP3   OH239522   4.302   3.917   2.581 -0.2637 -0.3865 -0.0168
 5988TIP3    H139523   4.274   3.828   2.556 -2.2479  0.1594  0.0979
 5988TIP3    H239524   4.243   3.975   2.533 -0.1027  0.8442  1.2201
 5989TIP3   OH239525   4.133   0.252   8.885  0.3041 -0.6354 -0.0248
 5989TIP3    H139526   4.083   0.188   8.936  0.3435  1.3413  2.7333
 5989TIP3    H239527   4.139   0.214   8.798 -3.4599 -2.3292  0.2582
 5990TIP3   OH239528   3.317   3.029   6.418  0.0171 -0.0092  0.1010
 5990TIP3    H139529   3.385   3.009   6.353  0.2139  1.3415 -0.1292
 5990TIP3    H239530   3.315   2.951   6.474  0.4983 -0.8143 -0.9495
 5991TIP3   OH239531   3.453   0.026   9.035  0.1927 -0.6945 -0.6782
 5991TIP3    H139532   3.481   0.109   8.996 -0.9204 -1.2641 -2.8956
 5991TIP3    H239533   3.378   0.050   9.090  1.6949  0.1089  1.1493
 5992TIP3   OH239534   6.265   0.278   2.271 -0.0289  0.4382 -0.0811
 5992TIP3    H139535   6.353   0.252   2.297 -0.5996 -2.5299 -0.8217
 5992TIP3    H239536   6.272   0.296   2.177 -0.5049 -1.5056 -0.5191
 5993TIP3   OH239537   2.344   5.561   0.945 -0.4025  0.2557 -0.1363
 5993TIP3    H139538   2.439   5.551   0.951 -0.1555  1.2777 -1.8286
 5993TIP3    H239539   2.319   5.601   1.028  0.4218 -1.2438  0.9035
 5994TIP3   OH239540   5.010   4.412   9.326 -0.2696 -0.5019  0.5034
 5994TIP3    H139541   4.932   4.446   9.282  0.7905  0.8722 -0.4158
 5994TIP3    H239542   4.976   4.358   9.397 -2.1967  3.7164  3.1763
 5995TIP3   OH239543   1.872   0.173   0.741 -0.3598  0.2409  0.5331
 5995TIP3    H139544   1.926   0.109   0.696 -1.3164 -0.5817  0.5146
 5995TIP3    H239545   1.931   0.215   0.804  0.6704  0.4836 -0.5560
 5996TIP3   OH239546   5.051   2.303   8.052  0.4145 -0.2000 -0.5821
 5996TIP3    H139547   5.002   2.359   7.992  1.8531  3.0982  1.0979
 5996TIP3    H239548   5.141   2.308   8.020  1.1856  1.4941  1.6258
 5997TIP3   OH239549   0.977   1.818   1.965  0.4007 -0.0038  0.2405
 5997TIP3    H139550   0.962   1.890   1.903  0.3438  0.6881  1.0345
 5997TIP3    H239551   1.064   1.835   2.000  1.8057 -2.1574 -1.9254
 5998TIP3   OH239552   2.454   0.861   1.521 -0.0461  0.2358 -0.4205
 5998TIP3    H139553   2.391   0.790   1.506  0.3405 -0.3044  0.4797
 5998TIP3    H239554   2.402   0.941   1.512 -0.7332 -0.1883 -0.3083
 5999TIP3   OH239555   5.197   4.944   1.762 -0.2590  0.3147  0.0217
 5999TIP3    H139556   5.186   4.948   1.857  0.6706  0.8867  0.1267
 5999TIP3    H239557   5.239   4.860   1.747 -0.5956  0.1321  0.0937
 6000TIP3   OH239558   4.221   1.665   8.265 -0.0826 -0.2065  0.8791
 6000TIP3    H139559   4.312   1.683   8.242  0.0013 -0.9863  0.5691
 6000TIP3    H239560   4.171   1.733   8.221  0.1896 -0.9405 -0.6438
 6001TIP3   OH239561   6.515   4.743   1.869 -0.3959  0.2530  0.4062
 6001TIP3    H139562   6.436   4.691   1.854 -0.3286 -0.5328  2.4063
 6001TIP3    H239563   6.582   4.700   1.814 -0.4926 -1.4778  1.5494
 6002TIP3   OH239564   4.321   0.184   1.779  0.1461  0.8140 -0.9603
 6002TIP3    H139565   4.326   0.217   1.690 -0.2283 -0.5139 -1.4927
 6002TIP3    H239566   4.409   0.152   1.798 -0.1225 -0.2117 -1.3910
 6003TIP3   OH239567   3.956   4.495   8.229  0.1796 -0.6203  0.0818
 6003TIP3    H139568   3.950   4.551   8.152  0.5492 -0.8203 -0.0974
 6003TIP3    H239569   3.898   4.421   8.209  1.3391 -1.3676 -0.6159
 6004TIP3   OH239570   3.062   3.677   9.298 -0.3647 -0.1970  0.0176
 6004TIP3    H139571   3.051   3.772   9.304 -1.0783 -0.1871 -1.0662
 6004TIP3    H239572   2.993   3.641   9.354  0.2050 -0.0813  0.8025
 6005TIP3   OH239573   4.316   5.310   0.427 -0.6937 -0.6124 -0.0705
 6005TIP3    H139574   4.251   5.374   0.457 -1.6823 -0.8166 -1.6744
 6005TIP3    H239575   4.304   5.307   0.332  0.9586 -1.4478 -0.2787
 6006TIP3   OH239576   5.753   4.765   6.751 -0.2639 -0.3248 -0.5735
 6006TIP3    H139577   5.667   4.778   6.792 -0.1396 -1.6696  0.1561
 6006TIP3    H239578   5.736   4.712   6.674 -0.3937  1.5800 -1.9366
 6007TIP3   OH239579   4.575   1.204   0.591  0.2539  0.6254 -0.1720
 6007TIP3    H139580   4.554   1.237   0.679 -0.5200 -0.3540  0.0159
 6007TIP3    H239581   4.491   1.202   0.545  0.3191 -0.8674 -0.2499
 6008TIP3   OH239582   2.694   3.703   8.621 -0.4492 -0.6989  0.0661
 6008TIP3    H139583   2.786   3.694   8.599 -0.4022 -0.2740  0.0755
 6008TIP3    H239584   2.678   3.797   8.619 -0.7337 -0.7263  0.6511
 6009TIP3   OH239585   5.289   1.403   9.434 -0.3982 -0.6915  0.5248
 6009TIP3    H139586   5.245   1.367   9.511 -0.0988 -0.6995  0.6943
 6009TIP3    H239587   5.362   1.342   9.418  0.1614 -0.1177  0.8614
 6010TIP3   OH239588   2.436   2.668   1.399 -0.1858  0.1900 -0.5631
 6010TIP3    H139589   2.419   2.718   1.479 -1.1669 -2.5999  1.1503
 6010TIP3    H239590   2.382   2.710   1.332 -1.6594  0.8949  0.9842
 6011TIP3   OH239591   6.302   0.843   2.364  0.1396 -0.2073 -0.0980
 6011TIP3    H139592   6.288   0.931   2.327  2.5210  0.5421  0.6154
 6011TIP3    H239593   6.316   0.859   2.458  1.8885 -1.1641 -0.1625
 6012TIP3   OH239594   2.333   6.178   0.306 -0.6874  0.1344  0.1017
 6012TIP3    H139595   2.428   6.171   0.322 -0.9564  1.4421  3.0378
 6012TIP3    H239596   2.326   6.220   0.220  1.3106 -1.7226 -1.0661
 6013TIP3   OH239597   0.687   2.433   8.648 -0.9900 -0.0244 -0.1083
 6013TIP3    H139598   0.626   2.390   8.589 -0.9395 -1.9650  1.1597
 6013TIP3    H239599   0.642   2.433   8.733 -1.0313  2.6050 -0.0388
 6014TIP3   OH239600   1.647   4.838   8.978 -0.1389  0.1323 -0.7367
 6014TIP3    H139601   1.657   4.931   8.998  0.5907  0.0453 -0.6659
 6014TIP3    H239602   1.561   4.815   9.013  0.1429  0.5234  0.2437
 6015TIP3   OH239603   1.366   4.836   0.098  0.5339 -0.2045 -0.4506
 6015TIP3    H139604   1.440   4.804   0.046  0.5788 -2.2962  0.7794
 6015TIP3    H239605   1.406   4.874   0.176  0.3727 -0.1521 -0.3924
 6016TIP3   OH239606   0.301   4.035   9.583 -0.0564 -0.0256  0.2027
 6016TIP3    H139607   0.262   3.959   9.627  0.3346 -1.5439 -1.8852
 6016TIP3    H239608   0.226   4.086   9.553 -0.3379 -0.1541  0.6678
 6017TIP3   OH239609   2.430   6.068   9.578  0.1385 -0.2909  0.2512
 6017TIP3    H139610   2.434   5.973   9.568  0.9211 -0.3020  0.6388
 6017TIP3    H239611   2.508   6.091   9.629 -0.6467  0.4270  1.1826
 6018TIP3   OH239612   4.124   6.109   7.551 -0.3448  0.4716  0.0350
 6018TIP3    H139613   4.081   6.156   7.622  0.1710  1.0458 -0.0214
 6018TIP3    H239614   4.106   6.162   7.473 -1.0527 -0.2436 -0.2976
 6019TIP3   OH239615   1.286   5.564   2.424  0.2114 -0.0055  0.2162
 6019TIP3    H139616   1.199   5.598   2.405 -0.0588  0.0548  1.4994
 6019TIP3    H239617   1.298   5.492   2.362 -0.9236 -0.2797  0.2950
 6020TIP3   OH239618   6.029   0.914   0.372  0.0995  0.0975  0.4037
 6020TIP3    H139619   6.053   0.957   0.290  0.1440 -1.9951 -0.7466
 6020TIP3    H239620   5.971   0.843   0.346  0.5297 -0.9543  2.1507
 6021TIP3   OH239621   5.836   5.175   0.740 -0.5352  0.1395  0.2145
 6021TIP3    H139622   5.870   5.085   0.737 -2.7177 -0.7353 -0.4438
 6021TIP3    H239623   5.801   5.185   0.829 -1.9123 -0.3407 -0.2532
 6022TIP3   OH239624   6.457   2.051   0.279  0.1558 -0.9561  0.5024
 6022TIP3    H139625   6.540   2.004   0.268 -0.4306 -2.7247  2.8338
 6022TIP3    H239626   6.432   2.076   0.190  1.6428 -3.1548 -0.6336
 6023TIP3   OH239627   4.384   1.698   1.580  0.2319  0.2651 -0.0473
 6023TIP3    H139628   4.382   1.784   1.537 -0.7610  0.7041  0.8471
 6023TIP3    H239629   4.408   1.717   1.670 -1.0503 -0.2796  0.4247
 6024TIP3   OH239630   3.098   2.580   0.143 -0.2251 -0.4787  0.1050
 6024TIP3    H139631   3.116   2.667   0.178 -0.8707 -0.2877 -0.0407
 6024TIP3    H239632   3.071   2.529   0.219 -0.3394 -0.4203  0.1024
 6025TIP3   OH239633   4.251   2.557   0.643  0.0344  0.0098  0.2229
 6025TIP3    H139634   4.242   2.466   0.671 -3.3097 -0.8441 -2.8925
 6025TIP3    H239635   4.292   2.551   0.556 -2.0842  1.1782 -0.9385
 6026TIP3   OH239636   3.800   3.028   9.094  0.0751  0.0682  0.5818
 6026TIP3    H139637   3.872   3.004   9.152  2.1818  2.1497 -0.9686
 6026TIP3    H239638   3.776   3.117   9.120 -1.2425 -0.2070  0.3895
 6027TIP3   OH239639   3.561   3.601   2.063 -0.1516 -0.7973 -0.2088
 6027TIP3    H139640   3.469   3.577   2.079  0.1811 -1.7999  0.2344
 6027TIP3    H239641   3.564   3.618   1.968 -0.9099 -0.2010 -0.1427
 6028TIP3   OH239642   5.987   2.261   1.097  0.4675  0.1162  0.4198
 6028TIP3    H139643   5.905   2.212   1.100  0.1434  0.4128 -1.9016
 6028TIP3    H239644   5.966   2.340   1.047  1.2379  2.2008  3.1130
 6029TIP3   OH239645   5.174   4.671   0.562  0.2463  0.2898 -0.4189
 6029TIP3    H139646   5.232   4.622   0.621 -1.3928  0.0010  1.0105
 6029TIP3    H239647   5.196   4.638   0.475  1.5557 -0.4869  0.1635
 6030TIP3   OH239648   3.486   2.078   0.207  0.7253  0.1980  0.2749
 6030TIP3    H139649   3.548   2.027   0.155  1.9789  2.0011 -0.1317
 6030TIP3    H239650   3.480   2.032   0.291  1.2289 -0.9694 -0.3109
 6031TIP3   OH239651   1.248   5.790   9.044  0.0487 -0.5429 -0.1683
 6031TIP3    H139652   1.290   5.813   9.127  0.6865 -3.4482  0.4227
 6031TIP3    H239653   1.154   5.787   9.065  0.2213 -1.4923  0.5607
 6032TIP3   OH239654   0.933   3.039   0.391  0.1909 -0.2021  0.6204
 6032TIP3    H139655   0.939   3.021   0.484 -0.2618 -1.5537  0.4079
 6032TIP3    H239656   0.927   2.953   0.350 -0.6536  0.3974 -0.5871
 6033TIP3   OH239657   5.392   2.538   0.881 -0.0667 -0.3555  0.1455
 6033TIP3    H139658   5.378   2.633   0.887 -1.3042 -0.3120 -2.2018
 6033TIP3    H239659   5.455   2.528   0.810 -1.5737 -1.3491 -1.0989
 6034TIP3   OH239660   1.487   5.439   0.807  0.3885  0.1424  0.2079
 6034TIP3    H139661   1.494   5.494   0.729  1.4854  1.6277  1.3040
 6034TIP3    H239662   1.511   5.497   0.879 -1.1866 -1.0230  1.7381
 6035TIP3   OH239663   4.779   4.598   1.331  0.2597 -0.6151  0.3643
 6035TIP3    H139664   4.772   4.530   1.399 -1.1521 -0.7779  0.0769
 6035TIP3    H239665   4.871   4.594   1.303  0.7496 -0.8811  1.9082
 6036TIP3   OH239666   0.635   1.132   0.744 -0.5462 -0.4876  0.0134
 6036TIP3    H139667   0.663   1.052   0.786  0.0784  0.5883  1.7444
 6036TIP3    H239668   0.710   1.159   0.691 -0.5808 -0.7917 -0.1916
 6037TIP3   OH239669   0.016   6.152   0.290  0.2060 -0.0526  0.2275
 6037TIP3    H139670   0.041   6.233   0.333  3.1600 -1.2623  1.0508
 6037TIP3    H239671  -0.080   6.150   0.295 -0.2264  4.4417 -2.0192
 6038TIP3   OH239672   5.325   2.526   1.559 -0.3395  0.5760  0.3704
 6038TIP3    H139673   5.332   2.466   1.632  1.1634 -0.5975 -0.6779
 6038TIP3    H239674   5.414   2.562   1.548 -0.7690  1.5094 -0.2320
 6039TIP3   OH239675   6.279   1.444   9.380  0.7999 -0.1481 -0.1017
 6039TIP3    H139676   6.205   1.473   9.434  2.0189  2.5936  0.2748
 6039TIP3    H239677   6.344   1.514   9.388  3.3196 -2.2278 -0.7330
 6040TIP3   OH239678   6.304   5.542   7.672  0.2587 -0.1799 -0.1150
 6040TIP3    H139679   6.366   5.509   7.607  2.0233  1.2437  0.7576
 6040TIP3    H239680   6.249   5.467   7.693  0.9152 -1.1890 -1.7801
 6041TIP3   OH239681   3.088   0.633   9.525  0.4248  0.1315 -0.5479
 6041TIP3    H139682   3.177   0.647   9.493  1.1560 -0.8210  0.9414
 6041TIP3    H239683   3.078   0.538   9.529 -0.2246  0.2149  0.4021
 6042TIP3   OH239684   0.686   2.698   0.870 -0.1656 -0.2158  0.1255
 6042TIP3    H139685   0.732   2.776   0.839  0.4397 -1.6700 -2.9630
 6042TIP3    H239686   0.618   2.733   0.928  1.1554  2.4386  0.2491
 6043TIP3   OH239687   1.228   4.185   8.013  0.6281  0.0242  0.2111
 6043TIP3    H139688   1.178   4.105   8.001 -0.4561  0.7259 -0.0867
 6043TIP3    H239689   1.237   4.221   7.924  0.1499  0.7844  0.4632
 6044TIP3   OH239690   5.675   3.737   1.906  0.2082  0.1857 -0.0555
 6044TIP3    H139691   5.716   3.788   1.836 -0.5590  0.3744 -0.3683
 6044TIP3    H239692   5.585   3.769   1.910 -0.1804 -0.8692 -0.0032
 6045TIP3   OH239693   3.192   1.911   8.484  0.4235 -0.4260  0.2662
 6045TIP3    H139694   3.288   1.907   8.477  0.3067 -0.2284 -1.9882
 6045TIP3    H239695   3.160   1.869   8.405 -1.3790 -0.4085  0.9469
 6046TIP3   OH239696   5.173   2.361   1.399  0.0552  0.7476  0.0456
 6046TIP3    H139697   5.104   2.413   1.440  1.0277 -0.1599  3.0229
 6046TIP3    H239698   5.253   2.411   1.415  0.9254 -1.2360  2.4698
 6047TIP3   OH239699   1.729   6.422   0.845 -0.1418  0.9089  0.2883
 6047TIP3    H139700   1.778   6.496   0.882 -0.9634  0.0772  3.3486
 6047TIP3    H239701   1.649   6.461   0.811 -0.6541  1.4859  2.0357
 6048TIP3   OH239702   1.240   1.131   0.673 -0.0430  0.1846 -0.2947
 6048TIP3    H139703   1.323   1.163   0.709 -0.4754 -0.0366  0.9413
 6048TIP3    H239704   1.229   1.180   0.591  0.8389  0.8991  0.0008
 6049TIP3   OH239705   0.927   5.935   0.406  0.9486 -0.0448 -0.0729
 6049TIP3    H139706   0.937   5.994   0.481  0.0926  0.1673 -0.1073
 6049TIP3    H239707   0.848   5.884   0.426 -0.2921  1.1670 -1.5516
 6050TIP3   OH239708   2.162   2.269   7.230  0.1743  0.3400  0.2467
 6050TIP3    H139709   2.201   2.182   7.243  1.4491  0.9710  0.7949
 6050TIP3    H239710   2.102   2.278   7.305 -1.2406 -0.7048 -0.6975
 6051TIP3   OH239711   0.228   0.102   2.303 -0.0252 -0.1430 -0.1275
 6051TIP3    H139712   0.173   0.082   2.378 -1.1058  2.8639  0.0147
 6051TIP3    H239713   0.306   0.142   2.340 -1.2826  2.9410 -0.4844
 6052TIP3   OH239714   3.582   2.362   8.421  0.1594  0.0272  0.1174
 6052TIP3    H139715   3.517   2.433   8.424 -1.3575 -1.2760 -0.5631
 6052TIP3    H239716   3.625   2.373   8.336 -1.8737 -1.3208 -1.1768
 6053TIP3   OH239717   0.620   3.566   8.610  0.3485 -0.2141  0.5009
 6053TIP3    H139718   0.556   3.545   8.678  0.5055 -1.0330  0.4028
 6053TIP3    H239719   0.645   3.657   8.628 -1.4076  0.4067  0.0759
 6054TIP3   OH239720   0.577   5.264   1.614  0.1161 -1.2820 -0.1244
 6054TIP3    H139721   0.586   5.309   1.698  0.9148 -0.8938 -0.4054
 6054TIP3    H239722   0.605   5.174   1.631 -0.0155 -1.2825  0.0879
 6055TIP3   OH239723   1.965   4.711   0.676 -0.4313  0.1013 -0.2470
 6055TIP3    H139724   2.019   4.670   0.609  0.1393  1.8749 -0.9093
 6055TIP3    H239725   2.020   4.780   0.713 -2.1951  1.9323 -0.8961
 6056TIP3   OH239726   3.123   3.521   8.635  0.4067 -0.1933  0.5044
 6056TIP3    H139727   3.212   3.551   8.618 -0.0375  0.8146 -0.1325
 6056TIP3    H239728   3.127   3.426   8.625  1.6764 -0.3079  1.7834
 6057TIP3   OH239729   0.272   0.239   9.412  0.7320  0.6055  0.5127
 6057TIP3    H139730   0.318   0.322   9.401 -0.3641  1.2261  0.5333
 6057TIP3    H239731   0.187   0.263   9.450  0.4117 -0.5206  0.5413
 6058TIP3   OH239732   0.026   3.201   8.621  0.3020  0.2124 -0.1454
 6058TIP3    H139733   0.009   3.279   8.568  3.3648  0.9844 -0.1489
 6058TIP3    H239734  -0.019   3.219   8.704  2.0934  2.7381  0.4081
 6059TIP3   OH239735   0.649   4.251   9.408 -0.1132  0.0665 -0.4107
 6059TIP3    H139736   0.730   4.255   9.458 -0.3626  0.5348 -0.0440
 6059TIP3    H239737   0.585   4.212   9.468 -0.2924  0.1897 -0.5194
 6060TIP3   OH239738   3.321   3.998   8.082 -0.4641  0.8071  0.0890
 6060TIP3    H139739   3.297   3.911   8.115 -0.3427 -0.5329 -2.9993
 6060TIP3    H239740   3.383   3.980   8.011 -0.5509  3.4155 -0.7408
 6061TIP3   OH239741   5.277   5.311   0.679 -0.0061 -0.2527 -0.0360
 6061TIP3    H139742   5.367   5.285   0.658 -0.1817 -0.5605 -0.4070
 6061TIP3    H239743   5.234   5.319   0.595 -0.1867  0.4217  0.1175
 6062TIP3   OH239744   5.247   3.986   7.953  0.1584 -0.3699  0.2382
 6062TIP3    H139745   5.321   3.930   7.931 -0.2164 -0.5042 -0.7416
 6062TIP3    H239746   5.286   4.073   7.967  0.3822 -0.1164 -1.6672
 6063TIP3   OH239747   1.569   6.526   1.224  0.1688 -0.0391  0.4065
 6063TIP3    H139748   1.624   6.453   1.198 -0.4124 -1.0329  1.8419
 6063TIP3    H239749   1.483   6.507   1.185  0.1077  0.0683  0.4886
 6064TIP3   OH239750   3.995   5.972   0.334  0.8139  0.4737  0.3672
 6064TIP3    H139751   3.953   6.001   0.415 -0.4737 -1.3271  0.4069
 6064TIP3    H239752   4.055   5.902   0.362  2.2398  1.5024  0.0240
 6065TIP3   OH239753   6.284   0.176   0.293 -0.1657 -0.5521  0.3667
 6065TIP3    H139754   6.316   0.188   0.382  0.0668  2.2810 -0.0015
 6065TIP3    H239755   6.361   0.186   0.238 -0.4628 -1.3304 -0.2077
 6066TIP3   OH239756   4.609   1.014   8.891  0.1585 -0.2263  0.1352
 6066TIP3    H139757   4.523   1.001   8.931 -0.4091 -0.4405 -1.1087
 6066TIP3    H239758   4.590   1.037   8.800  1.3970  0.6154  0.0648
 6067TIP3   OH239759   4.903   2.253   1.777  0.0189  0.3935 -0.5395
 6067TIP3    H139760   4.820   2.230   1.736  0.6166 -0.3133 -1.3721
 6067TIP3    H239761   4.906   2.349   1.773  0.0530  0.3445 -2.1314
 6068TIP3   OH239762   3.466   1.587   8.620 -0.5063  0.4068 -0.4796
 6068TIP3    H139763   3.459   1.651   8.691 -0.7463 -0.0966 -0.0452
 6068TIP3    H239764   3.390   1.603   8.565 -0.7340  0.2885 -0.1993
 6069TIP3   OH239765   1.899   5.630   2.019  0.7464 -0.3554 -0.0654
 6069TIP3    H139766   1.920   5.702   2.078 -0.4490 -0.5424  0.6233
 6069TIP3    H239767   1.886   5.554   2.076 -0.8654 -0.4449 -0.4802
 6070TIP3   OH239768   1.749   3.074   9.089  0.1405 -0.8916 -0.1833
 6070TIP3    H139769   1.665   3.111   9.061  0.5000 -0.3468 -0.5680
 6070TIP3    H239770   1.807   3.150   9.098  0.5742 -1.2541  0.1396
 6071TIP3   OH239771   2.063   4.919   2.105  0.2697  0.2067 -0.2654
 6071TIP3    H139772   1.980   4.961   2.082  1.2140  2.3557 -0.0611
 6071TIP3    H239773   2.045   4.873   2.187 -0.4333  1.7902  0.5278
 6072TIP3   OH239774   0.050   5.091   7.436 -0.1244  0.3459  0.0326
 6072TIP3    H139775   0.038   5.036   7.358  1.2421  0.4184 -0.2440
 6072TIP3    H239776   0.006   5.173   7.414 -3.4074 -0.9774  0.9571
 6073TIP3   OH239777   2.610   0.148   0.619 -0.0477  0.0243  0.5384
 6073TIP3    H139778   2.552   0.121   0.548 -0.7362  0.2029  1.0216
 6073TIP3    H239779   2.609   0.074   0.680  0.9608 -0.3483  0.1180
 6074TIP3   OH239780   4.201   4.919   8.169  0.1758 -0.0043 -0.4931
 6074TIP3    H139781   4.120   4.903   8.217  0.9303 -1.5223  0.3479
 6074TIP3    H239782   4.179   4.905   8.078 -0.8563  1.1571 -0.4555
 6075TIP3   OH239783   5.550   4.064   0.955  0.1708 -0.6861  0.2887
 6075TIP3    H139784   5.495   4.017   0.893  0.2768 -0.7070  0.2103
 6075TIP3    H239785   5.489   4.114   1.009  0.1174 -0.0994 -0.3025
 6076TIP3   OH239786   1.010   2.254   1.708 -0.0059  0.0535 -0.2616
 6076TIP3    H139787   0.988   2.346   1.724 -0.1460  0.0770 -0.5963
 6076TIP3    H239788   0.938   2.206   1.748  0.6110  0.0461  0.8915
 6077TIP3   OH239789   5.156   6.019   8.371 -0.3743 -0.5977  0.1064
 6077TIP3    H139790   5.106   5.945   8.335  2.1005 -1.8539 -0.9695
 6077TIP3    H239791   5.157   6.083   8.301  1.0845 -1.4016 -0.6676
 6078TIP3   OH239792   3.686   5.047   7.570 -0.4466 -0.1981 -0.1737
 6078TIP3    H139793   3.594   5.021   7.568  0.2520 -2.9892 -0.0206
 6078TIP3    H239794   3.693   5.114   7.501 -2.3168 -0.9003 -1.1153
 6079TIP3   OH239795   0.548   6.109   0.757 -0.2195  0.3713  0.2245
 6079TIP3    H139796   0.463   6.135   0.791  1.0788  2.0006  2.4401
 6079TIP3    H239797   0.573   6.033   0.810 -0.3068 -0.1711 -0.4928
 6080TIP3   OH239798   0.715   3.843   9.575  0.2329 -0.0629  0.5220
 6080TIP3    H139799   0.702   3.804   9.662 -1.5647 -0.2338  0.2196
 6080TIP3    H239800   0.627   3.850   9.538  0.7614  1.7781 -0.5489
 6081TIP3   OH239801   0.951   0.526   0.203  0.1349  0.0231  0.4843
 6081TIP3    H139802   1.022   0.473   0.240 -0.2577 -1.0591 -0.2579
 6081TIP3    H239803   0.881   0.520   0.268  0.3479  0.2340  0.7363
 6082TIP3   OH239804   5.652   2.634   7.368 -0.3011  0.0304 -0.3383
 6082TIP3    H139805   5.589   2.562   7.364 -0.2463  0.0280 -1.4887
 6082TIP3    H239806   5.729   2.596   7.410 -0.1018 -0.7247 -1.3541
 6083TIP3   OH239807   1.846   5.595   8.922  0.4495 -0.1524 -0.1633
 6083TIP3    H139808   1.808   5.680   8.945 -1.6698 -1.0155 -0.2472
 6083TIP3    H239809   1.830   5.541   8.999 -0.4748 -1.1481 -1.0259
 6084TIP3   OH239810   0.870   1.957   0.252  0.1486  0.4695 -0.2090
 6084TIP3    H139811   0.792   1.923   0.209  0.7068 -1.2425  0.0516
 6084TIP3    H239812   0.856   1.940   0.345  0.8987 -0.0704 -0.1800
 6085TIP3   OH239813   3.343   0.375   7.729  0.0403  0.2900  0.3451
 6085TIP3    H139814   3.413   0.343   7.672 -0.0458  0.0530  0.3727
 6085TIP3    H239815   3.389   0.424   7.797  0.1632  0.3297  0.2361
 6086TIP3   OH239816   0.748   0.642   1.518  0.1119  0.3875 -0.2315
 6086TIP3    H139817   0.725   0.665   1.428  0.3782  1.7469  0.0331
 6086TIP3    H239818   0.677   0.584   1.547  0.3679 -0.6073 -1.5120
 6087TIP3   OH239819   4.561   3.274   8.628  0.3261 -0.7614 -0.1885
 6087TIP3    H139820   4.554   3.178   8.626  1.4570 -0.9024  1.0131
 6087TIP3    H239821   4.490   3.302   8.684 -0.6549 -0.7840 -1.3720
 6088TIP3   OH239822   1.654   1.329   2.732 -0.0320  0.1895 -0.1124
 6088TIP3    H139823   1.588   1.398   2.728 -1.3708 -0.8096  2.4929
 6088TIP3    H239824   1.734   1.374   2.758 -0.2664  1.0649 -0.8286
 6089TIP3   OH239825   2.806   0.307   7.780  0.0257  0.0889  0.2433
 6089TIP3    H139826   2.828   0.379   7.838  0.8003  0.5851 -0.6399
 6089TIP3    H239827   2.889   0.265   7.760 -0.1405  0.2865 -0.9528
 6090TIP3   OH239828   5.685   5.835   7.727  0.8645  0.5904 -0.2340
 6090TIP3    H139829   5.747   5.908   7.720 -0.0007  1.4474  0.6666
 6090TIP3    H239830   5.600   5.877   7.741  0.3241 -0.6020  0.1905
 6091TIP3   OH239831   6.093   3.680   9.434 -0.4462 -0.0914 -0.0089
 6091TIP3    H139832   6.020   3.716   9.384 -0.2330 -0.0630 -0.3012
 6091TIP3    H239833   6.095   3.587   9.412 -0.3508 -0.0791 -0.0528
 6092TIP3   OH239834   4.013   0.098   8.398 -0.0122  0.4686  0.8387
 6092TIP3    H139835   4.063   0.057   8.469 -1.4768 -0.9358  1.1148
 6092TIP3    H239836   3.928   0.118   8.437 -0.3584  0.9675 -0.1498
 6093TIP3   OH239837   2.904   5.434   1.930  0.0479  0.1539  0.3257
 6093TIP3    H139838   2.832   5.481   1.887 -0.3712 -0.8860 -0.1725
 6093TIP3    H239839   2.978   5.493   1.925 -0.8166  1.3411  1.0276
 6094TIP3   OH239840   6.206   5.511   2.472 -0.2035 -0.2353  0.7022
 6094TIP3    H139841   6.295   5.481   2.488  0.7625  0.7290 -2.1635
 6094TIP3    H239842   6.196   5.589   2.526  0.8799 -0.0621  0.6660
 6095TIP3   OH239843   2.305   1.240   6.802 -0.4065  0.3849 -0.0070
 6095TIP3    H139844   2.344   1.328   6.806 -1.3308  0.7592  1.4311
 6095TIP3    H239845   2.380   1.181   6.795  0.8876  0.8759  5.3602
 6096TIP3   OH239846   5.506   4.184   0.292  0.3063  0.0835 -0.0704
 6096TIP3    H139847   5.450   4.122   0.339 -0.1023  0.3827 -0.1570
 6096TIP3    H239848   5.559   4.130   0.234  0.7615 -0.2858  0.6726
 6097TIP3   OH239849   3.776   4.943   1.312 -0.3265  0.0261 -0.9034
 6097TIP3    H139850   3.756   4.941   1.406  1.5837 -0.0052 -0.4521
 6097TIP3    H239851   3.826   5.024   1.301 -0.4235 -0.0425 -1.8801
 6098TIP3   OH239852   3.641   4.396   9.124 -0.2589  0.3647  0.1602
 6098TIP3    H139853   3.568   4.441   9.168 -1.8811  1.0893 -2.9512
 6098TIP3    H239854   3.627   4.303   9.143  0.6201  0.7443  3.1295
 6099TIP3   OH239855   0.191   3.423   0.617 -0.0384 -0.2669  0.2331
 6099TIP3    H139856   0.260   3.489   0.629  0.7851 -0.6748 -1.8114
 6099TIP3    H239857   0.113   3.463   0.656  0.6009  1.6276 -0.3180
 6100TIP3   OH239858   0.761   2.510   2.741 -0.0812  0.4039 -0.1732
 6100TIP3    H139859   0.828   2.441   2.738  0.6725  1.1306 -0.4676
 6100TIP3    H239860   0.700   2.487   2.671  0.3699  0.2300 -0.5190
 6101TIP3   OH239861   5.250   2.978   0.053 -0.4915  0.7891 -0.1499
 6101TIP3    H139862   5.250   2.927  -0.028 -0.7832 -0.1953  0.4460
 6101TIP3    H239863   5.249   3.069   0.024  2.9168  0.6161 -1.3136
 6102TIP3   OH239864   0.629   4.055   8.268 -0.3025  0.0561 -0.3316
 6102TIP3    H139865   0.566   3.984   8.264 -0.3666  0.0363  0.7660
 6102TIP3    H239866   0.581   4.132   8.237 -0.1687 -0.4004 -1.7252
 6103TIP3   OH239867   3.051   5.151   7.769 -0.1489  0.0623 -0.4903
 6103TIP3    H139868   3.021   5.235   7.735 -1.0529 -0.2739 -0.5434
 6103TIP3    H239869   3.145   5.151   7.753  0.1249  1.6729  0.8141
 6104TIP3   OH239870   2.444   0.432   7.255  0.5262 -0.5673  0.0033
 6104TIP3    H139871   2.534   0.425   7.222  0.4910 -0.5403 -0.0986
 6104TIP3    H239872   2.401   0.493   7.195  0.2539 -1.0913 -0.3374
 6105TIP3   OH239873   6.183   1.909   2.401 -0.7089  0.2993  0.1023
 6105TIP3    H139874   6.110   1.961   2.435 -0.5239  1.1527 -0.7351
 6105TIP3    H239875   6.145   1.856   2.332 -0.7631 -0.1550  0.4806
 6106TIP3   OH239876   2.976   4.472   1.464 -0.3588 -0.2131 -0.2735
 6106TIP3    H139877   3.003   4.549   1.414 -0.9482 -1.1336 -2.0952
 6106TIP3    H239878   3.018   4.398   1.420  1.8482 -0.8739  2.6099
 6107TIP3   OH239879   0.478   0.110   2.648  0.2204 -0.0847  0.0251
 6107TIP3    H139880   0.478   0.042   2.581  0.6924  0.3355 -0.4127
 6107TIP3    H239881   0.463   0.063   2.730 -0.6879 -0.5748 -0.3988
 6108TIP3   OH239882   1.604   4.598   2.002  0.2959  0.5694  0.1194
 6108TIP3    H139883   1.562   4.680   1.975  0.9399  0.6771 -0.6012
 6108TIP3    H239884   1.597   4.598   2.097 -0.1408  1.2300  0.0946
 6109TIP3   OH239885   0.882   1.493   1.748 -0.5874  0.0393  0.1977
 6109TIP3    H139886   0.919   1.418   1.795 -2.3891 -1.3488 -0.4582
 6109TIP3    H239887   0.952   1.558   1.747  0.4883 -0.9859  2.2456
 6110TIP3   OH239888   6.173   3.415   9.540 -0.5329 -0.2230  0.4674
 6110TIP3    H139889   6.127   3.415   9.624 -0.8750 -0.8517  0.2864
 6110TIP3    H239890   6.115   3.367   9.481  0.4957 -1.3325  0.3165
 6111TIP3   OH239891   1.965   1.426   9.260  0.0822 -0.0929 -0.1269
 6111TIP3    H139892   1.935   1.469   9.340 -0.1300  0.6277 -0.5867
 6111TIP3    H239893   2.009   1.495   9.211  0.7872 -0.6870 -0.3425
 6112TIP3   OH239894   4.049   0.927   7.742  0.7525  0.0734 -0.2896
 6112TIP3    H139895   3.953   0.922   7.736  0.8315 -0.4562 -1.2230
 6112TIP3    H239896   4.065   0.958   7.831 -0.2565 -0.9276  0.2690
 6113TIP3   OH239897   4.586   3.068   0.782  0.4973 -0.2021 -0.0081
 6113TIP3    H139898   4.593   3.095   0.874  3.7176 -1.2107  0.1643
 6113TIP3    H239899   4.553   3.146   0.737  0.7934  0.9966  1.7447
 6114TIP3   OH239900   2.196   5.573   0.416 -0.1705 -0.6317  0.1045
 6114TIP3    H139901   2.240   5.500   0.372  1.5427  0.3382  0.0948
 6114TIP3    H239902   2.171   5.538   0.502 -1.4364 -1.8562 -0.7245
 6115TIP3   OH239903   4.563   5.809   1.602 -0.0684  0.1365 -1.0185
 6115TIP3    H139904   4.647   5.829   1.560 -0.9943 -1.3423 -3.8130
 6115TIP3    H239905   4.535   5.727   1.561 -2.4184  0.0406  0.6020
 6116TIP3   OH239906   0.750   2.533   9.203 -0.0486 -0.0588  0.7134
 6116TIP3    H139907   0.734   2.447   9.164  0.5042  0.3391 -0.4263
 6116TIP3    H239908   0.696   2.593   9.151  3.0580  0.9644 -1.6537
 6117TIP3   OH239909   5.577   4.275   8.571  0.4718 -0.0573  0.1106
 6117TIP3    H139910   5.488   4.256   8.599  0.7478 -1.4648  0.0688
 6117TIP3    H239911   5.624   4.298   8.651  0.5615 -1.3096  0.4313
 6118TIP3   OH239912   2.521   4.682   8.251 -0.4103 -0.0258 -0.5840
 6118TIP3    H139913   2.486   4.594   8.238  0.4894 -0.2729 -1.5209
 6118TIP3    H239914   2.456   4.740   8.211 -0.0351 -0.4357 -1.8311
 6119TIP3   OH239915   5.939   1.112   2.404 -0.6284 -0.1081  0.2469
 6119TIP3    H139916   5.945   1.018   2.419  1.0142 -0.1434 -0.4382
 6119TIP3    H239917   5.959   1.123   2.311 -1.0291  0.9033  0.2680
 6120TIP3   OH239918   4.330   0.701   0.252 -0.1502  0.1492 -0.4024
 6120TIP3    H139919   4.328   0.768   0.184 -0.1200  0.3370 -0.2175
 6120TIP3    H239920   4.241   0.701   0.288  0.3147  1.3625  0.8366
 6121TIP3   OH239921   4.121   3.558   0.579  0.7262  0.1275 -0.0941
 6121TIP3    H139922   4.176   3.515   0.514  0.6970  0.1125 -0.1090
 6121TIP3    H239923   4.133   3.652   0.563  0.1302  0.1225 -0.6170
 6122TIP3   OH239924   3.713   2.730   0.876 -0.0255 -0.3010 -0.3922
 6122TIP3    H139925   3.669   2.770   0.801  1.0009 -0.0817 -0.8828
 6122TIP3    H239926   3.707   2.636   0.859  1.0284 -0.2259 -1.2317
 6123TIP3   OH239927   0.496   2.070   8.171  0.0946  0.1806 -0.3985
 6123TIP3    H139928   0.550   2.119   8.234  0.3174 -0.7396  0.1443
 6123TIP3    H239929   0.408   2.106   8.182 -0.6235 -2.0813  2.8430
 6124TIP3   OH239930   5.086   5.322   0.110 -0.7808 -0.3728  0.4559
 6124TIP3    H139931   5.034   5.242   0.101 -0.4998 -0.3658 -1.8760
 6124TIP3    H239932   5.099   5.352   0.020  1.9476  0.4738  1.0412
 6125TIP3   OH239933   6.275   4.205   8.544  0.5083 -0.8470  0.6940
 6125TIP3    H139934   6.317   4.146   8.481  1.4266  0.3385  0.1589
 6125TIP3    H239935   6.232   4.147   8.606  1.0586 -2.0713 -0.0347
 6126TIP3   OH239936   5.292   0.345   1.716 -0.5137 -0.3091 -0.0002
 6126TIP3    H139937   5.287   0.348   1.812 -0.6680  1.1804 -0.0327
 6126TIP3    H239938   5.232   0.275   1.691 -1.3004  0.0102  0.9387
 6127TIP3   OH239939   3.009   0.798   0.671  0.0610  0.0785 -0.2770
 6127TIP3    H139940   3.047   0.881   0.700  0.3517  0.6221 -2.0740
 6127TIP3    H239941   3.031   0.793   0.578  0.1029 -2.0657 -0.1988
 6128TIP3   OH239942   4.667   6.104   9.243 -0.3470  0.5942  0.1218
 6128TIP3    H139943   4.646   6.144   9.159 -1.0202  0.4927  0.2405
 6128TIP3    H239944   4.679   6.179   9.302  1.1251  0.7065 -0.2793
 6129TIP3   OH239945   6.421   2.160   0.039 -0.1636  0.3128 -0.5778
 6129TIP3    H139946   6.505   2.202   0.022  0.2324 -0.1240  0.2331
 6129TIP3    H239947   6.358   2.209  -0.014  0.8906 -0.6540 -2.8365
 6130TIP3   OH239948   3.448   4.584   8.949  0.2831  0.1666 -0.8370
 6130TIP3    H139949   3.412   4.609   9.034 -1.4628 -1.3748 -1.0692
 6130TIP3    H239950   3.508   4.512   8.969  1.4202  1.1085 -0.7317
 6131TIP3   OH239951   1.145   0.157   1.251 -0.1229 -0.7741 -0.1547
 6131TIP3    H139952   1.111   0.179   1.338 -0.8101  2.2721 -1.0711
 6131TIP3    H239953   1.182   0.239   1.218 -1.7281 -1.2329 -3.5211
 6132TIP3   OH239954   0.315   0.632   0.984  0.3797  0.4147  0.3016
 6132TIP3    H139955   0.244   0.657   1.043  2.1459  3.2892  1.4216
 6132TIP3    H239956   0.272   0.585   0.913 -2.3413  0.2850  1.9011
 6133TIP3   OH239957   3.411   2.967   9.150 -0.8031 -0.2969 -0.0298
 6133TIP3    H139958   3.322   3.003   9.159 -0.8287 -0.3975  0.1203
 6133TIP3    H239959   3.399   2.886   9.101 -0.9430 -0.9176  0.9914
 6134TIP3   OH239960   5.555   5.416   0.259 -0.6960  0.1054  0.1638
 6134TIP3    H139961   5.470   5.374   0.242 -0.0499 -1.4558  0.6149
 6134TIP3    H239962   5.603   5.352   0.311  0.6538  1.1113  0.2037
 6135TIP3   OH239963   3.145   0.410   2.254  0.4808 -0.4807  0.4777
 6135TIP3    H139964   3.200   0.361   2.316  0.2682 -1.4703 -0.0840
 6135TIP3    H239965   3.207   0.462   2.203  0.7252 -0.2292  1.0199
 6136TIP3   OH239966   0.880   2.956   8.808  0.6563  0.0698 -0.3965
 6136TIP3    H139967   0.888   3.046   8.775  1.2689 -0.2214 -1.0634
 6136TIP3    H239968   0.969   2.931   8.830  0.3246  0.1183  1.1915
 6137TIP3   OH239969   1.852   1.565   9.465 -0.0742  0.7723  0.1123
 6137TIP3    H139970   1.849   1.661   9.459 -3.3909  0.8022  0.5886
 6137TIP3    H239971   1.760   1.538   9.463  0.7374 -2.3911  0.7008
 6138TIP3   OH239972   5.816   6.400   8.327  0.1734  0.4516 -0.1590
 6138TIP3    H139973   5.745   6.449   8.286 -1.4155 -1.6706 -0.1202
 6138TIP3    H239974   5.799   6.405   8.421  0.6304  0.6884 -0.0809
 6139TIP3   OH239975   2.174   5.304   1.472  0.3443 -0.5052 -0.1129
 6139TIP3    H139976   2.261   5.277   1.446  0.2016 -1.8235  0.6820
 6139TIP3    H239977   2.123   5.305   1.391  0.7583 -1.0818 -0.3841
 6140TIP3   OH239978   1.677   3.322   8.666 -0.4017  0.0325  0.8664
 6140TIP3    H139979   1.587   3.351   8.653 -0.3765  0.0896  0.8174
 6140TIP3    H239980   1.716   3.387   8.725  0.3323  1.4399 -1.0371
 6141TIP3   OH239981   4.476   4.763   7.805 -0.1091 -0.7617 -0.2087
 6141TIP3    H139982   4.427   4.686   7.833 -0.1222 -0.8973 -0.5985
 6141TIP3    H239983   4.466   4.765   7.710  0.1819 -0.4764 -0.2374
 6142TIP3   OH239984   1.267   4.946   1.491  0.3154  0.4428  0.4986
 6142TIP3    H139985   1.298   5.014   1.432 -0.6516 -0.1747 -0.7576
 6142TIP3    H239986   1.174   4.964   1.503  0.3775  0.2255  1.3760
 6143TIP3   OH239987   0.731   5.828   1.590 -0.3702  0.0639  0.2515
 6143TIP3    H139988   0.771   5.915   1.592  2.0719 -0.8218 -2.2851
 6143TIP3    H239989   0.669   5.832   1.517  0.4005 -0.4950 -0.4600
 6144TIP3   OH239990   1.877   3.190   9.445 -0.1458 -0.6831 -0.3820
 6144TIP3    H139991   1.964   3.218   9.415  0.4137 -1.2285  0.6608
 6144TIP3    H239992   1.821   3.198   9.368  0.7204  0.1412 -0.9514
 6145TIP3   OH239993   2.800   3.365   7.654  0.8950 -0.5372 -0.0017
 6145TIP3    H139994   2.772   3.352   7.563 -1.1148  1.4634  0.2437
 6145TIP3    H239995   2.789   3.279   7.695  1.3382 -1.3429 -1.4936
 6146TIP3   OH239996   0.700   6.159   1.495 -0.4052  0.5554  0.1240
 6146TIP3    H139997   0.709   6.254   1.485  0.0755  0.4382 -0.6934
 6146TIP3    H239998   0.775   6.123   1.447 -1.2080 -0.2666 -0.5407
 6147TIP3   OH239999   0.385   1.406   0.433  0.1269 -0.0835 -0.2076
 6147TIP3    H140000   0.473   1.436   0.407 -0.7441 -0.0734 -3.7451
 6147TIP3    H240001   0.398   1.364   0.518  3.8061 -1.1479 -1.0919
 6148TIP3   OH240002   2.927   2.610   8.843  0.2794 -0.1356  0.4256
 6148TIP3    H140003   2.889   2.568   8.921 -0.0677  0.4933  0.6030
 6148TIP3    H240004   2.964   2.537   8.793 -0.6529 -0.7012  0.5310
 6149TIP3   OH240005   2.320   6.429   9.161 -0.0038 -0.2637  0.3719
 6149TIP3    H140006   2.351   6.343   9.132 -1.5834 -0.6381 -0.3077
 6149TIP3    H240007   2.387   6.490   9.131  0.2082 -1.0525 -0.8401
 6150TIP3   OH240008   4.333   2.617   7.635 -0.7440 -0.6821  0.6665
 6150TIP3    H140009   4.417   2.606   7.592 -0.7297  0.4889  0.3544
 6150TIP3    H240010   4.283   2.674   7.576 -2.1536 -2.1756  0.3299
 6151TIP3   OH240011   4.017   3.156   1.858  0.5605 -0.1756 -0.1974
 6151TIP3    H140012   3.984   3.205   1.932 -1.4837 -0.0820 -1.0955
 6151TIP3    H240013   3.965   3.075   1.858  0.2183  0.0049 -1.7185
 6152TIP3   OH240014   0.366   2.053   1.417 -0.3149  0.3118  0.6987
 6152TIP3    H140015   0.440   2.015   1.465 -0.2607 -0.4876  0.0014
 6152TIP3    H240016   0.352   1.994   1.343 -1.3190  0.7375  0.5257
 6153TIP3   OH240017   0.420   2.555   0.981 -0.0210 -0.2875 -0.7669
 6153TIP3    H140018   0.414   2.650   0.971  0.1315 -0.3061 -1.0583
 6153TIP3    H240019   0.331   2.524   0.965 -0.0099 -0.2183 -0.9655
 6154TIP3   OH240020   0.950   0.640   0.779 -0.0191 -0.3799  0.2434
 6154TIP3    H140021   1.044   0.631   0.792  0.4817  2.4460 -0.6923
 6154TIP3    H240022   0.941   0.682   0.694 -2.0431  0.6331  0.8701
 6155TIP3   OH240023   4.988   0.099   7.693  0.0400 -0.0860  0.0234
 6155TIP3    H140024   4.940   0.038   7.748 -0.9381 -1.2277 -1.9964
 6155TIP3    H240025   5.062   0.048   7.660  1.8319  1.1874  1.8219
 6156TIP3   OH240026   0.483   4.735   0.610  0.2354 -0.0544  0.4300
 6156TIP3    H140027   0.519   4.662   0.560 -0.9665 -0.3657 -0.0091
 6156TIP3    H240028   0.515   4.813   0.564 -0.4679 -0.3324 -0.5573
 6157TIP3   OH240029   0.002   2.908   0.064 -0.5150  0.3744  0.3357
 6157TIP3    H140030   0.092   2.932   0.043 -0.4029 -1.4667 -1.6376
 6157TIP3    H240031  -0.052   2.964   0.008 -0.3884 -1.2089 -1.4657
 6158TIP3   OH240032   0.951   2.392   8.016  0.2276  0.2411 -0.1253
 6158TIP3    H140033   0.988   2.434   7.938 -0.4179  1.0941  0.0099
 6158TIP3    H240034   0.972   2.299   8.006 -0.7577  0.1588 -1.8483
 6159TIP3   OH240035   2.471   3.526   1.394 -0.1409  0.0005  0.3947
 6159TIP3    H140036   2.411   3.454   1.377  0.6144 -0.6988  0.6270
 6159TIP3    H240037   2.415   3.603   1.403 -1.1370 -0.8523  1.9126
 6160TIP3   OH240038   0.363   3.880   1.210  0.1267 -0.0118  0.0710
 6160TIP3    H140039   0.330   3.839   1.290  2.3101 -0.2081  0.9352
 6160TIP3    H240040   0.413   3.956   1.240  3.3892 -1.6472 -0.7805
 6161TIP3   OH240041   1.682   4.406   8.149 -0.1304 -0.7629 -0.9693
 6161TIP3    H140042   1.654   4.490   8.186  1.3827 -1.2203  1.4433
 6161TIP3    H240043   1.770   4.393   8.186  0.9582 -1.9851 -3.7282
 6162TIP3   OH240044   3.250   1.929   0.686 -0.3763 -0.3983 -0.3337
 6162TIP3    H140045   3.291   2.011   0.658 -1.6948  1.0617  1.8048
 6162TIP3    H240046   3.174   1.955   0.737 -0.3964 -2.9436  1.1149
 6163TIP3   OH240047   4.059   0.085   1.811  0.1776 -0.2648  0.1881
 6163TIP3    H140048   4.064   0.010   1.752  0.1005 -1.2052  1.3467
 6163TIP3    H240049   4.138   0.136   1.791 -0.5120  0.1644 -1.6397
 6164TIP3   OH240050   4.241   3.194   2.360 -0.5792 -0.2656 -0.0615
 6164TIP3    H140051   4.161   3.145   2.379 -0.4300 -0.4418  0.1095
 6164TIP3    H240052   4.209   3.280   2.331 -0.9067 -1.1130 -2.3662
 6165TIP3   OH240053   1.015   1.471   0.551 -0.8728 -0.2481 -0.7478
 6165TIP3    H140054   1.079   1.533   0.515 -0.5902  0.0610  0.2687
 6165TIP3    H240055   0.975   1.432   0.474 -2.1944  2.3417 -1.5090
 6166TIP3   OH240056   6.391   5.656   8.849  0.0505  0.3087  0.5402
 6166TIP3    H140057   6.466   5.701   8.811 -0.7244  0.8056 -0.4489
 6166TIP3    H240058   6.328   5.648   8.777  0.7074 -3.7927  0.1754
 6167TIP3   OH240059   1.639   2.555   0.202 -0.4043 -0.8479  0.0793
 6167TIP3    H140060   1.558   2.605   0.197 -1.0203 -1.9066 -0.7135
 6167TIP3    H240061   1.668   2.547   0.111  1.7290  1.2696  0.4490
 6168TIP3   OH240062   6.214   0.456   9.091  0.0676  0.1831  0.3696
 6168TIP3    H140063   6.166   0.526   9.135 -0.7546 -1.4254  2.1918
 6168TIP3    H240064   6.305   0.469   9.116 -0.1917  0.1577  1.3581
 6169TIP3   OH240065   2.399   4.283   1.900  0.2976 -0.5919  0.4985
 6169TIP3    H140066   2.318   4.302   1.947  0.8884  0.3120  1.1811
 6169TIP3    H240067   2.441   4.368   1.888  0.1193 -0.7845 -1.8069
 6170TIP3   OH240068   2.135   1.646   8.216 -0.1270 -0.4922 -0.1658
 6170TIP3    H140069   2.178   1.572   8.173  0.9010  0.3352 -0.6262
 6170TIP3    H240070   2.134   1.624   8.309  0.6559 -0.8445 -0.2389
 6171TIP3   OH240071   3.309   4.287   9.118  0.1812  0.2196 -0.1334
 6171TIP3    H140072   3.238   4.256   9.174  1.2786 -1.2965  0.4650
 6171TIP3    H240073   3.317   4.380   9.139 -1.9439  0.5589 -0.5900
 6172TIP3   OH240074   2.755   3.435   8.463 -0.1591  0.5576  0.0203
 6172TIP3    H140075   2.822   3.381   8.421 -1.3863 -1.2609  0.3190
 6172TIP3    H240076   2.804   3.509   8.499  1.5003 -0.0498 -0.8897
 6173TIP3   OH240077   3.317   4.550   7.576  0.6390 -0.0647  0.0542
 6173TIP3    H140078   3.241   4.601   7.605  1.2621  1.1410 -0.3632
 6173TIP3    H240079   3.391   4.611   7.583  1.3971 -0.8897 -0.5411
 6174TIP3   OH240080   4.354   6.246   9.270  0.0928 -0.1215  0.2435
 6174TIP3    H140081   4.366   6.157   9.237 -3.3584 -0.6789  0.0553
 6174TIP3    H240082   4.440   6.287   9.262  1.4488 -2.9498 -1.0863
 6175TIP3   OH240083   3.694   2.626   8.185 -0.1310 -0.9985  0.4201
 6175TIP3    H140084   3.732   2.646   8.100  0.1744 -0.5597  0.6556
 6175TIP3    H240085   3.659   2.538   8.176  2.8229 -2.3184  0.8321
 6176TIP3   OH240086   3.685   4.778   8.303 -0.2649 -0.0039  0.2300
 6176TIP3    H140087   3.628   4.703   8.316 -1.4205  0.6959 -0.6084
 6176TIP3    H240088   3.765   4.742   8.263 -0.6418 -0.8265  0.2155
 6177TIP3   OH240089   3.513   5.171   1.491 -0.8060  0.0288 -0.9362
 6177TIP3    H140090   3.495   5.242   1.430  1.2687  0.3300 -1.2459
 6177TIP3    H240091   3.608   5.171   1.501 -0.8983 -1.6660  0.3163
 6178TIP3   OH240092   4.294   1.929   1.323  0.2814  0.0848  0.3527
 6178TIP3    H140093   4.320   1.964   1.238  0.3001 -0.1700  0.2531
 6178TIP3    H240094   4.363   1.958   1.383  0.9661 -0.8390  0.0349
 6179TIP3   OH240095   6.203   5.188   9.382  0.6573 -0.3970  0.5282
 6179TIP3    H140096   6.117   5.168   9.418  1.4139 -1.2967  1.8930
 6179TIP3    H240097   6.192   5.179   9.287 -1.4208  2.1865  0.4077
 6180TIP3   OH240098   4.787   5.582   1.282 -0.6104  0.0437  0.1700
 6180TIP3    H140099   4.709   5.537   1.249 -0.0965 -0.1513 -0.8340
 6180TIP3    H240100   4.800   5.655   1.221  1.6297 -1.5808 -1.5280
 6181TIP3   OH240101   3.214   5.488   0.340  0.1221  0.2330 -0.8674
 6181TIP3    H140102   3.276   5.560   0.349 -1.2238  1.4945 -1.1755
 6181TIP3    H240103   3.131   5.531   0.321 -0.8703 -1.3922 -0.3896
 6182TIP3   OH240104   3.181   5.732   8.849  0.2838 -0.4078 -0.2119
 6182TIP3    H140105   3.242   5.690   8.789 -0.4929 -1.0164 -0.6063
 6182TIP3    H240106   3.233   5.797   8.895  1.5022 -1.7214  0.3312
 6183TIP3   OH240107   3.079   6.346   1.677 -0.0508 -0.9761 -0.3709
 6183TIP3    H140108   3.087   6.262   1.722 -0.2210 -0.5848  0.4098
 6183TIP3    H240109   3.149   6.400   1.714  0.1878 -0.8420 -1.0158
 6184TIP3   OH240110   1.815   0.473   0.019  0.2008 -0.7595 -0.2840
 6184TIP3    H140111   1.773   0.556   0.042 -0.3320 -1.4667  1.4573
 6184TIP3    H240112   1.766   0.441  -0.057 -1.3571 -0.7257  0.6560
 6185TIP3   OH240113   4.310   5.447   9.188 -0.0489 -0.0412  0.2933
 6185TIP3    H140114   4.340   5.464   9.099 -1.1900 -2.0216 -0.5376
 6185TIP3    H240115   4.354   5.514   9.241  2.3258 -0.1033 -1.4151
 6186TIP3   OH240116   1.926   4.439   7.963 -0.4304  0.1702 -0.2211
 6186TIP3    H140117   1.924   4.346   7.938  0.9625  0.0297  0.1274
 6186TIP3    H240118   1.941   4.438   8.057 -1.5917  0.7586 -0.0069
 6187TIP3   OH240119   5.638   3.752   8.414 -0.3054 -0.0575  0.3521
 6187TIP3    H140120   5.654   3.737   8.321 -0.0791 -1.9153  0.6406
 6187TIP3    H240121   5.637   3.847   8.424  1.9154  0.2003 -1.1658
 6188TIP3   OH240122   2.951   5.596   8.172  0.1137  0.1254 -0.0942
 6188TIP3    H140123   3.027   5.612   8.116  0.4945 -0.1500  0.3352
 6188TIP3    H240124   2.929   5.504   8.158 -0.5191  0.3576 -0.6694
 6189TIP3   OH240125   4.082   1.125   8.924  0.0174  0.6314 -0.1689
 6189TIP3    H140126   4.009   1.125   8.861 -0.0288 -0.6122 -0.1478
 6189TIP3    H240127   4.087   1.034   8.954 -0.1521  1.2390  1.8694
 6190TIP3   OH240128   0.480   5.692   1.681  0.4632  0.2909  0.0234
 6190TIP3    H140129   0.448   5.642   1.606  1.2860  0.4053 -0.4137
 6190TIP3    H240130   0.575   5.697   1.669  0.6704 -0.0778  1.3080
 6191TIP3   OH240131   0.568   2.227   1.156 -0.4486 -0.1670  0.4320
 6191TIP3    H140132   0.658   2.258   1.154 -0.1888 -0.9025  0.0952
 6191TIP3    H240133   0.515   2.304   1.175  0.2433  0.2929  0.4905
 6192TIP3   OH240134   0.416   5.280   1.397 -0.3154 -0.3904 -0.4534
 6192TIP3    H140135   0.366   5.199   1.394 -1.0983 -0.0289  1.4868
 6192TIP3    H240136   0.472   5.272   1.474  0.6135  0.3675 -1.0197
 6193TIP3   OH240137   6.171   6.406   2.324  0.4156  0.8870  0.3929
 6193TIP3    H140138   6.183   6.440   2.413 -2.6828 -1.7614  2.0487
 6193TIP3    H240139   6.094   6.451   2.291  0.6089  0.6964 -0.3497
 6194TIP3   OH240140   0.009   4.913   7.224  0.1280 -0.1446  0.4608
 6194TIP3    H140141   0.029   4.890   7.133  1.8624  0.0186  0.7655
 6194TIP3    H240142   0.045   4.840   7.275 -1.7645 -0.7666  0.9992
 6195TIP3   OH240143   1.260   0.688   0.702  0.5730 -0.4343  0.0943
 6195TIP3    H140144   1.265   0.780   0.730  0.0483 -0.2587 -0.3597
 6195TIP3    H240145   1.244   0.693   0.607 -1.4106 -0.9602  0.3635
 6196TIP3   OH240146   3.346   3.763   8.828 -0.3622  0.3869 -0.2375
 6196TIP3    H140147   3.350   3.845   8.779 -0.8613  0.5655  0.0108
 6196TIP3    H240148   3.404   3.704   8.781  0.6771  1.1392  0.0654
 6197TIP3   OH240149   6.196   3.830   8.855  0.5239 -0.1074 -0.1795
 6197TIP3    H140150   6.140   3.808   8.929  0.8595 -0.2893  0.0209
 6197TIP3    H240151   6.169   3.918   8.830  2.5587  1.3338  2.1941
 6198TIP3   OH240152   6.306   4.056   9.285 -0.1331 -0.1546 -0.0695
 6198TIP3    H140153   6.265   4.124   9.338 -1.7154 -0.5649 -0.7233
 6198TIP3    H240154   6.286   3.975   9.330  0.7502 -0.2991  0.0804
 6199TIP3   OH240155   4.564   2.594   1.251 -0.3369 -0.0175  0.1783
 6199TIP3    H140156   4.619   2.532   1.203 -0.6800 -1.2318  1.2900
 6199TIP3    H240157   4.482   2.596   1.203 -1.1511 -2.2209  1.3177
 6200TIP3   OH240158   3.323   6.241   2.045 -0.2273  0.3254  0.3404
 6200TIP3    H140159   3.289   6.331   2.043 -1.7848 -0.2370  0.2875
 6200TIP3    H240160   3.296   6.207   2.130 -1.0052 -0.5799 -0.2460
 6201TIP3   OH240161   4.710   4.867   9.578 -0.0969  0.1210 -0.3169
 6201TIP3    H140162   4.769   4.865   9.654  0.4194 -2.5951 -0.7200
 6201TIP3    H240163   4.767   4.887   9.504  0.3131 -2.1323 -0.6527
 6202TIP3   OH240164   2.915   6.186   9.487  0.0658  0.2824  0.2202
 6202TIP3    H140165   2.956   6.198   9.573  0.3453 -0.2797  0.1696
 6202TIP3    H240166   2.893   6.093   9.484  2.3669 -0.2846 -1.3224
 6203TIP3   OH240167   0.574   0.812   3.005  0.3990 -0.2853 -0.2501
 6203TIP3    H140168   0.586   0.767   3.088 -0.1223 -1.6141 -0.8696
 6203TIP3    H240169   0.588   0.744   2.939 -0.5601  0.4266 -1.2114
 6204TIP3   OH240170   1.658   2.452   7.268  0.1304 -0.1143 -0.0086
 6204TIP3    H140171   1.720   2.480   7.201  1.7950  0.3144  1.6339
 6204TIP3    H240172   1.575   2.493   7.244  1.1377  1.5342 -0.7826
 6205TIP3   OH240173   2.596   5.592   9.358  0.3270  0.6030 -0.1030
 6205TIP3    H140174   2.678   5.627   9.324  0.4004  1.0204  0.5055
 6205TIP3    H240175   2.608   5.588   9.452 -0.1792  0.2129 -0.0516
 6206TIP3   OH240176   0.805   3.900   7.800  0.2110 -0.4087 -0.3815
 6206TIP3    H140177   0.846   3.815   7.815  1.8487 -0.1021 -2.5799
 6206TIP3    H240178   0.804   3.942   7.886 -0.2778 -2.4644  0.6627
 6207TIP3   OH240179   3.138   1.303   7.730 -0.0210 -0.4013  0.0977
 6207TIP3    H140180   3.052   1.331   7.696 -0.2563 -1.4435 -0.2097
 6207TIP3    H240181   3.168   1.377   7.782 -1.1067 -0.0040  0.1998
 6208TIP3   OH240182   3.649   2.250   9.367  0.2262  0.3681  0.2745
 6208TIP3    H140183   3.656   2.331   9.418 -0.2684  0.1073  0.7730
 6208TIP3    H240184   3.555   2.240   9.351  0.3470  0.2528 -0.3873
 6209TIP3   OH240185   1.581   1.430   9.530  0.1561 -0.6252 -0.3262
 6209TIP3    H140186   1.491   1.424   9.561  0.6657 -1.0640  1.1062
 6209TIP3    H240187   1.585   1.369   9.456 -1.0556  0.3917 -1.2653
 6210TIP3   OH240188   5.779   0.288   1.782  0.4403 -0.1308 -0.1296
 6210TIP3    H140189   5.737   0.282   1.696 -0.4820  0.7285  0.2391
 6210TIP3    H240190   5.852   0.350   1.768  1.1623 -1.0558 -0.5949
 6211TIP3   OH240191   1.369   0.434   8.145  0.2111  0.4135  0.2933
 6211TIP3    H140192   1.313   0.402   8.074  0.1225 -0.8549  0.9166
 6211TIP3    H240193   1.442   0.477   8.100  1.0780 -1.8931 -0.6578
 6212TIP3   OH240194   5.794   1.664   8.718  0.1767 -0.2444  0.5422
 6212TIP3    H140195   5.749   1.739   8.678 -2.6773 -1.1317  1.8321
 6212TIP3    H240196   5.859   1.704   8.776  0.2307  1.1410 -0.4040
 6213TIP3   OH240197   0.191   5.459   1.157  0.0101 -0.4717 -0.1912
 6213TIP3    H140198   0.173   5.509   1.236 -2.7466  0.2431 -1.1612
 6213TIP3    H240199   0.148   5.508   1.087 -0.7002 -2.8904 -1.5769
 6214TIP3   OH240200   0.737   0.010   8.938  0.4059  0.2524  0.4104
 6214TIP3    H140201   0.654   0.056   8.946 -0.5874 -1.4971  0.5297
 6214TIP3    H240202   0.756   0.012   8.844 -0.1368  0.0359  0.2947
 6215TIP3   OH240203   2.101   3.297   8.688  0.3157 -0.4127 -0.5312
 6215TIP3    H140204   2.063   3.373   8.644  0.3964 -0.3487 -0.4912
 6215TIP3    H240205   2.181   3.330   8.729  0.4486 -0.5610 -0.6687
 6216TIP3   OH240206   5.731   0.569   0.797 -0.6305  0.3055 -0.2064
 6216TIP3    H140207   5.782   0.649   0.808 -0.9186  0.3816  0.6612
 6216TIP3    H240208   5.659   0.595   0.740 -1.3864  0.9929  1.0128
 6217TIP3   OH240209   4.759   4.547   7.820 -0.0830  0.1639 -0.2150
 6217TIP3    H140210   4.688   4.486   7.838 -0.2701  0.2050 -0.8206
 6217TIP3    H240211   4.718   4.634   7.824  0.4944  0.4265  2.3741
 6218TIP3   OH240212   6.514   0.027   8.840  0.1701 -0.0764 -0.1426
 6218TIP3    H140213   6.515   0.122   8.848 -0.3927  0.0326 -1.1651
 6218TIP3    H240214   6.549   0.010   8.752  2.2747 -0.9337  0.8115
 6219TIP3   OH240215   2.745   0.231   6.980  0.4091 -0.2846 -0.0723
 6219TIP3    H140216   2.725   0.162   7.043  1.5535 -0.8315 -0.2793
 6219TIP3    H240217   2.808   0.287   7.024  0.1416  0.1394 -0.2220
 6220TIP3   OH240218   0.290   4.412   1.331  0.3538 -0.3372 -0.1380
 6220TIP3    H140219   0.252   4.499   1.345 -0.3236 -0.4635 -1.0765
 6220TIP3    H240220   0.214   4.353   1.330  0.3556 -0.4466 -3.2097
 6221TIP3   OH240221   2.261   1.281   0.752  0.2317  0.1544  0.8449
 6221TIP3    H140222   2.181   1.319   0.790 -0.5278  0.3845 -0.8971
 6221TIP3    H240223   2.314   1.357   0.729  0.3473  0.0384  0.7324
 6222TIP3   OH240224   2.638   2.196   0.876 -0.1957 -0.2628  0.1866
 6222TIP3    H140225   2.607   2.245   0.952 -1.6275 -0.0304 -0.5074
 6222TIP3    H240226   2.698   2.256   0.832  0.2135 -0.1922  0.8208
 6223TIP3   OH240227   0.119   5.045   0.207  0.1232  0.4110 -0.1011
 6223TIP3    H140228   0.090   5.134   0.184 -1.5104  0.1082  0.6146
 6223TIP3    H240229   0.095   4.992   0.131 -1.9034  0.0582  0.7100
 6224TIP3   OH240230   4.491   6.015   1.815 -0.3310  0.0640  0.1788
 6224TIP3    H140231   4.508   5.965   1.735 -2.7359 -0.3046 -0.1753
 6224TIP3    H240232   4.450   6.096   1.785  1.7688  1.4721  0.8787
 6225TIP3   OH240233   4.135   2.433   1.073  0.5206 -0.0354  0.8184
 6225TIP3    H140234   4.040   2.447   1.078  0.1592 -1.0383 -1.5495
 6225TIP3    H240235   4.148   2.344   1.106  0.4242 -0.3715 -0.0108
 6226TIP3   OH240236   5.188   5.570   1.220  0.0878 -0.4527  0.2195
 6226TIP3    H140237   5.241   5.520   1.282  1.6526  1.4702  0.5282
 6226TIP3    H240238   5.098   5.557   1.249  0.2603 -3.9918 -0.4304
 6227TIP3   OH240239   1.522   2.360   0.504 -0.0077 -0.1246 -0.7368
 6227TIP3    H140240   1.474   2.438   0.477 -0.9728 -1.2432 -2.4360
 6227TIP3    H240241   1.458   2.306   0.550  0.0196 -0.8929 -1.5645
 6228TIP3   OH240242   0.207   2.643   0.062  0.1087  0.0314 -0.1315
 6228TIP3    H140243   0.197   2.738   0.055  0.4298  0.1650  0.9419
 6228TIP3    H240244   0.240   2.630   0.151 -0.4641 -1.1282 -0.0797
 6229TIP3   OH240245   2.683   2.827   9.465  0.1261  0.6933  0.2019
 6229TIP3    H140246   2.730   2.763   9.411  1.2833 -0.6746  2.6390
 6229TIP3    H240247   2.751   2.886   9.497 -0.7335  2.3303 -0.8583
 6230TIP3   OH240248   0.131   4.451   8.990 -0.6641 -0.2366 -0.0343
 6230TIP3    H140249   0.043   4.467   9.024  0.3440  1.7741  1.9016
 6230TIP3    H240250   0.182   4.424   9.067  0.5199 -0.9135 -1.0250
 6231TIP3   OH240251   5.814   4.467   1.410 -0.9043  0.0781 -0.5071
 6231TIP3    H140252   5.784   4.399   1.471 -1.9179 -0.0869 -1.1578
 6231TIP3    H240253   5.856   4.418   1.338  1.0354  0.3105  0.4099
 6232TIP3   OH240254   5.111   3.186   1.935 -0.1357  0.3845  0.2380
 6232TIP3    H140255   5.048   3.117   1.955 -0.9244  1.7580  2.9886
 6232TIP3    H240256   5.090   3.214   1.846 -0.5471 -2.0564 -0.5010
 6233TIP3   OH240257   4.766   5.505   0.146 -0.1155  0.7029  0.2964
 6233TIP3    H140258   4.767   5.514   0.241  0.6597  0.9961  0.2679
 6233TIP3    H240259   4.690   5.450   0.127 -1.3821  2.1640  0.9490
 6234TIP3   OH240260   5.857   0.864   7.572 -0.3172  0.4211 -0.1967
 6234TIP3    H140261   5.952   0.871   7.565 -0.0409 -1.5436  0.9437
 6234TIP3    H240262   5.824   0.901   7.490  1.4148  1.1679 -0.5936
 6235TIP3   OH240263   6.084   4.927   0.115 -0.2392 -0.0782 -0.2006
 6235TIP3    H140264   6.171   4.954   0.142  0.3968  0.2992 -2.3977
 6235TIP3    H240265   6.091   4.833   0.103 -0.4396 -0.2013  0.5962
 6236TIP3   OH240266   2.329   2.766   8.662  0.2594 -0.4309  0.0535
 6236TIP3    H140267   2.348   2.765   8.756 -0.0747  0.1416  0.1326
 6236TIP3    H240268   2.364   2.850   8.631 -1.9118  0.6014  0.1801
 6237TIP3   OH240269   3.175   3.308   1.002 -0.1162 -0.2429  0.7251
 6237TIP3    H140270   3.202   3.218   1.021 -1.7513 -1.3092 -1.5365
 6237TIP3    H240271   3.084   3.301   0.975 -0.3438  2.1481  0.6465
 6238TIP3   OH240272   0.961   3.811   9.485 -0.0487 -0.2780 -0.5119
 6238TIP3    H140273   0.874   3.839   9.515 -0.3095  1.8110 -2.9767
 6238TIP3    H240274   0.966   3.718   9.511 -1.4369  0.4449  2.9770
 6239TIP3   OH240275   2.596   6.413   8.845 -0.6074  0.2179 -0.4086
 6239TIP3    H140276   2.546   6.475   8.898  0.5154 -0.0363  1.0440
 6239TIP3    H240277   2.535   6.343   8.825 -0.9712  0.1299  0.9302
 6240TIP3   OH240278   3.865   1.840   1.776 -0.1969  0.3689 -0.1647
 6240TIP3    H140279   3.832   1.769   1.831  1.1159 -0.1174  0.0211
 6240TIP3    H240280   3.936   1.801   1.725  0.7437  1.6129  0.1393
 6241TIP3   OH240281   3.393   2.684   1.068  0.2558  0.3166 -0.4261
 6241TIP3    H140282   3.373   2.730   0.986  1.3079 -0.9708 -1.4510
 6241TIP3    H240283   3.481   2.712   1.091 -0.6620  2.0508  1.3092
 6242TIP3   OH240284   5.075   0.798   0.745 -0.1054 -0.1037 -0.0437
 6242TIP3    H140285   5.060   0.730   0.679  2.8457 -0.2127 -0.7373
 6242TIP3    H240286   5.071   0.751   0.828  0.5376 -0.8734 -0.4315
 6243TIP3   OH240287   6.012   4.630   0.127 -0.3638  0.2460  0.3464
 6243TIP3    H140288   6.039   4.559   0.185 -0.9179  0.6638  1.1346
 6243TIP3    H240289   5.954   4.684   0.180  1.5561  2.4106  0.4300
 6244TIP3   OH240290   3.340   5.890   8.460  0.2047  0.4680  0.5663
 6244TIP3    H140291   3.290   5.808   8.460  1.0640 -0.0988 -0.4607
 6244TIP3    H240292   3.332   5.922   8.370  0.8469  0.8994  0.6596
 6245TIP3   OH240293   5.983   4.093   0.365  0.1808  0.3341 -0.4952
 6245TIP3    H140294   6.013   4.040   0.291  0.1941 -0.1429 -0.1523
 6245TIP3    H240295   5.918   4.038   0.409  0.5637  0.4005  0.1537
 6246TIP3   OH240296   0.280   1.080   0.233  0.2997  0.5856 -0.0882
 6246TIP3    H140297   0.314   1.108   0.318  1.3011 -0.5348 -0.0936
 6246TIP3    H240298   0.195   1.041   0.252  0.3177  0.7445  0.3306
 6247TIP3   OH240299   0.300   0.930   0.926  0.1770 -0.1558 -0.0218
 6247TIP3    H140300   0.362   0.959   0.859  1.1469 -0.6759  0.6253
 6247TIP3    H240301   0.305   0.835   0.923 -0.5493 -0.2040  0.0966
 6248TIP3   OH240302   4.779   2.247   8.449  0.0092  0.4949  0.3471
 6248TIP3    H140303   4.723   2.279   8.378  1.2348  1.7059 -0.1142
 6248TIP3    H240304   4.862   2.227   8.406 -0.0886 -1.4546  0.9876
 6249TIP3   OH240305   3.453   2.779   0.487 -0.5704 -0.1944  0.6732
 6249TIP3    H140306   3.406   2.696   0.490 -0.1295 -0.6180 -2.0086
 6249TIP3    H240307   3.544   2.754   0.471 -0.4012  0.7994  0.0232
 6250TIP3   OH240308   3.862   4.977   8.115  0.5255 -0.8490  0.0905
 6250TIP3    H140309   3.883   5.070   8.127  1.7594 -1.1246  0.1119
 6250TIP3    H240310   3.906   4.933   8.187  0.2592 -1.4985 -0.1412
 6251TIP3   OH240311   2.662   2.316   8.174 -0.5747 -0.3618  0.1342
 6251TIP3    H140312   2.636   2.229   8.203 -2.6401 -0.0471 -0.5846
 6251TIP3    H240313   2.662   2.311   8.078 -0.1050  0.2829  0.0891
 6252TIP3   OH240314   4.469   4.485   7.030 -0.3719 -0.4693  0.1535
 6252TIP3    H140315   4.560   4.485   7.059 -0.2468  4.3189  0.5808
 6252TIP3    H240316   4.462   4.563   6.976 -4.2012 -0.8216 -0.0927
 6253TIP3   OH240317   4.671   1.303   1.518  0.0336  0.1216  0.5243
 6253TIP3    H140318   4.675   1.397   1.504  1.9638  0.1630  1.1136
 6253TIP3    H240319   4.700   1.290   1.608 -0.7352 -1.0062  0.6336
 6254TIP3   OH240320   3.526   1.024   7.673 -0.5590 -0.2226 -0.4272
 6254TIP3    H140321   3.592   1.085   7.637 -0.0801 -0.0717  0.6691
 6254TIP3    H240322   3.510   1.056   7.761  0.0072 -1.9227  0.3343
 6255TIP3   OH240323   6.249   1.576   9.136 -0.3200 -0.0198  0.1370
 6255TIP3    H140324   6.189   1.588   9.210 -0.7074  1.0282 -0.3300
 6255TIP3    H240325   6.319   1.520   9.170 -0.7340  0.0707  1.1534
 6256TIP3   OH240326   1.508   1.376   1.492  0.1422 -0.4373 -0.2172
 6256TIP3    H140327   1.570   1.428   1.441 -1.0735  1.3161 -0.0122
 6256TIP3    H240328   1.424   1.422   1.482 -0.7481 -1.7098  0.9647
 6257TIP3   OH240329   2.063   2.057   7.523  0.2321 -0.2003  0.0970
 6257TIP3    H140330   2.056   2.151   7.504  0.0038 -0.3500 -0.5731
 6257TIP3    H240331   1.987   2.038   7.577 -0.5123 -0.2854 -0.9554
 6258TIP3   OH240332   2.801   5.440   9.468 -0.5974  0.2153  0.0321
 6258TIP3    H140333   2.819   5.358   9.421  0.4521  0.1495  0.5152
 6258TIP3    H240334   2.738   5.415   9.535  0.1479 -0.3357  0.5447
 6259TIP3   OH240335   3.837   0.953   9.088 -0.0555 -0.6120 -0.7510
 6259TIP3    H140336   3.930   0.936   9.072  0.4278 -1.5307  2.3784
 6259TIP3    H240337   3.792   0.904   9.019  1.7416 -2.4572 -0.7258
 6260TIP3   OH240338   0.157   4.610   1.697 -0.0893  0.1804  0.3382
 6260TIP3    H140339   0.120   4.532   1.737 -1.5610  0.7264  0.1108
 6260TIP3    H240340   0.248   4.587   1.678 -0.1028 -0.9730  1.5591
 6261TIP3   OH240341   3.344   2.409   1.711 -0.1515 -0.3550  0.1062
 6261TIP3    H140342   3.261   2.382   1.671  0.0417 -1.2986  0.3279
 6261TIP3    H240343   3.324   2.494   1.750 -0.1486  0.9960 -2.6269
 6262TIP3   OH240344   4.992   1.264   8.534 -0.1049 -0.8711  0.3500
 6262TIP3    H140345   4.996   1.175   8.500 -0.8132 -0.0545 -2.0926
 6262TIP3    H240346   4.899   1.283   8.542  0.0149 -0.1249  0.1070
 6263TIP3   OH240347   3.183   5.662   1.495 -0.0193 -0.0661 -0.4910
 6263TIP3    H140348   3.147   5.587   1.541 -0.7074  0.6326  0.1418
 6263TIP3    H240349   3.254   5.693   1.552 -0.9002  0.8268  0.1607
 6264TIP3   OH240350   2.309   5.171   2.674 -0.4389  0.3023  0.3018
 6264TIP3    H140351   2.306   5.115   2.596 -0.7479  1.1123 -0.2752
 6264TIP3    H240352   2.403   5.178   2.694 -0.4547 -2.0531  1.6029
 6265TIP3   OH240353   5.239   3.733   9.148  0.1788 -0.2718 -0.3814
 6265TIP3    H140354   5.156   3.687   9.137  0.4290 -0.4233 -1.8714
 6265TIP3    H240355   5.306   3.668   9.126  0.6636  0.0857 -0.0054
 6266TIP3   OH240356   5.598   3.640   8.715  0.1027 -0.2612 -0.2085
 6266TIP3    H140357   5.544   3.715   8.739  0.1718 -0.4325  0.5044
 6266TIP3    H240358   5.687   3.668   8.734  0.0924 -0.6718  0.4544
 6267TIP3   OH240359   4.395   0.993   8.301  0.0092  0.3698  0.1648
 6267TIP3    H140360   4.423   0.905   8.275 -0.3761  0.7793 -1.7729
 6267TIP3    H240361   4.318   1.011   8.246 -1.0116  1.2447  1.7874
 6268TIP3   OH240362   4.981   2.101   8.546  0.6074  0.0081  0.2365
 6268TIP3    H140363   4.942   2.187   8.560  1.6992  0.4285  0.8308
 6268TIP3    H240364   5.014   2.104   8.456 -2.3942 -1.0741 -1.0537
 6269TIP3   OH240365   4.156   2.990   0.090  0.4750  0.0170 -0.0828
 6269TIP3    H140366   4.238   3.012   0.136 -0.8803  1.6968  1.6937
 6269TIP3    H240367   4.182   2.925   0.024  2.9965 -0.5414  1.3324
 6270TIP3   OH240368   0.826   5.999   0.681  0.5025 -0.1957  0.3923
 6270TIP3    H140369   0.732   6.012   0.693 -0.0107 -0.9298 -2.2701
 6270TIP3    H240370   0.857   6.082   0.644  0.5160 -0.6143 -0.5474
 6271TIP3   OH240371   1.829   0.533   1.258  0.0585 -0.2249 -0.4920
 6271TIP3    H140372   1.897   0.471   1.283 -1.0700 -1.2982  0.0287
 6271TIP3    H240373   1.785   0.555   1.340  0.3283  1.1371 -0.7038
 6272TIP3   OH240374   1.183   0.180   7.596  0.2542 -0.0556  0.0890
 6272TIP3    H140375   1.246   0.156   7.529 -0.6275 -0.6214 -0.5655
 6272TIP3    H240376   1.191   0.113   7.663  0.0153 -0.4009 -0.2265
 6273TIP3   OH240377   5.589   3.567   0.398  0.2953 -0.1065 -0.0593
 6273TIP3    H140378   5.565   3.649   0.442 -0.4393 -0.9894  1.2487
 6273TIP3    H240379   5.653   3.594   0.332  1.3630  1.3227  1.4553
 6274TIP3   OH240380   1.089   0.393   2.840  0.0928 -0.0653 -0.5649
 6274TIP3    H140381   1.044   0.478   2.837  0.3455  0.0337 -2.6849
 6274TIP3    H240382   1.052   0.350   2.917 -1.7952  1.0205 -0.8004
 6275TIP3   OH240383   3.054   4.002   1.791 -0.1884 -0.7239 -0.5673
 6275TIP3    H140384   3.038   4.091   1.820 -0.7349 -0.9098 -0.2782
 6275TIP3    H240385   3.018   3.998   1.702 -0.0560 -0.6278 -0.6257
 6276TIP3   OH240386   0.645   4.270   0.638  0.1433  0.9583  0.0965
 6276TIP3    H140387   0.733   4.253   0.603  0.0834  0.5466  0.1527
 6276TIP3    H240388   0.588   4.264   0.561  0.0828  0.6091  0.1712
 6277TIP3   OH240389   5.429   6.448   0.073  0.1261  0.3620 -0.0013
 6277TIP3    H140390   5.341   6.479   0.050 -0.2140 -0.4941  0.0764
 6277TIP3    H240391   5.440   6.473   0.165  0.2196  1.0127 -0.1829
 6278TIP3   OH240392   1.061   1.762   9.554  0.1784  0.4221  0.3802
 6278TIP3    H140393   1.051   1.773   9.649 -1.0293  0.0135  0.3167
 6278TIP3    H240394   0.977   1.791   9.518 -0.2842 -1.6851 -0.3796
 6279TIP3   OH240395   3.945   2.150   6.888 -0.3744  0.5803 -0.0788
 6279TIP3    H140396   4.029   2.195   6.885  1.2535 -2.2250  0.4323
 6279TIP3    H240397   3.925   2.129   6.797  1.0967 -1.4004 -0.0103
 6280TIP3   OH240398   1.808   3.133   2.601 -0.1609 -0.5947 -0.0229
 6280TIP3    H140399   1.782   3.184   2.677  2.0063 -0.4253  0.6600
 6280TIP3    H240400   1.727   3.091   2.572 -0.7381 -2.6290  3.8268
 6281TIP3   OH240401   0.518   1.742   2.160  0.8789  0.2759 -0.1163
 6281TIP3    H140402   0.425   1.718   2.161  0.2517  2.3892 -1.2322
 6281TIP3    H240403   0.526   1.810   2.226  1.7846 -0.3258  0.4012
 6282TIP3   OH240404   2.109   4.898   1.460  0.3021  0.0822 -0.3282
 6282TIP3    H140405   2.110   4.829   1.526 -0.6564  0.1909 -0.1898
 6282TIP3    H240406   2.201   4.913   1.439  0.5328 -1.0587 -0.1744
 6283TIP3   OH240407   4.846   4.028   9.205 -0.0545 -0.3115  0.1104
 6283TIP3    H140408   4.799   3.951   9.175  0.5677 -0.2738 -1.0267
 6283TIP3    H240409   4.867   4.010   9.296  1.0384 -1.9925 -0.4249
 6284TIP3   OH240410   3.739   3.204   7.477 -0.2347  0.0595 -0.2156
 6284TIP3    H140411   3.780   3.123   7.506 -1.5082 -0.4561  0.2080
 6284TIP3    H240412   3.759   3.208   7.383  2.1025  0.6566  0.2410
 6285TIP3   OH240413   0.025   0.959   0.207 -0.1813  0.2490  0.0359
 6285TIP3    H140414   0.019   0.894   0.137 -1.2138  0.2284  0.1352
 6285TIP3    H240415  -0.052   0.943   0.262  0.6035  0.2685  1.1768
 6286TIP3   OH240416   3.171   1.752   1.779 -0.0750  0.8702  0.2814
 6286TIP3    H140417   3.201   1.699   1.853 -0.3171  2.6176  1.7028
 6286TIP3    H240418   3.143   1.834   1.819 -3.0745  0.7991 -1.4342
 6287TIP3   OH240419   4.708   5.400   0.996 -0.2359 -0.0469 -0.3653
 6287TIP3    H140420   4.704   5.451   0.915 -0.1798  1.0354  0.3023
 6287TIP3    H240421   4.775   5.333   0.978  1.2087  1.3818 -0.5557
 6288TIP3   OH240422   3.091   1.029   0.847 -0.0482 -0.4610  0.5247
 6288TIP3    H140423   3.046   0.999   0.926  1.1122 -3.3781  0.2136
 6288TIP3    H240424   3.099   1.124   0.859  1.5788 -0.9076  4.7601
 6289TIP3   OH240425   5.745   5.862   1.327 -0.0129  0.3870  0.8421
 6289TIP3    H140426   5.810   5.931   1.342  0.9392 -0.1311 -0.6760
 6289TIP3    H240427   5.663   5.908   1.312  0.4660  1.1497  0.5574
 6290TIP3   OH240428   3.054   5.485   7.164  0.3496 -0.3614 -0.1482
 6290TIP3    H140429   2.975   5.538   7.151 -0.2186 -1.3009 -0.5966
 6290TIP3    H240430   3.125   5.539   7.129  0.3170  1.5640  2.4501
 6291TIP3   OH240431   5.311   2.336   7.933  0.0282 -0.3052 -0.4822
 6291TIP3    H140432   5.389   2.391   7.943 -1.4915  1.8285  0.2345
 6291TIP3    H240433   5.313   2.307   7.842 -0.6728  3.5549 -1.8869
 6292TIP3   OH240434   3.714   3.542   9.427 -0.4106  0.4004 -0.3834
 6292TIP3    H140435   3.798   3.507   9.397 -0.4463 -0.1314  0.1209
 6292TIP3    H240436   3.722   3.637   9.414 -0.2193  0.2426 -1.5306
 6293TIP3   OH240437   1.240   2.380   2.376 -0.3194  0.1639  0.1862
 6293TIP3    H140438   1.215   2.452   2.435 -3.4864 -0.7226  0.1020
 6293TIP3    H240439   1.230   2.301   2.429  0.1448 -0.4245 -0.5881
 6294TIP3   OH240440   1.813   1.651   8.036  0.2879  0.1655  0.1622
 6294TIP3    H140441   1.749   1.723   8.038 -1.5072 -1.3568  0.2107
 6294TIP3    H240442   1.892   1.691   8.000 -0.0065  2.6338  1.9376
 6295TIP3   OH240443   1.622   4.891   8.360 -0.0682  0.2933 -0.0673
 6295TIP3    H140444   1.653   4.866   8.447  0.0349  0.8026  0.0468
 6295TIP3    H240445   1.527   4.894   8.368 -0.0409  0.7601  0.1528
 6296TIP3   OH240446   6.039   2.553   1.259  0.1794  0.0100 -0.2519
 6296TIP3    H140447   6.002   2.493   1.323  1.6999 -0.7445 -0.0363
 6296TIP3    H240448   6.087   2.617   1.310 -1.1387  1.2702 -0.5024
 6297TIP3   OH240449   6.296   5.396   1.782  0.1149 -0.0465  0.6751
 6297TIP3    H140450   6.310   5.347   1.701 -0.7644  1.3143 -0.3301
 6297TIP3    H240451   6.385   5.410   1.816  0.3949 -2.5656  1.2015
 6298TIP3   OH240452   6.159   0.496   8.380  0.3927  0.1596  0.5472
 6298TIP3    H140453   6.091   0.438   8.347 -0.3375  0.8841  0.7563
 6298TIP3    H240454   6.239   0.443   8.377  0.3512  0.0704 -2.1151
 6299TIP3   OH240455   0.485   3.632   1.135 -0.1175 -0.3020  0.2782
 6299TIP3    H140456   0.461   3.608   1.046 -0.7475 -0.2128  0.4237
 6299TIP3    H240457   0.446   3.718   1.148 -2.8621 -1.6679  1.7595
 6300TIP3   OH240458   2.363   6.241   0.557  0.5584 -0.3335 -0.2696
 6300TIP3    H140459   2.327   6.203   0.477  0.1996  1.3388 -0.9649
 6300TIP3    H240460   2.450   6.201   0.566  0.0261 -1.6016 -0.6854
 6301TIP3   OH240461   2.647   3.456   1.624  0.2482 -0.5517  0.0662
 6301TIP3    H140462   2.590   3.460   1.547 -0.7910  0.4375  0.8452
 6301TIP3    H240463   2.723   3.509   1.601 -0.0066 -0.3491 -0.3144
 6302TIP3   OH240464   5.457   3.392   8.811  0.5709 -0.0844 -0.5988
 6302TIP3    H140465   5.498   3.473   8.781  0.7144  0.2304  0.4122
 6302TIP3    H240466   5.383   3.378   8.751 -0.5348  1.7525  0.2597
 6303TIP3   OH240467   0.653   4.842   8.217 -0.1854  0.1582  0.4243
 6303TIP3    H140468   0.619   4.857   8.129  0.5334  1.3519  0.3281
 6303TIP3    H240469   0.627   4.752   8.238 -1.6475  0.3573 -0.4061
 6304TIP3   OH240470   0.606   2.759   8.672 -0.0615  0.0666 -0.7111
 6304TIP3    H140471   0.607   2.787   8.580  1.1414 -1.2307 -1.1223
 6304TIP3    H240472   0.512   2.751   8.692 -0.3459 -0.2843 -2.0377
 6305TIP3   OH240473   2.578   1.459   0.646  0.2249  0.1304 -0.5617
 6305TIP3    H140474   2.597   1.398   0.575 -1.8283  0.7230 -1.7152
 6305TIP3    H240475   2.617   1.541   0.618 -0.8048  0.4296 -1.1698
 6306TIP3   OH240476   1.592   2.396   9.128  0.3120 -0.6750  0.6234
 6306TIP3    H140477   1.651   2.469   9.147  1.8136 -1.7321  0.2548
 6306TIP3    H240478   1.561   2.411   9.040 -2.5574  1.5353  1.8672
 6307TIP3   OH240479   5.514   0.446   8.403 -0.3349  0.8466  0.1743
 6307TIP3    H140480   5.582   0.514   8.395  1.0175 -0.5012 -0.3881
 6307TIP3    H240481   5.531   0.405   8.488  0.2603 -0.1638 -0.4034
 6308TIP3   OH240482   0.917   6.197   1.281 -0.0819  0.4363 -0.6814
 6308TIP3    H140483   0.892   6.217   1.190  1.0003  3.1859 -0.4658
 6308TIP3    H240484   0.922   6.282   1.324  0.4086 -0.7251  1.7496
 6309TIP3   OH240485   6.242   6.349   1.017 -0.1185 -0.1873  0.5084
 6309TIP3    H140486   6.260   6.438   1.048 -2.9631  1.0819 -1.0435
 6309TIP3    H240487   6.253   6.354   0.922 -0.1070 -1.5537  0.4182
 6310TIP3   OH240488   5.187   3.454   1.292  0.4368 -0.1448 -0.3577
 6310TIP3    H140489   5.149   3.370   1.319  2.0886 -0.8064  0.0080
 6310TIP3    H240490   5.205   3.444   1.199  1.2115 -0.4364 -0.1810
 6311TIP3   OH240491   0.069   5.880   7.180 -0.1862  0.1414  0.0214
 6311TIP3    H140492   0.068   5.968   7.143 -0.6427  0.2555  0.2991
 6311TIP3    H240493   0.004   5.882   7.250  2.1240  0.5432  2.3121
 6312TIP3   OH240494   3.230   1.192   1.434  0.0143  0.0764  0.1553
 6312TIP3    H140495   3.215   1.123   1.369  0.0111 -1.5613  1.8333
 6312TIP3    H240496   3.194   1.271   1.393  0.3086 -0.8114 -1.9594
 6313TIP3   OH240497   5.401   5.686   7.166 -0.2415  0.4394 -0.2857
 6313TIP3    H140498   5.414   5.773   7.203 -2.3072  0.1750  1.2481
 6313TIP3    H240499   5.390   5.701   7.072 -2.9844  2.1951  0.2118
 6314TIP3   OH240500   3.277   1.008   0.620  0.5239 -0.0032 -0.3321
 6314TIP3    H140501   3.325   0.931   0.649  1.0759  0.9114  1.2667
 6314TIP3    H240502   3.215   1.027   0.690 -1.6769 -0.6584 -1.9794
 6315TIP3   OH240503   0.932   2.439   8.860  0.4570  0.0901  0.8669
 6315TIP3    H140504   0.896   2.522   8.828  0.7972 -1.0101 -2.8033
 6315TIP3    H240505   1.027   2.452   8.857  0.4959  0.0420  1.7528
 6316TIP3   OH240506   2.175   5.196   2.909  0.2680  0.1917 -0.0267
 6316TIP3    H140507   2.215   5.129   2.966  1.7057  0.8796 -0.1892
 6316TIP3    H240508   2.233   5.200   2.833 -0.3781  0.9029 -0.4864
 6317TIP3   OH240509   0.997   4.357   0.363 -0.4482 -0.2978 -0.6904
 6317TIP3    H140510   1.003   4.427   0.298  2.0105 -0.6189 -0.9188
 6317TIP3    H240511   0.992   4.402   0.447 -0.2763  0.1633 -0.9219
 6318TIP3   OH240512   0.551   3.476   1.361  0.0700  0.4081  0.3177
 6318TIP3    H140513   0.549   3.542   1.292  4.1972  0.8125  0.3327
 6318TIP3    H240514   0.578   3.523   1.439 -1.9790 -0.5132  1.6778
 6319TIP3   OH240515   6.423   5.076   8.240 -0.1562 -0.4454 -0.2826
 6319TIP3    H140516   6.348   5.024   8.211 -0.3019 -0.9071  0.8384
 6319TIP3    H240517   6.487   5.069   8.169 -0.6118 -1.2555 -0.6231
 6320TIP3   OH240518   0.044   1.841   1.137 -0.4284 -0.1298  0.0116
 6320TIP3    H140519   0.042   1.745   1.143 -1.8190 -0.0929  0.4704
 6320TIP3    H240520   0.049   1.859   1.044 -1.7915 -0.6667 -0.1884
 6321TIP3   OH240521   6.238   5.283   7.017  0.1305  0.0006  0.4133
 6321TIP3    H140522   6.247   5.212   7.081 -1.4338 -0.4091  0.2282
 6321TIP3    H240523   6.270   5.361   7.063 -0.3088 -0.4151  1.4564
 6322TIP3   OH240524   3.042   3.443   1.537  0.7593  0.3801  0.2854
 6322TIP3    H140525   3.019   3.510   1.600 -0.1955  0.5972 -0.2780
 6322TIP3    H240526   2.974   3.448   1.470  1.2313 -0.4710 -0.2815
 6323TIP3   OH240527   3.303   3.886   1.009 -0.0057  0.4192 -0.6178
 6323TIP3    H140528   3.245   3.879   0.933 -0.8274 -2.4276  0.1741
 6323TIP3    H240529   3.260   3.951   1.066 -1.5999 -0.4530 -0.7754
 6324TIP3   OH240530   0.226   4.381   6.720  0.1260 -0.0097 -0.3436
 6324TIP3    H140531   0.206   4.292   6.692  0.6244 -1.0210  2.2576
 6324TIP3    H240532   0.318   4.393   6.698 -0.6549  1.0893 -3.4948
 6325TIP3   OH240533   0.351   3.952   2.398  0.0725  0.2682  0.8116
 6325TIP3    H140534   0.285   4.003   2.444  0.4958 -0.0627  1.8129
 6325TIP3    H240535   0.340   3.976   2.306 -1.9343 -0.3086  0.8348
 6326TIP3   OH240536   5.914   6.221   7.261 -0.0322  0.3143  0.0793
 6326TIP3    H140537   5.885   6.286   7.196  0.4108  0.8615  0.4176
 6326TIP3    H240538   5.862   6.240   7.339 -2.2881 -1.8461 -0.7750
 6327TIP3   OH240539   4.882   5.941   9.333  0.3518  0.1449  0.5430
 6327TIP3    H140540   4.805   5.994   9.312  0.2483  0.4629  1.6486
 6327TIP3    H240541   4.903   5.895   9.252  1.1010  2.7059 -0.8227
 6328TIP3   OH240542   1.393   0.750   2.075  0.5220 -0.2013 -0.0397
 6328TIP3    H140543   1.419   0.835   2.041 -2.8746  1.0712  0.2027
 6328TIP3    H240544   1.448   0.737   2.152  1.7368  1.3206 -0.6033
 6329TIP3   OH240545   4.752   3.349   8.398 -0.8630  0.1907 -0.6496
 6329TIP3    H140546   4.843   3.343   8.430 -1.1877 -0.4351  0.2019
 6329TIP3    H240547   4.699   3.335   8.476 -1.7019 -1.8324 -1.5146
 6330TIP3   OH240548   0.777   3.457   8.946  0.0372  0.2264 -0.2508
 6330TIP3    H140549   0.707   3.433   8.886  0.1588 -0.6118 -0.0701
 6330TIP3    H240550   0.732   3.490   9.024 -0.3314 -2.7121  0.9350
 6331TIP3   OH240551   6.244   5.990   0.827  0.1157 -0.1394 -0.1047
 6331TIP3    H140552   6.335   5.973   0.800  0.6625  0.7657  1.0895
 6331TIP3    H240553   6.208   6.043   0.756  0.2821 -1.0840 -0.9273
 6332TIP3   OH240554   5.742   1.327   8.191  0.2588  0.3930  0.1710
 6332TIP3    H140555   5.779   1.249   8.149  0.6622  1.0884 -0.7959
 6332TIP3    H240556   5.797   1.399   8.160  1.0428  0.8660  2.4692
 6333TIP3   OH240557   0.674   0.776   0.660 -0.3244  0.0136 -0.0754
 6333TIP3    H140558   0.678   0.818   0.574 -0.7373  0.0656 -0.0721
 6333TIP3    H240559   0.634   0.691   0.643 -0.3854  0.0154  0.0625
 6334TIP3   OH240560   3.981   5.717   1.739  0.1681  0.3060  0.0449
 6334TIP3    H140561   3.953   5.661   1.667  0.3934  1.7382 -1.2220
 6334TIP3    H240562   4.051   5.770   1.702  1.7295 -0.3350  1.9533
 6335TIP3   OH240563   2.647   0.518   8.533 -0.0774 -0.0472 -0.2266
 6335TIP3    H140564   2.612   0.470   8.608  0.8816 -0.3376  0.0459
 6335TIP3    H240565   2.651   0.609   8.564 -2.0203  0.2938 -0.7900
 6336TIP3   OH240566   2.717   0.910   1.079 -0.6579  0.3018 -0.4856
 6336TIP3    H140567   2.693   0.956   1.159 -0.4284 -0.6932  0.1799
 6336TIP3    H240568   2.635   0.873   1.047 -0.7661  0.7818 -0.7717
 6337TIP3   OH240569   1.246   2.580   9.037 -0.6021 -0.2699 -0.0900
 6337TIP3    H140570   1.159   2.610   9.014 -0.4429 -0.8060 -1.4965
 6337TIP3    H240571   1.263   2.506   8.979 -0.2597 -1.9470  1.9942
 6338TIP3   OH240572   5.931   5.482   2.386  0.0351  0.1333 -0.4097
 6338TIP3    H140573   5.929   5.398   2.341 -0.6483  0.5676 -1.2362
 6338TIP3    H240574   5.997   5.472   2.455 -1.1669 -1.5736  0.5409
 6339TIP3   OH240575   2.898   4.756   2.403 -0.0128  0.2895  0.0988
 6339TIP3    H140576   2.855   4.747   2.318 -1.4800 -0.2030  0.8436
 6339TIP3    H240577   2.927   4.668   2.424  0.1805  0.3750  0.1840
 6340TIP3   OH240578   3.486   5.335   1.303  0.1471 -0.1671  0.1428
 6340TIP3    H140579   3.422   5.303   1.239 -0.1988  1.9198 -0.6440
 6340TIP3    H240580   3.570   5.299   1.273  0.1451  1.5343 -2.1298
 6341TIP3   OH240581   2.081   3.084   8.398  0.6317 -0.4544 -0.3265
 6341TIP3    H140582   2.142   3.011   8.391  0.3365 -0.7470  0.1065
 6341TIP3    H240583   2.136   3.162   8.398  0.9397 -0.6618 -0.9991
 6342TIP3   OH240584   3.852   0.024   7.439 -0.7090  0.0755 -0.0201
 6342TIP3    H140585   3.793   0.002   7.367 -1.1182  0.5494  0.1594
 6342TIP3    H240586   3.938  -0.004   7.409 -0.8486  0.3974 -0.7607
 6343TIP3   OH240587   1.385   2.516   7.121 -0.5043  0.0174 -0.3286
 6343TIP3    H140588   1.382   2.546   7.030 -1.6810  0.1465 -0.2634
 6343TIP3    H240589   1.369   2.595   7.173  0.0415 -0.0760 -0.0080
 6344TIP3   OH240590   2.253   2.484   1.542 -0.4261  1.0761 -0.3769
 6344TIP3    H140591   2.348   2.483   1.541 -0.3863  0.3147  1.0863
 6344TIP3    H240592   2.230   2.509   1.632 -1.6218  2.4101 -1.0222
 6345TIP3   OH240593   5.125   3.466   0.201 -0.2185 -0.5066 -0.3736
 6345TIP3    H140594   5.099   3.517   0.278 -1.7861  0.7696 -1.6823
 6345TIP3    H240595   5.220   3.455   0.211 -0.2805  0.1690  1.4016
 6346TIP3   OH240596   3.707   3.070   0.041 -0.4258 -0.0294  0.5043
 6346TIP3    H140597   3.768   3.036   0.106 -2.7529 -1.1842  2.2511
 6346TIP3    H240598   3.716   3.013  -0.034  2.3956  1.3895 -0.3683
 6347TIP3   OH240599   0.590   1.970   1.539 -0.4919  0.9254  0.6014
 6347TIP3    H140600   0.661   1.922   1.495 -0.6548  0.0415  1.2745
 6347TIP3    H240601   0.575   1.921   1.620 -2.9749  0.1338 -0.2567
 6348TIP3   OH240602   3.302   4.582   1.604  0.0536 -1.0290 -0.0165
 6348TIP3    H140603   3.395   4.584   1.628 -0.4179 -1.0447  2.0487
 6348TIP3    H240604   3.301   4.564   1.510  2.1789  1.1757 -0.5477
 6349TIP3   OH240605   0.673   3.772   7.588  0.4718 -0.4511  1.0415
 6349TIP3    H140606   0.702   3.850   7.635 -0.9646  0.1885  0.9390
 6349TIP3    H240607   0.596   3.742   7.636  0.3670 -1.1786  0.4458
 6350TIP3   OH240608   6.050   6.290   9.372  0.2677  0.5038 -0.1491
 6350TIP3    H140609   5.979   6.252   9.422  0.2074  0.1337 -0.5119
 6350TIP3    H240610   6.088   6.216   9.323  1.5230  0.4966  0.7802
 6351TIP3   OH240611   5.470   4.648   1.571  0.1604  0.1852  0.4226
 6351TIP3    H140612   5.502   4.604   1.650 -0.8727 -3.0164 -0.8120
 6351TIP3    H240613   5.381   4.674   1.593  0.2740  0.3739  0.6739
 6352TIP3   OH240614   1.122   5.597   7.445  0.0560  0.1609 -0.1161
 6352TIP3    H140615   1.170   5.668   7.486  2.3413 -0.8110 -0.9589
 6352TIP3    H240616   1.048   5.640   7.402  0.0080  1.6817  1.4003
 6353TIP3   OH240617   4.195   1.374   0.454  0.2485 -0.3589 -0.4980
 6353TIP3    H140618   4.290   1.373   0.454  0.2535 -1.0680  0.1472
 6353TIP3    H240619   4.171   1.459   0.417  1.1270 -0.0757 -0.4233
 6354TIP3   OH240620   1.051   5.690   8.055 -0.4535 -0.2868 -0.5509
 6354TIP3    H140621   1.067   5.783   8.040 -0.4623 -0.0059  1.0715
 6354TIP3    H240622   1.138   5.651   8.059 -0.2608  0.2500  2.1841
 6355TIP3   OH240623   2.702   1.135   8.601 -0.2795 -0.2461  0.4850
 6355TIP3    H140624   2.684   1.136   8.507 -0.4780 -1.1048  0.5006
 6355TIP3    H240625   2.624   1.096   8.640 -0.1994  0.1056  1.0115
 6356TIP3   OH240626   3.209   3.507   2.318  0.3309 -0.1924 -0.9466
 6356TIP3    H140627   3.294   3.463   2.326  0.5053 -0.3696 -3.0485
 6356TIP3    H240628   3.226   3.596   2.347  0.5436 -0.8486  1.1547
 6357TIP3   OH240629   1.088   0.469   3.299 -0.2808  0.0514  0.6639
 6357TIP3    H140630   1.008   0.438   3.258 -0.7579 -0.0685  1.6627
 6357TIP3    H240631   1.098   0.415   3.377  0.2986  0.6594  1.0262
 6358TIP3   OH240632   4.130   5.521   0.489 -0.1277 -0.3300  0.1376
 6358TIP3    H140633   4.206   5.573   0.513  0.6014 -1.7459  1.0402
 6358TIP3    H240634   4.057   5.583   0.487  0.9638  0.9805 -0.3756
 6359TIP3   OH240635   3.460   3.554   6.734 -0.3913  0.0166 -0.7585
 6359TIP3    H140636   3.397   3.511   6.675  0.7433 -2.0480 -0.5496
 6359TIP3    H240637   3.513   3.483   6.768  0.2984  1.3991  1.2291
 6360TIP3   OH240638   5.629   4.026   8.477  0.0913 -0.6957 -0.1517
 6360TIP3    H140639   5.627   4.097   8.542  0.0134 -0.0929 -0.7942
 6360TIP3    H240640   5.720   4.025   8.446 -0.5838  1.3963 -2.5368
 6361TIP3   OH240641   2.287   1.646   2.519  0.2998  0.4238 -0.0561
 6361TIP3    H140642   2.344   1.579   2.557  2.1726  1.1641 -1.3905
 6361TIP3    H240643   2.225   1.596   2.466  0.2482 -0.3732  0.7333
 6362TIP3   OH240644   0.517   2.733   8.084 -0.1954  0.2184 -0.7606
 6362TIP3    H140645   0.574   2.657   8.097 -2.2414 -1.4058 -0.6560
 6362TIP3    H240646   0.439   2.714   8.136  0.5175  4.0642  2.1741
 6363TIP3   OH240647   5.761   3.458   2.095 -0.6467  0.6064  0.0397
 6363TIP3    H140648   5.792   3.548   2.091  1.1196  0.0065 -0.5081
 6363TIP3    H240649   5.760   3.437   2.189  0.2279  0.7716  0.0891
 6364TIP3   OH240650   4.612   3.557   8.695 -0.0350 -0.4339 -0.1349
 6364TIP3    H140651   4.557   3.550   8.617 -0.5488  0.5318  0.1223
 6364TIP3    H240652   4.633   3.466   8.718  1.8121 -0.7339 -2.5369
 6365TIP3   OH240653   6.216   5.868   1.920  0.3832  0.7577 -0.2980
 6365TIP3    H140654   6.144   5.929   1.938  0.9388  1.1641  0.5866
 6365TIP3    H240655   6.219   5.864   1.824 -0.6894  0.8776 -0.3539
 6366TIP3   OH240656   0.791   6.464   0.177  0.3476 -0.2397  0.2428
 6366TIP3    H140657   0.745   6.528   0.232 -1.6866  0.7479 -2.4163
 6366TIP3    H240658   0.722   6.414   0.134  1.8900 -2.5048  0.2055
 6367TIP3   OH240659   0.498   2.827   1.018  0.4806  0.1830 -0.2784
 6367TIP3    H140660   0.539   2.888   0.956 -0.6244 -0.2585 -1.4779
 6367TIP3    H240661   0.457   2.884   1.083  0.9890  0.6716 -0.3735
 6368TIP3   OH240662   5.693   1.319   2.050 -0.4526  0.5138  0.1515
 6368TIP3    H140663   5.763   1.277   1.999  0.4263 -0.6064  2.1604
 6368TIP3    H240664   5.717   1.303   2.141 -2.3654  1.7655  0.9320
 6369TIP3   OH240665   4.384   5.824   8.137  0.2698  0.2219 -0.2747
 6369TIP3    H140666   4.462   5.868   8.104  0.7310 -1.0091 -0.8735
 6369TIP3    H240667   4.341   5.789   8.059 -0.0389 -0.4655  0.1975
 6370TIP3   OH240668   2.954   2.694   8.019 -0.0756 -0.0024 -0.1726
 6370TIP3    H140669   2.876   2.639   8.027  0.0807 -0.0696  1.1788
 6370TIP3    H240670   3.000   2.659   7.943 -0.6186 -0.9203 -0.1027
 6371TIP3   OH240671   0.334   0.042   7.825  0.1205  0.3424 -0.1032
 6371TIP3    H140672   0.337   0.131   7.792 -0.2310  0.5350  0.3742
 6371TIP3    H240673   0.278   0.046   7.902 -1.5306 -0.6662 -1.1891
 6372TIP3   OH240674   0.266   0.450   0.193  0.6864 -0.0384  0.4827
 6372TIP3    H140675   0.275   0.356   0.179 -0.3013 -0.1886  0.7419
 6372TIP3    H240676   0.355   0.484   0.191  1.1056 -1.0743  1.0200
 6373TIP3   OH240677   5.080   2.402   8.467  0.2288 -0.4235 -0.0157
 6373TIP3    H140678   5.068   2.440   8.554  2.1934 -0.0120  0.1220
 6373TIP3    H240679   5.034   2.462   8.408  1.6948  1.2114  0.4097
 6374TIP3   OH240680   1.790   1.913   7.553 -0.1478  0.1204  0.5762
 6374TIP3    H140681   1.754   1.825   7.542  0.5091 -0.6202  3.3679
 6374TIP3    H240682   1.730   1.956   7.614  0.0382  1.2880 -0.0415
 6375TIP3   OH240683   2.767   5.849   0.175  0.5260  0.4101  0.1601
 6375TIP3    H140684   2.746   5.941   0.189  1.2210  0.5920  0.0685
 6375TIP3    H240685   2.862   5.848   0.163  0.2173  0.1409 -3.2597
 6376TIP3   OH240686   5.597   2.679   0.713 -0.0145 -0.3194  0.2009
 6376TIP3    H140687   5.685   2.695   0.679  0.2466  0.6794  1.2845
 6376TIP3    H240688   5.540   2.733   0.658 -0.1343 -1.7581 -1.1865
 6377TIP3   OH240689   1.563   4.751   7.743 -0.5081 -0.4590 -0.4345
 6377TIP3    H140690   1.617   4.792   7.676  0.0181 -1.9964 -0.9964
 6377TIP3    H240691   1.480   4.797   7.738 -0.0274  0.3569 -1.2110
 6378TIP3   OH240692   1.715   3.347   9.282 -0.7653  0.1617 -0.2246
 6378TIP3    H140693   1.657   3.377   9.212 -0.0482  0.6456 -0.6241
 6378TIP3    H240694   1.799   3.332   9.239 -1.1320 -2.7723 -0.1141
 6379TIP3   OH240695   4.083   4.608   8.888 -0.0058 -0.0302 -0.1329
 6379TIP3    H140696   3.993   4.617   8.921  0.4693  1.2911  0.9351
 6379TIP3    H240697   4.135   4.591   8.967  1.1237  2.8465 -0.1291
 6380TIP3   OH240698   1.066   0.704   8.690  0.5185 -0.1891  0.3850
 6380TIP3    H140699   1.129   0.758   8.737 -0.2415  1.3769 -0.3076
 6380TIP3    H240700   1.005   0.767   8.651 -1.0220 -1.5951  0.3932
 6381TIP3   OH240701   6.394   4.855   2.370  0.3247  0.3636  0.4271
 6381TIP3    H140702   6.445   4.774   2.372  1.5996  1.1136 -0.5872
 6381TIP3    H240703   6.326   4.841   2.436  1.1555 -1.1107  1.0329
 6382TIP3   OH240704   5.077   4.998   0.996  0.3608  0.0056  0.4208
 6382TIP3    H140705   5.105   5.008   1.087 -0.9382  2.6745  0.6198
 6382TIP3    H240706   5.003   4.937   1.000  1.9586 -2.0215  0.7148
 6383TIP3   OH240707   2.266   3.526   0.818 -0.2763  1.0338  0.2975
 6383TIP3    H140708   2.274   3.448   0.873 -0.4420  0.5806 -0.2977
 6383TIP3    H240709   2.284   3.493   0.729 -3.2011  1.0574 -0.4035
 6384TIP3   OH240710   6.497   0.158   0.111 -0.2000 -0.4055  0.5315
 6384TIP3    H140711   6.552   0.166   0.189  0.5622 -2.2039  0.2451
 6384TIP3    H240712   6.525   0.075   0.071 -0.7085  0.3768 -1.5522
 6385TIP3   OH240713   1.403   3.045   7.158 -0.0638 -0.4350  0.3104
 6385TIP3    H140714   1.335   3.076   7.218 -1.6025 -0.0529 -1.5302
 6385TIP3    H240715   1.452   3.124   7.135 -1.7507  0.1411 -1.6289
 6386TIP3   OH240716   1.728   4.952   2.237 -0.1967 -0.3374  0.3105
 6386TIP3    H140717   1.642   4.921   2.207  0.8583 -0.6514 -2.6893
 6386TIP3    H240718   1.760   4.881   2.293 -0.3109 -2.0764 -1.6896
 6387TIP3   OH240719   4.483   5.698   8.368 -0.0477 -0.0398  0.7138
 6387TIP3    H140720   4.531   5.632   8.317  0.6479 -0.0339  1.3491
 6387TIP3    H240721   4.452   5.761   8.303 -0.5669 -0.8871  0.1146
 6388TIP3   OH240722   3.423   4.967   7.576  0.0127  0.2556 -0.3688
 6388TIP3    H140723   3.378   5.010   7.503 -0.7955 -1.6697 -1.0788
 6388TIP3    H240724   3.376   4.996   7.653 -1.3293 -0.3054 -0.9461
 6389TIP3   OH240725   3.154   5.239   8.280 -0.9086  0.0647 -0.0981
 6389TIP3    H140726   3.092   5.240   8.207 -0.5462  4.3280 -0.6418
 6389TIP3    H240727   3.232   5.196   8.245 -1.3327  0.5036 -1.6715
 6390TIP3   OH240728   2.477   1.844   7.229 -0.3951 -0.0653 -0.4006
 6390TIP3    H140729   2.502   1.756   7.256  0.2053  0.3961  0.5940
 6390TIP3    H240730   2.506   1.851   7.138  0.1929 -0.6478 -0.2632
 6391TIP3   OH240731   4.334   1.212   1.063  0.2375 -0.1581  0.0646
 6391TIP3    H140732   4.373   1.235   1.147  2.2822 -0.1529 -0.8160
 6391TIP3    H240733   4.363   1.122   1.047 -0.2439 -0.2094 -0.5549
 6392TIP3   OH240734   5.640   6.368   8.597 -0.5633  0.7702  0.3905
 6392TIP3    H140735   5.587   6.448   8.607 -2.0504 -0.2681  1.1795
 6392TIP3    H240736   5.719   6.385   8.649 -1.1529  1.4828  1.0818
 6393TIP3   OH240737   4.789   5.343   8.879 -0.3427 -0.1035 -0.7254
 6393TIP3    H140738   4.871   5.390   8.895 -1.1559  1.2605 -0.4857
 6393TIP3    H240739   4.750   5.387   8.804 -0.8066 -0.8289 -0.9212
 6394TIP3   OH240740   4.246   2.320   0.770  0.0022 -0.2289 -0.5931
 6394TIP3    H140741   4.244   2.229   0.739  0.8944 -0.6105  0.3665
 6394TIP3    H240742   4.156   2.338   0.797  0.0936 -1.3654  0.5988
 6395TIP3   OH240743   0.479   4.250   0.027 -0.1927  0.0728  0.2379
 6395TIP3    H140744   0.441   4.272   0.112 -0.3690 -0.5195  0.3163
 6395TIP3    H240745   0.439   4.166   0.004 -0.5354  0.4762 -0.6721
 6396TIP3   OH240746   5.683   2.716   7.959 -0.1534 -0.1743 -0.7974
 6396TIP3    H140747   5.711   2.806   7.947  0.9357 -0.3859 -0.0464
 6396TIP3    H240748   5.764   2.665   7.953 -0.5040 -0.9272  0.4034
 6397TIP3   OH240749   2.677   4.781   0.713  0.1325 -0.1806 -0.3140
 6397TIP3    H140750   2.760   4.750   0.749 -0.3836 -0.4518  0.6768
 6397TIP3    H240751   2.622   4.703   0.709 -0.5108  0.2319  0.3019
 6398TIP3   OH240752   4.452   6.349   1.946 -0.1802 -0.3020  0.2741
 6398TIP3    H140753   4.541   6.345   1.912 -0.4029 -2.1290 -0.2104
 6398TIP3    H240754   4.397   6.322   1.873 -1.1082  0.2912  0.7230
 6399TIP3   OH240755   2.083   5.931   0.699  0.3519 -0.0773 -0.3800
 6399TIP3    H140756   2.023   5.889   0.761 -0.8520 -0.1164 -1.5083
 6399TIP3    H240757   2.161   5.877   0.700  0.1811 -0.3259  0.7629
 6400TIP3   OH240758   0.117   3.821   2.187 -0.0780 -0.1372 -0.1968
 6400TIP3    H140759   0.093   3.729   2.172  0.0113  0.0263 -1.4162
 6400TIP3    H240760   0.034   3.868   2.184  0.1164  0.1683 -2.4339
 6401TIP3   OH240761   1.734   0.524   7.349  0.0406 -0.4470  0.1648
 6401TIP3    H140762   1.736   0.612   7.311 -1.9972  0.1257  1.2137
 6401TIP3    H240763   1.798   0.474   7.298  2.7389  2.0971  0.7678
 6402TIP3   OH240764   2.084   1.387   8.649 -0.0900 -0.2419  0.1074
 6402TIP3    H140765   2.047   1.299   8.657  0.3177 -0.3315  1.3120
 6402TIP3    H240766   2.099   1.414   8.740 -1.2422  1.5222 -0.1815
 6403TIP3   OH240767   6.050   1.668   7.878 -0.6937  0.2487  0.6762
 6403TIP3    H140768   6.143   1.645   7.876 -1.1074 -1.5963 -0.1712
 6403TIP3    H240769   6.035   1.716   7.796 -1.0469 -2.2133 -0.8042
 6404TIP3   OH240770   4.656   4.912   8.516  0.2556  0.4041  0.6242
 6404TIP3    H140771   4.598   4.973   8.561  0.2448  1.6401 -0.9592
 6404TIP3    H240772   4.667   4.950   8.429  1.6078 -1.0074  0.1360
 6405TIP3   OH240773   3.878   5.370   7.699 -0.0019 -0.0188  0.3551
 6405TIP3    H140774   3.859   5.430   7.628 -0.8359 -0.8808 -0.1626
 6405TIP3    H240775   3.969   5.390   7.723  0.0126  0.8504 -0.3745
 6406TIP3   OH240776   6.198   1.839   9.101  0.6424  0.0389 -0.6768
 6406TIP3    H140777   6.255   1.763   9.111 -1.6050 -1.7003 -0.1309
 6406TIP3    H240778   6.209   1.888   9.182  0.8431 -0.6577 -0.2762
 6407TIP3   OH240779   2.060   0.730   1.839 -0.8977  0.0487  0.1504
 6407TIP3    H140780   2.006   0.684   1.903 -0.7457  1.0860  1.0504
 6407TIP3    H240781   2.136   0.760   1.889 -1.1627  1.5790 -0.3187
 6408TIP3   OH240782   5.242   5.624   1.852 -0.4094  0.2681  0.4732
 6408TIP3    H140783   5.222   5.643   1.760  0.8553  0.7371  0.2605
 6408TIP3    H240784   5.236   5.709   1.896  1.4098  0.5488  0.2964
 6409TIP3   OH240785   6.364   2.489   0.188  0.4193 -0.5522  0.3678
 6409TIP3    H140786   6.347   2.583   0.178 -0.5478 -0.8776 -1.3774
 6409TIP3    H240787   6.436   2.471   0.128 -1.1171 -1.3552 -1.3336
 6410TIP3   OH240788   4.742   5.860   8.570  0.7137  0.4197  0.2920
 6410TIP3    H140789   4.773   5.950   8.562  1.0022  0.2503 -0.6962
 6410TIP3    H240790   4.678   5.850   8.499 -1.1656  0.5598  1.8851
 6411TIP3   OH240791   1.290   6.499   0.831  0.3243  0.2280 -0.5835
 6411TIP3    H140792   1.341   6.553   0.770  0.5107 -0.5568 -1.1418
 6411TIP3    H240793   1.337   6.415   0.833 -0.0109  0.0553  0.1955
 6412TIP3   OH240794   3.615   1.806   8.412 -0.0446  0.2368  0.2924
 6412TIP3    H140795   3.644   1.794   8.502 -0.7212 -0.0112  0.4881
 6412TIP3    H240796   3.645   1.728   8.366  1.1450  0.8064  0.0667
 6413TIP3   OH240797   0.341   2.602   7.880 -0.1695 -0.3996 -0.2997
 6413TIP3    H140798   0.292   2.624   7.958 -1.1081 -2.7615 -0.1266
 6413TIP3    H240799   0.411   2.543   7.911 -0.0764 -0.7404 -1.1183
 6414TIP3   OH240800   4.224   4.539   0.484 -0.2692  0.0090 -0.4692
 6414TIP3    H140801   4.201   4.625   0.518  0.4892  0.3470 -0.7856
 6414TIP3    H240802   4.249   4.489   0.562  2.8487  1.2144 -0.5551
 6415TIP3   OH240803   0.451   2.462   0.037  0.2040  0.8522  0.0111
 6415TIP3    H140804   0.513   2.447  -0.035 -0.5676 -0.2818 -0.4413
 6415TIP3    H240805   0.396   2.534   0.006 -0.7206 -0.2424 -0.9540
 6416TIP3   OH240806   4.552   2.157   7.917 -0.1186  0.5714  0.2807
 6416TIP3    H140807   4.624   2.177   7.857 -1.0917  1.2810 -0.6920
 6416TIP3    H240808   4.540   2.237   7.968 -0.9278  0.8413 -0.3236
 6417TIP3   OH240809   2.767   5.424   8.731 -0.0943 -0.0733 -0.5433
 6417TIP3    H140810   2.685   5.466   8.756 -1.0030 -1.4949 -1.0163
 6417TIP3    H240811   2.805   5.394   8.814 -0.1895  0.3128 -0.3562
 6418TIP3   OH240812   1.148   3.717   0.734  0.3171  0.1813 -0.7611
 6418TIP3    H140813   1.164   3.811   0.741  2.2425 -0.1816  0.6167
 6418TIP3    H240814   1.065   3.703   0.779  0.0303  1.2184 -0.9527
 6419TIP3   OH240815   4.798   6.245   9.448 -0.1707 -0.1504 -0.2007
 6419TIP3    H140816   4.879   6.197   9.463  0.6037  1.2059  0.2212
 6419TIP3    H240817   4.766   6.265   9.536  0.5373  1.6546 -0.2938
 6420TIP3   OH240818   3.614   2.070   7.203  0.1098  0.4360 -0.1748
 6420TIP3    H140819   3.534   2.117   7.224  0.6114  1.4595 -0.5074
 6420TIP3    H240820   3.671   2.135   7.163  1.6181  0.0631  1.2525
 6421TIP3   OH240821   3.339   1.493   0.877 -0.0643 -0.0986 -0.5571
 6421TIP3    H140822   3.259   1.489   0.928 -0.8305 -1.3156 -1.7922
 6421TIP3    H240823   3.310   1.519   0.789  0.7026 -1.7996 -1.3539
 6422TIP3   OH240824   5.196   6.496   7.326  0.0188 -0.3807 -0.0684
 6422TIP3    H140825   5.180   6.577   7.278 -0.1636  0.0262  0.6666
 6422TIP3    H240826   5.250   6.443   7.267  0.9170  0.6407 -0.1782
 6423TIP3   OH240827   0.281   6.407   8.445  0.1481 -0.0722  0.7708
 6423TIP3    H140828   0.297   6.436   8.355 -1.5389  0.4875  0.5995
 6423TIP3    H240829   0.214   6.339   8.436 -1.9538  1.7464  1.7160
 6424TIP3   OH240830   5.363   1.506   6.988  0.7881  0.3434 -0.6916
 6424TIP3    H140831   5.302   1.480   6.919  0.5641  0.8784 -0.7031
 6424TIP3    H240832   5.433   1.441   6.985  0.8672  0.4576 -1.5386
 6425TIP3   OH240833   6.442   5.328   9.216 -0.0228  0.7110  0.4132
 6425TIP3    H140834   6.404   5.274   9.146  2.8262  0.0198 -0.7426
 6425TIP3    H240835   6.443   5.416   9.181  0.0080  0.6316  0.2151
 6426TIP3   OH240836   6.486   5.884   1.825  0.7643 -0.1879 -0.5463
 6426TIP3    H140837   6.402   5.883   1.870  1.8001 -0.9432  1.4969
 6426TIP3    H240838   6.476   5.820   1.754 -0.7661  0.7142 -1.1978
 6427TIP3   OH240839   0.491   4.173   7.794  0.3178 -0.1639 -0.0394
 6427TIP3    H140840   0.541   4.243   7.753 -0.6689  0.6189  0.0530
 6427TIP3    H240841   0.441   4.133   7.723 -1.6340  1.3969  0.3465
 6428TIP3   OH240842   2.587   1.825   7.697 -0.7697 -0.0085 -0.3112
 6428TIP3    H140843   2.599   1.815   7.792  0.5172 -0.6835 -0.5221
 6428TIP3    H240844   2.535   1.748   7.672  0.7071 -0.9895 -0.4520
 6429TIP3   OH240845   4.131   0.090   1.060 -0.0410  0.0812  0.1286
 6429TIP3    H140846   4.127   0.025   0.990 -0.6287 -0.4638  0.6618
 6429TIP3    H240847   4.224   0.114   1.064 -0.0554  0.4425 -1.1145
 6430TIP3   OH240848   1.963   0.805   0.460  0.1856  0.7264  0.4468
 6430TIP3    H140849   1.974   0.740   0.391  0.7600  0.5641  0.6881
 6430TIP3    H240850   2.047   0.850   0.465 -0.0671  1.1955  0.5830
 6431TIP3   OH240851   3.784   6.482   1.192  0.3711  0.6609  0.0922
 6431TIP3    H140852   3.790   6.518   1.280 -1.5750  0.9830  0.1404
 6431TIP3    H240853   3.754   6.555   1.138 -2.2581 -0.4199 -0.0691
 6432TIP3   OH240854   6.260   6.108   8.750 -0.6915 -0.0756 -0.1256
 6432TIP3    H140855   6.309   6.185   8.780 -2.8132  1.0423  0.6649
 6432TIP3    H240856   6.251   6.121   8.655  0.8803 -0.5538 -0.3731
 6433TIP3   OH240857   0.798   5.591   0.582  0.0088 -0.3466 -0.0867
 6433TIP3    H140858   0.706   5.612   0.598  0.3181  0.6646  0.4775
 6433TIP3    H240859   0.802   5.495   0.588 -1.0164 -0.4071 -0.2005
 6434TIP3   OH240860   1.894   1.203   9.431  0.0499 -0.7211 -0.1364
 6434TIP3    H140861   1.957   1.204   9.359  1.6740  0.0337  1.2143
 6434TIP3    H240862   1.830   1.137   9.407  2.3960 -2.9075 -0.7666
 6435TIP3   OH240863   1.618   2.006   7.746 -0.0135 -0.1400 -0.0872
 6435TIP3    H140864   1.592   1.915   7.731  0.9390 -0.6311  1.1235
 6435TIP3    H240865   1.555   2.039   7.810  0.1132 -0.1863  0.0610
 6436TIP3   OH240866   5.353   2.561   9.256  1.3749 -0.2229 -0.2344
 6436TIP3    H140867   5.433   2.540   9.304  1.0847 -2.7668 -0.7016
 6436TIP3    H240868   5.296   2.485   9.271  0.1619  0.2215 -2.2203
 6437TIP3   OH240869   4.414   0.196   0.571  0.2928  0.1172  1.0045
 6437TIP3    H140870   4.455   0.264   0.624 -0.0588  2.4267 -1.4201
 6437TIP3    H240871   4.482   0.169   0.510 -0.1604 -0.1891  0.6292
 6438TIP3   OH240872   0.416   4.747   0.878 -0.2919  0.1770  0.0766
 6438TIP3    H140873   0.417   4.753   0.783 -0.2842 -0.4581  0.0290
 6438TIP3    H240874   0.331   4.708   0.899 -0.3135  0.3557  0.3323
 6439TIP3   OH240875   5.035   4.168   9.075 -0.1952 -0.0721  0.1498
 6439TIP3    H140876   5.094   4.105   9.033 -0.6206  1.3677 -2.8050
 6439TIP3    H240877   4.988   4.116   9.140  3.3784 -1.5628  1.8520
 6440TIP3   OH240878   6.526   1.189   1.407  0.8663 -0.1482  0.2538
 6440TIP3    H140879   6.608   1.140   1.406  1.6126  1.0010 -1.8374
 6440TIP3    H240880   6.514   1.215   1.498  3.1151  0.0763  0.5463
 6441TIP3   OH240881   6.398   6.303   8.886  0.0784 -0.3016  0.4391
 6441TIP3    H140882   6.430   6.392   8.878  0.3589 -0.4336  0.0715
 6441TIP3    H240883   6.382   6.291   8.980 -0.1892  0.2096  0.4609
 6442TIP3   OH240884   1.366   4.825   8.994 -0.0921 -0.3584 -0.3496
 6442TIP3    H140885   1.315   4.795   9.069 -0.1260 -1.5836 -0.8485
 6442TIP3    H240886   1.313   4.894   8.955 -1.1477 -1.2851 -0.5779
 6443TIP3   OH240887   0.240   4.829   1.525  0.5820 -0.1736  0.2317
 6443TIP3    H140888   0.189   4.818   1.605 -0.3053  0.7932 -0.1853
 6443TIP3    H240889   0.207   4.761   1.466 -0.3754  0.5535 -0.0970
 6444TIP3   OH240890   3.618   3.116   8.266  0.0284 -0.6524  0.1313
 6444TIP3    H140891   3.709   3.099   8.292  0.1242 -1.3408 -0.6404
 6444TIP3    H240892   3.621   3.121   8.171 -0.7736 -0.8383  0.0942
 6445TIP3   OH240893   3.742   5.235   7.376  0.1550  0.5920 -0.5258
 6445TIP3    H140894   3.799   5.294   7.327 -0.4390 -0.3470 -2.4750
 6445TIP3    H240895   3.654   5.256   7.346 -0.3623  0.7300  1.0171
 6446TIP3   OH240896   6.118   4.626   9.414 -0.2430  0.0098  0.1943
 6446TIP3    H140897   6.165   4.543   9.421 -2.2795 -1.1856  0.4455
 6446TIP3    H240898   6.140   4.673   9.494 -0.4672 -1.0858  0.9204
 6447TIP3   OH240899   5.483   1.463   1.035 -0.2035  0.0661  0.1980
 6447TIP3    H140900   5.542   1.498   0.968 -0.2998 -1.0501 -0.5085
 6447TIP3    H240901   5.396   1.470   0.996 -0.4962  1.1840  1.0065
 6448TIP3   OH240902   4.630   5.994   0.827  0.1766 -0.1346 -0.8032
 6448TIP3    H140903   4.573   6.012   0.752 -1.1024 -0.9218 -0.0480
 6448TIP3    H240904   4.719   6.003   0.792 -0.3834  1.4033 -1.9361
 6449TIP3   OH240905   5.451   6.191   8.692 -0.7485 -0.0527 -0.2462
 6449TIP3    H140906   5.442   6.193   8.787 -1.3599  0.5440 -0.3080
 6449TIP3    H240907   5.515   6.260   8.673  0.1369 -0.8360 -0.2040
 6450TIP3   OH240908   2.678   5.035   8.360 -0.2801 -0.5328 -0.3773
 6450TIP3    H140909   2.732   4.959   8.381 -0.2155 -0.9422 -1.9451
 6450TIP3    H240910   2.694   5.096   8.432  1.9601 -0.8075 -0.5721
 6451TIP3   OH240911   4.144   3.480   1.086  0.6655  0.2628  0.5324
 6451TIP3    H140912   4.050   3.497   1.078  0.3756 -0.0137  2.6713
 6451TIP3    H240913   4.157   3.396   1.043 -0.8212 -1.5256  3.2576
 6452TIP3   OH240914   0.288   5.938   7.831  0.5050  0.2425 -0.3002
 6452TIP3    H140915   0.313   5.995   7.758  1.9983  0.1320  0.0846
 6452TIP3    H240916   0.213   5.982   7.871  0.5959  1.0705 -1.0084
 6453TIP3   OH240917   4.778   5.963   1.833  0.5767  0.4593  0.1837
 6453TIP3    H140918   4.683   5.950   1.836  0.4269  1.5504  0.7532
 6453TIP3    H240919   4.811   5.889   1.781 -0.6449  0.4177 -0.5796
 6454TIP3   OH240920   1.956   6.403   2.047 -0.0411  0.0740 -0.1037
 6454TIP3    H140921   2.026   6.341   2.067  0.3425  0.7262  0.6180
 6454TIP3    H240922   1.999   6.489   2.048 -0.6781  0.4043 -0.5138
 6455TIP3   OH240923   2.103   3.954   9.400  0.4701 -0.7213 -0.3688
 6455TIP3    H140924   2.161   3.895   9.351 -0.8637 -1.0985 -1.5573
 6455TIP3    H240925   2.120   3.933   9.492  2.2901 -0.7266 -0.6703
 6456TIP3   OH240926   0.428   0.344   9.055  0.3154  0.2688 -0.0093
 6456TIP3    H140927   0.451   0.322   9.145  0.6284 -1.7693 -0.5532
 6456TIP3    H240928   0.511   0.366   9.013  0.6993 -2.2189 -0.6721
 6457TIP3   OH240929   0.307   2.276   1.753  0.3360 -0.5089  0.1694
 6457TIP3    H140930   0.358   2.313   1.681  0.2478 -0.7056  0.0053
 6457TIP3    H240931   0.364   2.210   1.793  0.0636 -1.0101 -0.2644
 6458TIP3   OH240932   3.421   4.938   8.575  0.0734 -0.0049  0.2177
 6458TIP3    H140933   3.355   5.004   8.557  0.5824  0.6905  0.8490
 6458TIP3    H240934   3.491   4.955   8.511  0.4659  0.4557  0.7558
 6459TIP3   OH240935   5.160   6.523   9.024 -0.1147 -0.7903  0.0459
 6459TIP3    H140936   5.200   6.609   9.036  2.0053 -1.8361  0.8145
 6459TIP3    H240937   5.090   6.520   9.090 -0.5756  0.5062 -0.3420
 6460TIP3   OH240938   1.658   5.465   1.730  0.0957  0.1929  0.2161
 6460TIP3    H140939   1.738   5.413   1.725 -1.1688 -2.0674  1.7284
 6460TIP3    H240940   1.598   5.422   1.668 -0.8883 -0.0424  1.3012
 6461TIP3   OH240941   1.464   4.360   1.185  0.1018 -0.4107  0.0763
 6461TIP3    H140942   1.504   4.288   1.233 -0.9027 -1.1749 -0.2023
 6461TIP3    H240943   1.381   4.376   1.231  0.6860  1.1593  0.6680
 6462TIP3   OH240944   0.308   0.535   2.333  0.4084  0.1594  0.2852
 6462TIP3    H140945   0.223   0.515   2.295 -0.5721  2.1910  1.2138
 6462TIP3    H240946   0.328   0.460   2.388 -0.8030 -0.3512  0.0566
 6463TIP3   OH240947   5.016   6.202   7.663  0.3694 -0.2055  0.2955
 6463TIP3    H140948   4.962   6.124   7.652  0.2852 -0.0974 -0.0981
 6463TIP3    H240949   5.031   6.233   7.573  0.1015  0.4338  0.4657
 6464TIP3   OH240950   3.277   0.050   1.761  0.1014  0.6509  0.1673
 6464TIP3    H140951   3.367   0.036   1.731 -1.0558 -3.6667 -2.0882
 6464TIP3    H240952   3.242   0.117   1.701  1.4959  1.7520  0.5297
 6465TIP3   OH240953   6.287   3.953   6.877 -0.1242 -0.4469 -0.0637
 6465TIP3    H140954   6.225   3.887   6.909  0.9821 -1.3676  0.2562
 6465TIP3    H240955   6.372   3.923   6.909  0.7327 -0.1911 -1.9740
 6466TIP3   OH240956   1.380   1.029   1.631 -0.7707 -0.6282 -0.0241
 6466TIP3    H140957   1.448   0.965   1.610 -1.2699 -0.9111 -0.8689
 6466TIP3    H240958   1.425   1.099   1.677 -0.1460 -1.4194  0.5818
 6467TIP3   OH240959   2.276   3.614   8.926  0.0698  0.8277 -0.4032
 6467TIP3    H140960   2.298   3.704   8.947  2.0565 -0.0304  1.5797
 6467TIP3    H240961   2.356   3.578   8.887  0.9302 -1.1649  2.8063
 6468TIP3   OH240962   1.279   6.023   8.619 -0.2219  0.5954 -0.0137
 6468TIP3    H140963   1.289   5.997   8.527 -1.2452  1.0307 -0.2621
 6468TIP3    H240964   1.214   5.962   8.654  0.3466  0.2737  0.4954
 6469TIP3   OH240965   6.482   0.883   9.346 -0.0467 -0.3587  0.0109
 6469TIP3    H140966   6.553   0.825   9.319  0.0705 -0.2802  0.1473
 6469TIP3    H240967   6.427   0.893   9.268  0.3835  0.0074 -0.2480
 6470TIP3   OH240968   1.206   5.846   0.057  0.5929  0.5969  0.1760
 6470TIP3    H140969   1.255   5.771   0.091  3.0822  0.7906 -2.5744
 6470TIP3    H240970   1.264   5.920   0.069  0.1550  1.2230 -1.3363
 6471TIP3   OH240971   3.062   2.152   8.530 -0.2890 -0.0414 -0.5122
 6471TIP3    H140972   3.101   2.066   8.546 -1.5272 -0.4546  0.4736
 6471TIP3    H240973   2.974   2.133   8.498 -1.0734  0.8256  0.9967
 6472TIP3   OH240974   3.543   5.920   1.236 -0.5289  0.3204  0.2320
 6472TIP3    H140975   3.492   6.000   1.231  0.9890  1.3064 -0.0880
 6472TIP3    H240976   3.570   5.914   1.327 -0.0836  0.5448  0.1177
 6473TIP3   OH240977   5.432   4.438   8.913  0.0218  0.2651 -0.3864
 6473TIP3    H140978   5.404   4.368   8.854 -0.2836  0.1781 -0.1368
 6473TIP3    H240979   5.518   4.464   8.879  0.3286 -0.5144 -0.2248
 6474TIP3   OH240980   5.957   2.310   1.374  0.0344  0.0812 -0.2594
 6474TIP3    H140981   5.867   2.337   1.356 -0.0564 -0.4868 -0.6637
 6474TIP3    H240982   5.987   2.268   1.294 -0.0137 -1.5102  0.5257
 6475TIP3   OH240983   4.092   5.062   0.880  0.2007 -0.1653  0.0886
 6475TIP3    H140984   4.171   5.007   0.880 -0.2478 -0.8213 -0.3203
 6475TIP3    H240985   4.021   5.001   0.862 -0.1674  0.7533 -1.7452
 6476TIP3   OH240986   2.108   0.146   0.553  0.1755 -0.3041 -0.0101
 6476TIP3    H140987   2.130   0.131   0.462  1.3146 -0.1062  0.2170
 6476TIP3    H240988   2.121   0.240   0.566  0.3317 -0.3802  0.4222
 6477TIP3   OH240989   0.009   3.605   7.312  0.6520 -0.5572 -0.1393
 6477TIP3    H140990   0.101   3.598   7.285  0.1718  0.0707 -2.1253
 6477TIP3    H240991  -0.036   3.638   7.234 -1.0621  0.3898  1.1861
 6478TIP3   OH240992   4.744   4.575   7.533 -0.7868 -0.4936  0.0237
 6478TIP3    H140993   4.740   4.515   7.608 -1.5736 -1.8215 -1.0252
 6478TIP3    H240994   4.682   4.538   7.471  1.5332 -0.7952 -2.2613
 6479TIP3   OH240995   5.142   5.388   0.453  0.3877  0.0851 -0.0948
 6479TIP3    H140996   5.116   5.477   0.476  0.5544  0.0757  0.1381
 6479TIP3    H240997   5.060   5.338   0.453  0.1373  0.4522 -1.2742
 6480TIP3   OH240998   3.873   1.958   0.786 -0.2654 -0.1343 -0.1216
 6480TIP3    H140999   3.779   1.978   0.790 -0.1988  0.3381 -0.7538
 6480TIP3    H241000   3.908   2.022   0.724  0.7672  0.8026  1.3539
 6481TIP3   OH241001   1.196   6.184   8.060  0.2231  0.6282  0.2601
 6481TIP3    H141002   1.133   6.251   8.032  0.5427  1.1506  0.7546
 6481TIP3    H241003   1.281   6.221   8.037  0.3180 -1.1437 -2.7026
 6482TIP3   OH241004   5.831   6.108   7.677 -0.3042  0.1845  0.1430
 6482TIP3    H141005   5.776   6.106   7.598  0.5262 -0.0624 -0.4444
 6482TIP3    H241006   5.912   6.150   7.648 -0.2588  0.7499  1.0570
 6483TIP3   OH241007   2.047   1.300   6.891 -0.7892 -0.0705  0.4691
 6483TIP3    H141008   1.993   1.277   6.815  1.5613 -0.9912 -1.0335
 6483TIP3    H241009   2.137   1.286   6.862  0.2889  0.9806  2.9890
 6484TIP3   OH241010   4.390   2.028   8.675 -0.6389 -0.4250 -0.6657
 6484TIP3    H141011   4.364   1.985   8.757 -1.0145  0.2325 -0.4369
 6484TIP3    H241012   4.482   2.003   8.663 -0.3299  0.1608  0.4024
 6485TIP3   OH241013   5.955   4.037   9.532  0.4376  0.4266  0.4117
 6485TIP3    H141014   5.898   4.047   9.456 -0.5503 -0.7573  0.9641
 6485TIP3    H241015   5.952   4.122   9.576 -0.4050  0.5662  0.0974
 6486TIP3   OH241016   3.175   1.853   0.430  0.2275  0.2725 -0.5820
 6486TIP3    H141017   3.243   1.789   0.409  0.2062 -0.0576  0.3077
 6486TIP3    H241018   3.200   1.887   0.516 -0.7650  0.0926 -0.2114
 6487TIP3   OH241019   6.499   5.191   8.475 -0.9275  0.1328  0.0502
 6487TIP3    H141020   6.457   5.136   8.541  1.9255 -1.9951  0.2496
 6487TIP3    H241021   6.463   5.160   8.392 -0.3831 -1.1149  0.2610
 6488TIP3   OH241022   5.017   1.136   1.882 -0.4932 -0.0933 -0.1452
 6488TIP3    H141023   4.946   1.073   1.869 -0.6546  0.0918 -0.1618
 6488TIP3    H241024   4.992   1.185   1.960 -0.3696 -0.0445 -0.1353
 6489TIP3   OH241025   3.136   6.290   0.347  0.1182  0.0560 -0.4132
 6489TIP3    H141026   3.097   6.251   0.269  0.5129  0.1775 -0.6806
 6489TIP3    H241027   3.205   6.229   0.372  1.8583  1.3181 -1.8111
 6490TIP3   OH241028   1.851   4.495   1.374  0.3010  0.1308 -0.0945
 6490TIP3    H141029   1.815   4.461   1.456  0.4422 -0.7061 -0.3658
 6490TIP3    H241030   1.810   4.581   1.363 -0.6971 -0.2911  0.2101
 6491TIP3   OH241031   1.147   2.502   9.322  0.3437 -0.0978  0.2733
 6491TIP3    H141032   1.236   2.487   9.291  0.9469  0.4873  1.6344
 6491TIP3    H241033   1.105   2.416   9.315  0.2599  0.1096 -2.5595
 6492TIP3   OH241034   4.746   1.744   7.377 -0.3372 -0.2106  0.6246
 6492TIP3    H141035   4.751   1.751   7.473 -0.0591  0.5022  0.5650
 6492TIP3    H241036   4.708   1.827   7.349  0.9882  0.2177  0.0123
 6493TIP3   OH241037   2.730   4.847   2.164  0.0949  0.4241  0.3941
 6493TIP3    H141038   2.653   4.791   2.177  0.0276  0.6052  0.7918
 6493TIP3    H241039   2.696   4.935   2.158  0.3300  0.6084  1.4613
 6494TIP3   OH241040   4.813   5.844   8.011 -0.5642  0.4155  0.4605
 6494TIP3    H141041   4.879   5.913   8.008  0.1779 -0.2510  0.8804
 6494TIP3    H241042   4.729   5.890   8.020 -0.1381  1.2674  0.1641
 6495TIP3   OH241043   6.211   2.709   8.273 -0.0941 -0.1080  0.5394
 6495TIP3    H141044   6.241   2.792   8.236 -2.2995  0.5785  0.1826
 6495TIP3    H241045   6.231   2.715   8.366 -0.9825  1.1963  0.6640
 6496TIP3   OH241046   5.433   1.205   2.220  0.2619 -0.3004 -1.0219
 6496TIP3    H141047   5.510   1.212   2.277 -1.4104 -1.2259  1.5104
 6496TIP3    H241048   5.410   1.295   2.199  1.4608  0.0248 -1.0116
 6497TIP3   OH241049   6.128   2.686   0.501 -0.1833 -0.0557  0.4592
 6497TIP3    H141050   6.162   2.673   0.590 -2.1643  0.6107  1.3728
 6497TIP3    H241051   6.172   2.619   0.449  0.3171 -1.1010  2.1303
 6498TIP3   OH241052   5.918   3.439   7.811  0.1291  0.1242  0.0759
 6498TIP3    H141053   5.877   3.493   7.743  1.1925 -0.1530 -0.8138
 6498TIP3    H241054   5.851   3.431   7.878 -0.8256  0.7293 -0.7679
 6499TIP3   OH241055   3.268   2.700   1.655  0.2895  0.6054  0.0335
 6499TIP3    H141056   3.296   2.753   1.581 -0.3357  0.6020 -0.2159
 6499TIP3    H241057   3.184   2.663   1.627  0.6309 -0.3805  0.2731
 6500TIP3   OH241058   0.876   3.578   1.361 -0.5316  0.1937  0.1290
 6500TIP3    H141059   0.838   3.549   1.278  2.6071  1.7963 -2.0697
 6500TIP3    H241060   0.880   3.673   1.354  1.3826  0.2626  1.3047
 6501TIP3   OH241061   3.361   3.995   0.289  0.0521 -0.1229  0.4861
 6501TIP3    H141062   3.454   3.989   0.266 -0.0441 -0.1229  0.0759
 6501TIP3    H241063   3.347   3.924   0.351  0.3902  0.0543  0.7694
 6502TIP3   OH241064   2.935   4.912   7.219  0.1212  0.0794  0.1027
 6502TIP3    H141065   2.896   4.980   7.165  2.0656  2.6830  1.7427
 6502TIP3    H241066   2.866   4.885   7.279 -0.8066  0.2412 -0.8779
 6503TIP3   OH241067   3.637   4.641   8.722 -0.2121 -0.1253 -0.6918
 6503TIP3    H141068   3.614   4.611   8.810  0.4204  0.2927 -0.3766
 6503TIP3    H241069   3.569   4.604   8.665 -2.5886  2.2487  0.3916
 6504TIP3   OH241070   1.411   1.346   0.934 -0.1693  0.1391 -0.0187
 6504TIP3    H141071   1.334   1.401   0.923 -0.0989  0.4419  0.9557
 6504TIP3    H241072   1.468   1.394   0.994  0.1518 -0.7187  0.3917
 6505TIP3   OH241073   3.091   5.387   7.945  0.1494  0.0857 -0.3790
 6505TIP3    H141074   3.186   5.384   7.957  0.0447  0.4248  0.5959
 6505TIP3    H241075   3.060   5.302   7.975 -0.0423  0.6880  1.2139
 6506TIP3   OH241076   5.673   5.762   7.070  0.5791  0.1232 -0.1394
 6506TIP3    H141077   5.693   5.790   7.159  0.2315 -1.0806  0.3381
 6506TIP3    H241078   5.737   5.808   7.015  1.6086 -0.0912  0.8555
 6507TIP3   OH241079   0.534   6.167   1.747 -0.6088  0.0881 -0.6634
 6507TIP3    H141080   0.615   6.183   1.795 -1.3140  0.7792  0.3522
 6507TIP3    H241081   0.558   6.176   1.655  1.2307 -3.2058 -0.6507
 6508TIP3   OH241082   3.069   2.026   6.390 -0.1326  0.1988 -0.2585
 6508TIP3    H141083   3.075   1.930   6.391  0.6111  0.1950  2.4624
 6508TIP3    H241084   3.153   2.055   6.357  1.8983 -0.1824  3.9121
 6509TIP3   OH241085   1.038   5.316   8.440 -0.0087 -0.6586  0.7330
 6509TIP3    H141086   1.042   5.392   8.383 -1.3911 -1.0122  0.1502
 6509TIP3    H241087   1.121   5.270   8.424  0.2500  0.0117  0.1036
 6510TIP3   OH241088   4.466   5.155   8.585  0.1371 -0.3289 -0.8178
 6510TIP3    H141089   4.484   5.208   8.507  1.2171  0.1622 -0.2524
 6510TIP3    H241090   4.484   5.213   8.658 -0.2982 -0.9725 -0.1878
 6511TIP3   OH241091   4.389   2.117   1.784 -0.2045  0.8906  0.0309
 6511TIP3    H141092   4.358   2.188   1.840 -1.5643  1.1915 -1.0502
 6511TIP3    H241093   4.327   2.115   1.711  0.1949 -0.9796 -0.3125
 6512TIP3   OH241094   3.705   2.075   8.923 -0.3073 -0.3088 -0.2749
 6512TIP3    H141095   3.634   2.119   8.875 -0.1779 -0.9608 -1.0825
 6512TIP3    H241096   3.733   2.005   8.864 -0.0071 -1.0011  0.6821
 6513TIP3   OH241097   3.285   4.671   8.511 -0.0362  0.4474  0.1045
 6513TIP3    H141098   3.330   4.756   8.518  1.8639 -0.3451 -1.5537
 6513TIP3    H241099   3.243   4.673   8.426 -2.1300  0.6388  1.0903
 6514TIP3   OH241100   0.426   3.501   2.308  0.1995 -0.4293  0.1058
 6514TIP3    H141101   0.340   3.460   2.312  0.2399 -0.4476  1.2222
 6514TIP3    H241102   0.414   3.585   2.352  0.6534 -0.2435 -0.1226
 6515TIP3   OH241103   1.127   0.029   2.305 -0.0410  0.0761 -0.0315
 6515TIP3    H141104   1.072  -0.049   2.312 -0.1517  0.2231  0.8824
 6515TIP3    H241105   1.176   0.017   2.224 -0.5745 -0.6075 -0.2603
 6516TIP3   OH241106   3.669   2.346   8.141 -0.6810  0.1823  0.5881
 6516TIP3    H141107   3.651   2.328   8.048 -0.8921 -0.2685  0.7111
 6516TIP3    H241108   3.700   2.262   8.175  0.9552  0.7487  0.5624
 6517TIP3   OH241109   5.582   0.368   8.673  0.1695  0.2284 -0.3373
 6517TIP3    H141110   5.493   0.404   8.669 -0.3876 -1.0150  0.2676
 6517TIP3    H241111   5.593   0.339   8.763  0.6708 -0.8792 -0.7320
 6518TIP3   OH241112   1.849   0.169   7.386 -0.0972  0.3232  0.1827
 6518TIP3    H141113   1.935   0.133   7.363 -0.1950  0.6712 -0.7905
 6518TIP3    H241114   1.826   0.224   7.312 -1.5474 -0.4353  0.0269
 6519TIP3   OH241115   5.890   1.880   0.433 -0.2159  0.5440  0.1865
 6519TIP3    H141116   5.985   1.885   0.440 -0.2513  2.9172 -0.1193
 6519TIP3    H241117   5.869   1.932   0.355 -1.6995 -1.2653 -0.7168
 6520TIP3   OH241118   4.342   1.403   9.214 -0.5621  0.4830 -0.3329
 6520TIP3    H141119   4.339   1.417   9.119 -1.4354  0.8215 -0.2685
 6520TIP3    H241120   4.375   1.485   9.250  1.8454 -0.3710 -0.4677
 6521TIP3   OH241121   0.146   4.503   7.737  0.3262 -0.0959 -0.8132
 6521TIP3    H141122   0.174   4.422   7.694  0.8690 -0.0075 -0.6271
 6521TIP3    H241123   0.199   4.572   7.697  0.3746  0.0740 -0.4579
 6522TIP3   OH241124   2.064   1.097   8.911 -0.0172 -0.6390  0.2888
 6522TIP3    H141125   1.998   1.126   8.848 -0.5106 -0.9859  0.6443
 6522TIP3    H241126   2.147   1.128   8.874 -0.3410 -0.4850 -0.3255
 6523TIP3   OH241127   3.381   3.207   7.939  0.0407  0.7749  0.5459
 6523TIP3    H141128   3.341   3.263   7.872  0.7447 -1.1456 -1.6271
 6523TIP3    H241129   3.466   3.182   7.901  0.6513 -0.0884  2.3618
 6524TIP3   OH241130   2.306   0.393   0.429 -0.4715  0.0816  0.4110
 6524TIP3    H141131   2.353   0.311   0.443 -0.9473 -0.2353  0.1851
 6524TIP3    H241132   2.365   0.445   0.374  0.6943  0.6924  2.1713
 6525TIP3   OH241133   0.129   5.000   8.982  0.7925  0.0989 -0.4132
 6525TIP3    H141134   0.078   5.049   9.046 -0.9574  0.3645 -1.9125
 6525TIP3    H241135   0.083   4.917   8.973  2.0996 -0.6953  0.0272
 6526TIP3   OH241136   1.040   0.911   8.010  0.0858 -0.4652  0.5928
 6526TIP3    H141137   1.031   0.972   7.936  1.6923  0.5570  1.1764
 6526TIP3    H241138   1.105   0.848   7.981 -0.4086 -0.9858  0.5906
 6527TIP3   OH241139   3.818   1.236   0.173  0.0074  0.1002  0.4605
 6527TIP3    H141140   3.873   1.242   0.095 -1.9905 -0.8488 -1.1091
 6527TIP3    H241141   3.821   1.324   0.211  1.3516  0.4732 -0.4221
 6528TIP3   OH241142   3.150   4.308   2.648 -0.2620 -0.0958  0.0480
 6528TIP3    H141143   3.141   4.402   2.664  0.2560 -0.1009  0.3769
 6528TIP3    H241144   3.107   4.267   2.723  0.6653 -0.1152  0.5907
 6529TIP3   OH241145   4.999   6.287   0.508 -0.3560 -0.3341  0.2086
 6529TIP3    H141146   4.987   6.261   0.416  1.9545  1.8761 -0.8235
 6529TIP3    H241147   4.925   6.345   0.526  0.4712  1.2631 -1.1778
 6530TIP3   OH241148   4.958   1.999   1.450 -0.0618 -0.1718  0.5024
 6530TIP3    H141149   4.941   2.090   1.426 -0.6112 -0.6329 -0.9925
 6530TIP3    H241150   5.034   1.975   1.397 -1.3923 -1.2759 -0.9796
 6531TIP3   OH241151   3.234   0.619   7.424 -0.2641 -0.2757  0.1113
 6531TIP3    H141152   3.277   0.546   7.379 -2.5531 -1.4865 -0.2485
 6531TIP3    H241153   3.295   0.693   7.413  1.1038 -1.5568 -1.4452
 6532TIP3   OH241154   4.542   2.569   0.319  0.1718 -0.4406 -0.1389
 6532TIP3    H141155   4.619   2.513   0.326  0.4738  0.0181  0.3466
 6532TIP3    H241156   4.536   2.611   0.405  0.5065  0.9831 -0.7903
 6533TIP3   OH241157   1.858   3.028   7.180  0.1176  0.2196 -0.1078
 6533TIP3    H141158   1.854   3.017   7.085 -0.0039  0.0386 -0.0824
 6533TIP3    H241159   1.827   3.117   7.196 -0.2263  0.1160 -0.2061
 6534TIP3   OH241160   6.382   1.637   1.668  0.3439  0.4986 -0.2504
 6534TIP3    H141161   6.461   1.679   1.702  0.2936 -0.6399  1.4110
 6534TIP3    H241162   6.378   1.553   1.715 -0.6483 -0.4583 -1.9371
 6535TIP3   OH241163   2.315   1.551   2.837  0.4202 -0.1260 -0.4145
 6535TIP3    H141164   2.364   1.517   2.763 -0.6877  1.5425 -1.9937
 6535TIP3    H241165   2.378   1.604   2.885  1.4873 -2.2452  0.6558
 6536TIP3   OH241166   3.595   4.348   9.561 -0.2203 -0.1419 -0.3182
 6536TIP3    H141167   3.547   4.390   9.490 -1.0432 -0.6668 -0.0895
 6536TIP3    H241168   3.530   4.338   9.631  0.2765 -0.6684  0.0800
 6537TIP3   OH241169   3.614   1.864   0.636  0.8461 -0.3874  0.5674
 6537TIP3    H141170   3.648   1.774   0.635  0.4859 -0.5719 -1.8625
 6537TIP3    H241171   3.592   1.880   0.728  1.9983 -2.3511  1.2641
 6538TIP3   OH241172   6.521   1.397   1.225  0.3805  0.0172 -0.1405
 6538TIP3    H141173   6.535   1.476   1.276  0.6581  0.1136 -0.3628
 6538TIP3    H241174   6.507   1.328   1.290  3.0799 -0.3355  0.1620
 6539TIP3   OH241175   1.690   0.025   9.379  0.3487  0.2947 -0.7272
 6539TIP3    H141176   1.633  -0.052   9.383 -0.0222  0.5668 -0.6889
 6539TIP3    H241177   1.663   0.078   9.454  0.7953  0.3314 -0.5920
 6540TIP3   OH241178   2.000   1.861   1.829 -0.2497 -0.4804 -0.3998
 6540TIP3    H141179   2.074   1.841   1.886 -0.1161 -1.3411 -0.8573
 6540TIP3    H241180   1.938   1.789   1.843 -0.4953 -0.3652 -0.8507
 6541TIP3   OH241181   5.248   5.322   7.011  0.2092 -0.7787 -0.0202
 6541TIP3    H141182   5.198   5.246   6.980  1.2956 -1.1736 -0.8762
 6541TIP3    H241183   5.182   5.389   7.028 -0.6399 -1.4088 -0.7236
 6542TIP3   OH241184   2.017   0.976   7.597  0.0642  0.4160 -0.4965
 6542TIP3    H141185   2.003   0.999   7.506  2.3480  1.8931 -0.5753
 6542TIP3    H241186   2.112   0.980   7.608 -0.1942  1.1304  2.1460
 6543TIP3   OH241187   1.265   0.391   0.108 -0.7648 -0.1608  0.5207
 6543TIP3    H141188   1.265   0.296   0.097 -3.6629 -0.2145  0.1688
 6543TIP3    H241189   1.219   0.406   0.190 -0.5499  0.9466  0.4587
 6544TIP3   OH241190   2.516   4.384   9.187  0.2116 -0.4751 -0.0757
 6544TIP3    H141191   2.474   4.401   9.271 -0.4700  1.4114 -0.7593
 6544TIP3    H241192   2.528   4.289   9.185 -0.2793 -0.6118  1.8907
 6545TIP3   OH241193   5.772   5.042   8.208 -0.0921 -0.0023 -0.1444
 6545TIP3    H141194   5.703   5.087   8.257 -1.7647 -3.4366  0.9771
 6545TIP3    H241195   5.846   5.041   8.267  0.3310  1.9731 -0.5692
 6546TIP3   OH241196   1.418   1.878   9.161 -0.2978 -0.1283 -0.0088
 6546TIP3    H141197   1.383   1.956   9.117 -0.7171 -0.3262 -0.0303
 6546TIP3    H241198   1.506   1.904   9.188 -0.4432  0.3659  0.0127
 6547TIP3   OH241199   3.420   0.548   0.253 -0.1666 -0.1293 -0.0309
 6547TIP3    H141200   3.472   0.620   0.218  0.0810 -0.2006  0.1821
 6547TIP3    H241201   3.485   0.485   0.285 -0.3622 -0.9890 -1.2683
 6548TIP3   OH241202   0.583   1.812   7.552  0.6028 -0.2230  0.4634
 6548TIP3    H141203   0.639   1.884   7.582 -1.1851  0.4466  2.5038
 6548TIP3    H241204   0.523   1.854   7.490 -0.5089  0.1624  1.7331
 6549TIP3   OH241205   4.287   5.586   9.430 -0.4008 -0.3205 -0.2569
 6549TIP3    H141206   4.352   5.529   9.472  1.7405  1.8468 -0.3489
 6549TIP3    H241207   4.203   5.549   9.454  0.8515 -2.7465  0.7062
 6550TIP3   OH241208   3.292   2.297   9.364 -0.6653 -0.3189  0.0583
 6550TIP3    H141209   3.310   2.210   9.398 -1.2840  0.0296  1.3485
 6550TIP3    H241210   3.225   2.333   9.422 -2.6231 -0.0701 -2.1626
 6551TIP3   OH241211   6.472   1.951   0.898 -0.1802  0.1967 -0.1120
 6551TIP3    H141212   6.447   2.043   0.890 -0.5282  0.0978 -0.2091
 6551TIP3    H241213   6.389   1.904   0.895  0.0410 -0.1716 -0.8038
 6552TIP3   OH241214   0.914   3.084   7.776  0.1753  0.3351  0.6967
 6552TIP3    H141215   0.903   3.158   7.717 -0.4339  1.7666  2.5000
 6552TIP3    H241216   1.009   3.073   7.783  0.2936  1.2405  0.7201
 6553TIP3   OH241217   6.134   5.159   1.980 -0.4987  0.0225 -0.3781
 6553TIP3    H141218   6.139   5.247   1.943 -2.6824  0.9185  1.2475
 6553TIP3    H241219   6.041   5.143   1.991 -0.0650 -1.2390  2.1719
 6554TIP3   OH241220   4.312   5.225   1.277  0.3390 -0.5805  0.2006
 6554TIP3    H141221   4.270   5.139   1.277 -0.5805 -0.2071 -2.1877
 6554TIP3    H241222   4.384   5.217   1.214 -0.2316  0.5776 -0.6400
 6555TIP3   OH241223   4.262   3.891   7.328 -0.1150  0.3209 -0.1160
 6555TIP3    H141224   4.197   3.906   7.397  0.1783  1.6687 -0.0992
 6555TIP3    H241225   4.223   3.825   7.271  0.2257 -1.9284  2.0854
 6556TIP3   OH241226   1.444   1.131   8.494  0.0594 -0.2345 -0.4474
 6556TIP3    H141227   1.455   1.042   8.460 -1.4067  0.0691 -1.8405
 6556TIP3    H241228   1.354   1.133   8.526 -0.0476  0.8588 -0.7990
 6557TIP3   OH241229   0.648   6.435   1.446 -0.3998 -0.1621  0.0130
 6557TIP3    H141230   0.705   6.510   1.463  1.4484 -1.3821 -0.4369
 6557TIP3    H241231   0.631   6.439   1.352 -1.3347  0.3663  0.1968
 6558TIP3   OH241232   4.765   3.358   8.828 -0.1842 -0.3317 -0.3779
 6558TIP3    H141233   4.791   3.271   8.857 -0.3977 -0.0281  0.7763
 6558TIP3    H241234   4.836   3.386   8.770  1.7192  0.1394  2.0173
 6559TIP3   OH241235   0.079   0.596   0.031  0.3518 -0.4891 -0.7962
 6559TIP3    H141236   0.048   0.520  -0.018 -3.2328 -0.9611  1.8415
 6559TIP3    H241237   0.141   0.560   0.094  2.1051 -0.4120 -2.3705
 6560TIP3   OH241238   1.934   4.495   8.520  0.2403  0.2427  0.4403
 6560TIP3    H141239   2.015   4.453   8.548 -0.0231  0.7597  2.0717
 6560TIP3    H241240   1.952   4.588   8.528 -0.1803  0.3787 -0.1939
 6561TIP3   OH241241   3.205   1.799   7.932  0.1743 -0.2944  0.4344
 6561TIP3    H141242   3.279   1.820   7.875  0.2558 -2.5097 -0.3867
 6561TIP3    H241243   3.178   1.883   7.969  0.5890  1.1493 -2.3001
 6562TIP3   OH241244   3.627   2.886   1.611 -0.1972  0.2719  0.3546
 6562TIP3    H141245   3.721   2.903   1.601 -0.3691  2.0036  1.2471
 6562TIP3    H241246   3.623   2.803   1.657  0.8458 -0.5574 -0.9657
 6563TIP3   OH241247   5.910   1.109   8.679  0.6433 -0.1413  0.1680
 6563TIP3    H141248   5.926   1.129   8.772  0.8539  0.3045  0.0382
 6563TIP3    H241249   5.976   1.043   8.658 -2.0633 -3.5329  1.4554
 6564TIP3   OH241250   5.639   4.306   9.087 -0.9486 -0.4040  0.4024
 6564TIP3    H141251   5.592   4.309   9.003 -0.6856 -0.1654  0.2652
 6564TIP3    H241252   5.608   4.225   9.128 -1.2868 -0.3817  0.1982
 6565TIP3   OH241253   1.301   6.359   9.055  0.1465 -0.2834 -0.8083
 6565TIP3    H141254   1.208   6.350   9.035 -0.3414  2.0924  0.0047
 6565TIP3    H241255   1.346   6.302   8.993 -1.8600 -1.8494 -0.8953
 6566TIP3   OH241256   5.070   5.113   7.172  0.6125 -0.1225  0.8552
 6566TIP3    H141257   5.061   5.206   7.193  0.4250 -0.3043  1.6420
 6566TIP3    H241258   4.990   5.074   7.207  0.3411 -0.4774 -0.1302
 6567TIP3   OH241259   5.140   3.513   9.410  0.0973  0.1874  0.5872
 6567TIP3    H141260   5.108   3.594   9.370 -0.5992 -0.1186  0.5106
 6567TIP3    H241261   5.066   3.453   9.405  1.1354 -1.0318 -0.9028
 6568TIP3   OH241262   0.792   0.227   9.156 -0.5507 -0.0127  0.1976
 6568TIP3    H141263   0.759   0.148   9.113  2.2250 -1.5544  0.6459
 6568TIP3    H241264   0.794   0.292   9.086 -1.2162 -0.8482 -0.6412
 6569TIP3   OH241265   4.038   2.173   1.099 -0.0496 -0.6379  0.0910
 6569TIP3    H141266   4.015   2.083   1.074  0.7260 -1.0968  0.9621
 6569TIP3    H241267   4.068   2.165   1.189  0.4854  0.4278  0.0163
 6570TIP3   OH241268   2.535   1.255   7.591 -0.3848 -0.1405 -0.0623
 6570TIP3    H141269   2.541   1.174   7.540 -0.3408 -0.8460  1.0310
 6570TIP3    H241270   2.590   1.239   7.667 -0.9929  0.6306  0.5512
 6571TIP3   OH241271   4.653   4.865   6.928  0.0852 -0.4488 -0.0140
 6571TIP3    H141272   4.679   4.941   6.876  0.0341 -1.1357 -1.0751
 6571TIP3    H241273   4.734   4.837   6.971  0.3340 -0.4166 -0.4532
 6572TIP3   OH241274   5.183   0.391   7.495  0.8090 -0.2010 -0.0903
 6572TIP3    H141275   5.230   0.473   7.512  1.7124 -0.7689  0.2575
 6572TIP3    H241276   5.134   0.407   7.415 -0.4058  1.2380  0.9099
 6573TIP3   OH241277   1.039   0.188   8.669  0.1020 -0.3686  0.0429
 6573TIP3    H141278   1.112   0.164   8.612 -0.9629 -0.0249 -1.5129
 6573TIP3    H241279   1.026   0.281   8.652 -0.1133 -0.2132  1.0150
 6574TIP3   OH241280   2.119   5.278   8.862  0.0530 -0.1412 -0.1947
 6574TIP3    H141281   2.149   5.215   8.798  0.0956 -1.1837  0.8255
 6574TIP3    H241282   2.189   5.343   8.867 -0.1333  0.1903 -1.4784
 6575TIP3   OH241283   1.653   5.881   8.169 -0.2137  0.4532 -0.6364
 6575TIP3    H141284   1.595   5.812   8.136 -0.0483  0.2507 -0.5075
 6575TIP3    H241285   1.600   5.961   8.165  0.0705  0.5868 -2.1679
 6576TIP3   OH241286   6.070   3.928   8.526  0.0509  0.5385  0.6932
 6576TIP3    H141287   6.057   3.974   8.608 -0.1201  1.4585  0.1669
 6576TIP3    H241288   6.144   3.869   8.542  1.7234  2.5421  0.7673
 6577TIP3   OH241289   4.245   2.051   0.705  0.1782 -0.7939 -0.6539
 6577TIP3    H141290   4.267   1.991   0.776  2.3113  1.0361  0.3608
 6577TIP3    H241291   4.262   2.000   0.625  0.7122 -1.9306  0.1497
 6578TIP3   OH241292   5.109   3.946   7.592 -0.1948 -0.2451  0.5903
 6578TIP3    H141293   5.174   4.000   7.637 -1.4545  0.1717  1.9664
 6578TIP3    H241294   5.158   3.868   7.564  0.5591 -0.7503  3.1082
 6579TIP3   OH241295   3.962   3.667   1.288  0.5111  0.2254  0.0622
 6579TIP3    H141296   3.947   3.691   1.196  1.2601  2.0496  0.3603
 6579TIP3    H241297   3.914   3.733   1.338  0.7114 -0.3147  0.9936
 6580TIP3   OH241298   4.862   5.153   8.651  0.0667 -0.3599  0.1893
 6580TIP3    H141299   4.834   5.157   8.742  0.1931  1.2353  0.1715
 6580TIP3    H241300   4.816   5.225   8.608  1.8491  0.4452 -0.4766
 6581TIP3   OH241301   3.712   5.475   9.291  0.0265 -0.1134 -0.3311
 6581TIP3    H141302   3.640   5.416   9.273 -1.9252  2.2606 -0.8278
 6581TIP3    H241303   3.789   5.432   9.254 -0.9479 -2.9923  0.7172
 6582TIP3   OH241304   4.692   5.333   1.734 -0.2745 -0.7133  0.5034
 6582TIP3    H141305   4.640   5.295   1.663 -0.8527  0.9691 -0.0289
 6582TIP3    H241306   4.627   5.368   1.795  0.2273 -1.4348  1.4743
 6583TIP3   OH241307   3.629   0.423   8.732  0.0661  0.0405 -0.2751
 6583TIP3    H141308   3.635   0.506   8.684 -0.6393  0.5374  0.4666
 6583TIP3    H241309   3.536   0.402   8.732  0.3005 -1.0874 -0.9796
 6584TIP3   OH241310   4.395   1.104   1.686  0.0106 -0.1559  0.2559
 6584TIP3    H141311   4.425   1.176   1.741  0.5247 -0.9564  1.0515
 6584TIP3    H241312   4.348   1.146   1.614  2.6843  1.1625 -0.8459
 6585TIP3   OH241313   4.585   3.439   0.272 -0.1709  0.2120  0.1794
 6585TIP3    H141314   4.538   3.468   0.193  0.6361  2.0294  0.3289
 6585TIP3    H241315   4.676   3.460   0.255  0.4921 -2.2130  0.3842
 6586TIP3   OH241316   3.471   3.525   8.075 -0.1638  0.2829 -0.3213
 6586TIP3    H141317   3.529   3.548   8.002  1.8357 -2.0530  0.4001
 6586TIP3    H241318   3.415   3.457   8.039 -2.4610  2.3695 -0.9420
 6587TIP3   OH241319   4.138   5.218   7.954  0.3593  0.1671  0.3903
 6587TIP3    H141320   4.228   5.190   7.974  0.2135 -0.1303  0.6392
 6587TIP3    H241321   4.149   5.295   7.898  0.8465  2.4208  3.3162
 6588TIP3   OH241322   5.885   5.916   9.527 -0.0326  0.2006 -0.4242
 6588TIP3    H141323   5.881   6.010   9.542 -0.0011  0.2365 -0.6480
 6588TIP3    H241324   5.881   5.878   9.615 -2.2088  0.3256 -0.4061
 6589TIP3   OH241325   0.903   1.277   8.097 -0.3057  0.0031  0.2201
 6589TIP3    H141326   0.860   1.192   8.104 -1.3755  0.2267 -2.2932
 6589TIP3    H241327   0.835   1.340   8.121  0.3782  0.1913  1.7389
 6590TIP3   OH241328   3.083   0.648   0.895  0.0269  0.3244 -0.1692
 6590TIP3    H141329   3.082   0.729   0.946  1.7026  0.7136 -0.7219
 6590TIP3    H241330   3.062   0.676   0.806  0.7769  0.1876 -0.3936
 6591TIP3   OH241331   5.344   1.717   0.106  0.1169  0.1138  0.2073
 6591TIP3    H141332   5.412   1.651   0.098 -0.4949 -0.4857 -0.2314
 6591TIP3    H241333   5.391   1.799   0.124  0.9192 -0.3338  0.1862
 6592TIP3   OH241334   2.918   1.479   7.680 -0.1183  0.0436  0.4507
 6592TIP3    H141335   2.874   1.536   7.617 -1.5083 -1.3693  0.0879
 6592TIP3    H241336   2.878   1.500   7.764 -0.8640 -0.6112  0.2645
 6593TIP3   OH241337   5.793   1.269   0.440 -0.1568 -0.3825  0.2047
 6593TIP3    H141338   5.747   1.281   0.357 -0.5142  1.1691  0.5899
 6593TIP3    H241339   5.742   1.203   0.486 -0.9090 -0.0590 -0.1433
 6594TIP3   OH241340   1.679   3.786   9.152  0.2032 -0.6398 -0.1015
 6594TIP3    H141341   1.605   3.814   9.098 -0.0155 -1.1328 -0.0653
 6594TIP3    H241342   1.750   3.845   9.127 -0.1895 -0.1725 -0.1549
 6595TIP3   OH241343   4.101   3.899   1.628 -0.0720 -0.7307 -0.5907
 6595TIP3    H141344   4.055   3.950   1.694 -2.5639 -2.5653 -0.7848
 6595TIP3    H241345   4.151   3.965   1.578 -1.5305  1.2421  0.3986
 6596TIP3   OH241346   3.084   2.312   1.647  0.4411  0.0941  0.1637
 6596TIP3    H141347   3.003   2.351   1.616 -0.5499 -1.1476  1.0893
 6596TIP3    H241348   3.128   2.281   1.568 -0.1669  0.4454 -0.3163
 6597TIP3   OH241349   4.684   3.203   0.108  0.1008  0.2878  0.4232
 6597TIP3    H141350   4.772   3.229   0.135 -0.2018 -0.0783  1.8397
 6597TIP3    H241351   4.697   3.158   0.024  1.0357  1.7620 -0.2665
 6598TIP3   OH241352   4.906   3.468   8.123  0.6079 -0.0956  0.0764
 6598TIP3    H141353   4.848   3.409   8.171  0.6245  0.2640  0.5362
 6598TIP3    H241354   4.908   3.431   8.034 -1.1009  0.4312 -0.2210
 6599TIP3   OH241355   5.004   0.944   9.152 -0.3162 -0.7046  0.5527
 6599TIP3    H141356   5.073   0.893   9.194  0.2553  1.1087  1.9365
 6599TIP3    H241357   5.025   1.035   9.173 -0.3699  0.3103 -3.1477
 6600TIP3   OH241358   3.822   0.922   8.827  0.0174  0.6421  0.3497
 6600TIP3    H141359   3.742   0.893   8.782 -0.2123  0.8591  0.6114
 6600TIP3    H241360   3.876   0.960   8.758 -1.1202  2.7080  0.5025
 6601TIP3   OH241361   0.636   4.018   0.902 -0.1348  0.4175  0.6556
 6601TIP3    H141362   0.571   3.952   0.877  0.8705 -1.8748  3.4929
 6601TIP3    H241363   0.703   4.013   0.833 -2.3359  2.1502 -1.7945
 6602TIP3   OH241364   3.086   1.060   8.324  0.3383 -0.0608  0.1667
 6602TIP3    H141365   3.054   1.122   8.390  0.3950 -0.5856  0.6874
 6602TIP3    H241366   3.138   1.114   8.265  1.6484  0.1519  1.4679
 6603TIP3   OH241367   1.471   3.937   0.443  0.3461  0.0351  0.5065
 6603TIP3    H141368   1.494   4.028   0.422  0.2349  0.4054  1.8784
 6603TIP3    H241369   1.532   3.884   0.392  1.4166  0.9195  0.8224
 6604TIP3   OH241370   3.228   1.586   6.935  0.1991 -0.6596  0.4316
 6604TIP3    H141371   3.280   1.570   6.856 -0.5314  1.5940 -0.5753
 6604TIP3    H241372   3.154   1.526   6.926  0.6873 -1.2220 -0.0089
 6605TIP3   OH241373   5.224   0.910   0.058  0.2506 -0.0378 -0.2819
 6605TIP3    H141374   5.282   0.836   0.042 -0.5948 -0.3703 -2.1541
 6605TIP3    H241375   5.138   0.871   0.070  0.1510  0.5353  1.0431
 6606TIP3   OH241376   0.700   0.658   0.079  0.0683  0.4255  0.3678
 6606TIP3    H141377   0.625   0.717   0.077 -0.3605 -0.1150  0.0576
 6606TIP3    H241378   0.755   0.691   0.150 -1.7028 -0.6408  2.3533
 6607TIP3   OH241379   4.173   2.590   9.541  0.0340  0.1577  0.6733
 6607TIP3    H141380   4.151   2.624   9.628  0.1799 -1.0291  1.2039
 6607TIP3    H241381   4.257   2.546   9.554  0.9899  1.5306 -0.5060
 6608TIP3   OH241382   6.410   2.456   8.537  0.2980  0.3654 -0.7282
 6608TIP3    H141383   6.484   2.443   8.597 -0.6176  1.7211  0.7745
 6608TIP3    H241384   6.333   2.435   8.588 -0.4756  0.6327 -1.7486
 6609TIP3   OH241385   0.635   3.682   0.851 -0.1648 -0.0740  0.2484
 6609TIP3    H141386   0.681   3.643   0.777 -0.7460 -0.4138  0.0636
 6609TIP3    H241387   0.551   3.638   0.854 -0.7926  1.0635  0.1220
 6610TIP3   OH241388   4.928   0.845   2.804  0.0332 -0.1380 -0.1142
 6610TIP3    H141389   4.877   0.872   2.727  1.1912  0.4938 -0.6923
 6610TIP3    H241390   4.986   0.776   2.771 -0.3620 -0.7813  0.5116
 6611TIP3   OH241391   1.886   3.996   9.133 -0.7607  0.1604 -0.1451
 6611TIP3    H141392   1.865   4.041   9.215  0.0244  0.8360 -0.3045
 6611TIP3    H241393   1.944   3.924   9.160 -2.4403 -1.1386  0.1773
 6612TIP3   OH241394   4.318   4.172   1.759  0.8072 -0.0248 -0.5265
 6612TIP3    H141395   4.244   4.145   1.813  1.4032 -0.7868 -0.0767
 6612TIP3    H241396   4.287   4.159   1.669  0.4350 -0.4522 -0.3408
 6613TIP3   OH241397   0.106   1.723   1.729 -0.1335  0.6452 -0.5415
 6613TIP3    H141398   0.143   1.703   1.814  0.2072  1.0664 -0.5870
 6613TIP3    H241399   0.137   1.811   1.709 -0.3262  0.6068 -1.0375
 6614TIP3   OH241400   5.171   5.229   8.599 -0.4574 -0.3235 -0.3124
 6614TIP3    H141401   5.127   5.149   8.627  1.4732 -1.4429 -0.3162
 6614TIP3    H241402   5.260   5.202   8.579  0.3793  1.9094  0.0721
 6615TIP3   OH241403   5.370   2.900   1.494  0.1986  0.4113  0.1210
 6615TIP3    H141404   5.443   2.839   1.490 -0.1295  0.0570 -0.9839
 6615TIP3    H241405   5.411   2.986   1.507  1.0102  0.4691 -2.2415
 6616TIP3   OH241406   5.180   1.837   0.622  0.0985 -0.1930 -0.2573
 6616TIP3    H141407   5.160   1.898   0.551  1.1474  0.3981 -0.0710
 6616TIP3    H241408   5.184   1.752   0.580  1.3172  0.2271 -1.0474
 6617TIP3   OH241409   1.855   2.653   0.939 -0.0989 -0.8082  0.0062
 6617TIP3    H141410   1.910   2.576   0.926 -0.7612 -1.5748  1.4590
 6617TIP3    H241411   1.767   2.618   0.954 -0.1032  0.0318  2.4884
 6618TIP3   OH241412   1.544   6.027   8.391 -0.1129 -0.1637 -0.2878
 6618TIP3    H141413   1.449   6.014   8.390 -0.2774  0.9176 -1.1525
 6618TIP3    H241414   1.578   5.954   8.443 -1.3745 -0.8242 -0.3529
 6619TIP3   OH241415   4.677   5.467   2.952  0.2345  0.0455  0.6175
 6619TIP3    H141416   4.704   5.427   2.870 -0.6473 -0.0766  0.3767
 6619TIP3    H241417   4.584   5.444   2.961  0.2450  0.3029  1.4991
 6620TIP3   OH241418   2.807   3.028   9.105  0.6067 -0.2627 -0.1026
 6620TIP3    H141419   2.738   3.080   9.147 -0.0029  0.7861 -2.2309
 6620TIP3    H241420   2.888   3.076   9.123  0.6691 -0.9382  1.5371
 6621TIP3   OH241421   5.886   0.375   1.247  0.2142 -0.1087  0.0745
 6621TIP3    H141422   5.905   0.396   1.156  1.1064  0.0290  0.2811
 6621TIP3    H241423   5.933   0.294   1.264 -0.8392 -0.7195  0.1108
 6622TIP3   OH241424   2.738   0.765   0.122 -0.0113  0.1143  0.2953
 6622TIP3    H141425   2.825   0.799   0.144  0.2843 -1.6086  2.0784
 6622TIP3    H241426   2.678   0.813   0.180 -0.2068  0.8138 -0.4561
 6623TIP3   OH241427   5.921   0.797   0.869  0.2193 -0.1526 -0.3605
 6623TIP3    H141428   5.940   0.854   0.795 -0.3689 -0.2104 -0.5645
 6623TIP3    H241429   5.866   0.850   0.927  2.4101  0.6563  1.1151
 6624TIP3   OH241430   5.972   4.766   6.898 -0.2695  0.5211  0.0019
 6624TIP3    H141431   5.948   4.832   6.963  1.0574  2.4882 -1.4084
 6624TIP3    H241432   5.898   4.764   6.838 -1.4267 -1.1819  1.3917
 6625TIP3   OH241433   1.530   0.470   8.390 -0.1574 -0.3203 -0.0462
 6625TIP3    H141434   1.466   0.482   8.320 -0.1209  0.5231  0.0587
 6625TIP3    H241435   1.483   0.492   8.470 -0.3543 -1.7936  0.2779
 6626TIP3   OH241436   1.952   1.984   8.840  0.1383  0.1655 -0.0688
 6626TIP3    H141437   1.955   1.950   8.750 -0.4955 -0.6158  0.1935
 6626TIP3    H241438   1.918   2.073   8.831  0.7744  0.3612 -0.6685
 6627TIP3   OH241439   2.584   0.420   0.677 -0.4378 -0.2329  0.5033
 6627TIP3    H141440   2.668   0.453   0.645 -0.0865 -1.3179  0.2633
 6627TIP3    H241441   2.582   0.329   0.648 -1.5906 -0.2914  0.7281
 6628TIP3   OH241442   2.454   6.425   9.471 -0.4318  0.3010  0.2100
 6628TIP3    H141443   2.406   6.455   9.394 -1.0872 -0.4914  0.2979
 6628TIP3    H241444   2.502   6.348   9.441 -0.5083  0.1259  0.5279
 6629TIP3   OH241445   3.153   2.349   1.006 -0.1091 -0.0577  0.1811
 6629TIP3    H141446   3.080   2.300   1.042  0.3254 -0.3050  0.7441
 6629TIP3    H241447   3.118   2.437   0.991  0.1207  0.5754  2.8393
 6630TIP3   OH241448   0.019   3.882   1.502 -0.2195  0.3706 -0.1459
 6630TIP3    H141449   0.024   3.811   1.566  2.2945  0.7147  0.1235
 6630TIP3    H241450  -0.043   3.851   1.436 -0.9925 -1.0250  1.1839
 6631TIP3   OH241451   2.889   1.896   0.446  0.3245 -0.1685 -0.3808
 6631TIP3    H141452   2.973   1.850   0.440  0.2760 -0.5041  1.1577
 6631TIP3    H241453   2.846   1.858   0.523 -1.6162 -0.5963 -1.6038
 6632TIP3   OH241454   6.408   5.636   1.690  0.0254 -0.3659 -0.1825
 6632TIP3    H141455   6.466   5.560   1.676  2.2529  1.0899  0.5583
 6632TIP3    H241456   6.377   5.626   1.779 -0.5834 -0.9546 -0.4511
 6633TIP3   OH241457   2.941   2.433   8.192  0.0652  0.6654 -0.4022
 6633TIP3    H141458   2.943   2.383   8.273  0.4997  1.1627 -0.0996
 6633TIP3    H241459   2.850   2.429   8.164 -0.4697  1.9064  1.0188
 6634TIP3   OH241460   3.417   4.988   0.902  0.5936 -0.1871 -0.3472
 6634TIP3    H141461   3.459   5.031   0.976  0.5611 -1.1525  0.2530
 6634TIP3    H241462   3.434   4.895   0.916 -1.2102 -0.5606 -0.4148
 6635TIP3   OH241463   5.215   3.598   8.638  0.0348  0.7706 -0.0326
 6635TIP3    H141464   5.244   3.641   8.558 -0.9695  1.2185 -0.1710
 6635TIP3    H241465   5.244   3.507   8.628 -0.9443  0.5796 -1.3731
 6636TIP3   OH241466   5.182   0.201   1.524  0.3117 -0.6371 -0.1911
 6636TIP3    H141467   5.146   0.263   1.460  0.7231  0.0828  0.2581
 6636TIP3    H241468   5.105   0.166   1.568  0.0595 -0.6262 -0.6116
 6637TIP3   OH241469   2.107   4.040   2.376 -0.1641 -0.2002  0.2913
 6637TIP3    H141470   2.179   4.086   2.420 -0.4042  0.5998 -0.1333
 6637TIP3    H241471   2.052   4.009   2.447  1.4881 -2.3694  0.7229
 6638TIP3   OH241472   2.168   4.058   0.803  0.0339  0.3098  0.2469
 6638TIP3    H141473   2.232   4.126   0.780  0.2321  0.2464  0.6039
 6638TIP3    H241474   2.149   4.073   0.895  1.0167 -0.8907  0.6641
 6639TIP3   OH241475   5.495   4.034   1.986  0.6784 -0.1515  0.2980
 6639TIP3    H141476   5.410   4.077   1.974  1.2859  0.8891 -0.4004
 6639TIP3    H241477   5.475   3.956   2.037 -0.9360 -0.7838 -1.2038
 6640TIP3   OH241478   1.546   3.670   1.081 -0.2725  0.2792 -0.0754
 6640TIP3    H141479   1.511   3.615   1.151 -0.4592  1.2941  0.6566
 6640TIP3    H241480   1.543   3.615   1.003 -2.4239 -0.0804  0.1875
 6641TIP3   OH241481   2.424   2.844   7.024 -0.4894 -0.4356 -0.0714
 6641TIP3    H141482   2.517   2.845   7.043 -0.3810  2.6641 -0.2758
 6641TIP3    H241483   2.418   2.817   6.933  0.6829  3.2671 -1.4151
 6642TIP3   OH241484   1.183   1.935   0.242 -0.5980  0.2768 -0.0483
 6642TIP3    H141485   1.192   1.997   0.170 -1.2242 -0.7464 -1.0598
 6642TIP3    H241486   1.089   1.936   0.262 -0.8769 -1.3709 -1.0823
 6643TIP3   OH241487   6.439   2.477   0.756  0.3277  0.0730  0.3270
 6643TIP3    H141488   6.475   2.518   0.678 -2.8649  1.7477 -0.4270
 6643TIP3    H241489   6.377   2.541   0.791 -1.6310 -2.3686  1.6961
 6644TIP3   OH241490   5.160   5.193   1.666 -0.2560  0.4444 -0.0214
 6644TIP3    H141491   5.228   5.258   1.683  0.4320  0.1062 -1.3514
 6644TIP3    H241492   5.184   5.118   1.720 -0.3300  0.8007  0.5223
 6645TIP3   OH241493   5.432   0.458   1.504  0.1157 -0.1203 -0.3730
 6645TIP3    H141494   5.344   0.474   1.470 -0.5288 -0.8420  0.8852
 6645TIP3    H241495   5.418   0.415   1.588  1.6810 -0.3547 -0.1995
 6646TIP3   OH241496   3.951   1.101   8.643 -0.0047 -0.4498  0.2637
 6646TIP3    H141497   3.916   1.185   8.612  1.1823 -0.5191 -1.3753
 6646TIP3    H241498   3.907   1.035   8.589  0.9608 -0.6879 -0.2512
 6647TIP3   OH241499   2.878   2.218   6.427 -0.3828 -0.0757 -0.4564
 6647TIP3    H141500   2.951   2.157   6.435 -1.6845 -1.5229  0.7775
 6647TIP3    H241501   2.834   2.191   6.346  0.2937  0.6670 -1.0902
 6648TIP3   OH241502   5.294   4.399   0.528  0.3691  0.0626  0.1016
 6648TIP3    H141503   5.295   4.438   0.615  1.4076 -0.2099  0.2267
 6648TIP3    H241504   5.329   4.310   0.540  0.4069 -0.0258 -0.5690
 6649TIP3   OH241505   3.956   3.433   8.549 -0.6002 -0.9912 -0.4628
 6649TIP3    H141506   4.019   3.386   8.494  0.0734 -0.7940  0.1258
 6649TIP3    H241507   4.004   3.454   8.629 -1.4266 -0.8627  0.0166
 6650TIP3   OH241508   0.440   0.118   8.131  0.8507  0.1239  0.2390
 6650TIP3    H141509   0.508   0.053   8.111  0.9976  0.6811 -1.2632
 6650TIP3    H241510   0.471   0.161   8.210  1.5132 -0.6259  0.4067
 6651TIP3   OH241511   4.659   1.693   9.530  0.8810  0.6599 -0.7016
 6651TIP3    H141512   4.690   1.668   9.617  0.9413 -1.1284 -1.1993
 6651TIP3    H241513   4.735   1.682   9.473  0.1574 -0.9266 -1.4303
 6652TIP3   OH241514   0.383   2.206   8.678 -0.0394 -0.3481 -0.5298
 6652TIP3    H141515   0.416   2.248   8.757  2.7317 -1.3943 -1.0426
 6652TIP3    H241516   0.435   2.244   8.607 -0.6055 -1.3731 -1.5238
 6653TIP3   OH241517   4.418   3.131   0.146  0.2457  0.1434  0.1393
 6653TIP3    H141518   4.504   3.169   0.128  1.0492 -1.2460  0.8703
 6653TIP3    H241519   4.365   3.206   0.175  0.9429  1.1699 -1.1174
 6654TIP3   OH241520   2.580   4.162   8.516  0.1464  0.0770 -0.4491
 6654TIP3    H141521   2.665   4.135   8.482  0.4541 -0.1305  0.4691
 6654TIP3    H241522   2.584   4.257   8.517  0.2742  0.0748 -0.6243
 6655TIP3   OH241523   3.485   3.762   1.783 -0.1033 -0.0712  0.5089
 6655TIP3    H141524   3.413   3.823   1.767  0.4410  0.4363 -0.0170
 6655TIP3    H241525   3.564   3.810   1.758  0.3889 -0.7699  0.6872
 6656TIP3   OH241526   1.705   0.879   1.397  0.8005 -0.2605  0.2106
 6656TIP3    H141527   1.678   0.970   1.383  1.8758  0.0512  0.0659
 6656TIP3    H241528   1.801   0.882   1.395  0.8428 -1.4508 -0.1288
 6657TIP3   OH241529   2.858   6.411   6.918  0.2832  0.5000 -0.0026
 6657TIP3    H141530   2.800   6.351   6.872  0.4853 -0.2561  0.7034
 6657TIP3    H241531   2.853   6.384   7.009  0.9333  1.1006  0.2201
 6658TIP3   OH241532   3.238   5.527   2.707 -0.0799  0.4063  0.0042
 6658TIP3    H141533   3.256   5.433   2.707  0.7454  0.5515  1.0902
 6658TIP3    H241534   3.193   5.543   2.790 -0.6602  0.9066 -0.3917
 6659TIP3   OH241535   5.658   4.865   1.245 -0.2822 -0.2943 -0.2362
 6659TIP3    H141536   5.670   4.881   1.339  2.8852 -0.8846 -0.4403
 6659TIP3    H241537   5.583   4.806   1.241  0.8071 -2.0714  2.1889
 6660TIP3   OH241538   3.108   2.504   1.337  0.2302 -0.2105  0.2520
 6660TIP3    H141539   3.071   2.533   1.421 -2.6459 -1.4128 -0.4949
 6660TIP3    H241540   3.033   2.471   1.288  1.9563 -0.3046 -2.5155
 6661TIP3   OH241541   5.464   6.231   8.018  0.5901 -0.3863  0.3452
 6661TIP3    H141542   5.400   6.195   7.955 -0.4196  0.5128  0.8238
 6661TIP3    H241543   5.410   6.276   8.083  1.5980 -1.4936  2.0120
 6662TIP3   OH241544   3.494   4.174   0.488 -0.4091  0.5090  0.2614
 6662TIP3    H141545   3.418   4.122   0.515  0.7875 -0.7930  1.3073
 6662TIP3    H241546   3.555   4.109   0.453  0.0402  1.5945 -1.0413
 6663TIP3   OH241547   1.445   2.857   1.857 -0.1233 -0.7368 -0.1489
 6663TIP3    H141548   1.353   2.863   1.884 -0.0017  4.0856  0.0894
 6663TIP3    H241549   1.450   2.910   1.777  2.4978 -0.6058  0.0080
 6664TIP3   OH241550   2.919   4.266   1.830  0.5457 -0.3380 -0.0680
 6664TIP3    H141551   2.886   4.298   1.915 -0.8659 -0.7935 -0.4088
 6664TIP3    H241552   2.988   4.327   1.806  0.0324  0.6040  0.7767
 6665TIP3   OH241553   5.927   5.520   7.102 -0.4864  0.3819 -0.2150
 6665TIP3    H141554   5.929   5.532   7.007  0.9875  2.8601  0.0498
 6665TIP3    H241555   5.972   5.597   7.137  0.0762 -1.0426  2.4604
 6666TIP3   OH241556   3.161   3.530   8.278  0.2127 -0.3723  0.1299
 6666TIP3    H141557   3.191   3.441   8.295 -0.0752 -0.4813  0.0620
 6666TIP3    H241558   3.215   3.585   8.334  1.1318 -0.4974 -0.6023
 6667TIP3   OH241559   3.632   0.517   9.569 -0.2568  0.0184 -0.2372
 6667TIP3    H141560   3.726   0.502   9.577 -0.3774 -0.0997  1.2134
 6667TIP3    H241561   3.593   0.432   9.589 -0.6734 -0.3077 -2.1646
 6668TIP3   OH241562   3.772   5.521   1.112  0.2476 -0.2967 -0.3254
 6668TIP3    H141563   3.847   5.524   1.171  0.5741 -0.9791 -0.6958
 6668TIP3    H241564   3.795   5.582   1.042  0.2067 -0.0895 -0.1624
 6669TIP3   OH241565   3.524   0.459   1.829  0.0714  0.2347  0.1713
 6669TIP3    H141566   3.512   0.548   1.795  0.0278 -0.9715 -3.4212
 6669TIP3    H241567   3.611   0.433   1.800 -1.1003 -1.9172 -1.7802
 6670TIP3   OH241568   5.783   2.308   7.979  0.4036 -0.5223  0.1788
 6670TIP3    H141569   5.811   2.232   8.031 -0.1683 -0.4468  0.6147
 6670TIP3    H241570   5.864   2.344   7.942  1.2619  1.0496  3.2261
 6671TIP3   OH241571   4.597   4.108   0.124  0.1747  0.2079 -0.0147
 6671TIP3    H141572   4.677   4.158   0.107  0.3440  0.1525  0.5894
 6671TIP3    H241573   4.533   4.143   0.063 -0.0552  2.0035  1.1685
 6672TIP3   OH241574   0.290   1.023   8.523  0.5656  0.3120 -0.3883
 6672TIP3    H141575   0.206   0.981   8.502  0.5837  0.2037 -0.2452
 6672TIP3    H241576   0.355   0.955   8.509  0.5467  0.1390  0.3248
 6673TIP3   OH241577   0.170   0.136   8.177 -0.2004  0.2309  0.2881
 6673TIP3    H141578   0.152   0.195   8.104 -1.4558 -0.6794 -0.1697
 6673TIP3    H241579   0.259   0.104   8.162 -0.6193 -0.3138 -1.1089
 6674TIP3   OH241580   1.301   5.822   1.643  0.1476  0.0591  0.8774
 6674TIP3    H141581   1.311   5.739   1.596  1.0685 -0.8018  2.5192
 6674TIP3    H241582   1.210   5.848   1.627 -0.0932 -1.1590  0.1655
 6675TIP3   OH241583   0.281   6.506   8.816  1.0593  0.1747  0.5634
 6675TIP3    H141584   0.336   6.526   8.892  0.5333  1.9052  0.5268
 6675TIP3    H241585   0.191   6.514   8.849  0.8023 -0.9106  0.1924
 6676TIP3   OH241586   0.023   2.952   9.203  0.6536 -0.3703  0.0506
 6676TIP3    H141587  -0.036   2.946   9.278  1.9557 -0.4082  1.1062
 6676TIP3    H241588   0.106   2.981   9.240  1.1379  0.3356 -1.4926
 6677TIP3   OH241589   0.846   4.946   7.684  0.4133 -0.5681  0.2970
 6677TIP3    H141590   0.846   4.985   7.772  0.6395  1.0532 -0.3745
 6677TIP3    H241591   0.938   4.939   7.661  0.4005 -2.0422  0.5898
 6678TIP3   OH241592   5.980   2.072   2.481 -0.1763  0.0262 -0.2016
 6678TIP3    H141593   5.959   1.993   2.533  1.6781 -0.5192 -0.2261
 6678TIP3    H241594   5.900   2.088   2.431 -0.7683 -1.5805  0.1387
 6679TIP3   OH241595   2.523   5.637   0.620  0.2588  0.4996  0.3556
 6679TIP3    H141596   2.615   5.650   0.642  0.2425 -0.4553  1.0267
 6679TIP3    H241597   2.519   5.645   0.525  1.1490 -0.1820  0.2593
 6680TIP3   OH241598   0.302   4.804   7.867 -0.3047  0.1940 -0.6054
 6680TIP3    H141599   0.390   4.815   7.903  0.1863 -3.5542 -0.1607
 6680TIP3    H241600   0.248   4.783   7.943 -1.3771  1.3380 -1.0238
 6681TIP3   OH241601   5.384   0.502   7.798 -0.3265 -0.1018 -0.4008
 6681TIP3    H141602   5.352   0.536   7.714 -1.1355 -0.3221 -0.1862
 6681TIP3    H241603   5.467   0.460   7.776 -0.3612  0.1412 -1.0342
 6682TIP3   OH241604   6.116   3.568   1.371 -0.3929 -0.1572  0.2747
 6682TIP3    H141605   6.030   3.535   1.397 -1.2763  0.7916 -1.3009
 6682TIP3    H241606   6.117   3.659   1.399  0.0100 -0.1006  0.0899
 6683TIP3   OH241607   0.407   4.255   8.471 -0.5773 -0.0155 -0.1734
 6683TIP3    H141608   0.359   4.322   8.421 -3.9349  2.1690  5.1381
 6683TIP3    H241609   0.339   4.200   8.509  1.8852 -3.2307  0.0566
 6684TIP3   OH241610   6.393   5.626   0.791 -0.1209 -0.0457 -0.3000
 6684TIP3    H141611   6.303   5.650   0.812  0.0741  0.0647  0.4444
 6684TIP3    H241612   6.393   5.610   0.697 -0.0029  4.2129 -1.2293
 6685TIP3   OH241613   6.498   6.460   1.331 -0.5265  0.1878 -0.0164
 6685TIP3    H141614   6.428   6.396   1.343 -0.0245 -0.0513  1.9516
 6685TIP3    H241615   6.453   6.541   1.306 -1.4229 -0.1889  0.3486
 6686TIP3   OH241616   4.797   6.073   8.343  0.0384  0.0634 -0.4457
 6686TIP3    H141617   4.848   6.147   8.310 -1.1141  0.1863 -2.0514
 6686TIP3    H241618   4.709   6.109   8.358 -0.1599 -0.6466  0.1259
 6687TIP3   OH241619   0.282   2.173   1.145  0.1392  0.0395  0.6759
 6687TIP3    H141620   0.374   2.196   1.153  0.1573  0.7186 -1.1456
 6687TIP3    H241621   0.257   2.147   1.234  2.0556 -0.1334  1.2174
 6688TIP3   OH241622   2.397   4.062   8.352 -0.3538 -0.2670  0.0885
 6688TIP3    H141623   2.438   3.987   8.309 -0.4411  0.4104 -1.2550
 6688TIP3    H241624   2.470   4.111   8.390 -0.4420 -1.9848  2.6934
 6689TIP3   OH241625   4.621   0.752   0.333  0.1568 -0.6394 -0.1069
 6689TIP3    H141626   4.543   0.698   0.348 -0.8018  0.5246 -0.7487
 6689TIP3    H241627   4.609   0.827   0.391  0.8666 -0.5052 -0.1319
 6690TIP3   OH241628   4.306   4.839   2.420 -0.3036 -0.3777 -0.2856
 6690TIP3    H141629   4.294   4.934   2.418 -1.5349 -0.4262  1.6859
 6690TIP3    H241630   4.234   4.805   2.366 -1.6478 -0.2122  1.2865
 6691TIP3   OH241631   4.851   0.367   6.950  0.0613  0.2170  0.0860
 6691TIP3    H141632   4.773   0.401   6.995 -1.3616  0.0372 -2.0701
 6691TIP3    H241633   4.904   0.445   6.932 -0.3897  0.5553  0.2075
 6692TIP3   OH241634   0.462   5.428   0.231  0.1435  0.0589 -0.5102
 6692TIP3    H141635   0.417   5.355   0.273  0.8831 -0.3502 -0.4085
 6692TIP3    H241636   0.533   5.451   0.291  0.0331  0.7366 -0.6294
 6693TIP3   OH241637   5.150   1.889   9.148  0.3046  0.2361  0.2910
 6693TIP3    H141638   5.210   1.857   9.215  1.6241  2.4567  0.2461
 6693TIP3    H241639   5.159   1.825   9.077  1.1663 -0.5009  1.0290
 6694TIP3   OH241640   5.341   2.570   7.609 -0.5320 -0.5345 -0.3324
 6694TIP3    H141641   5.330   2.665   7.616 -2.1680 -0.6881 -0.3709
 6694TIP3    H241642   5.436   2.557   7.608 -0.2687  1.1191 -0.6710
 6695TIP3   OH241643   3.662   5.156   7.057 -0.2215  0.5743 -0.4183
 6695TIP3    H141644   3.673   5.072   7.101 -1.8412 -0.0551 -1.1434
 6695TIP3    H241645   3.743   5.168   7.007  0.7314  0.2796  0.9850
 6696TIP3   OH241646   3.011   0.975   8.718 -0.1580  0.2638  0.2889
 6696TIP3    H141647   3.058   0.996   8.798 -1.2612  2.4375  0.4396
 6696TIP3    H241648   2.921   0.958   8.747 -0.1422 -0.9879 -0.3030
 6697TIP3   OH241649   5.504   1.697   7.612  0.1006  0.0656 -0.0758
 6697TIP3    H141650   5.599   1.692   7.605  0.2298  0.1710  1.3105
 6697TIP3    H241651   5.477   1.609   7.639 -0.2492 -0.0675 -0.8194
 6698TIP3   OH241652   6.437   2.584   7.130  0.1452 -0.1711  0.8167
 6698TIP3    H141653   6.499   2.531   7.081 -1.1194 -1.1223  0.2053
 6698TIP3    H241654   6.462   2.571   7.222 -0.5729 -2.4405  0.7442
 6699TIP3   OH241655   2.091   2.960   0.298  0.1084  0.1018 -0.1283
 6699TIP3    H141656   2.053   3.045   0.317 -1.0617 -0.5222  0.4389
 6699TIP3    H241657   2.016   2.902   0.286  0.8494 -1.1512  0.9494
 6700TIP3   OH241658   0.504   2.343   8.874  0.1433 -0.0692  0.6754
 6700TIP3    H141659   0.451   2.412   8.914 -0.0966  0.5024 -0.5672
 6700TIP3    H241660   0.572   2.324   8.938  1.6926  3.0366  0.1013
 6701TIP3   OH241661   4.185   5.340   8.826  0.1521 -0.4563 -0.5663
 6701TIP3    H141662   4.278   5.337   8.803  0.2478  2.0015 -0.7954
 6701TIP3    H241663   4.152   5.418   8.780 -1.9713 -1.1396 -0.2892
 6702TIP3   OH241664   1.899   3.312   9.091 -0.2918  0.3344  0.2840
 6702TIP3    H141665   1.864   3.380   9.034  0.4236  0.9119  0.5153
 6702TIP3    H241666   1.994   3.316   9.077 -0.0277  0.9419  1.9674
 6703TIP3   OH241667   4.713   4.144   7.821 -0.7589  0.2359 -0.4088
 6703TIP3    H141668   4.718   4.162   7.915  1.3100  0.2446 -0.4602
 6703TIP3    H241669   4.764   4.063   7.810  1.2289  1.5962 -1.7881
 6704TIP3   OH241670   2.135   2.593   1.050 -0.0592 -0.0062 -0.1922
 6704TIP3    H141671   2.072   2.661   1.074 -1.9932 -1.9401  0.6306
 6704TIP3    H241672   2.201   2.594   1.119  0.5380  1.6766 -0.7537
 6705TIP3   OH241673   3.669   0.247   7.708 -0.5447 -0.2974  0.3033
 6705TIP3    H141674   3.617   0.174   7.740 -0.1829 -1.2182 -1.1254
 6705TIP3    H241675   3.631   0.269   7.623  1.0258 -0.6488 -0.5363
 6706TIP3   OH241676   0.915   5.510   1.951  0.0526  0.2630 -0.4497
 6706TIP3    H141677   0.870   5.589   1.922 -1.4708  0.2513  1.6182
 6706TIP3    H241678   0.986   5.541   2.006 -1.3695  0.2806  1.4955
 6707TIP3   OH241679   1.241   1.784   2.059  0.8664  0.2985 -0.1835
 6707TIP3    H141680   1.239   1.693   2.087  3.0273  0.9489  2.4311
 6707TIP3    H241681   1.305   1.826   2.116  0.2721  3.3952 -1.5793
 6708TIP3   OH241682   3.241   0.716   1.486 -0.0523  0.0070 -0.2156
 6708TIP3    H141683   3.335   0.703   1.480 -0.0594 -0.2142  0.1392
 6708TIP3    H241684   3.228   0.769   1.564 -0.4177 -2.3291  1.4319
 6709TIP3   OH241685   4.336   0.152   0.860 -0.5305 -0.0306  0.4708
 6709TIP3    H141686   4.342   0.221   0.794 -1.5199 -0.7661 -0.4314
 6709TIP3    H241687   4.357   0.071   0.812  0.1435 -0.4290  1.3967
 6710TIP3   OH241688   0.762   6.358   8.206 -0.9612 -0.2438 -0.1863
 6710TIP3    H141689   0.808   6.419   8.264 -0.0796 -0.4686 -0.6291
 6710TIP3    H241690   0.709   6.304   8.265  0.1950 -0.7048  0.4569
 6711TIP3   OH241691   0.943   3.201   9.059  0.2520  0.2664  0.3583
 6711TIP3    H141692   0.965   3.251   8.980  0.7638  1.2110  1.0784
 6711TIP3    H241693   1.026   3.161   9.086 -0.0178 -0.4452  0.1690
 6712TIP3   OH241694   2.763   5.623   8.447  0.1503 -0.1230  0.1244
 6712TIP3    H141695   2.738   5.588   8.533 -0.8355  0.8038  0.2463
 6712TIP3    H241696   2.741   5.553   8.385 -1.7642  0.2067  0.3612
 6713TIP3   OH241697   0.279   2.170   7.625  0.5154 -0.0610  0.4440
 6713TIP3    H141698   0.347   2.136   7.682  0.7069 -0.5219 -0.0534
 6713TIP3    H241699   0.314   2.160   7.536  0.1574  0.4962  0.2280
 6714TIP3   OH241700   4.695   6.358   1.758 -0.1527  0.9380 -0.1541
 6714TIP3    H141701   4.782   6.375   1.795 -0.2386 -0.2128  0.6062
 6714TIP3    H241702   4.711   6.296   1.687 -0.6093 -1.3942  1.6921
 6715TIP3   OH241703   1.485   5.675   8.971 -0.4412 -0.1908 -0.0362
 6715TIP3    H141704   1.463   5.603   8.912  0.3660  0.7652 -1.5772
 6715TIP3    H241705   1.400   5.716   8.990 -0.5465  1.0562 -2.7094
 6716TIP3   OH241706   1.806   4.800   0.433 -0.2248 -0.1012 -0.7279
 6716TIP3    H141707   1.733   4.832   0.486  0.4474  1.5657 -0.7513
 6716TIP3    H241708   1.874   4.777   0.496 -0.0226  0.3520 -0.7689
 6717TIP3   OH241709   0.831   6.010   8.288  0.6189 -0.5569  0.2231
 6717TIP3    H141710   0.820   5.935   8.346 -0.8717 -0.2106  0.4275
 6717TIP3    H241711   0.835   6.086   8.346  1.4636 -0.4031 -0.0179
 6718TIP3   OH241712   4.467   6.487   1.650  0.2858  0.2219  0.0678
 6718TIP3    H141713   4.536   6.436   1.693  0.3989 -0.1573 -0.5607
 6718TIP3    H241714   4.389   6.467   1.701 -0.1368 -2.3058 -1.4190
 6719TIP3   OH241715   3.651   5.549   7.957 -0.2736  0.3755  0.5047
 6719TIP3    H141716   3.677   5.485   8.022 -0.8673  0.6768  1.0531
 6719TIP3    H241717   3.654   5.502   7.874 -3.0287 -1.1179  1.1384
 6720TIP3   OH241718   4.728   3.095   9.438  0.5071  0.2023  0.0359
 6720TIP3    H141719   4.698   3.079   9.348 -0.2891  0.5688  0.2264
 6720TIP3    H241720   4.766   3.011   9.465 -0.7650 -0.4330 -0.0740
 6721TIP3   OH241721   1.559   2.796   2.606 -0.1667 -0.5291 -0.1421
 6721TIP3    H141722   1.524   2.799   2.695  2.5545 -2.9130  1.1729
 6721TIP3    H241723   1.568   2.888   2.580 -1.2193  0.2048  1.9166
 6722TIP3   OH241724   2.959   3.949   9.404  0.1593 -0.5436  0.0787
 6722TIP3    H141725   2.997   3.955   9.492 -1.4154 -0.2009  0.7761
 6722TIP3    H241726   2.908   4.030   9.395  0.2513 -0.6109 -1.1300
 6723TIP3   OH241727   2.914   4.449   0.667 -0.1416 -0.2766 -0.4320
 6723TIP3    H141728   2.947   4.407   0.746  2.1255 -1.1733 -1.7372
 6723TIP3    H241729   2.920   4.543   0.685  0.7819 -0.4631  0.3061
 6724TIP3   OH241730   0.754   0.143   0.655  0.2046 -0.8449  0.0244
 6724TIP3    H141731   0.831   0.114   0.606  0.0199  2.2138 -2.3761
 6724TIP3    H241732   0.777   0.230   0.688 -2.5852  0.8598 -2.0792
 6725TIP3   OH241733   1.665   3.365   0.178 -0.1985 -0.1528  0.0886
 6725TIP3    H141734   1.571   3.381   0.172 -0.1494 -0.0949 -0.6516
 6725TIP3    H241735   1.676   3.276   0.145  0.0796  0.0831 -0.4611
 6726TIP3   OH241736   4.366   1.114   0.229 -0.0733 -0.0671 -0.4681
 6726TIP3    H141737   4.298   1.057   0.265  0.3612 -0.5477 -0.3888
 6726TIP3    H241738   4.423   1.054   0.180  0.6857  0.2224  0.0526
 6727TIP3   OH241739   1.500   0.974   8.795 -0.1174 -0.5897  0.1081
 6727TIP3    H141740   1.553   1.035   8.846  0.6491 -0.4171 -0.8654
 6727TIP3    H241741   1.563   0.916   8.754 -0.7745 -1.2790  0.0415
 6728TIP3   OH241742   1.432   6.256   7.933  0.7957 -0.5460 -0.1299
 6728TIP3    H141743   1.402   6.273   7.844 -0.7129 -0.9366  0.2712
 6728TIP3    H241744   1.504   6.193   7.922  2.4724  1.4243 -1.1998
 6729TIP3   OH241745   6.014   0.712   2.967  0.5378 -0.0599 -0.1873
 6729TIP3    H141746   5.951   0.730   3.036 -0.4061 -1.3818 -0.6631
 6729TIP3    H241747   5.997   0.780   2.901  1.6596  1.4025  0.9561
 6730TIP3   OH241748   4.668   5.596   0.778  0.3621  0.7126  0.1223
 6730TIP3    H141749   4.598   5.654   0.806  0.7943  0.8490  0.9777
 6730TIP3    H241750   4.631   5.546   0.705 -0.7723  0.4614  0.8432
 6731TIP3   OH241751   6.014   0.601   7.450 -0.0716 -0.6000 -0.1631
 6731TIP3    H141752   5.926   0.600   7.412 -0.1971 -2.4946  0.0998
 6731TIP3    H241753   6.057   0.676   7.408 -1.3429 -0.4778 -1.3344
 6732TIP3   OH241754   5.102   0.441   8.552 -0.1186  1.1572 -0.5405
 6732TIP3    H141755   5.055   0.406   8.476 -0.3215  1.2455 -0.4580
 6732TIP3    H241756   5.041   0.504   8.590 -0.1506  0.8769 -0.1187
 6733TIP3   OH241757   1.344   5.832   0.921 -0.7429  0.3715  0.3165
 6733TIP3    H141758   1.268   5.782   0.890 -0.1355 -0.4524  0.1179
 6733TIP3    H241759   1.368   5.790   1.004 -0.0629  0.1558  0.0170
 6734TIP3   OH241760   3.253   1.109   8.630 -0.0214  0.4277  0.1319
 6734TIP3    H141761   3.231   1.151   8.713 -0.1574  1.8679 -0.6028
 6734TIP3    H241762   3.171   1.069   8.601 -0.5150  1.7002 -0.2897
 6735TIP3   OH241763   5.868   5.385   2.099 -0.0900  0.2548  0.1660
 6735TIP3    H141764   5.946   5.384   2.043  0.7056 -0.7406  1.2288
 6735TIP3    H241765   5.892   5.330   2.174 -0.8948  1.9930  1.7803
 6736TIP3   OH241766   2.772   2.259   7.923 -0.6076 -0.2394  0.1775
 6736TIP3    H141767   2.701   2.302   7.875 -0.6554 -0.4471  0.0571
 6736TIP3    H241768   2.828   2.222   7.855  1.1995  2.3078  0.1527
 6737TIP3   OH241769   3.140   5.083   8.523  0.1998  0.3075 -0.1438
 6737TIP3    H141770   3.054   5.059   8.558  0.1589  1.0327  0.2449
 6737TIP3    H241771   3.123   5.100   8.430 -0.1082  0.6185 -0.0318
 6738TIP3   OH241772   3.836   5.202   1.915 -0.5055 -0.5492  0.0848
 6738TIP3    H141773   3.915   5.208   1.969 -0.3863 -2.0713  0.1146
 6738TIP3    H241774   3.765   5.188   1.978 -0.6566 -0.2477 -0.0170
 6739TIP3   OH241775   5.976   6.065   2.010  0.6989  0.0057 -0.3215
 6739TIP3    H141776   6.039   6.135   2.028 -0.0273  0.5744  0.0670
 6739TIP3    H241777   5.911   6.106   1.953  0.2893 -0.3721 -0.1256
 6740TIP3   OH241778   4.465   5.521   0.579 -0.5977  0.0850  0.6630
 6740TIP3    H141779   4.432   5.602   0.541 -0.8663 -0.0175  0.6818
 6740TIP3    H241780   4.501   5.472   0.505  0.5593  0.6955  0.7931
 6741TIP3   OH241781   3.785   3.863   1.443 -0.0955  0.0270 -0.4082
 6741TIP3    H141782   3.830   3.947   1.436 -0.6201  0.1920 -2.7410
 6741TIP3    H241783   3.745   3.864   1.530 -0.4991  2.4131 -0.5592
 6742TIP3   OH241784   3.620   2.382   2.070  0.2107 -0.8249  0.0615
 6742TIP3    H141785   3.633   2.388   2.165  0.8115 -0.0248 -0.0602
 6742TIP3    H241786   3.530   2.351   2.060  0.3086 -1.4159  0.8976
 6743TIP3   OH241787   5.750   3.980   8.854  0.1439 -0.4730 -0.2276
 6743TIP3    H141788   5.818   4.026   8.804 -1.6785  1.3709 -1.1506
 6743TIP3    H241789   5.781   3.982   8.944  0.4417  2.1874 -0.2965
 6744TIP3   OH241790   0.577   3.403   0.161  0.2615  0.5499  0.5373
 6744TIP3    H141791   0.562   3.330   0.221 -1.9410  0.7195  0.2502
 6744TIP3    H241792   0.588   3.479   0.218  0.1136  0.4053  0.7592
 6745TIP3   OH241793   4.697   1.500   9.078 -0.0641 -0.3071 -0.1194
 6745TIP3    H141794   4.605   1.527   9.079 -0.3057 -1.0863 -0.8023
 6745TIP3    H241795   4.696   1.411   9.111  0.2361 -0.8998 -1.6340
 6746TIP3   OH241796   6.405   2.000   0.553 -0.5283  0.4539  0.0509
 6746TIP3    H141797   6.471   2.047   0.604  0.0147 -0.4522  0.2040
 6746TIP3    H241798   6.406   2.042   0.467 -0.2114  0.8602  0.2535
 6747TIP3   OH241799   6.252   3.435   0.228 -0.0242 -0.0337 -0.0886
 6747TIP3    H141800   6.235   3.528   0.216 -1.2736 -0.2561 -0.1671
 6747TIP3    H241801   6.234   3.419   0.321 -2.7068 -0.7261 -0.6489
 6748TIP3   OH241802   6.518   5.707   2.226 -0.3616 -0.7081 -0.0026
 6748TIP3    H141803   6.572   5.710   2.147 -1.8521 -0.2291 -1.0292
 6748TIP3    H241804   6.487   5.616   2.231  1.8363 -1.4711  1.5549
 6749TIP3   OH241805   3.724   1.512   8.058 -0.0738  0.3465  0.3836
 6749TIP3    H141806   3.746   1.427   8.096  0.2837 -0.0193 -0.5955
 6749TIP3    H241807   3.722   1.496   7.963  0.9514  1.6316  0.1106
 6750TIP3   OH241808   3.286   1.118   2.137 -0.5435  0.2205 -0.1134
 6750TIP3    H141809   3.319   1.208   2.127  2.1334 -0.7108 -0.5174
 6750TIP3    H241810   3.337   1.082   2.210 -0.1386 -1.5624 -1.2305
 6751TIP3   OH241811   0.256   2.595   1.450  0.1999 -0.0823  0.2864
 6751TIP3    H141812   0.303   2.529   1.501  3.1152  1.0043 -0.7504
 6751TIP3    H241813   0.255   2.672   1.506 -1.2374 -0.3544  0.6537
 6752TIP3   OH241814   2.349   2.083   8.128 -0.1279  0.4003  0.4947
 6752TIP3    H141815   2.260   2.061   8.101  0.0816 -0.5761  0.5590
 6752TIP3    H241816   2.370   2.162   8.078 -1.1522  0.8521  0.7544
 6753TIP3   OH241817   3.914   3.597   0.989  0.3703  0.3539  0.2380
 6753TIP3    H141818   3.831   3.617   0.945  0.1292  0.4786  0.7460
 6753TIP3    H241819   3.979   3.599   0.919  0.3332  2.6272  0.1942
 6754TIP3   OH241820   1.184   1.613   8.171 -0.6958  0.8191 -0.4852
 6754TIP3    H141821   1.249   1.561   8.218  1.9201  2.6173 -1.8242
 6754TIP3    H241822   1.171   1.568   8.088  1.7797  2.2423 -1.7628
 6755TIP3   OH241823   2.008   0.364   1.344 -0.0732 -0.2791  0.1448
 6755TIP3    H141824   2.058   0.286   1.321  0.9754  0.1345  0.9740
 6755TIP3    H241825   2.048   0.396   1.425 -0.6236  1.0054 -0.0670
 6756TIP3   OH241826   5.995   3.667   9.027  0.2135 -0.1097  0.2400
 6756TIP3    H141827   5.954   3.712   9.100 -1.0038 -0.5808 -0.1302
 6756TIP3    H241828   5.991   3.574   9.051  1.4074 -0.1472  0.3557
 6757TIP3   OH241829   5.953   1.605   1.344  0.2873  0.1152 -0.0450
 6757TIP3    H141830   6.015   1.567   1.282  0.9537 -0.3186  0.8595
 6757TIP3    H241831   5.920   1.529   1.393 -0.9146  0.3530 -0.4751
 6758TIP3   OH241832   1.032   0.600   7.366  0.6765 -0.2042  0.7804
 6758TIP3    H141833   0.998   0.650   7.292 -0.8696 -1.1277  0.8171
 6758TIP3    H241834   1.072   0.666   7.423  1.8398  0.5265 -0.8091
 6759TIP3   OH241835   4.636   5.100   8.291 -0.2918 -0.1169  0.0198
 6759TIP3    H141836   4.648   5.177   8.235 -0.6540 -0.5028 -0.5809
 6759TIP3    H241837   4.542   5.080   8.286  0.0678 -1.6664 -1.2316
 6760TIP3   OH241838   1.691   5.574   7.770  0.3659 -0.1279 -0.1993
 6760TIP3    H141839   1.679   5.568   7.865 -2.0566  1.9494 -0.2912
 6760TIP3    H241840   1.751   5.501   7.749 -1.9102 -3.0128  2.3987
 6761TIP3   OH241841   6.193   4.937   8.198 -0.6373  0.0824 -0.3737
 6761TIP3    H141842   6.153   4.900   8.276  0.9079 -1.4366 -0.2502
 6761TIP3    H241843   6.150   4.892   8.125  0.5507 -1.2901 -0.2526
 6762TIP3   OH241844   0.216   4.148   8.078 -0.2960 -0.1187 -0.0169
 6762TIP3    H141845   0.135   4.177   8.120 -0.5188 -0.1652 -0.4065
 6762TIP3    H241846   0.187   4.103   7.999  0.0743 -0.8084  0.2266
 6763TIP3   OH241847   4.448   1.653   9.064 -0.2329  0.2834  0.1787
 6763TIP3    H141848   4.361   1.624   9.036 -0.1874  0.5531 -0.2459
 6763TIP3    H241849   4.432   1.735   9.111 -0.1316  0.7288 -0.5577
 6764TIP3   OH241850   5.628   5.814   1.594  0.3971 -0.0534  0.3294
 6764TIP3    H141851   5.692   5.862   1.647 -0.0630  0.8306  0.1154
 6764TIP3    H241852   5.657   5.826   1.504 -1.8153  3.2809 -0.1251
 6765TIP3   OH241853   6.267   0.013   1.685 -0.3708  0.2385 -0.1122
 6765TIP3    H141854   6.283  -0.024   1.772 -1.3538  0.1792  0.0522
 6765TIP3    H241855   6.346   0.064   1.666  0.1127 -0.2461  0.5510
 6766TIP3   OH241856   0.140   0.196   1.847  1.0050  0.0107 -0.0842
 6766TIP3    H141857   0.078   0.252   1.799 -4.0375 -3.1461  1.9014
 6766TIP3    H241858   0.157   0.244   1.928  1.5953  1.1394 -0.8562
 6767TIP3   OH241859   4.884   4.071   2.006 -0.3135  0.4554 -0.1452
 6767TIP3    H141860   4.840   3.987   2.023  1.4658 -0.1394  2.0819
 6767TIP3    H241861   4.924   4.060   1.919 -1.0130 -0.5834 -0.3535
 6768TIP3   OH241862   2.634   2.761   7.648  0.0775 -0.0480  0.1254
 6768TIP3    H141863   2.641   2.675   7.690  0.8712  0.6004  1.3941
 6768TIP3    H241864   2.595   2.816   7.715 -2.0821  0.2191 -1.2728
 6769TIP3   OH241865   5.735   6.417   7.679  0.5320  0.4439  0.4888
 6769TIP3    H141866   5.681   6.439   7.755  0.5563  1.5410  0.1989
 6769TIP3    H241867   5.677   6.429   7.604  1.3711  2.4411  0.1086
 6770TIP3   OH241868   1.038   1.874   9.283 -0.4338 -0.1370  0.2099
 6770TIP3    H141869   1.028   1.895   9.376  0.2092 -1.0153  0.4918
 6770TIP3    H241870   1.060   1.781   9.282  1.5550  0.2980 -0.7024
 6771TIP3   OH241871   4.391   3.003   9.339 -0.4440  0.1169  0.3360
 6771TIP3    H141872   4.305   3.002   9.297 -0.1342  2.8871 -0.6224
 6771TIP3    H241873   4.453   2.997   9.266  0.1500 -0.0559  0.8522
 6772TIP3   OH241874   2.345   5.606   1.749  0.0497 -0.3440  0.4310
 6772TIP3    H141875   2.299   5.604   1.833  0.3538 -0.0844  0.6031
 6772TIP3    H241876   2.337   5.516   1.716  0.1593 -0.5150  0.8601
 6773TIP3   OH241877   1.795   3.132   0.100  0.1779  0.0256 -0.4569
 6773TIP3    H141878   1.822   3.149   0.010  1.1556  2.5657  0.2540
 6773TIP3    H241879   1.865   3.168   0.154 -1.0418 -0.1768  1.3484
 6774TIP3   OH241880   3.111   0.272   2.617  0.8447  0.1291  0.3563
 6774TIP3    H141881   3.101   0.177   2.624  0.0142 -0.0942 -2.5353
 6774TIP3    H241882   3.037   0.307   2.666 -0.6681 -0.8700 -1.1065
 6775TIP3   OH241883   1.022   0.520   1.230 -0.5320 -0.1507 -0.6733
 6775TIP3    H141884   1.058   0.447   1.282 -0.2356  1.3942  1.4353
 6775TIP3    H241885   0.956   0.479   1.174 -0.8351 -1.9605  0.8894
 6776TIP3   OH241886   0.179   1.916   1.932 -0.0379  0.0714  0.2255
 6776TIP3    H141887   0.261   1.939   1.976  0.2018 -0.4179  0.0441
 6776TIP3    H241888   0.149   1.998   1.894  0.3878  0.2480  0.2618
 6777TIP3   OH241889   1.074   6.209   2.527  0.0080  0.6981  0.3079
 6777TIP3    H141890   1.145   6.259   2.565 -0.2378 -0.4550  2.4326
 6777TIP3    H241891   1.024   6.176   2.602  0.4173 -3.0464 -0.8379
 6778TIP3   OH241892   3.616   6.077   8.456 -0.3132 -0.0919  0.3527
 6778TIP3    H141893   3.683   6.065   8.390 -1.2646 -0.3473 -0.5906
 6778TIP3    H241894   3.580   5.990   8.471  0.4470 -0.1883  1.8439
 6779TIP3   OH241895   6.350   0.859   0.377 -0.6805  0.1746  0.4904
 6779TIP3    H141896   6.366   0.925   0.445 -0.2180  0.3439  0.2184
 6779TIP3    H241897   6.255   0.845   0.379 -0.4566 -1.8677  3.1061
 6780TIP3   OH241898   2.284   4.343   8.061  0.0310 -0.4031  0.0120
 6780TIP3    H141899   2.300   4.392   7.981 -1.0144  0.8154  0.5072
 6780TIP3    H241900   2.226   4.272   8.035 -0.3649  0.0338 -0.3245
 6781TIP3   OH241901   3.990   6.323   0.203 -0.2566 -0.5414  0.0366
 6781TIP3    H141902   4.004   6.409   0.163  0.8559 -0.7555 -0.0516
 6781TIP3    H241903   4.006   6.337   0.296  2.7293 -1.1930 -0.2832
 6782TIP3   OH241904   5.380   5.966   1.967 -0.5431 -0.3664 -0.3961
 6782TIP3    H141905   5.400   6.035   1.905 -0.8265 -0.3003 -0.4145
 6782TIP3    H241906   5.465   5.941   2.004 -0.5956  1.1738  0.8752
 6783TIP3   OH241907   2.048   6.156   8.126 -0.0818 -0.4519  0.1220
 6783TIP3    H141908   1.968   6.169   8.177 -0.5018 -1.4937 -0.2522
 6783TIP3    H241909   2.069   6.243   8.092 -0.9835 -0.1476  0.3254
 6784TIP3   OH241910   3.846   4.179   9.258  0.5745  0.2879  0.2181
 6784TIP3    H141911   3.891   4.095   9.251 -0.9595 -0.6938  1.4807
 6784TIP3    H241912   3.869   4.212   9.344  0.5126  0.7661  0.0533
 6785TIP3   OH241913   3.342   2.718   7.189  0.1551 -0.4891  0.7089
 6785TIP3    H141914   3.404   2.783   7.219  0.4412 -0.3456 -0.1600
 6785TIP3    H241915   3.368   2.637   7.234 -0.3753  0.0360  2.0010
 6786TIP3   OH241916   0.413   5.041   0.846 -0.7421 -0.4685  0.1463
 6786TIP3    H141917   0.395   4.949   0.864 -0.3966 -0.5160  0.2464
 6786TIP3    H241918   0.333   5.086   0.872 -0.9141 -0.7392  0.0942
 6787TIP3   OH241919   2.938   5.319   0.271  0.2726 -0.2293  0.0011
 6787TIP3    H141920   2.923   5.389   0.335  1.8936  1.3834 -1.2493
 6787TIP3    H241921   2.854   5.309   0.226 -0.9586 -1.5371  2.3930
 6788TIP3   OH241922   2.541   3.557   8.327 -0.4700  0.5249 -0.1383
 6788TIP3    H141923   2.548   3.540   8.233 -0.5801  0.9362 -0.2236
 6788TIP3    H241924   2.625   3.529   8.363  1.3508  4.2557 -0.9711
 6789TIP3   OH241925   4.935   0.216   8.916  0.3985 -0.0541 -0.3663
 6789TIP3    H141926   4.906   0.234   9.006  0.4522  1.5497 -0.6406
 6789TIP3    H241927   4.888   0.136   8.891 -0.7610  0.3078  0.5633
 6790TIP3   OH241928   0.972   4.378   7.629 -0.3925  0.1638  0.6509
 6790TIP3    H141929   1.006   4.292   7.603  1.9544  1.2240 -0.0566
 6790TIP3    H241930   0.988   4.433   7.552 -2.2624  1.1709  0.9390
 6791TIP3   OH241931   4.877   5.465   9.494  0.0407  0.3435 -0.0937
 6791TIP3    H141932   4.884   5.556   9.465 -2.6133  0.9969  1.0712
 6791TIP3    H241933   4.837   5.470   9.580  0.8344 -1.9185  0.4699
 6792TIP3   OH241934   5.574   1.342   6.898 -0.6384 -0.1372 -0.0445
 6792TIP3    H141935   5.654   1.373   6.940  0.3087 -0.0844 -1.7764
 6792TIP3    H241936   5.548   1.265   6.949 -0.1992  0.5754  1.2862
 6793TIP3   OH241937   6.251   6.381   9.524 -0.3542 -0.5946  0.2820
 6793TIP3    H141938   6.286   6.298   9.555  1.3802 -0.8977 -2.1508
 6793TIP3    H241939   6.183   6.357   9.462  0.5230 -0.2727 -0.8434
 6794TIP3   OH241940   3.090   1.223   9.370  0.0567  0.2019  0.3074
 6794TIP3    H141941   2.995   1.222   9.385 -0.0735  0.9156 -0.4058
 6794TIP3    H241942   3.115   1.315   9.383  0.2678  0.4758 -1.6634
 6795TIP3   OH241943   3.878   3.743   7.341  0.1340 -0.4109  0.0838
 6795TIP3    H141944   3.916   3.829   7.360  0.2093 -0.0463 -1.5922
 6795TIP3    H241945   3.875   3.700   7.426 -2.6280  2.2947  1.5335
 6796TIP3   OH241946   2.286   5.248   9.439 -0.2495 -0.0707 -0.5707
 6796TIP3    H141947   2.379   5.239   9.462 -0.3148 -0.7108 -0.5401
 6796TIP3    H241948   2.272   5.343   9.432 -0.4025  0.2674  2.7713
 6797TIP3   OH241949   5.321   1.873   8.859  0.2738  0.3647  0.9190
 6797TIP3    H141950   5.325   1.777   8.859 -0.0453  0.3394  1.6755
 6797TIP3    H241951   5.410   1.900   8.837  0.2740 -0.1002  0.3182
 6798TIP3   OH241952   4.351   2.445   7.047 -0.3619  0.3976  0.5413
 6798TIP3    H141953   4.366   2.351   7.036 -1.6370  0.1144  0.9729
 6798TIP3    H241954   4.438   2.482   7.059  0.1717 -0.7231  0.2962
 6799TIP3   OH241955   1.790   2.847   6.510  0.2700 -0.1892  0.4170
 6799TIP3    H141956   1.763   2.793   6.584  1.5278 -3.5803 -1.3926
 6799TIP3    H241957   1.885   2.853   6.517  0.4116 -0.5662 -0.8870
 6800TIP3   OH241958   3.785   1.794   7.102 -0.1750  0.1026 -0.0831
 6800TIP3    H141959   3.803   1.701   7.117  1.0019  0.0239 -1.7207
 6800TIP3    H241960   3.774   1.831   7.190  1.1605 -1.2503  0.6996
 6801TIP3   OH241961   2.676   2.912   1.126 -0.0309 -0.6282  0.4175
 6801TIP3    H141962   2.636   2.881   1.045  0.8171  0.4830 -0.4453
 6801TIP3    H241963   2.766   2.936   1.102  1.3117 -3.1674  2.3071
 6802TIP3   OH241964   1.050   2.627   7.204  0.4356 -0.3151  0.1875
 6802TIP3    H141965   1.035   2.563   7.134  0.6207 -1.6328  1.3103
 6802TIP3    H241966   1.016   2.585   7.283  0.9853  0.7906  1.0409
 6803TIP3   OH241967   5.614   1.552   0.471 -0.3776  0.1734  0.4220
 6803TIP3    H141968   5.563   1.481   0.508 -0.8132  0.4733  0.3999
 6803TIP3    H241969   5.603   1.625   0.532 -0.3137  0.3695  0.2034
 6804TIP3   OH241970   0.704   4.224   1.950  0.4080  0.4111  0.2060
 6804TIP3    H141971   0.792   4.245   1.981 -0.0595  1.3708  0.9421
 6804TIP3    H241972   0.672   4.157   2.010  0.7814 -0.2373 -0.3107
 6805TIP3   OH241973   3.923   3.691   1.676  0.3347 -0.2990  0.0856
 6805TIP3    H141974   3.971   3.613   1.702  0.8887 -0.8368 -2.3561
 6805TIP3    H241975   3.988   3.749   1.637 -0.4592  0.3435 -0.3332
 6806TIP3   OH241976   4.672   6.270   0.615  0.2529  0.0150 -0.0515
 6806TIP3    H141977   4.743   6.212   0.643 -0.4938 -0.0914  1.7575
 6806TIP3    H241978   4.649   6.320   0.694  1.5129  3.5592 -1.6941
 6807TIP3   OH241979   1.606   1.238   7.129  0.3474 -0.1495 -0.5545
 6807TIP3    H141980   1.668   1.223   7.057  1.5343 -1.6775  0.7084
 6807TIP3    H241981   1.520   1.232   7.088  1.0105  0.2570 -2.0606
 6808TIP3   OH241982   4.360   0.208   1.238 -0.1374  0.0496 -0.1874
 6808TIP3    H141983   4.354   0.291   1.191 -1.8875  0.0189 -0.1023
 6808TIP3    H241984   4.292   0.213   1.305 -1.3795 -2.0054 -1.1745
 6809TIP3   OH241985   0.125   5.667   1.962 -0.1009 -0.5910 -0.0364
 6809TIP3    H141986   0.110   5.716   1.882  0.2491 -0.6304 -0.1308
 6809TIP3    H241987   0.067   5.591   1.956  1.6073 -1.8843 -1.3959
 6810TIP3   OH241988   2.588   5.346   2.044  0.6752  0.2551  0.0068
 6810TIP3    H141989   2.646   5.417   2.017 -1.1244  1.3337 -1.2214
 6810TIP3    H241990   2.519   5.390   2.094  0.0032 -0.7483 -0.0210
 6811TIP3   OH241991   5.426   2.099   8.653  0.1547  0.3981 -0.3666
 6811TIP3    H141992   5.354   2.064   8.600  0.2142  1.2374 -1.0109
 6811TIP3    H241993   5.479   2.150   8.592  1.8889 -1.0285 -0.1368
 6812TIP3   OH241994   4.301   2.287   8.855 -0.2509 -0.2420  0.1618
 6812TIP3    H141995   4.331   2.265   8.767  1.1790  1.4479  0.1771
 6812TIP3    H241996   4.381   2.310   8.902 -1.3328  2.5075  0.8070
 6813TIP3   OH241997   4.853   2.781   0.362 -0.3289 -0.3251  0.5729
 6813TIP3    H141998   4.919   2.849   0.375 -0.0185 -0.2754 -1.0194
 6813TIP3    H241999   4.770   2.823   0.381 -0.0463  0.1403  0.7878
 6814TIP3   OH242000   3.995   5.351   8.566 -0.4573  0.0813  0.0610
 6814TIP3    H142001   4.037   5.408   8.630 -0.3324 -0.2229  0.2491
 6814TIP3    H242002   4.064   5.330   8.503 -0.8646  1.3641 -0.8757
 6815TIP3   OH242003   5.897   6.317   2.819 -0.4206  0.4263  0.3488
 6815TIP3    H142004   5.967   6.304   2.883 -1.8380 -1.3732  1.6193
 6815TIP3    H242005   5.940   6.310   2.734  0.9395 -0.6040  1.0968
 6816TIP3   OH242006   1.010   1.492   8.379  0.4424  0.7532  0.5680
 6816TIP3    H142007   1.049   1.522   8.297 -0.1337 -1.3941 -0.5709
 6816TIP3    H242008   0.923   1.532   8.381  0.9140  1.7970  0.7764
 6817TIP3   OH242009   5.359   1.710   8.542 -0.1408  0.2270 -0.0058
 6817TIP3    H142010   5.322   1.798   8.536  0.4731  0.5819  1.1157
 6817TIP3    H242011   5.378   1.698   8.635  2.9094  0.2421 -0.5191
 6818TIP3   OH242012   5.236   4.178   1.924 -0.4000  0.2423  0.1881
 6818TIP3    H142013   5.206   4.159   2.013 -1.8293 -0.1385 -0.3475
 6818TIP3    H242014   5.180   4.124   1.868  2.3698 -1.7972 -0.8479
 6819TIP3   OH242015   5.607   3.296   0.892  0.6387  0.2662  0.1213
 6819TIP3    H142016   5.614   3.298   0.797  0.7000 -0.7996  0.0899
 6819TIP3    H242017   5.690   3.331   0.923  0.3562  1.2591 -0.2049
 6820TIP3   OH242018   1.219   0.469   7.531 -0.1341  0.6000  0.1083
 6820TIP3    H142019   1.196   0.377   7.518  0.9084  0.3120  0.2318
 6820TIP3    H242020   1.174   0.515   7.460 -0.6408 -0.0044  0.0291
 6821TIP3   OH242021   0.997   1.352   7.309  0.4962  0.7022  0.4918
 6821TIP3    H142022   0.936   1.282   7.288  1.3149 -0.4210  1.7589
 6821TIP3    H242023   1.053   1.360   7.231  0.2947  0.0667  0.2801
 6822TIP3   OH242024   5.054   5.170   9.073 -0.2313 -0.2923  0.1943
 6822TIP3    H142025   5.074   5.252   9.028  0.5283 -1.1965 -1.2040
 6822TIP3    H242026   5.001   5.196   9.148  0.4256  1.5189  0.0836
 6823TIP3   OH242027   4.842   5.568   7.365  0.3553 -1.0475 -0.4577
 6823TIP3    H142028   4.864   5.595   7.454 -0.8216  0.9519 -0.7101
 6823TIP3    H242029   4.887   5.484   7.354 -0.0343 -1.7065  2.2393
 6824TIP3   OH242030   1.254   5.357   2.233 -0.3454 -0.1358  0.3247
 6824TIP3    H142031   1.173   5.313   2.260  0.6413 -2.5316 -0.3546
 6824TIP3    H242032   1.269   5.328   2.143  1.5911 -0.2623  0.6434
 6825TIP3   OH242033   2.404   2.088   0.972  0.5865 -0.4230  0.0842
 6825TIP3    H142034   2.481   2.100   0.917  0.6717 -2.3085 -0.2637
 6825TIP3    H242035   2.333   2.067   0.912 -0.1371  0.8682  0.4405
 6826TIP3   OH242036   4.120   4.079   1.906 -0.0221 -0.1938 -0.6163
 6826TIP3    H142037   4.075   4.142   1.962 -0.7628 -1.5712  0.4112
 6826TIP3    H242038   4.126   4.000   1.960  0.3346 -1.1888 -2.0677
 6827TIP3   OH242039   1.417   1.253   7.631 -0.7648  0.1572 -0.5177
 6827TIP3    H142040   1.340   1.254   7.575 -0.9390  0.6904 -0.2723
 6827TIP3    H242041   1.404   1.326   7.691  1.4375  2.2839 -2.4774
 6828TIP3   OH242042   4.672   1.635   1.709  0.4377 -0.3301  0.8088
 6828TIP3    H142043   4.694   1.722   1.741  1.1575 -0.5224  0.8555
 6828TIP3    H242044   4.648   1.586   1.787  2.2131 -0.8045  1.1151
 6829TIP3   OH242045   5.845   5.546   8.969 -0.3633 -0.7442  0.2379
 6829TIP3    H142046   5.915   5.484   8.991 -0.3261 -0.8690 -0.2198
 6829TIP3    H242047   5.889   5.629   8.957  0.2242 -1.4026 -3.1779
 6830TIP3   OH242048   3.311   5.632   9.308 -0.5107  0.1442 -0.3322
 6830TIP3    H142049   3.337   5.545   9.277  1.3325 -0.0214  1.4523
 6830TIP3    H242050   3.296   5.620   9.402 -2.0622  1.4064 -0.3856
 6831TIP3   OH242051   0.123   4.649   7.986  0.3866  0.3831 -0.4987
 6831TIP3    H142052   0.111   4.587   7.915  0.8306  0.1473 -0.3745
 6831TIP3    H242053   0.038   4.654   8.029 -0.1211  1.1572 -1.5385
 6832TIP3   OH242054   5.483   1.158   8.573  0.0813 -0.0029  0.5730
 6832TIP3    H142055   5.528   1.123   8.650 -0.0547 -0.5272  0.4240
 6832TIP3    H242056   5.462   1.248   8.595  3.3630  1.1121 -0.2595
 6833TIP3   OH242057   0.472   5.479   1.108  0.4356  0.2412 -0.0366
 6833TIP3    H142058   0.387   5.455   1.145  0.6417 -0.5679 -0.0632
 6833TIP3    H242059   0.464   5.461   1.015  0.6530  0.0978 -0.0302
 6834TIP3   OH242060   0.416   1.611   1.551  0.2620 -0.1011 -0.0720
 6834TIP3    H142061   0.343   1.589   1.609  1.7225  0.0283  1.9009
 6834TIP3    H242062   0.384   1.589   1.463 -1.0546 -2.9190  1.0008
 6835TIP3   OH242063   3.752   2.600   2.326  0.6236  0.2055 -0.1731
 6835TIP3    H142064   3.801   2.571   2.249  1.2506 -2.0812  1.0042
 6835TIP3    H242065   3.689   2.531   2.342 -0.6903  1.4873  0.3855
 6836TIP3   OH242066   0.995   1.889   7.888  0.4312 -0.2006  0.6960
 6836TIP3    H142067   0.998   1.879   7.793  1.7042  0.1710  0.6787
 6836TIP3    H242068   0.901   1.886   7.909 -0.0395  1.6673 -0.7872
 6837TIP3   OH242069   3.568   5.538   9.564 -0.6883 -0.1815 -0.1961
 6837TIP3    H142070   3.627   5.498   9.500 -1.6057 -1.4157 -0.2963
 6837TIP3    H242071   3.626   5.571   9.633  0.2554  0.4449 -1.2489
 6838TIP3   OH242072   5.372   5.508   0.841 -0.5931  0.1758 -0.3096
 6838TIP3    H142073   5.448   5.534   0.788 -1.3005 -0.3664 -1.6504
 6838TIP3    H242074   5.318   5.457   0.781 -1.8741  0.2903  0.7073
 6839TIP3   OH242075   3.917   5.598   0.885 -0.0105  0.3812  0.2056
 6839TIP3    H142076   3.938   5.646   0.805 -1.7579  1.6087  0.4123
 6839TIP3    H242077   3.969   5.518   0.880  0.0216  0.4839 -2.0919
 6840TIP3   OH242078   1.053   5.186   2.047 -0.3891 -0.0494  0.3397
 6840TIP3    H142079   0.983   5.233   2.092 -1.0460  0.4679 -1.1321
 6840TIP3    H242080   1.056   5.227   1.960  1.0802 -0.7290  0.0482
 6841TIP3   OH242081   5.774   1.830   1.862 -0.1137 -0.5727  0.0259
 6841TIP3    H142082   5.832   1.763   1.899 -1.1438 -1.0243  0.8961
 6841TIP3    H242083   5.802   1.912   1.903 -0.0934 -0.7945  0.4574
 6842TIP3   OH242084   1.745   5.596   8.497  0.2234 -0.1894  0.3089
 6842TIP3    H142085   1.717   5.549   8.419  0.9921  1.2047 -0.8619
 6842TIP3    H242086   1.673   5.655   8.518  1.0941  1.4861 -1.1158
 6843TIP3   OH242087   3.618   2.371   8.771 -0.3336  0.3118 -0.4340
 6843TIP3    H142088   3.662   2.299   8.726  1.0925  1.4202 -0.9132
 6843TIP3    H242089   3.525   2.352   8.763  0.0115 -1.3885 -0.6589
 6844TIP3   OH242090   2.187   1.562   9.465  1.4875  0.6074 -0.1886
 6844TIP3    H142091   2.138   1.644   9.456 -2.4466 -1.7828 -3.4683
 6844TIP3    H242092   2.121   1.496   9.483  4.2296 -2.2489  0.2124
 6845TIP3   OH242093   2.275   5.311   0.323 -0.0138 -0.5777  0.3593
 6845TIP3    H142094   2.360   5.281   0.353 -0.2644 -1.6147  0.0600
 6845TIP3    H242095   2.215   5.240   0.345 -0.9337  0.3985  1.1515
 6846TIP3   OH242096   4.406   1.619   9.414 -0.1992  0.0311 -0.0282
 6846TIP3    H142097   4.491   1.605   9.456 -0.2305 -1.3727 -0.3691
 6846TIP3    H242098   4.405   1.712   9.392  0.4208  0.4833  1.7255
 6847TIP3   OH242099   3.045   2.347   7.526 -0.2681 -0.0994 -0.2031
 6847TIP3    H142100   2.982   2.419   7.532  0.7058  0.6571  3.2585
 6847TIP3    H242101   3.046   2.309   7.614  1.3852 -2.4797 -1.1694
 6848TIP3   OH242102   5.736   6.220   1.522  0.1607  0.2846 -0.4746
 6848TIP3    H142103   5.745   6.192   1.431 -0.9805 -2.3399  0.1187
 6848TIP3    H242104   5.645   6.246   1.531 -0.0274 -0.5462  0.1537
 6849TIP3   OH242105   4.167   3.085   8.566  0.0191 -0.1128  0.1122
 6849TIP3    H142106   4.177   3.175   8.533 -0.9837  0.0715  0.2932
 6849TIP3    H242107   4.222   3.082   8.644  0.7719  0.0648 -0.3916
 6850TIP3   OH242108   3.514   5.993   1.517  0.0169  0.1138 -0.1812
 6850TIP3    H142109   3.433   6.043   1.527 -0.5319 -0.7741 -0.1650
 6850TIP3    H242110   3.568   6.020   1.591 -0.5907  0.0729  0.2812
 6851TIP3   OH242111   1.501   0.257   1.905 -0.2412  0.5390  0.2502
 6851TIP3    H142112   1.467   0.343   1.878  0.1505  0.4509 -0.5359
 6851TIP3    H242113   1.431   0.221   1.960 -2.0723 -0.1807 -2.3597
 6852TIP3   OH242114   2.431   2.763   8.922  0.4097  0.3219 -0.2060
 6852TIP3    H142115   2.445   2.709   9.000  1.5154  1.9789  0.8208
 6852TIP3    H242116   2.507   2.821   8.919 -0.6269  1.7049 -1.3296
 6853TIP3   OH242117   3.019   5.226   7.316 -0.4836  0.6007 -0.0823
 6853TIP3    H142118   2.976   5.167   7.253 -0.4241 -0.4966  0.8613
 6853TIP3    H242119   3.033   5.307   7.268 -0.3218 -0.2514 -1.5315
 6854TIP3   OH242120   2.744   3.616   1.187  0.3385 -0.3128  0.2137
 6854TIP3    H142121   2.712   3.680   1.251  0.5641 -0.8363  0.8624
 6854TIP3    H242122   2.821   3.658   1.147  0.2555 -0.0252  0.3533
 6855TIP3   OH242123   5.541   5.116   1.976  0.0306  0.1923  0.3575
 6855TIP3    H142124   5.560   5.179   1.907  2.8416 -0.0365  0.8093
 6855TIP3    H242125   5.524   5.169   2.053 -1.7120  0.4113 -0.1248
 6856TIP3   OH242126   5.404   0.327   9.535  0.0089  0.0316  0.6999
 6856TIP3    H142127   5.386   0.259   9.470  1.3098  1.1218 -0.8765
 6856TIP3    H242128   5.344   0.307   9.607 -1.5462 -1.2072 -0.8311
 6857TIP3   OH242129   4.449   0.452   2.492 -0.2237  0.4076 -0.8656
 6857TIP3    H142130   4.524   0.437   2.435 -0.2870  0.6277 -1.0080
 6857TIP3    H242131   4.409   0.365   2.502  0.2925  0.2108 -0.4401
 6858TIP3   OH242132   6.487   5.117   2.032 -0.1389 -0.3689 -0.4929
 6858TIP3    H142133   6.458   5.048   2.093 -0.9204  0.3346 -0.0495
 6858TIP3    H242134   6.582   5.109   2.031  0.1478  1.1767  2.7769
 6859TIP3   OH242135   3.648   1.083   0.946 -0.3860 -0.1655  0.0745
 6859TIP3    H142136   3.743   1.089   0.942 -0.3091 -1.4062 -0.5364
 6859TIP3    H242137   3.617   1.150   0.885  0.1837 -1.2059 -1.4403
 6860TIP3   OH242138   4.467   1.107   7.863  0.3268 -0.1960  0.5138
 6860TIP3    H142139   4.425   1.022   7.851 -1.4068  0.6338  0.4975
 6860TIP3    H242140   4.420   1.147   7.936  1.3086  0.6483  0.7117
 6861TIP3   OH242141   3.290   1.169   8.157  0.2274  0.2741 -0.0382
 6861TIP3    H142142   3.369   1.224   8.154  0.8274 -0.5583  0.1798
 6861TIP3    H242143   3.303   1.106   8.086  0.8559 -1.3245  1.4489
 6862TIP3   OH242144   5.851   3.391   1.752  0.0645  0.0122 -0.0957
 6862TIP3    H142145   5.888   3.478   1.736  1.0535 -0.6692 -1.6799
 6862TIP3    H242146   5.757   3.403   1.741  0.3312  0.5425 -2.1363
 6863TIP3   OH242147   1.241   3.227   1.757  0.5778  0.1925 -0.1360
 6863TIP3    H142148   1.196   3.147   1.783  0.1445  0.3721 -0.3201
 6863TIP3    H242149   1.197   3.297   1.806  0.8466  0.3366 -0.0981
 6864TIP3   OH242150   4.265   1.393   8.937  0.7304  0.4790 -0.1255
 6864TIP3    H142151   4.229   1.310   8.968  0.1444 -0.1894 -2.3915
 6864TIP3    H242152   4.218   1.411   8.855  3.1063  1.3464 -1.4134
 6865TIP3   OH242153   5.960   3.640   1.761 -0.1324  0.0876 -0.3530
 6865TIP3    H142154   6.054   3.653   1.756  0.0663 -0.6918  0.9039
 6865TIP3    H242155   5.924   3.729   1.762  0.7075  0.4417  0.7113
 6866TIP3   OH242156   5.217   0.989   1.775  0.1788  0.0018 -0.5590
 6866TIP3    H142157   5.154   0.919   1.789 -0.5478  0.7155 -0.1950
 6866TIP3    H242158   5.188   1.060   1.833  1.6934  0.1082  0.1374
 6867TIP3   OH242159   1.755   2.181   8.702  0.7667  0.2750 -0.0694
 6867TIP3    H142160   1.739   2.210   8.792  1.0745 -0.0053  0.0840
 6867TIP3    H242161   1.817   2.245   8.667  0.6723  0.3661 -0.0672
 6868TIP3   OH242162   5.462   2.805   7.773  0.0086 -0.2209 -0.7744
 6868TIP3    H142163   5.486   2.723   7.817  2.1952  0.4798 -0.5650
 6868TIP3    H242164   5.544   2.854   7.766 -1.0966  1.6181 -1.6383
 6869TIP3   OH242165   1.117   3.891   9.266  0.4019 -0.1102 -0.0624
 6869TIP3    H142166   1.058   3.868   9.338  1.3376 -1.4685  0.3037
 6869TIP3    H242167   1.086   3.977   9.236 -1.1471 -0.3524  0.7418
 6870TIP3   OH242168   3.480   3.222   7.236 -0.0027  0.3779 -0.4454
 6870TIP3    H142169   3.411   3.217   7.169 -0.3308 -1.7878 -0.0199
 6870TIP3    H242170   3.559   3.193   7.190  0.5670  2.3920 -0.8046
 6871TIP3   OH242171   1.019   6.359   8.001  0.0544 -0.4879  0.4660
 6871TIP3    H142172   1.016   6.377   7.907 -1.0955 -0.9947  0.3893
 6871TIP3    H242173   1.006   6.445   8.042 -1.1952 -0.4915  0.1313
 6872TIP3   OH242174   3.161   5.107   1.358  0.2184  0.2225 -0.0853
 6872TIP3    H142175   3.131   5.146   1.276 -0.1913  0.6760  0.2731
 6872TIP3    H242176   3.203   5.180   1.405 -0.1441  0.1267  0.3942
 6873TIP3   OH242177   3.585   0.631   0.957 -0.1295  1.1057 -0.2150
 6873TIP3    H142178   3.645   0.617   1.031 -1.8147  0.0037  1.0173
 6873TIP3    H242179   3.642   0.658   0.885  2.2427 -2.2630  0.1494
 6874TIP3   OH242180   1.713   5.850   9.326 -0.2192  0.1546  0.2938
 6874TIP3    H142181   1.715   5.758   9.352  0.3428  0.4953  1.5279
 6874TIP3    H242182   1.805   5.875   9.317 -0.3863  0.2964 -1.2151
 6875TIP3   OH242183   3.675   2.648   1.753  0.4393  0.2999 -0.1729
 6875TIP3    H142184   3.768   2.631   1.768  0.1749 -2.2237 -0.8939
 6875TIP3    H242185   3.635   2.637   1.839  0.4396 -2.1723 -0.3946
 6876TIP3   OH242186   2.533   0.956   9.157  0.3198 -0.1643  0.3418
 6876TIP3    H142187   2.475   1.027   9.184  1.2636  0.6149  0.3686
 6876TIP3    H242188   2.557   0.912   9.239  1.1785  0.6297  0.5278
 6877TIP3   OH242189   1.888   1.664   1.994  0.5089  0.0898  0.0460
 6877TIP3    H142190   1.800   1.699   1.981  0.7557  0.6979 -0.0168
 6877TIP3    H242191   1.886   1.577   1.954 -0.8094 -0.9987  2.2478
 6878TIP3   OH242192   4.257   4.086   1.495 -1.0443 -0.4123 -0.0302
 6878TIP3    H142193   4.315   4.083   1.419 -0.2839 -0.8161  0.5530
 6878TIP3    H242194   4.171   4.108   1.459 -0.6477 -0.3706 -0.9739
 6879TIP3   OH242195   1.055   5.232   7.613 -0.1637  0.3302  0.3612
 6879TIP3    H142196   1.097   5.146   7.617 -0.2232  0.2724 -0.1692
 6879TIP3    H242197   1.121   5.289   7.572 -0.8596  0.0683 -1.1858
 6880TIP3   OH242198   3.246   0.797   7.077  0.3557 -0.5210 -0.1974
 6880TIP3    H142199   3.326   0.808   7.027  0.6970  1.0545  0.6567
 6880TIP3    H242200   3.210   0.885   7.086 -1.3439 -1.1557 -0.3161
 6881TIP3   OH242201   3.354   2.681   1.329 -0.3326 -0.3669 -0.1345
 6881TIP3    H142202   3.343   2.677   1.234 -0.2012  0.4316 -0.1906
 6881TIP3    H242203   3.287   2.623   1.363 -1.1083  0.1905 -0.6823
 6882TIP3   OH242204   6.002   4.875   0.731  0.0283 -0.4073 -0.4799
 6882TIP3    H142205   6.068   4.938   0.701  0.1144 -1.2250 -2.1430
 6882TIP3    H242206   6.034   4.790   0.699 -0.2928 -1.2629  1.3603
 6883TIP3   OH242207   3.754   0.581   8.033  0.4003 -0.6222 -0.1626
 6883TIP3    H142208   3.724   0.615   7.948  0.4389  1.5756  0.6430
 6883TIP3    H242209   3.737   0.487   8.028 -1.3531 -0.2827 -1.9019
 6884TIP3   OH242210   3.023   4.611   2.149  0.4042  0.2077  0.2979
 6884TIP3    H142211   2.998   4.669   2.077  1.3511 -0.6143 -0.7072
 6884TIP3    H242212   3.114   4.633   2.167  0.2550  0.2203  1.0844
 6885TIP3   OH242213   2.489   1.094   1.697 -0.0646 -0.1036  0.2361
 6885TIP3    H142214   2.414   1.049   1.734  0.8120 -0.2635  1.9418
 6885TIP3    H242215   2.560   1.030   1.701  0.2850  0.1756 -0.9627
 6886TIP3   OH242216   2.842   0.818   2.377  0.1044 -0.0989 -0.2385
 6886TIP3    H142217   2.833   0.912   2.361  1.2951  0.2727  1.0542
 6886TIP3    H242218   2.781   0.799   2.448 -0.2981 -0.3711 -0.6461
 6887TIP3   OH242219   2.769   4.043   1.694 -0.0619 -0.0914 -0.0227
 6887TIP3    H142220   2.818   4.095   1.758 -0.5790 -0.0590  0.3520
 6887TIP3    H242221   2.682   4.082   1.694 -0.1313 -0.2479 -0.5700
 6888TIP3   OH242222   2.043   2.409   0.869  0.4064  0.0241 -0.0870
 6888TIP3    H142223   2.067   2.471   0.800  0.6724 -0.9807 -0.9228
 6888TIP3    H242224   2.078   2.448   0.949  1.9818  0.2000 -0.8195
 6889TIP3   OH242225   3.955   6.153   1.782 -0.2185  0.3047  0.0950
 6889TIP3    H142226   3.962   6.125   1.691  0.7441 -1.1899  0.5876
 6889TIP3    H242227   3.958   6.072   1.833 -1.0010  1.0829  1.4665
 6890TIP3   OH242228   3.565   2.919   7.174  0.3436  0.2735 -0.0056
 6890TIP3    H142229   3.527   2.965   7.099 -0.1837  0.0629  0.1347
 6890TIP3    H242230   3.655   2.900   7.146 -0.2548 -1.0552 -1.1433
 6891TIP3   OH242231   3.548   3.031   0.593 -0.6415  0.1221 -0.9123
 6891TIP3    H142232   3.627   3.002   0.639 -0.6143 -0.7849 -1.5051
 6891TIP3    H242233   3.515   2.952   0.551 -1.0545  0.7980 -1.8786
 6892TIP3   OH242234   4.631   5.896   8.838 -0.2721  0.5181  0.2484
 6892TIP3    H142235   4.559   5.847   8.798 -0.6752  0.9183  0.4706
 6892TIP3    H242236   4.690   5.914   8.765  0.3168 -1.0231  0.3179
 6893TIP3   OH242237   0.999   0.461   8.600  0.2972  0.0424 -0.3320
 6893TIP3    H142238   0.911   0.494   8.580  0.1675  0.4738  0.8885
 6893TIP3    H242239   1.043   0.534   8.644  1.1973 -0.2455 -0.7398
 6894TIP3   OH242240   1.455   5.318   8.577  0.3920 -0.3760 -0.0760
 6894TIP3    H142241   1.410   5.402   8.586  1.9976  0.3481  1.9392
 6894TIP3    H242242   1.438   5.272   8.659 -0.0941 -1.8660 -0.9790
 6895TIP3   OH242243   3.121   0.856   2.191  0.1607 -0.4191 -0.1691
 6895TIP3    H142244   3.180   0.931   2.190  0.2917 -0.5263 -0.5337
 6895TIP3    H242245   3.038   0.891   2.223 -0.7733  0.6376 -3.3799
 6896TIP3   OH242246   1.492   5.522   3.138  0.1916  0.5649 -0.2414
 6896TIP3    H142247   1.527   5.436   3.160 -1.4497 -0.3991 -1.1931
 6896TIP3    H242248   1.560   5.562   3.084 -0.0583 -1.2298 -2.0015
 6897TIP3   OH242249   2.736   0.773   8.610 -0.3434 -0.0789 -0.0565
 6897TIP3    H142250   2.694   0.808   8.688  0.0225  0.2889 -0.0200
 6897TIP3    H242251   2.722   0.841   8.543 -0.4512 -0.2867 -0.2454
 6898TIP3   OH242252   0.333   4.860   7.347  0.1280 -0.1107  0.7503
 6898TIP3    H142253   0.380   4.777   7.354  0.1517 -0.0898  0.8387
 6898TIP3    H242254   0.249   4.844   7.390  0.4851  0.1779  1.5532
 6899TIP3   OH242255   3.318   3.020   8.374  0.2941 -0.3053 -0.4817
 6899TIP3    H142256   3.378   2.951   8.343  2.1349  1.3065 -0.6806
 6899TIP3    H242257   3.301   2.997   8.465  1.1213 -0.8719 -0.4576
 6900TIP3   OH242258   4.032   0.086   0.132 -0.3044  0.1539  0.6642
 6900TIP3    H142259   3.953   0.093   0.079 -0.2719 -2.9991  0.0319
 6900TIP3    H242260   4.090   0.154   0.098 -1.8803  1.0184 -0.4134
 6901TIP3   OH242261   5.987   4.355   0.038 -0.3976  0.1600  0.0060
 6901TIP3    H142262   6.073   4.335   0.001 -1.4223 -0.6628 -2.1217
 6901TIP3    H242263   5.967   4.442   0.005 -0.1794  0.5717  0.9362
 6902TIP3   OH242264   6.078   0.180   7.980 -0.0065 -0.3861 -0.1194
 6902TIP3    H142265   6.030   0.103   7.950 -0.0728  0.0541 -1.1943
 6902TIP3    H242266   6.117   0.216   7.901  1.3052 -0.1821  0.5897
 6903TIP3   OH242267   5.520   0.291   8.160 -0.9221  0.1325 -0.2022
 6903TIP3    H142268   5.427   0.266   8.164 -0.6937 -0.6744  0.2096
 6903TIP3    H242269   5.534   0.345   8.238 -0.6784 -1.0552  0.5989
 6904TIP3   OH242270   2.126   0.092   1.983  0.4463 -0.0470  0.5447
 6904TIP3    H142271   2.121   0.105   1.889 -1.2045 -0.7425  0.4960
 6904TIP3    H242272   2.218   0.104   2.005  0.8766 -0.0347 -1.1731
 6905TIP3   OH242273   5.265   6.174   7.784  0.5158 -0.2423  0.1125
 6905TIP3    H142274   5.240   6.100   7.840  0.9641 -0.1751  0.4058
 6905TIP3    H242275   5.182   6.207   7.749  0.1322  0.3143  1.4822
 6906TIP3   OH242276   1.890   2.480   7.095 -0.3249 -0.1219  0.0661
 6906TIP3    H142277   1.866   2.562   7.051  1.1635  1.2912  1.7600
 6906TIP3    H242278   1.859   2.411   7.035 -0.2855  1.6528 -2.1378
 6907TIP3   OH242279   0.710   0.989   8.203  0.3254 -0.2647 -0.4394
 6907TIP3    H142280   0.681   0.956   8.119  0.9067  0.8289 -1.0920
 6907TIP3    H242281   0.642   1.051   8.230  0.3402 -0.3051 -0.3065
 6908TIP3   OH242282   2.578   2.075   8.270 -0.1855  0.3502 -0.7625
 6908TIP3    H142283   2.503   2.060   8.212 -1.0276 -0.6420  0.5488
 6908TIP3    H242284   2.542   2.068   8.358  0.6990  3.6505 -0.0208
 6909TIP3   OH242285   6.338   2.901   0.699  0.6991 -0.2619  0.0275
 6909TIP3    H142286   6.424   2.860   0.694  0.3403 -1.5156  2.3043
 6909TIP3    H242287   6.279   2.829   0.724 -0.5444  1.0245  1.0046
 6910TIP3   OH242288   0.867   2.090   8.162 -0.6182  0.3978  0.3850
 6910TIP3    H142289   0.911   2.051   8.237 -1.5076 -0.0417  0.6898
 6910TIP3    H242290   0.933   2.089   8.092 -0.3688 -0.9335  0.6095
 6911TIP3   OH242291   0.016   1.055   8.482 -0.1082  0.1017  0.4514
 6911TIP3    H142292   0.047   1.145   8.492 -0.6319  0.7176 -2.4635
 6911TIP3    H242293  -0.005   1.047   8.389  0.8054 -3.3469  0.3897
 6912TIP3   OH242294   1.834   4.559   9.531  0.6597  0.4551  0.3263
 6912TIP3    H142295   1.867   4.623   9.468  0.2754  1.1993  0.8614
 6912TIP3    H242296   1.867   4.589   9.616 -0.8029  0.8487  0.7911
 6913TIP3   OH242297   3.673   1.920   9.280 -0.3109 -0.3895  0.0681
 6913TIP3    H142298   3.615   1.996   9.275  1.5706  1.1518  0.6292
 6913TIP3    H242299   3.758   1.953   9.252  0.7567 -2.0664  1.1840
 6914TIP3   OH242300   0.313   0.730   9.459 -0.2609  0.3607 -0.6246
 6914TIP3    H142301   0.234   0.694   9.500 -0.8406  2.1152 -0.1139
 6914TIP3    H242302   0.345   0.795   9.522  0.6130  0.9091 -1.6035
 6915TIP3   OH242303   5.173   4.786   2.324  0.1926 -0.2478 -0.0377
 6915TIP3    H142304   5.206   4.742   2.403  0.3081  0.6030  0.3971
 6915TIP3    H242305   5.091   4.826   2.352 -0.2628 -0.7546 -0.6169
 6916TIP3   OH242306   2.811   1.292   8.298  0.0496 -0.0649 -0.0855
 6916TIP3    H142307   2.875   1.263   8.362  0.0478  1.6272  0.7413
 6916TIP3    H242308   2.794   1.383   8.321 -1.5150 -0.0287 -1.2255
 6917TIP3   OH242309   1.662   2.078   1.327 -0.0943 -0.3633  0.2122
 6917TIP3    H142310   1.736   2.091   1.268 -0.7670  0.9166 -0.3738
 6917TIP3    H242311   1.631   1.989   1.308 -0.4315  0.0894 -1.5342
 6918TIP3   OH242312   5.347   5.383   1.725  0.1850 -0.2101 -0.0899
 6918TIP3    H142313   5.349   5.463   1.777 -0.8341  0.4308 -0.9901
 6918TIP3    H242314   5.338   5.413   1.635 -2.6380 -1.2959 -0.2790
 6919TIP3   OH242315   4.444   4.016   8.090  0.0089 -0.6274 -0.3735
 6919TIP3    H142316   4.528   3.977   8.065  0.4352  0.8893 -1.4206
 6919TIP3    H242317   4.378   3.958   8.053  0.5491 -1.9666  0.6525
 6920TIP3   OH242318   0.076   3.164   0.717  0.0918  0.3061  0.3324
 6920TIP3    H142319   0.153   3.115   0.690  0.6400  1.2987  0.0382
 6920TIP3    H242320   0.098   3.256   0.699 -1.6324  0.5190 -0.9601
 6921TIP3   OH242321   0.910   2.259   0.536  0.2797 -0.0121 -0.8148
 6921TIP3    H142322   1.002   2.284   0.546  0.3071 -0.3343 -0.2460
 6921TIP3    H242323   0.901   2.177   0.585 -1.2141  2.0245  2.6550
 6922TIP3   OH242324   0.133   5.425   1.727  0.3450 -0.2415  0.4102
 6922TIP3    H142325   0.169   5.364   1.792 -0.8881  1.7219  3.1212
 6922TIP3    H242326   0.189   5.502   1.732 -0.6310  0.5025  0.2353
 6923TIP3   OH242327   4.085   5.686   8.138 -0.1824 -0.4777 -0.0621
 6923TIP3    H142328   4.047   5.773   8.126 -1.6506 -1.1750 -0.7064
 6923TIP3    H242329   4.115   5.660   8.051 -0.6614 -1.0125 -0.0757
 6924TIP3   OH242330   3.131   2.457   8.009 -0.3426 -0.1062  0.6990
 6924TIP3    H142331   3.089   2.439   7.925  0.5517  1.2778 -0.0765
 6924TIP3    H242332   3.059   2.466   8.071 -1.1109  0.5534 -0.2586
 6925TIP3   OH242333   4.079   3.115   7.245  0.6728 -0.1881  0.5523
 6925TIP3    H142334   4.142   3.128   7.175 -0.4624 -0.2541 -0.5134
 6925TIP3    H242335   4.112   3.168   7.318  1.7573  0.0340 -0.0862
 6926TIP3   OH242336   0.536   3.506   9.377 -0.0085  0.2643  0.0855
 6926TIP3    H142337   0.493   3.561   9.442  0.8894  0.0639  0.8838
 6926TIP3    H242338   0.551   3.423   9.423  1.8349  0.5644  0.0978
 6927TIP3   OH242339   6.330   3.850   9.468 -0.4522  0.6593 -0.2264
 6927TIP3    H142340   6.251   3.802   9.445 -0.2454  0.8215 -1.3396
 6927TIP3    H242341   6.364   3.805   9.546 -1.5981  0.5633  0.2268
 6928TIP3   OH242342   1.079   1.261   0.903 -0.3146  0.0282  1.2397
 6928TIP3    H142343   1.170   1.242   0.883 -0.2158  0.9508  0.8026
 6928TIP3    H242344   1.054   1.193   0.966  1.1701  0.7805  2.6975
 6929TIP3   OH242345   2.592   6.528   0.089 -0.2718  0.2740 -0.4226
 6929TIP3    H142346   2.664   6.470   0.115 -0.4470 -0.0725 -0.7072
 6929TIP3    H242347   2.566   6.497   0.002 -0.6440  0.5143 -0.3990
 6930TIP3   OH242348   2.859   6.362   8.936  0.2248  0.0846 -0.1939
 6930TIP3    H142349   2.865   6.289   8.997 -0.8564 -1.0245 -1.3609
 6930TIP3    H242350   2.765   6.376   8.925  0.4133  0.7727 -1.0189
 6931TIP3   OH242351   5.058   2.000   8.841  0.4543  0.2002  0.7681
 6931TIP3    H142352   5.150   1.979   8.826 -0.0506 -0.0540 -2.5963
 6931TIP3    H242353   5.024   2.028   8.756 -2.7436 -0.2215  1.7484
 6932TIP3   OH242354   1.266   4.177   7.689 -0.6104 -0.3831 -0.2978
 6932TIP3    H142355   1.191   4.145   7.639 -0.6213  0.6617 -0.9737
 6932TIP3    H242356   1.316   4.098   7.711 -1.3279 -0.9826 -0.7712
 6933TIP3   OH242357   5.721   3.568   0.152  0.3259  0.2393  0.0107
 6933TIP3    H142358   5.780   3.611   0.090  0.8876  1.5986  1.4115
 6933TIP3    H242359   5.694   3.488   0.108  0.7223  1.1251 -1.9592
 6934TIP3   OH242360   3.718   0.824   1.777 -0.4398  0.0484  0.3962
 6934TIP3    H142361   3.771   0.748   1.801 -0.6184  0.0420  0.7795
 6934TIP3    H242362   3.766   0.899   1.811 -0.2730  0.1048  0.0343
 6935TIP3   OH242363   2.294   0.626   1.599  0.5262 -0.1752  0.0295
 6935TIP3    H142364   2.206   0.593   1.621  0.0334  0.4776 -0.9167
 6935TIP3    H242365   2.344   0.613   1.680 -0.3882 -0.7165  0.5388
 6936TIP3   OH242366   5.812   3.525   1.117 -0.2114 -0.0262  0.3652
 6936TIP3    H142367   5.726   3.562   1.098 -0.7429 -1.5462 -0.3840
 6936TIP3    H242368   5.807   3.498   1.209 -1.5312 -2.4440 -0.3086
 6937TIP3   OH242369   0.920   4.331   7.923 -0.0779 -0.1347 -1.0091
 6937TIP3    H142370   0.926   4.334   7.828 -0.3175  1.0071 -1.0078
 6937TIP3    H242371   0.829   4.356   7.942 -0.4937 -1.8736 -0.5151
 6938TIP3   OH242372   0.081   5.345   7.595 -0.1138 -0.1733  0.0683
 6938TIP3    H142373   0.030   5.390   7.528  0.8791 -0.5785 -0.9987
 6938TIP3    H242374   0.039   5.260   7.605 -1.1206  0.4237  1.0204
 6939TIP3   OH242375   1.889   4.996   8.725  0.8164  0.6657  0.1189
 6939TIP3    H142376   1.926   5.059   8.662  1.0458 -0.0775 -0.5089
 6939TIP3    H242377   1.794   5.010   8.718  0.9042  1.9631  1.0870
 6940TIP3   OH242378   5.550   1.096   1.864 -0.0125 -0.1150 -0.3649
 6940TIP3    H142379   5.544   1.170   1.924  1.8215 -0.2714  0.0799
 6940TIP3    H242380   5.495   1.120   1.790 -2.6489 -0.0732  1.4901
 6941TIP3   OH242381   5.842   0.363   0.953  0.2242 -0.1407  0.5490
 6941TIP3    H142382   5.839   0.443   0.900  1.1050  1.0267  2.1730
 6941TIP3    H242383   5.753   0.328   0.949  0.1265  0.1850 -1.2186
 6942TIP3   OH242384   1.284   1.524   0.669 -0.4601  0.0217 -0.1880
 6942TIP3    H142385   1.190   1.504   0.675 -0.0669 -2.1207 -0.4862
 6942TIP3    H242386   1.308   1.552   0.757 -1.0522 -1.0840  0.3436
 6943TIP3   OH242387   6.270   4.889   9.252 -0.1399  0.0304 -0.2019
 6943TIP3    H142388   6.257   4.887   9.157 -0.0145  1.1848 -0.2594
 6943TIP3    H242389   6.183   4.878   9.288 -0.1794 -0.5007 -0.4377
 6944TIP3   OH242390   4.878   1.128   6.787 -0.4677  0.6201  0.2017
 6944TIP3    H142391   4.833   1.176   6.857 -0.2118 -0.5308  1.1817
 6944TIP3    H242392   4.820   1.137   6.711 -1.8850  0.0357  1.1589
 6945TIP3   OH242393   2.853   1.581   8.811  0.2573 -0.0083 -0.0320
 6945TIP3    H142394   2.864   1.493   8.776  0.7446 -0.0305  0.1667
 6945TIP3    H242395   2.798   1.626   8.748  0.4340 -0.3000 -0.3969
 6946TIP3   OH242396   3.085   6.527   6.989  0.3164 -0.0788 -0.2633
 6946TIP3    H142397   3.000   6.488   6.970  1.0551 -1.7143 -0.4891
 6946TIP3    H242398   3.073   6.621   6.974 -1.1896 -0.3817 -1.2058
 6947TIP3   OH242399   6.519   3.121   1.021  0.4517  0.1131  0.4807
 6947TIP3    H142400   6.501   3.200   0.970  0.8959  0.7839  1.3371
 6947TIP3    H242401   6.442   3.110   1.077  0.9490  0.7079  1.3026
 6948TIP3   OH242402   2.181   4.559   3.010 -0.1677  0.1055  0.0319
 6948TIP3    H142403   2.253   4.610   2.972  0.5948 -2.3789 -2.1445
 6948TIP3    H242404   2.214   4.532   3.096  1.3309 -0.5393 -0.7035
 6949TIP3   OH242405   4.987   0.285   0.053 -0.5841  0.3477  0.0501
 6949TIP3    H142406   5.034   0.319  -0.023  0.3044  1.4922  1.0656
 6949TIP3    H242407   4.899   0.266   0.021 -0.5832  1.9527 -0.9956
 6950TIP3   OH242408   0.741   4.860   1.715 -0.0416  0.1398 -0.5093
 6950TIP3    H142409   0.791   4.941   1.709 -0.5122  0.4475 -0.2807
 6950TIP3    H242410   0.654   4.887   1.745  0.3052 -0.6079  1.3463
 6951TIP3   OH242411   5.779   1.038   8.404  0.1210 -0.1014 -0.5070
 6951TIP3    H142412   5.819   1.066   8.322  0.3828  0.4120 -0.2127
 6951TIP3    H242413   5.844   1.060   8.471 -0.4511  0.2972 -0.0732
 6952TIP3   OH242414   5.640   6.313   0.998  0.2299 -0.0565  0.3239
 6952TIP3    H142415   5.693   6.392   1.006  1.6204 -1.0275  1.1474
 6952TIP3    H242416   5.672   6.271   0.919 -0.7495  0.3607 -0.3059
 6953TIP3   OH242417   3.410   3.729   8.268 -0.3592 -0.5444  0.2526
 6953TIP3    H142418   3.469   3.800   8.243 -0.4990 -0.3456  0.4871
 6953TIP3    H242419   3.416   3.666   8.196 -0.6964 -0.0149 -0.2493
 6954TIP3   OH242420   4.912   6.407   7.831 -0.7834 -0.1983  0.1707
 6954TIP3    H142421   4.962   6.355   7.767  1.2116  2.5842 -0.7889
 6954TIP3    H242422   4.825   6.368   7.831  0.3003 -2.9037 -1.0928
 6955TIP3   OH242423   3.258   4.683   2.243  0.6132  0.3545  0.2009
 6955TIP3    H142424   3.308   4.643   2.313  0.9485  3.2104  1.7460
 6955TIP3    H242425   3.306   4.763   2.222 -2.0405  2.0741  0.1877
 6956TIP3   OH242426   6.086   4.394   0.981 -0.7024  0.0007 -0.2581
 6956TIP3    H142427   6.132   4.314   0.956 -1.8663 -0.3455 -1.3960
 6956TIP3    H242428   6.081   4.445   0.900 -0.0471  1.2105  0.4313
 6957TIP3   OH242429   0.091   4.906   1.069 -0.3153 -0.2839 -0.5185
 6957TIP3    H142430   0.112   4.998   1.081 -0.4473 -0.1054 -1.5560
 6957TIP3    H242431   0.164   4.859   1.109 -1.7376  0.1678  2.9526
 6958TIP3   OH242432   0.386   1.297   1.323 -0.2835  0.5470 -0.2730
 6958TIP3    H142433   0.358   1.246   1.399  1.3178  1.8407  1.2719
 6958TIP3    H242434   0.482   1.299   1.329  0.2148 -1.7896 -4.0283
 6959TIP3   OH242435   1.647   5.369   9.459  0.3128  0.4975 -0.1055
 6959TIP3    H142436   1.551   5.369   9.462  0.2824 -0.2556 -0.9601
 6959TIP3    H242437   1.670   5.293   9.407  1.4682 -1.0763  2.5248
 6960TIP3   OH242438   3.798   0.472   1.740 -0.5981  0.3980  0.0813
 6960TIP3    H142439   3.817   0.525   1.663  1.9428 -0.8727 -0.2780
 6960TIP3    H242440   3.843   0.517   1.811 -0.1811 -0.1694  0.1783
 6961TIP3   OH242441   5.158   1.858   7.042  0.4434 -0.2303  0.3946
 6961TIP3    H142442   5.174   1.944   7.081  0.7642  1.2332 -2.6855
 6961TIP3    H242443   5.243   1.832   7.005 -0.1794 -0.7043 -0.7711
 6962TIP3   OH242444   3.990   2.501   7.290  0.0719  0.1425  0.0135
 6962TIP3    H142445   4.077   2.537   7.308  0.0303 -0.2276  0.9833
 6962TIP3    H242446   4.002   2.448   7.211  0.5184  0.8318 -0.3939
 6963TIP3   OH242447   2.955   0.037   1.514 -0.2348 -0.4638  0.1755
 6963TIP3    H142448   2.887  -0.014   1.559 -0.5959  0.1813  0.3808
 6963TIP3    H242449   2.973   0.111   1.573 -1.7122  1.1778 -1.2955
 6964TIP3   OH242450   4.898   4.440   1.071 -0.1824 -0.1039 -0.3824
 6964TIP3    H142451   4.992   4.459   1.074 -0.1984  0.5577 -2.4219
 6964TIP3    H242452   4.859   4.503   1.131  0.6882 -0.6500  0.7975
 6965TIP3   OH242453   2.122   3.642   8.502 -0.3028  0.2165  0.2664
 6965TIP3    H142454   2.108   3.682   8.416 -1.3912 -0.8340 -0.0676
 6965TIP3    H242455   2.134   3.717   8.560 -2.3341  1.0918 -0.3305
 6966TIP3   OH242456   0.677   3.486   8.022 -0.0949  0.3045  0.3727
 6966TIP3    H142457   0.682   3.552   8.091  0.3649  0.2482  0.3982
 6966TIP3    H242458   0.584   3.478   8.003 -0.1946  0.5816  0.7345
 6967TIP3   OH242459   2.349   5.633   8.995  0.3113 -0.1373  0.0314
 6967TIP3    H142460   2.259   5.636   8.962  1.2839 -0.4924 -2.9786
 6967TIP3    H242461   2.382   5.722   8.985  0.5399 -0.1712  0.4388
 6968TIP3   OH242462   4.327   6.314   0.394  0.0334  0.6358  0.0260
 6968TIP3    H142463   4.325   6.383   0.328  0.7802 -1.2639 -2.0991
 6968TIP3    H242464   4.234   6.296   0.413 -0.3125 -0.3911 -2.3454
 6969TIP3   OH242465   4.299   1.242   2.186 -0.7536  0.2765  0.6056
 6969TIP3    H142466   4.258   1.170   2.234  0.7822  0.5907  2.4899
 6969TIP3    H242467   4.242   1.317   2.201 -0.8908  0.0978  0.9817
 6970TIP3   OH242468   1.500   2.790   0.965 -0.0148  0.2573  0.5232
 6970TIP3    H142469   1.508   2.877   0.927 -1.8786  0.1801 -0.1175
 6970TIP3    H242470   1.460   2.737   0.896  0.3680 -0.9263  1.1796
 6971TIP3   OH242471   3.717   6.315   1.618 -0.1047 -0.1556  0.1994
 6971TIP3    H142472   3.728   6.240   1.559 -1.5826 -0.4123  0.2074
 6971TIP3    H242473   3.803   6.356   1.621  0.4080 -1.0980 -0.8400
 6972TIP3   OH242474   3.172   0.719   8.887 -0.2083 -0.6755 -0.8024
 6972TIP3    H142475   3.215   0.648   8.935  2.1264  0.2124 -1.4312
 6972TIP3    H242476   3.133   0.677   8.811 -1.4737 -1.6682  0.3343
 6973TIP3   OH242477   0.681   2.869   8.413 -0.0420 -0.3039 -0.4964
 6973TIP3    H142478   0.741   2.941   8.433 -0.2580 -0.4477  0.7432
 6973TIP3    H242479   0.614   2.909   8.359 -0.2486  0.4922  0.3132
 6974TIP3   OH242480   5.419   5.662   9.320  0.3133  0.3521  0.5589
 6974TIP3    H142481   5.497   5.650   9.266  0.2965  1.2091  0.3185
 6974TIP3    H242482   5.435   5.744   9.367 -0.6752  0.8601  0.0596
 6975TIP3   OH242483   6.099   1.298   7.969  0.7313  0.8635 -0.4351
 6975TIP3    H142484   6.032   1.311   8.036  0.5992 -0.0322 -0.3852
 6975TIP3    H242485   6.168   1.360   7.992  1.6643 -0.8557  1.8229
 6976TIP3   OH242486   5.682   6.372   9.119  0.4257 -0.1303  0.0283
 6976TIP3    H142487   5.777   6.376   9.109  0.3699 -1.7458 -1.7275
 6976TIP3    H242488   5.668   6.308   9.189  0.6230 -1.1737 -0.8707
 6977TIP3   OH242489   0.891   1.157   0.082 -0.5271 -0.2256 -0.2818
 6977TIP3    H142490   0.969   1.106   0.106 -0.5895  0.1312  0.7504
 6977TIP3    H242491   0.837   1.096   0.031  0.5069 -0.4159 -1.1828
 6978TIP3   OH242492   1.827   1.565   8.715  0.1720 -0.4848  0.0843
 6978TIP3    H142493   1.831   1.612   8.798  0.3418 -1.4231  0.6267
 6978TIP3    H242494   1.885   1.490   8.728  0.4193 -0.4890 -0.9893
 6979TIP3   OH242495   3.322   4.785   8.833 -0.1471  0.1063  0.0362
 6979TIP3    H142496   3.373   4.712   8.870  0.6123  1.5225  1.9542
 6979TIP3    H242497   3.378   4.821   8.764 -0.6153 -1.1916 -1.0720
 6980TIP3   OH242498   1.227   6.360   2.692 -0.0751  0.0003 -0.3993
 6980TIP3    H142499   1.309   6.353   2.741  0.5688 -3.1975 -1.6734
 6980TIP3    H242500   1.233   6.445   2.648  3.2053 -0.6052 -1.4206
 6981TIP3   OH242501   4.785   1.095   9.487 -0.4356  0.3205  0.0960
 6981TIP3    H142502   4.795   1.011   9.443  0.1119  2.0945 -3.5905
 6981TIP3    H242503   4.728   1.146   9.428 -1.1919  2.3687  2.4424
 6982TIP3   OH242504   4.921   4.213   9.542  0.0445 -0.0706  0.2971
 6982TIP3    H142505   4.892   4.186   9.629  1.4817 -2.8973  0.0011
 6982TIP3    H242506   4.911   4.135   9.488  1.8901  0.7816 -1.3766
 6983TIP3   OH242507   2.092   3.019   8.708 -0.8926 -0.3190  0.4761
 6983TIP3    H142508   2.181   3.003   8.679 -0.4225 -0.9432  2.1280
 6983TIP3    H242509   2.073   3.109   8.682 -0.2443 -0.5887 -0.9719
 6984TIP3   OH242510   4.557   5.418   6.987 -0.3855  0.4268  0.1001
 6984TIP3    H142511   4.567   5.452   6.898 -0.7508  0.8477  0.2129
 6984TIP3    H242512   4.621   5.347   6.994  0.4918  1.1787 -0.1046
 6985TIP3   OH242513   6.183   4.226   6.801 -0.6835 -0.7949 -0.0170
 6985TIP3    H142514   6.215   4.152   6.853 -0.5160 -1.5872 -1.1940
 6985TIP3    H242515   6.089   4.227   6.817 -0.9189 -2.2301 -1.1187
 6986TIP3   OH242516   1.635   2.016   9.247 -0.1378 -0.4995  0.1467
 6986TIP3    H142517   1.711   2.071   9.266  2.0882 -3.7284  1.5719
 6986TIP3    H242518   1.568   2.044   9.310  0.4246  1.3448 -0.0303
 6987TIP3   OH242519   3.389   3.488   1.007  0.5168 -0.4064 -0.6114
 6987TIP3    H142520   3.302   3.451   0.994 -0.4561  1.4210  0.3945
 6987TIP3    H242521   3.437   3.419   1.054 -1.6434 -0.0378  2.4608
 6988TIP3   OH242522   0.744   6.018   0.036 -0.0025 -0.5723  0.1454
 6988TIP3    H142523   0.725   6.104   0.073  1.1116 -0.9328  1.6415
 6988TIP3    H242524   0.726   5.956   0.106  0.4095 -1.4487 -0.4924
 6989TIP3   OH242525   3.977   5.520   0.252 -0.6544  0.2448 -0.3465
 6989TIP3    H142526   3.899   5.513   0.307  0.4297 -0.8122  1.1337
 6989TIP3    H242527   4.050   5.503   0.312  0.6821  0.6453 -1.8075
 6990TIP3   OH242528   4.264   2.829   0.659 -0.9594 -0.1249  0.0625
 6990TIP3    H142529   4.317   2.824   0.579 -0.0367  0.7584  0.6002
 6990TIP3    H242530   4.254   2.738   0.687 -0.0381 -0.3376 -0.2595
 6991TIP3   OH242531   4.206   2.345   9.265 -0.8224  0.2661 -0.4586
 6991TIP3    H142532   4.264   2.413   9.300 -1.6391  1.6904 -1.7662
 6991TIP3    H242533   4.183   2.376   9.178 -0.6069 -2.1114 -1.4084
 6992TIP3   OH242534   2.976   5.413   7.622 -0.0986 -0.3340 -0.4787
 6992TIP3    H142535   3.032   5.458   7.558  0.8178 -0.9185 -0.1171
 6992TIP3    H242536   2.894   5.399   7.576 -0.6187  2.1396 -0.4375
 6993TIP3   OH242537   3.235   1.122   9.175  0.2718  0.1897 -0.3340
 6993TIP3    H142538   3.154   1.139   9.224  0.1733  0.0339 -0.4417
 6993TIP3    H242539   3.289   1.199   9.191 -0.1358  0.5669 -0.7441
 6994TIP3   OH242540   3.837   3.405   8.108 -0.2569  0.4465 -0.1415
 6994TIP3    H142541   3.772   3.338   8.089  0.8138 -0.4850 -0.6221
 6994TIP3    H242542   3.845   3.404   8.204 -0.6169  0.2511 -0.1119
 6995TIP3   OH242543   1.410   2.307   1.892 -0.1592  0.0218 -0.2524
 6995TIP3    H142544   1.422   2.401   1.878  0.6054 -0.2125 -1.3210
 6995TIP3    H242545   1.343   2.301   1.960 -0.9903  1.3348 -0.9067
 6996TIP3   OH242546   4.495   1.953   1.535 -0.6749 -1.0494 -0.5540
 6996TIP3    H142547   4.485   2.036   1.487 -3.1666  0.4566  2.2553
 6996TIP3    H242548   4.589   1.947   1.552 -0.3797  1.1061 -1.0409
 6997TIP3   OH242549   2.682   5.467   1.553  0.0192 -0.0634 -0.3979
 6997TIP3    H142550   2.766   5.431   1.580  1.2017  1.2271 -2.0683
 6997TIP3    H242551   2.620   5.396   1.565  1.2667 -0.9581  1.1964
 6998TIP3   OH242552   0.099   0.302   9.192  0.4525 -0.0309  0.0276
 6998TIP3    H142553   0.182   0.337   9.160  0.3227 -0.2545 -0.5665
 6998TIP3    H242554   0.117   0.209   9.209 -0.1081 -0.5239 -1.7963
 6999TIP3   OH242555   1.604   4.886   0.608 -0.2802 -0.1247 -0.0718
 6999TIP3    H142556   1.587   4.954   0.673  2.5671  0.6394  0.0156
 6999TIP3    H242557   1.578   4.804   0.650 -0.0210  0.5282  1.4063
 7000TIP3   OH242558   1.174   4.555   2.265  0.5132 -0.5717 -0.0457
 7000TIP3    H142559   1.190   4.627   2.326  1.6105 -0.9832  0.1752
 7000TIP3    H242560   1.084   4.568   2.235  0.2672  0.1473  0.9700
 7001TIP3   OH242561   4.523   2.300   0.797 -0.5257 -0.1846 -1.0008
 7001TIP3    H142562   4.444   2.299   0.743 -0.4937 -0.3190 -1.0470
 7001TIP3    H242563   4.565   2.383   0.778 -0.5750 -0.1814 -1.0943
 7002TIP3   OH242564   2.393   0.800   8.988 -0.0517 -0.5657  0.2479
 7002TIP3    H142565   2.341   0.864   8.940 -0.6990  0.3040  2.0283
 7002TIP3    H242566   2.451   0.853   9.043  1.3941 -1.5310 -0.2809
 7003TIP3   OH242567   6.226   3.344   0.489 -0.1884 -0.4310 -0.3465
 7003TIP3    H142568   6.203   3.433   0.517  1.8849  0.8345 -2.2821
 7003TIP3    H242569   6.260   3.302   0.568 -0.8462  0.6272  0.5295
 7004TIP3   OH242570   3.495   1.047   7.947 -0.9900  0.5091 -0.2007
 7004TIP3    H142571   3.565   1.097   7.989 -0.9174  0.9864 -0.8730
 7004TIP3    H242572   3.489   0.967   7.999 -1.1225  1.2081  0.9087
 7005TIP3   OH242573   3.613   3.296   6.784 -0.3000  0.2022  0.5406
 7005TIP3    H142574   3.644   3.230   6.846  0.6743  0.4184  0.3016
 7005TIP3    H242575   3.647   3.268   6.699 -0.9577  0.3290  0.2293
 7006TIP3   OH242576   1.160   5.090   2.395 -0.5326 -0.7434  1.0904
 7006TIP3    H142577   1.083   5.143   2.372 -0.7920 -1.2254  0.8345
 7006TIP3    H242578   1.154   5.080   2.490 -0.1414  0.2027  1.2281
 7007TIP3   OH242579   5.361   5.275   2.499 -0.0818  0.3522 -0.5767
 7007TIP3    H142580   5.322   5.352   2.540 -0.5648  0.9512 -2.1037
 7007TIP3    H242581   5.288   5.215   2.484 -0.0049  0.3814 -1.0833
 7008TIP3   OH242582   0.102   3.480   0.356 -0.9174 -0.1647  0.0524
 7008TIP3    H142583   0.145   3.446   0.434 -0.1608  0.3456 -0.1384
 7008TIP3    H242584   0.030   3.419   0.340  0.0079 -1.3058  0.1090
 7009TIP3   OH242585   1.609   2.974   7.325 -0.3425 -0.3255  0.2811
 7009TIP3    H142586   1.636   2.890   7.288 -0.6040 -0.0904 -0.4562
 7009TIP3    H242587   1.529   2.996   7.278  0.0513  0.6272  0.0396
 7010TIP3   OH242588   6.237   1.656   0.621  0.2696  0.2564 -0.0112
 7010TIP3    H142589   6.180   1.580   0.632 -0.1275  0.6824  1.0265
 7010TIP3    H242590   6.279   1.667   0.707  3.1651 -0.9917 -1.1311
 7011TIP3   OH242591   5.340   4.195   7.634  0.4339 -0.6709 -0.5300
 7011TIP3    H142592   5.397   4.262   7.596 -0.1342 -0.0624 -0.3359
 7011TIP3    H242593   5.398   4.140   7.685  0.7475  0.4520  0.3740
 7012TIP3   OH242594   6.302   3.729   8.390 -0.1362  0.0600  0.0439
 7012TIP3    H142595   6.372   3.728   8.324  0.4691  4.1879  0.3282
 7012TIP3    H242596   6.348   3.743   8.473 -1.1013  3.0224  0.2142
 7013TIP3   OH242597   1.777   5.535   8.064  0.0472 -0.0729  0.0599
 7013TIP3    H142598   1.817   5.449   8.049 -2.4053 -1.0934 -1.2162
 7013TIP3    H242599   1.721   5.521   8.141 -0.9070  0.1459 -0.5811
 7014TIP3   OH242600   0.757   2.922   8.150 -0.1796  0.0411 -0.2236
 7014TIP3    H142601   0.839   2.889   8.187  1.2632  0.3789 -2.8384
 7014TIP3    H242602   0.703   2.844   8.137  1.1046 -0.6992 -1.4844
 7015TIP3   OH242603   3.575   4.962   8.063  0.5821  0.2503  0.2913
 7015TIP3    H142604   3.582   4.923   7.976  1.3643  1.8543 -0.4151
 7015TIP3    H242605   3.656   4.939   8.107  0.9169  0.8161 -0.0202
 7016TIP3   OH242606   2.048   5.772   7.419  0.0847 -0.6987 -0.6582
 7016TIP3    H142607   1.958   5.754   7.391 -0.1314 -1.0037  0.1937
 7016TIP3    H242608   2.079   5.688   7.455 -0.0723 -0.0393  1.0968
 7017TIP3   OH242609   5.615   4.662   8.028 -0.2177  0.1280  0.0003
 7017TIP3    H142610   5.560   4.589   7.999 -0.8544 -0.1649  1.7890
 7017TIP3    H242611   5.581   4.737   7.979 -1.9052 -0.1485  0.6552
 7018TIP3   OH242612   2.344   5.163   1.206  0.1605  0.0433 -0.0828
 7018TIP3    H142613   2.291   5.230   1.162 -1.4553  0.0219  1.7170
 7018TIP3    H242614   2.433   5.179   1.174 -0.4472  1.9327 -1.0229
 7019TIP3   OH242615   5.122   6.005   9.495  0.1922  0.2025  0.0019
 7019TIP3    H142616   5.076   5.981   9.415  0.1808 -1.9238  0.5857
 7019TIP3    H242617   5.209   5.966   9.485  0.0554 -0.4503  1.1691
 7020TIP3   OH242618   0.285   3.495   0.130  0.1072 -0.1718 -0.4884
 7020TIP3    H142619   0.209   3.505   0.188 -1.1744  0.8192 -2.2234
 7020TIP3    H242620   0.306   3.402   0.133  0.5592 -0.0595  2.0650
 7021TIP3   OH242621   2.074   1.450   8.902 -0.0819  0.4197  0.1134
 7021TIP3    H142622   2.012   1.463   8.974 -2.0389  1.0818 -1.6145
 7021TIP3    H242623   2.160   1.447   8.946 -1.1834  0.6890  2.4704
 7022TIP3   OH242624   3.285   0.764   7.944  0.5525  0.0017  0.9257
 7022TIP3    H142625   3.218   0.716   7.993  0.4206 -0.0667  0.6816
 7022TIP3    H242626   3.236   0.817   7.882  0.7503 -0.5971  0.2471
 7023TIP3   OH242627   4.538   3.343   0.663  0.7396 -0.0359  0.1022
 7023TIP3    H142628   4.451   3.384   0.666  0.6243 -0.0975 -1.6337
 7023TIP3    H242629   4.598   3.412   0.689  0.2198  0.1045  0.9854
 7024TIP3   OH242630   1.015   1.326   9.179 -0.5351 -0.0361 -0.1055
 7024TIP3    H142631   0.937   1.325   9.124 -0.9954 -0.8440  0.5253
 7024TIP3    H242632   0.980   1.322   9.269  0.2267 -0.4922  0.1769
 7025TIP3   OH242633   0.684   1.194   1.722 -0.6583  0.0271  0.0847
 7025TIP3    H142634   0.686   1.251   1.645 -1.5465 -0.8504 -0.6055
 7025TIP3    H242635   0.764   1.142   1.715  0.0310  0.9824  0.5859
 7026TIP3   OH242636   4.134   2.426   9.017  0.3816  0.5717 -0.0698
 7026TIP3    H142637   4.054   2.428   8.963 -0.3610 -0.3273  0.9485
 7026TIP3    H242638   4.197   2.379   8.962  0.0380  0.7921 -0.6704
 7027TIP3   OH242639   0.748   1.766   1.429 -0.1522 -0.2852 -0.2022
 7027TIP3    H142640   0.788   1.795   1.347 -0.8588  0.6984 -0.2169
 7027TIP3    H242641   0.690   1.694   1.404  0.2219 -0.5008 -0.4467
 7028TIP3   OH242642   6.421   5.546   8.353  0.7987  0.0605 -0.5797
 7028TIP3    H142643   6.507   5.585   8.340  0.4941  0.6940 -0.7410
 7028TIP3    H242644   6.411   5.485   8.280  1.5218 -0.7821  0.0002
 7029TIP3   OH242645   2.297   1.871   2.680  0.3325 -0.4126  0.0298
 7029TIP3    H142646   2.291   1.787   2.634 -1.2765 -0.2157 -0.1562
 7029TIP3    H242647   2.235   1.928   2.635  1.2015  0.8203  0.3280
 7030TIP3   OH242648   0.522   4.966   1.852 -0.9085 -0.2565 -0.5659
 7030TIP3    H142649   0.448   5.016   1.818  0.1265  1.6112 -0.1595
 7030TIP3    H242650   0.523   4.983   1.946  1.0210  1.1728 -0.7822
 7031TIP3   OH242651   4.248   5.419   2.181 -0.6588  0.3107 -0.4944
 7031TIP3    H142652   4.255   5.391   2.089 -2.5010 -1.1243 -0.2742
 7031TIP3    H242653   4.263   5.339   2.231 -0.9430  0.8068  0.3980
 7032TIP3   OH242654   2.547   1.045   0.126 -0.1595  0.2682 -0.0151
 7032TIP3    H142655   2.472   1.103   0.142  0.2561  0.6993  0.4197
 7032TIP3    H242656   2.568   1.010   0.212 -0.4357 -0.5800 -0.2862
 7033TIP3   OH242657   3.187   1.462   8.244  0.1590  0.0491  0.2070
 7033TIP3    H142658   3.174   1.531   8.179 -0.4031 -0.4665 -0.2429
 7033TIP3    H242659   3.217   1.387   8.193 -2.0229 -0.9241  0.2521
 7034TIP3   OH242660   1.790   2.877   0.763  0.1134  0.0881 -0.0022
 7034TIP3    H142661   1.769   2.784   0.753  0.7501 -0.1045  0.3987
 7034TIP3    H242662   1.774   2.894   0.856 -0.4528  0.4975 -0.1720
 7035TIP3   OH242663   1.623   1.954   8.173 -0.0871 -0.6839  0.6832
 7035TIP3    H142664   1.591   1.902   8.246 -0.4577  0.6383  1.4885
 7035TIP3    H242665   1.567   1.930   8.099 -2.1092  0.5780  1.7224
 7036TIP3   OH242666   0.547   4.518   9.590 -0.1456 -0.0251  0.3303
 7036TIP3    H142667   0.538   4.428   9.622  0.7486  0.6649  2.7417
 7036TIP3    H242668   0.620   4.514   9.528 -0.4043 -1.0205  0.0739
 7037TIP3   OH242669   6.243   3.267   6.865  0.3816 -0.0811 -0.4253
 7037TIP3    H142670   6.157   3.307   6.851  0.5320  0.6016  0.4809
 7037TIP3    H242671   6.301   3.314   6.805  0.2439 -0.1229 -0.5944
 7038TIP3   OH242672   3.206   2.053   8.030  0.3986  0.3033 -0.1706
 7038TIP3    H142673   3.133   2.092   8.078  1.1716 -0.1434  1.4801
 7038TIP3    H242674   3.284   2.093   8.069  1.1436 -1.6292  0.4561
 7039TIP3   OH242675   4.610   2.883   0.452  0.5367 -0.5368  0.2299
 7039TIP3    H142676   4.632   2.974   0.435  2.5829 -1.0469 -0.1161
 7039TIP3    H242677   4.541   2.863   0.388  2.8407 -0.3001 -2.5498
 7040TIP3   OH242678   1.275   3.969   0.811 -0.4305  0.5254 -0.3181
 7040TIP3    H142679   1.355   3.918   0.821 -0.3526  1.1142  3.8200
 7040TIP3    H242680   1.306   4.058   0.792 -0.1591  0.4419 -0.2692
 7041TIP3   OH242681   1.747   4.795   2.448 -0.3429  0.2651 -0.0477
 7041TIP3    H142682   1.820   4.745   2.484  0.0747  0.6210 -0.4028
 7041TIP3    H242683   1.733   4.866   2.511 -2.9050 -1.9355  2.1180
 7042TIP3   OH242684   1.559   2.659   8.196 -0.2443  0.5125 -0.0655
 7042TIP3    H142685   1.479   2.608   8.205  0.5182 -0.7782 -0.3724
 7042TIP3    H242686   1.530   2.750   8.205 -1.6900  0.0658  0.1175
 7043TIP3   OH242687   0.384   1.354   8.111 -0.3167 -0.0060 -0.2207
 7043TIP3    H142688   0.379   1.449   8.095 -0.8921  0.0198  0.0940
 7043TIP3    H242689   0.293   1.327   8.124 -0.0578 -0.3837  0.9467
 7044TIP3   OH242690   1.302   6.416   9.514  0.4474 -0.0548  0.1578
 7044TIP3    H142691   1.271   6.401   9.424  1.3814  1.1015 -0.3849
 7044TIP3    H242692   1.392   6.383   9.514  1.2302  1.9618  0.0006
 7045TIP3   OH242693   1.962   1.930   0.883 -0.2362 -0.1899  0.0079
 7045TIP3    H142694   1.874   1.895   0.897  1.1753 -3.2478  2.3906
 7045TIP3    H242695   1.974   1.928   0.788 -2.3644 -0.5723 -0.2987
 7046TIP3   OH242696   5.895   2.822   0.388  0.0774 -0.0758  0.0074
 7046TIP3    H142697   5.950   2.776   0.451 -0.4489 -0.9428 -0.1527
 7046TIP3    H242698   5.848   2.753   0.342  0.1072  0.5630 -1.0249
 7047TIP3   OH242699   1.106   2.048   2.307 -0.2146 -0.0362 -0.2385
 7047TIP3    H142700   1.090   2.108   2.381 -0.7165  0.0934 -0.4486
 7047TIP3    H242701   1.038   2.070   2.244  0.4583  0.1247 -0.9140
 7048TIP3   OH242702   6.003   5.804   8.225 -0.2518 -0.4290  0.1105
 7048TIP3    H142703   5.979   5.798   8.132  1.2700  1.5069 -0.4582
 7048TIP3    H242704   5.934   5.858   8.263 -0.8568 -1.1903  0.1370
 7049TIP3   OH242705   5.347   4.589   9.439  0.0206 -0.3052  0.3819
 7049TIP3    H142706   5.420   4.554   9.387  0.3796 -1.0019  1.3339
 7049TIP3    H242707   5.274   4.595   9.377  0.2073 -1.8802 -0.0254
 7050TIP3   OH242708   3.439   2.418   7.676  0.2497  0.4615 -1.1225
 7050TIP3    H142709   3.531   2.416   7.652  0.1243  0.9311 -1.6990
 7050TIP3    H242710   3.438   2.427   7.771  0.8456  2.5438 -1.2651
 7051TIP3   OH242711   3.297   4.021   1.926 -0.3740  0.0724 -0.5694
 7051TIP3    H142712   3.306   4.104   1.972 -1.2875  0.1062 -0.4364
 7051TIP3    H242713   3.223   4.034   1.866  1.5834  0.4915 -3.0740
 7052TIP3   OH242714   2.058   1.134   1.586  0.0268  0.3634 -0.8188
 7052TIP3    H142715   2.059   1.228   1.568  1.5292  0.8505  1.4485
 7052TIP3    H242716   1.965   1.113   1.597 -0.3323  1.5379 -1.4709
 7053TIP3   OH242717   3.504   5.093   9.333  0.9700 -0.8840 -0.3149
 7053TIP3    H142718   3.443   5.021   9.320  1.7721 -1.7546  0.5781
 7053TIP3    H242719   3.577   5.073   9.273  1.7110 -1.4488  0.7437
 7054TIP3   OH242720   5.997   5.371   8.045  0.0069  0.2744  0.2055
 7054TIP3    H142721   6.033   5.286   8.018  0.3220  0.3093  0.5131
 7054TIP3    H242722   6.072   5.419   8.079  0.2962  1.5189 -1.9803
 7055TIP3   OH242723   4.997   1.416   1.078  0.5100 -0.3402 -0.4399
 7055TIP3    H142724   4.965   1.352   1.014  0.4957 -0.3207 -0.4522
 7055TIP3    H242725   5.004   1.366   1.159  1.2465 -0.5491 -0.6291
 7056TIP3   OH242726   1.222   4.982   2.109  0.3491 -0.1980  0.2996
 7056TIP3    H142727   1.239   5.005   2.201 -0.5828  0.7772  0.2535
 7056TIP3    H242728   1.175   5.058   2.074 -1.2226 -1.4125 -0.3919
 7057TIP3   OH242729   5.481   4.924   0.830  0.3424 -0.4997  0.0526
 7057TIP3    H142730   5.455   4.993   0.892 -0.2136  0.1714 -0.8968
 7057TIP3    H242731   5.419   4.933   0.757  0.3432 -1.9336 -0.1562
 7058TIP3   OH242732   2.685   0.898   1.704 -0.0101  0.0569  0.4983
 7058TIP3    H142733   2.771   0.856   1.700 -0.0653 -0.3343  2.2805
 7058TIP3    H242734   2.635   0.860   1.631  0.4837 -1.7490  1.0558
 7059TIP3   OH242735   1.828   3.624   2.117  0.2402 -0.2648  0.8106
 7059TIP3    H142736   1.829   3.558   2.186  0.1432 -0.1512  0.9207
 7059TIP3    H242737   1.920   3.634   2.092  0.1521 -1.2061  0.0610
 7060TIP3   OH242738   0.343   3.715   7.742 -0.0483  0.0002  0.0438
 7060TIP3    H142739   0.395   3.635   7.741  0.0044 -0.0368  2.0336
 7060TIP3    H242740   0.252   3.686   7.742 -0.1215  0.0475 -2.3868
 7061TIP3   OH242741   5.112   0.334   9.410 -0.2552 -0.4569  0.7314
 7061TIP3    H142742   5.175   0.271   9.375  0.2851 -0.4819  1.7038
 7061TIP3    H242743   5.102   0.400   9.342 -2.5217 -2.6785 -1.2893
 7062TIP3   OH242744   0.157   4.234   7.615  0.0653  0.0176  0.0502
 7062TIP3    H142745   0.227   4.282   7.570 -1.7130  0.3387 -2.6121
 7062TIP3    H242746   0.101   4.202   7.544 -3.7950  1.7757  1.9964
 7063TIP3   OH242747   3.227   4.774   7.979 -0.4982  0.2505  0.1012
 7063TIP3    H142748   3.316   4.782   7.946 -0.3268 -1.3015  0.1122
 7063TIP3    H242749   3.185   4.713   7.919 -0.7015 -1.2610  1.7083
 7064TIP3   OH242750   3.770   5.341   0.886  0.1454  0.1126 -0.5399
 7064TIP3    H142751   3.761   5.367   0.977  1.2799 -0.6876 -0.1814
 7064TIP3    H242752   3.776   5.245   0.889  2.7213  0.1892 -1.1819
 7065TIP3   OH242753   5.958   1.780   8.127  0.6848 -0.0908  0.1326
 7065TIP3    H142754   5.996   1.726   8.058  1.7716  0.0580  0.5902
 7065TIP3    H242755   6.015   1.857   8.132 -0.7604  1.0742 -0.4209
 7066TIP3   OH242756   5.385   0.804   0.334 -0.0899 -0.2076  0.0856
 7066TIP3    H142757   5.376   0.788   0.428 -1.4563 -0.5972 -0.0932
 7066TIP3    H242758   5.412   0.896   0.328  0.7447 -0.3845  0.8692
 7067TIP3   OH242759   0.036   5.545   9.478  0.1619  0.1857  0.3983
 7067TIP3    H142760   0.065   5.537   9.569  1.0841 -1.3278  0.0007
 7067TIP3    H242761   0.007   5.457   9.453  1.2207  0.2439 -1.1774
 7068TIP3   OH242762   3.476   3.394   2.339 -0.5633 -0.6963  0.1620
 7068TIP3    H142763   3.538   3.364   2.272  1.3643 -0.1090  1.5923
 7068TIP3    H242764   3.508   3.355   2.420 -0.0426  2.2653  1.5049
 7069TIP3   OH242765   4.956   5.913   1.369  0.3759 -0.0418  0.2560
 7069TIP3    H142766   4.954   6.002   1.332 -0.0626  0.1673  0.7708
 7069TIP3    H242767   5.049   5.897   1.386  0.7058 -0.4603 -1.6638
 7070TIP3   OH242768   2.333   5.076   1.629 -0.3056  0.2035 -0.6372
 7070TIP3    H142769   2.380   4.993   1.621 -1.8947 -0.6649 -1.6191
 7070TIP3    H242770   2.364   5.129   1.557 -1.4134 -0.7017 -1.8258
 7071TIP3   OH242771   3.118   0.982   8.979 -0.1148  0.5195 -0.6391
 7071TIP3    H142772   3.200   1.021   9.007  0.6879  0.3467 -2.5876
 7071TIP3    H242773   3.142   0.893   8.952 -1.0148  0.3236 -0.8295
 7072LIG      O42774   2.187   3.504   9.513  0.2044 -0.2291  0.1738
 7072LIG     C142775   2.284   3.423   9.586 -0.2826 -0.0692 -0.1840
 7072LIG     C242776   2.390   3.523   9.640 -0.4869 -0.6948  0.0920
 7072LIG     C342777   2.206   3.355   9.702 -0.6497 -0.1922  0.4551
 7072LIG     H142778   2.338   3.361   9.511  1.3741  1.7922 -0.6344
 7072LIG     H242779   2.361   3.630   9.648  1.0297 -0.0710 -2.0316
 7072LIG     H342780   2.477   3.517   9.572 -0.8739  0.5338 -0.5314
 7072LIG     H442781   2.417   3.494   9.744 -2.2252 -1.3649  0.4003
 7072LIG     H542782   2.274   3.305   9.774 -1.6694 -1.6572  0.4386
 7072LIG     H642783   2.137   3.279   9.660 -3.2405  1.8823  0.7291
 7072LIG     H742784   2.142   3.434   9.746  1.3988  1.1894  1.0978
 7072LIG     H842785   2.107   3.453   9.497 -0.8350  1.3761  0.0107
   6.53208   6.53208   9.59711
