;;
;; Generated by CHARMM-GUI (http://www.charmm-gui.org) v1.7
;;
;; psf2itp_mol.py
;;
;; Correspondance:
;; jul316@lehigh.edu or wonpil@lehigh.edu
;;
;; CHARMM36 FF in GROMACS format
;;


[ defaults ]
; nbfunc	comb-rule	gen-pairs	fudgeLJ	fudgeQQ
1	2	yes	1.0	1.0

[ atomtypes ]
; name	at.num	mass	charge	ptype	sigma	epsilon	;	sigma_14	epsilon_14
  CG2R53     6    12.0110      0.265     A    3.91995435982e-01    8.368000e-02 
  CG2R63     6    12.0110      0.466     A    3.38541512893e-01    4.184000e-01 
  CG2RC0     6    12.0110     -0.172     A    3.31414323148e-01    4.142160e-01 
   CG331     6    12.0110     -0.078     A    3.65268474438e-01    3.263520e-01 ;   3.38541512893e-01    4.184000e-02 
    HGA3     1     1.0080      0.090     A    2.38760856462e-01    1.004160e-01 
   HGR52     1     1.0080      0.098     A    1.60361769265e-01    1.924640e-01 
  NG2R50     7    14.0070     -0.745     A    3.29632525712e-01    8.368000e-01 
  NG2R51     7    14.0070     -0.082     A    3.29632525712e-01    8.368000e-01 
  NG2R61     7    14.0070     -0.052     A    3.29632525712e-01    8.368000e-01 
   OG2D4     8    15.9994     -0.488     A    3.02905564168e-01    5.020800e-01 

[ bondtypes ]
; i	j	func	b0	Kb
 CG2R53   CG331     1  1.500000e-01  3.556400e+05
 CG2R53   HGR52     1  1.090000e-01  2.845120e+05
 CG2R53  NG2R50     1  1.320000e-01  3.347200e+05
 CG2R53  NG2R51     1  1.374000e-01  2.677760e+05
 CG2R63  CG2RC0     1  1.360000e-01  2.527136e+05
 CG2R63  NG2R61     1  1.383000e-01  2.845120e+05
 CG2R63   OG2D4     1  1.234000e-01  5.522880e+05
 CG2RC0  CG2RC0     1  1.385000e-01  3.012480e+05
 CG2RC0  NG2R50     1  1.365000e-01  2.594080e+05
 CG2RC0  NG2R51     1  1.375000e-01  2.510400e+05
 CG2RC0  NG2R61     1  1.379000e-01  3.012480e+05
  CG331   CG331     1  1.530000e-01  1.861880e+05
  CG331    HGA3     1  1.111000e-01  2.694496e+05
  CG331  NG2R51     1  1.458000e-01  3.347200e+05
  CG331  NG2R61     1  1.456000e-01  3.347200e+05
 NG2R50  NG2R50     1  1.290000e-01  2.845120e+05
 NG2R50  NG2R51     1  1.355000e-01  3.012480e+05

[ pairtypes ]
; i	j	func	sigma1-4	epsilon1-4
 CG2R53   CG331     1  3.65268474438e-01  5.91706954497e-02 
 CG2R63   CG331     1  3.38541512893e-01  1.32309697301e-01 
 CG2RC0   CG331     1  3.34977918021e-01  1.31646486622e-01 
  CG331   CG331     1  3.38541512893e-01  4.18400000000e-02 
  CG331    HGA3     1  2.88651184677e-01  6.48182492821e-02 
  CG331   HGR52     1  2.49451641079e-01  8.97368027066e-02 
  CG331  NG2R50     1  3.34087019303e-01  1.87114168357e-01 
  CG331  NG2R51     1  3.34087019303e-01  1.87114168357e-01 
  CG331  NG2R61     1  3.34087019303e-01  1.87114168357e-01 
  CG331   OG2D4     1  3.20723538531e-01  1.44938011577e-01 

[ angletypes ]
; i	j	k	func	th0	cth	S0	Kub
 CG2R53   CG331    HGA3     5  1.0950000e+02  4.6024000e+02  0.0000000e+00  0.0000000e+00
 CG2R53  NG2R50  CG2R53     5  1.0100000e+02  8.3680000e+02  0.0000000e+00  0.0000000e+00
 CG2R53  NG2R50  CG2RC0     5  1.0380000e+02  1.0041600e+03  0.0000000e+00  0.0000000e+00
 CG2R53  NG2R50  NG2R50     5  1.0590000e+02  9.2048000e+02  0.0000000e+00  0.0000000e+00
 CG2R53  NG2R50  NG2R51     5  1.0100000e+02  8.3680000e+02  0.0000000e+00  0.0000000e+00
 CG2R53  NG2R51  CG2R53     5  1.0750000e+02  1.0878400e+03  0.0000000e+00  0.0000000e+00
 CG2R53  NG2R51  CG2RC0     5  1.0720000e+02  8.3680000e+02  0.0000000e+00  0.0000000e+00
 CG2R53  NG2R51   CG331     5  1.2780000e+02  5.8576000e+02  0.0000000e+00  0.0000000e+00
 CG2R53  NG2R51  NG2R50     5  1.1400000e+02  1.0878400e+03  0.0000000e+00  0.0000000e+00
 CG2R63  CG2RC0  CG2RC0     5  1.1960000e+02  5.8576000e+02  0.0000000e+00  0.0000000e+00
 CG2R63  CG2RC0  NG2R50     5  1.2900000e+02  1.0460000e+03  0.0000000e+00  0.0000000e+00
 CG2R63  CG2RC0  NG2R51     5  1.3260000e+02  1.0878400e+03  0.0000000e+00  0.0000000e+00
 CG2R63  NG2R61  CG2R63     5  1.3020000e+02  4.1840000e+02  0.0000000e+00  0.0000000e+00
 CG2R63  NG2R61  CG2RC0     5  1.2390000e+02  8.3680000e+01  0.0000000e+00  0.0000000e+00
 CG2R63  NG2R61   CG331     5  1.1540000e+02  5.8576000e+02  0.0000000e+00  0.0000000e+00
 CG2RC0  CG2R63  NG2R61     5  1.0780000e+02  5.8576000e+02  0.0000000e+00  0.0000000e+00
 CG2RC0  CG2R63   OG2D4     5  1.2470000e+02  4.1840000e+02  0.0000000e+00  0.0000000e+00
 CG2RC0  CG2RC0  NG2R50     5  1.1000000e+02  8.3680000e+02  0.0000000e+00  0.0000000e+00
 CG2RC0  CG2RC0  NG2R51     5  1.0570000e+02  8.3680000e+02  0.0000000e+00  0.0000000e+00
 CG2RC0  CG2RC0  NG2R61     5  1.2740000e+02  4.9371200e+02  0.0000000e+00  0.0000000e+00
 CG2RC0  NG2R51  CG2RC0     5  1.1000000e+02  7.1128000e+02  0.0000000e+00  0.0000000e+00
 CG2RC0  NG2R51   CG331     5  1.2590000e+02  5.8576000e+02  0.0000000e+00  0.0000000e+00
 CG2RC0  NG2R51  NG2R50     5  1.1450000e+02  1.5899200e+03  0.0000000e+00  0.0000000e+00
 CG2RC0  NG2R61  CG2RC0     5  1.2000000e+02  2.5104000e+02  0.0000000e+00  0.0000000e+00
 CG2RC0  NG2R61   CG331     5  1.2050000e+02  2.0083200e+02  0.0000000e+00  0.0000000e+00
  CG331  CG2R53  NG2R50     5  1.2300000e+02  3.8325440e+02  0.0000000e+00  0.0000000e+00
  CG331  CG2R53  NG2R51     5  1.2000000e+02  3.8325440e+02  0.0000000e+00  0.0000000e+00
  CG331   CG331    HGA3     5  1.1010000e+02  3.1380000e+02  2.1790000e-01  1.8853104e+04
  CG331  NG2R51  NG2R50     5  1.1800000e+02  3.3472000e+02  0.0000000e+00  0.0000000e+00
   HGA3   CG331    HGA3     5  1.0840000e+02  2.9706400e+02  1.8020000e-01  4.5187200e+03
 NG2R50  CG2R53   HGR52     5  1.2480000e+02  3.2635200e+02  0.0000000e+00  0.0000000e+00
 NG2R50  CG2R53  NG2R50     5  1.1100000e+02  8.3680000e+02  0.0000000e+00  0.0000000e+00
 NG2R50  CG2R53  NG2R51     5  1.1300000e+02  8.3680000e+02  0.0000000e+00  0.0000000e+00
 NG2R50  CG2RC0  NG2R61     5  1.3100000e+02  1.6736000e+02  0.0000000e+00  0.0000000e+00
 NG2R50  NG2R50  NG2R50     5  1.0820000e+02  1.3388800e+03  0.0000000e+00  0.0000000e+00
 NG2R50  NG2R50  NG2R51     5  1.0220000e+02  1.3388800e+03  0.0000000e+00  0.0000000e+00
 NG2R50  NG2R51  NG2R50     5  1.2100000e+02  7.5312000e+02  0.0000000e+00  0.0000000e+00
 NG2R51  CG2R53   HGR52     5  1.2220000e+02  3.3472000e+02  0.0000000e+00  0.0000000e+00
 NG2R51  CG2RC0  NG2R61     5  1.2690000e+02  8.3680000e+02  0.0000000e+00  0.0000000e+00
 NG2R51   CG331    HGA3     5  1.1010000e+02  2.7974224e+02  0.0000000e+00  0.0000000e+00
 NG2R61  CG2R63  NG2R61     5  1.1400000e+02  4.1840000e+02  0.0000000e+00  0.0000000e+00
 NG2R61  CG2R63   OG2D4     5  1.1940000e+02  1.0878400e+03  0.0000000e+00  0.0000000e+00
 NG2R61   CG331    HGA3     5  1.1010000e+02  2.7974224e+02  2.1790000e-01  1.8853104e+04

[ dihedraltypes ]
; i	j	k	l	func	phi0	cp	mult
 CG2R53  NG2R50  NG2R50  NG2R50     9  1.800000e+02  6.485200e+01      2
 CG2R53  NG2R50  NG2R50  NG2R51     9  1.800000e+02  5.857600e+01      2
 CG2R53  NG2R50  NG2R51  CG2R53     9  1.800000e+02  4.184000e+01      2
 CG2R53  NG2R50  NG2R51   CG331     9  1.800000e+02  5.857600e+00      2
 CG2R53  NG2R50  NG2R51  NG2R50     9  1.800000e+02  3.974800e+01      2
 CG2R63  CG2RC0  CG2RC0  NG2R50     9  1.800000e+02  6.276000e+00      2
 CG2R63  CG2RC0  CG2RC0  NG2R51     9  1.800000e+02  4.184000e+01      2
 CG2R63  CG2RC0  CG2RC0  NG2R61     9  1.800000e+02  8.368000e+00      2
 CG2R63  CG2RC0  NG2R50  CG2R53     9  1.800000e+02  8.368000e+00      2
 CG2R63  CG2RC0  NG2R51  CG2R53     9  1.800000e+02  7.949600e+01      2
 CG2R63  CG2RC0  NG2R51   CG331     9  1.800000e+02  4.602400e+01      2
 CG2RC0  CG2R63  NG2R61  CG2R63     9  1.800000e+02  8.368000e-01      2
 CG2RC0  CG2R63  NG2R61   CG331     9  1.800000e+02  2.301200e+01      2
 CG2RC0  CG2RC0  NG2R50  CG2R53     9  1.800000e+02  2.510400e+01      2
 CG2RC0  CG2RC0  NG2R51  CG2R53     9  1.800000e+02  2.510400e+01      2
 CG2RC0  CG2RC0  NG2R51   CG331     9  1.800000e+02  4.602400e+01      2
 CG2RC0  CG2RC0  NG2R51  NG2R50     9  1.800000e+02  2.719600e+01      2
 CG2RC0  CG2RC0  NG2R61  CG2R63     9  1.800000e+02  0.000000e+00      2
 CG2RC0  CG2RC0  NG2R61  CG2RC0     9  1.800000e+02  0.000000e+00      2
 CG2RC0  CG2RC0  NG2R61   CG331     9  1.800000e+02  1.338880e+00      2
  CG331  CG2R53  NG2R50  CG2RC0     9  1.800000e+02  2.301200e+01      2
  CG331  CG2R53  NG2R50  NG2R50     9  1.800000e+02  2.928800e+01      2
  CG331  CG2R53  NG2R51  CG2R53     9  1.800000e+02  2.956875e+01      2
  CG331  CG2R53  NG2R51  CG2RC0     9  1.800000e+02  2.301200e+01      2
  CG331  CG2R53  NG2R51   CG331     9  1.800000e+02  1.255200e+01      2
  CG331  CG2R53  NG2R51  NG2R50     9  1.800000e+02  2.092000e+01      2
   HGA3   CG331   CG331    HGA3     9  0.000000e+00  6.485200e-01      3
   HGA3   CG331  NG2R51  CG2R53     9  0.000000e+00  0.000000e+00      3
   HGA3   CG331  NG2R51  CG2RC0     9  0.000000e+00  7.949600e-01      3
   HGA3   CG331  NG2R51  NG2R50     9  0.000000e+00  0.000000e+00      3
   HGA3   CG331  NG2R61  CG2R63     9  0.000000e+00  7.949600e-01      3
   HGA3   CG331  NG2R61  CG2RC0     9  0.000000e+00  0.000000e+00      3
  HGR52  CG2R53  NG2R50  CG2R53     9  1.800000e+02  2.301200e+01      2
  HGR52  CG2R53  NG2R50  CG2RC0     9  1.800000e+02  2.175680e+01      2
  HGR52  CG2R53  NG2R50  NG2R50     9  1.800000e+02  1.799120e+01      2
  HGR52  CG2R53  NG2R50  NG2R51     9  1.800000e+02  1.380720e+01      2
  HGR52  CG2R53  NG2R51  CG2R53     9  1.800000e+02  3.119046e+01      2
  HGR52  CG2R53  NG2R51  CG2RC0     9  1.800000e+02  2.343040e+01      2
  HGR52  CG2R53  NG2R51   CG331     9  1.800000e+02  0.000000e+00      2
  HGR52  CG2R53  NG2R51  NG2R50     9  1.800000e+02  7.112800e+00      2
 NG2R50  CG2R53   CG331    HGA3     9  0.000000e+00  7.949600e-01      3
 NG2R50  CG2R53  NG2R50  CG2R53     9  1.800000e+02  4.184000e+01      2
 NG2R50  CG2R53  NG2R50  NG2R50     9  1.800000e+02  5.251422e+01      2
 NG2R50  CG2R53  NG2R50  NG2R51     9  1.800000e+02  5.020800e+01      2
 NG2R50  CG2R53  NG2R51  CG2R53     9  1.800000e+02  5.857600e+01      2
 NG2R50  CG2R53  NG2R51  CG2RC0     9  1.800000e+02  2.510400e+01      2
 NG2R50  CG2R53  NG2R51   CG331     9  1.800000e+02  4.602400e+01      2
 NG2R50  CG2R53  NG2R51  NG2R50     9  1.800000e+02  4.184000e+01      2
 NG2R50  CG2RC0  CG2RC0  NG2R51     9  1.800000e+02  4.184000e+01      2
 NG2R50  CG2RC0  CG2RC0  NG2R61     9  1.800000e+02  2.217520e+01      2
 NG2R50  CG2RC0  NG2R61  CG2R63     9  1.800000e+02  0.000000e+00      2
 NG2R50  CG2RC0  NG2R61  CG2RC0     9  1.800000e+02  0.000000e+00      2
 NG2R50  CG2RC0  NG2R61   CG331     9  1.800000e+02  8.368000e-01      2
 NG2R50  NG2R50  NG2R50  NG2R51     9  1.800000e+02  6.401520e+01      2
 NG2R50  NG2R50  NG2R51  CG2R53     9  1.800000e+02  3.556400e+01      2
 NG2R50  NG2R50  NG2R51   CG331     9  1.800000e+02  1.046000e+01      2
 NG2R50  NG2R50  NG2R51  NG2R50     9  1.800000e+02  4.567213e+01      2
 NG2R51  CG2R53   CG331    HGA3     9  0.000000e+00  7.949600e-01      3
 NG2R51  CG2R53  NG2R50  CG2R53     9  1.800000e+02  5.020800e+01      2
 NG2R51  CG2R53  NG2R50  CG2RC0     9  1.800000e+02  5.857600e+01      2
 NG2R51  CG2R53  NG2R50  NG2R50     9  1.800000e+02  5.857600e+01      2
 NG2R51  CG2RC0  CG2RC0  NG2R61     9  1.800000e+02  2.217520e+01      2
 NG2R51  CG2RC0  NG2R61  CG2RC0     9  1.800000e+02  0.000000e+00      2
 NG2R51  CG2RC0  NG2R61   CG331     9  1.800000e+02  8.368000e-01      2
 NG2R61  CG2R63  CG2RC0  CG2RC0     9  1.800000e+02  8.368000e-01      2
 NG2R61  CG2R63  CG2RC0  NG2R50     9  1.800000e+02  8.368000e+00      2
 NG2R61  CG2R63  CG2RC0  NG2R51     9  1.800000e+02  8.368000e+00      2
 NG2R61  CG2R63  NG2R61  CG2R63     9  1.800000e+02  1.255200e+01      2
 NG2R61  CG2R63  NG2R61  CG2RC0     9  1.800000e+02  2.092000e+00      2
 NG2R61  CG2R63  NG2R61   CG331     9  1.800000e+02  4.602400e+01      2
 NG2R61  CG2RC0  NG2R50  CG2R53     9  1.800000e+02  8.368000e+00      2
 NG2R61  CG2RC0  NG2R51  CG2R53     9  1.800000e+02  8.368000e+00      2
 NG2R61  CG2RC0  NG2R51   CG331     9  1.800000e+02  4.602400e+01      2
  OG2D4  CG2R63  CG2RC0  CG2RC0     9  1.800000e+02  5.857600e+01      2
  OG2D4  CG2R63  CG2RC0  NG2R50     9  1.800000e+02  0.000000e+00      2
  OG2D4  CG2R63  CG2RC0  NG2R51     9  1.800000e+02  0.000000e+00      2
  OG2D4  CG2R63  NG2R61  CG2R63     9  1.800000e+02  3.765600e+00      2
  OG2D4  CG2R63  NG2R61  CG2RC0     9  1.800000e+02  6.694400e+00      2
  OG2D4  CG2R63  NG2R61   CG331     9  1.800000e+02  4.602400e+01      2

[ dihedraltypes ]
; i	j	k	l	func	q0	cq
 CG2R63  CG2RC0  NG2R61   OG2D4     2  0.000000e+00  7.531200e+02
 CG2R63  NG2R61  NG2R61   OG2D4     2  0.000000e+00  7.531200e+02
