;;
;; Generated by CHARMM-GUI (http://www.charmm-gui.org) v1.7
;;
;; psf2itp_mol.py
;;
;; Correspondance:
;; jul316@lehigh.edu or wonpil@lehigh.edu
;;
;; GROMACS topology file for LIG
;;


[ moleculetype ]
; name	nrexcl
LIG	     3

[ atoms ]
; nr	type	resnr	residu	atom	cgnr	charge	mass
     1      CG331      1      LIG     C1      1     -0.276    12.0110   ; qtot -0.276
     2     NG2R51      1      LIG     N1      2     -0.082    14.0070   ; qtot -0.358
     3     CG2R53      1      LIG     C2      3      0.265    12.0110   ; qtot -0.093
     4     NG2R50      1      LIG     N2      4     -0.745    14.0070   ; qtot -0.838
     5     CG2RC0      1      LIG     C3      5      0.475    12.0110   ; qtot -0.363
     6     CG2RC0      1      LIG     C4      6     -0.172    12.0110   ; qtot -0.535
     7     CG2R63      1      LIG     C5      7      0.466    12.0110   ; qtot -0.069
     8      OG2D4      1      LIG     O1      8     -0.488    15.9994   ; qtot -0.557
     9     NG2R61      1      LIG     N3      9      0.345    14.0070   ; qtot -0.212
    10     CG2R63      1      LIG     C6     10      0.027    12.0110   ; qtot -0.185
    11      OG2D4      1      LIG     O2     11     -0.443    15.9994   ; qtot -0.628
    12     NG2R61      1      LIG     N4     12     -0.052    14.0070   ; qtot -0.680
    13      CG331      1      LIG     C7     13     -0.078    12.0110   ; qtot -0.758
    14      CG331      1      LIG     C8     14     -0.150    12.0110   ; qtot -0.908
    15       HGA3      1      LIG     H1     15      0.090     1.0080   ; qtot -0.818
    16       HGA3      1      LIG     H2     16      0.090     1.0080   ; qtot -0.728
    17       HGA3      1      LIG     H3     17      0.090     1.0080   ; qtot -0.638
    18      HGR52      1      LIG     H4     18      0.098     1.0080   ; qtot -0.540
    19       HGA3      1      LIG     H5     19      0.090     1.0080   ; qtot -0.450
    20       HGA3      1      LIG     H6     20      0.090     1.0080   ; qtot -0.360
    21       HGA3      1      LIG     H7     21      0.090     1.0080   ; qtot -0.270
    22       HGA3      1      LIG     H8     22      0.090     1.0080   ; qtot -0.180
    23       HGA3      1      LIG     H9     23      0.090     1.0080   ; qtot -0.090
    24       HGA3      1      LIG    H10     24      0.090     1.0080   ; qtot -0.000

[ bonds ]
; ai	aj	funct	b0	Kb
    1     2     1
    1    15     1
    1    16     1
    1    17     1
    2     3     1
    2     6     1
    3     4     1
    3    18     1
    4     5     1
    5     6     1
    5    12     1
    6     7     1
    7     8     1
    7     9     1
    9    10     1
    9    14     1
   10    11     1
   10    12     1
   12    13     1
   13    19     1
   13    20     1
   13    21     1
   14    22     1
   14    23     1
   14    24     1

[ pairs ]
; ai	aj	funct	c6	c12
    1     4     1 
    1     5     1 
    1     7     1 
    1    18     1 
    2     8     1 
    2     9     1 
    2    12     1 
    3     7     1 
    3    12     1 
    3    15     1 
    3    16     1 
    3    17     1 
    4     7     1 
    4    10     1 
    4    13     1 
    5     8     1 
    5     9     1 
    5    11     1 
    5    18     1 
    5    19     1 
    5    20     1 
    5    21     1 
    6    10     1 
    6    13     1 
    6    14     1 
    6    15     1 
    6    16     1 
    6    17     1 
    6    18     1 
    7    11     1 
    7    12     1 
    7    22     1 
    7    23     1 
    7    24     1 
    8    10     1 
    8    14     1 
    9    13     1 
   10    19     1 
   10    20     1 
   10    21     1 
   10    22     1 
   10    23     1 
   10    24     1 
   11    13     1 
   11    14     1 
   12    14     1 

[ angles ] 
; ai	aj	ak	funct	th0	cth	S0	Kub
    2     1    15     5
    2     1    16     5
    2     1    17     5
   15     1    16     5
   15     1    17     5
   16     1    17     5
    1     2     3     5
    1     2     6     5
    3     2     6     5
    2     3     4     5
    2     3    18     5
    4     3    18     5
    3     4     5     5
    4     5     6     5
    4     5    12     5
    6     5    12     5
    2     6     5     5
    2     6     7     5
    5     6     7     5
    6     7     8     5
    6     7     9     5
    8     7     9     5
    7     9    10     5
    7     9    14     5
   10     9    14     5
    9    10    11     5
    9    10    12     5
   11    10    12     5
    5    12    10     5
    5    12    13     5
   10    12    13     5
   12    13    19     5
   12    13    20     5
   12    13    21     5
   19    13    20     5
   19    13    21     5
   20    13    21     5
    9    14    22     5
    9    14    23     5
    9    14    24     5
   22    14    23     5
   22    14    24     5
   23    14    24     5

[ dihedrals ]
; ai	aj	ak	al	funct	phi0	cp	mult
    3     2     1    15     9
    3     2     1    16     9
    3     2     1    17     9
    6     2     1    15     9
    6     2     1    16     9
    6     2     1    17     9
    1     2     3     4     9
    1     2     3    18     9
    6     2     3    18     9
    1     2     6     5     9
    1     2     6     7     9
    3     2     6     5     9
    3     2     6     7     9
    4     3     2     6     9
    2     3     4     5     9
    5     4     3    18     9
    3     4     5     6     9
    3     4     5    12     9
    4     5     6     7     9
    4     5    12    10     9
    4     5    12    13     9
    6     5    12    10     9
    6     5    12    13     9
    2     6     5     4     9
    2     6     5    12     9
    7     6     5    12     9
    2     6     7     8     9
    2     6     7     9     9
    5     6     7     8     9
    5     6     7     9     9
    6     7     9    10     9
    6     7     9    14     9
    8     7     9    10     9
    8     7     9    14     9
    7     9    10    11     9
    7     9    10    12     9
    7     9    14    22     9
    7     9    14    23     9
    7     9    14    24     9
   10     9    14    22     9
   10     9    14    23     9
   10     9    14    24     9
   11    10     9    14     9
   12    10     9    14     9
    9    10    12    13     9
   11    10    12    13     9
    5    12    10     9     9
    5    12    10    11     9
    5    12    13    19     9
    5    12    13    20     9
    5    12    13    21     9
   10    12    13    19     9
   10    12    13    20     9
   10    12    13    21     9

[ dihedrals ]
; ai	aj	ak	al	funct	q0	cq
    7     6     9     8     2
   10     9    12    11     2
