Title
81321
    1CHL1    C3    1   1.972   1.077  10.085 -1.1793  0.2830  0.0962
    1CHL1    H3    2   1.895   1.140  10.035 -1.9565 -0.4367  0.3490
    1CHL1    O3    3   1.969   1.099  10.225 -0.2130 -0.3318 -0.5393
    1CHL1   H3'    4   1.979   1.015  10.268  2.6403  0.7941  1.2240
    1CHL1    C4    5   1.937   0.937  10.045 -0.2387  0.3519 -0.0428
    1CHL1   H4A    6   2.012   0.871  10.095 -1.0353 -0.2867  0.3367
    1CHL1   H4B    7   1.838   0.904  10.083 -0.0510 -1.2108 -0.8002
    1CHL1    C5    8   1.938   0.920   9.893 -0.0220 -0.5774 -0.7555
    1CHL1    C6    9   1.827   0.871   9.841  0.6390  0.4062  0.6782
    1CHL1    H6   10   1.738   0.838   9.897  0.4823 -0.7308 -0.2149
    1CHL1    C7   11   1.815   0.838   9.692 -0.2102 -0.5245  0.1969
    1CHL1   H7A   12   1.775   0.735   9.682 -1.0687 -0.1650 -0.1721
    1CHL1   H7B   13   1.743   0.910   9.647  1.2481  0.1885 -1.0802
    1CHL1    C8   14   1.951   0.841   9.616  0.6612  0.4858 -0.0143
    1CHL1    H8   15   2.019   0.756   9.634  2.1963  1.1719 -2.1072
    1CHL1   C14   16   1.921   0.846   9.464 -0.0514  1.0583 -0.4714
    1CHL1   H14   17   1.863   0.937   9.435  0.7092  1.7106 -0.0034
    1CHL1   C15   18   1.828   0.730   9.414  0.4726 -0.0457 -0.0897
    1CHL1  H15A   19   1.865   0.632   9.449 -0.2939  0.4955  2.5060
    1CHL1  H15B   20   1.724   0.742   9.453 -0.5520 -2.2672 -1.8904
    1CHL1   C16   21   1.843   0.749   9.261  0.8695  0.1203  0.6426
    1CHL1  H16A   22   1.847   0.653   9.204  0.2005  0.4529  0.0198
    1CHL1  H16B   23   1.759   0.806   9.215  0.7946  0.3699  1.0867
    1CHL1   C17   24   1.974   0.825   9.242 -0.0936 -0.7729 -0.1754
    1CHL1   H17   25   1.956   0.930   9.210  0.5939 -1.3810 -2.7857
    1CHL1   C13   26   2.052   0.836   9.382 -0.2283  0.7097  0.5424
    1CHL1   C18   27   2.129   0.703   9.410 -0.1248 -0.2826  0.4423
    1CHL1  H18A   28   2.156   0.699   9.518 -1.0668 -0.7915  0.6716
    1CHL1  H18B   29   2.059   0.620   9.386 -0.8628  0.1168  1.1712
    1CHL1  H18C   30   2.229   0.708   9.364 -0.4362  0.5415 -0.1723
    1CHL1   C12   31   2.129   0.967   9.414  0.3229  0.6501 -0.4074
    1CHL1  H12A   32   2.220   0.964   9.350 -0.7038  1.9894 -2.0198
    1CHL1  H12B   33   2.079   1.063   9.390 -1.7907  0.1264  1.6083
    1CHL1   C11   34   2.161   0.972   9.570 -0.7677 -0.0896  0.7865
    1CHL1  H11A   35   2.239   0.896   9.592 -0.2220  0.6044  1.2761
    1CHL1  H11B   36   2.191   1.075   9.599 -2.2108 -0.0064  2.1455
    1CHL1    C9   37   2.037   0.957   9.662 -0.2676  0.0677  0.7879
    1CHL1    H9   38   1.977   1.048   9.640 -0.1660 -0.1366 -0.3768
    1CHL1   C10   39   2.059   0.966   9.822  0.1152  0.1430  0.3767
    1CHL1   C19   40   2.173   0.872   9.852 -0.1134  0.2910  0.0338
    1CHL1  H19A   41   2.266   0.913   9.806 -0.2865  3.0822  1.9051
    1CHL1  H19B   42   2.202   0.887   9.958  1.3372  4.6226 -0.7464
    1CHL1  H19C   43   2.150   0.771   9.813 -1.1622  1.3322 -2.2144
    1CHL1    C1   44   2.096   1.103   9.866 -0.6510 -0.0596  0.1989
    1CHL1   H1A   45   2.190   1.127   9.813 -1.2481 -3.0389 -2.5367
    1CHL1   H1B   46   2.014   1.169   9.830 -1.3549 -1.8930 -1.7447
    1CHL1    C2   47   2.098   1.123  10.024 -0.6123 -0.0685  0.6537
    1CHL1   H2A   48   2.124   1.229  10.042  1.3846 -0.3025 -0.5530
    1CHL1   H2B   49   2.186   1.067  10.064 -0.0061  0.9305  0.7482
    1CHL1   C20   50   2.047   0.762   9.118 -0.2309 -0.3614  0.2261
    1CHL1   H20   51   2.064   0.656   9.145 -1.5349 -0.1625  2.0554
    1CHL1   C21   52   2.179   0.841   9.092 -0.5402  0.0316  0.0487
    1CHL1  H21A   53   2.241   0.791   9.014 -0.4128  0.7894 -0.3480
    1CHL1  H21B   54   2.241   0.847   9.184  0.1033 -1.3923 -0.2671
    1CHL1  H21C   55   2.170   0.947   9.059  3.4650  0.1027 -1.4055
    1CHL1   C22   56   1.963   0.762   8.988 -0.5208 -0.2623 -0.1346
    1CHL1  H22A   57   1.881   0.690   9.010 -0.3310 -0.8054 -1.1485
    1CHL1  H22B   58   1.909   0.859   8.976  1.4294  0.7267 -1.3431
    1CHL1   C23   59   2.043   0.729   8.858 -0.1001  0.2093  0.0701
    1CHL1  H23A   60   2.106   0.818   8.835  3.1843 -2.3515 -1.6377
    1CHL1  H23B   61   2.112   0.643   8.872  0.7755  1.0358  0.9768
    1CHL1   C24   62   1.961   0.704   8.734  0.9751  0.7678  0.2793
    1CHL1  H24A   63   1.867   0.658   8.772 -0.0173  1.8780 -0.7555
    1CHL1  H24B   64   1.921   0.796   8.686  1.1596  0.3723 -0.6331
    1CHL1   C25   65   2.038   0.629   8.625  0.0977 -0.9871  0.1399
    1CHL1   H25   66   2.090   0.542   8.670  3.2279  1.5130  1.8282
    1CHL1   C26   67   1.951   0.589   8.505 -0.2606  0.4556 -0.0811
    1CHL1  H26A   68   2.010   0.512   8.450  0.9141 -1.6380  3.7647
    1CHL1  H26B   69   1.860   0.533   8.535 -2.3283  3.0512 -1.1378
    1CHL1  H26C   70   1.916   0.669   8.437 -1.7290 -0.9735 -1.0869
    1CHL1   C27   71   2.152   0.706   8.564  0.5811  0.9066  0.0338
    1CHL1  H27A   72   2.214   0.632   8.509 -1.3815 -0.0698 -0.9739
    1CHL1  H27B   73   2.112   0.787   8.499  0.3544  0.2725 -0.6331
    1CHL1  H27C   74   2.214   0.759   8.639  1.3790 -1.2744  0.9964
    2CHL1    C3   75   3.086   3.208  10.147 -0.4526  0.2555 -0.8774
    2CHL1    H3   76   3.150   3.119  10.129  0.0252  0.7385 -1.6688
    2CHL1    O3   77   3.115   3.271  10.272  1.1176  1.3893 -0.6510
    2CHL1   H3'   78   3.048   3.337  10.290  0.7880  1.6046 -2.5191
    2CHL1    C4   79   3.126   3.319  10.045 -0.6292  0.2403  0.7810
    2CHL1   H4A   80   3.062   3.408  10.061  0.0315  1.3239 -2.0177
    2CHL1   H4B   81   3.231   3.344  10.070 -1.2574  2.0244  1.8337
    2CHL1    C5   82   3.104   3.280   9.901 -0.2206  0.5637  0.3398
    2CHL1    C6   83   3.197   3.271   9.802  0.3872 -0.0402  0.3010
    2CHL1    H6   84   3.302   3.288   9.831  0.7669 -1.8734  0.1025
    2CHL1    C7   85   3.163   3.234   9.664 -0.2431 -0.2618  0.4089
    2CHL1   H7A   86   3.210   3.307   9.594  0.3335  0.0526  1.1172
    2CHL1   H7B   87   3.201   3.132   9.639  1.4077  0.8840 -2.1768
    2CHL1    C8   88   3.010   3.228   9.622 -0.3720 -0.5932 -0.4367
    2CHL1    H8   89   2.974   3.333   9.619 -0.3978 -0.6129 -1.2687
    2CHL1   C14   90   2.983   3.162   9.490 -0.3332 -0.1736 -0.0989
    2CHL1   H14   91   3.023   3.059   9.494  0.4614  0.1349  0.0111
    2CHL1   C15   92   3.050   3.214   9.362 -0.1724 -0.4010  0.3830
    2CHL1  H15A   93   3.034   3.322   9.346  0.2518 -0.2913  0.6994
    2CHL1  H15B   94   3.159   3.195   9.356  0.1098  1.4511 -2.6543
    2CHL1   C16   95   2.983   3.144   9.238  0.2606 -0.3022  0.1169
    2CHL1  H16A   96   2.954   3.216   9.158  0.2804 -1.0162 -0.5450
    2CHL1  H16B   97   3.042   3.066   9.185 -2.3350 -2.7883  0.6156
    2CHL1   C17   98   2.862   3.074   9.306 -0.1834 -0.4125 -0.1732
    2CHL1   H17   99   2.894   2.969   9.324  2.1882 -0.2641 -2.7832
    2CHL1   C13  100   2.838   3.144   9.440 -0.9790  0.4847 -0.0787
    2CHL1   C18  101   2.770   3.278   9.419 -0.9088  0.1743  0.5373
    2CHL1  H18A  102   2.821   3.326   9.333 -0.2438 -0.8719  0.3352
    2CHL1  H18B  103   2.662   3.277   9.395 -0.7537 -1.7189 -0.2409
    2CHL1  H18C  104   2.784   3.340   9.510  0.9499  0.6531 -0.0313
    2CHL1   C12  105   2.772   3.063   9.555  0.2413 -0.7548 -0.4136
    2CHL1  H12A  106   2.666   3.034   9.538 -0.1014 -0.7150  1.4717
    2CHL1  H12B  107   2.838   2.975   9.569  2.3221  0.9007  0.9422
    2CHL1   C11  108   2.789   3.131   9.696 -0.7261  0.8898 -0.2979
    2CHL1  H11A  109   2.726   3.222   9.692 -0.1012  1.3355 -0.1952
    2CHL1  H11B  110   2.744   3.058   9.768  1.7481  1.4999  2.0403
    2CHL1    C9  111   2.931   3.164   9.737 -0.8148  0.2327 -0.2645
    2CHL1    H9  112   2.987   3.068   9.745 -0.5907  0.2674 -1.2918
    2CHL1   C10  113   2.952   3.239   9.877  0.6280  0.6618 -0.4576
    2CHL1   C19  114   2.854   3.361   9.875  0.4987 -0.4591  0.5972
    2CHL1  H19A  115   2.747   3.332   9.868 -0.1429  1.4809  1.5978
    2CHL1  H19B  116   2.854   3.417   9.971  0.6339 -1.1427  1.0041
    2CHL1  H19C  117   2.870   3.430   9.790  0.6985 -0.6303  0.4960
    2CHL1    C1  118   2.915   3.129   9.984  0.5367 -0.0080  0.3749
    2CHL1   H1A  119   2.808   3.100   9.979  0.8700 -1.1757 -0.8371
    2CHL1   H1B  120   2.962   3.031   9.959 -0.8860 -0.2567 -1.5077
    2CHL1    C2  121   2.943   3.163  10.131 -0.2708  0.7927  0.0832
    2CHL1   H2A  122   2.937   3.070  10.192  1.8326  0.0183 -0.7975
    2CHL1   H2B  123   2.875   3.242  10.170 -0.8997  0.3005 -0.0025
    2CHL1   C20  124   2.742   3.055   9.200  0.4724 -0.3961  0.1038
    2CHL1   H20  125   2.704   3.151   9.159 -1.6631 -1.2674 -0.0849
    2CHL1   C21  126   2.619   3.005   9.277 -0.1943 -0.4796 -0.2407
    2CHL1  H21A  127   2.584   3.078   9.354  1.7960 -0.9375  1.1735
    2CHL1  H21B  128   2.650   2.914   9.331 -1.2592 -0.5146  0.3328
    2CHL1  H21C  129   2.542   2.981   9.201  2.1495 -2.1886 -2.2515
    2CHL1   C22  130   2.795   2.971   9.080 -0.5101  0.2322  0.0116
    2CHL1  H22A  131   2.840   3.043   9.009 -0.4256 -2.0653 -2.4455
    2CHL1  H22B  132   2.878   2.905   9.114 -1.1935  0.7755  3.0041
    2CHL1   C23  133   2.689   2.888   9.003  0.4773 -0.1993 -0.1121
    2CHL1  H23A  134   2.655   2.816   9.081 -1.2415  0.2311 -0.4227
    2CHL1  H23B  135   2.608   2.950   8.961  0.3613  0.0677  0.5027
    2CHL1   C24  136   2.748   2.809   8.883 -0.0158 -0.3152  0.3034
    2CHL1  H24A  137   2.831   2.741   8.910  0.1272 -0.0778  0.4700
    2CHL1  H24B  138   2.669   2.755   8.828  2.6117 -1.8937 -2.1771
    2CHL1   C25  139   2.818   2.895   8.773 -0.2051 -0.4982  0.4741
    2CHL1   H25  140   2.881   2.965   8.832  0.1918 -1.6625  1.4879
    2CHL1   C26  141   2.911   2.810   8.688  0.7999 -0.1999  0.3226
    2CHL1  H26A  142   3.008   2.812   8.742  0.4529  0.9509  0.9372
    2CHL1  H26B  143   2.885   2.703   8.671 -0.3120 -0.0767  1.0786
    2CHL1  H26C  144   2.919   2.862   8.591 -1.6615 -0.5479 -0.1442
    2CHL1   C27  145   2.713   2.962   8.677  0.0306  0.2667  0.3132
    2CHL1  H27A  146   2.642   2.897   8.621 -1.7956  2.6274 -0.2712
    2CHL1  H27B  147   2.640   3.018   8.739 -3.4300 -1.7091 -1.6883
    2CHL1  H27C  148   2.775   3.022   8.607  1.3269 -1.7251 -0.3460
    3CHL1    C3  149   3.542   4.284  10.284  0.2909  1.0563  0.8055
    3CHL1    H3  150   3.621   4.341  10.230  1.7409 -0.9455  0.6975
    3CHL1    O3  151   3.562   4.295  10.420  0.3876  0.2020  0.3403
    3CHL1   H3'  152   3.492   4.241  10.456 -1.0465  2.1874  0.7417
    3CHL1    C4  153   3.405   4.335  10.235 -0.3715  0.7920  0.5359
    3CHL1   H4A  154   3.330   4.273  10.287  1.3010 -1.9477 -0.1204
    3CHL1   H4B  155   3.388   4.440  10.267  0.0402  0.8713  0.4985
    3CHL1    C5  156   3.380   4.312  10.089  0.4657 -0.2825 -0.0118
    3CHL1    C6  157   3.345   4.414  10.013  0.2742 -1.1618 -0.7661
    3CHL1    H6  158   3.327   4.510  10.064  1.2360 -1.6999  0.6588
    3CHL1    C7  159   3.328   4.410   9.863  0.6444  0.1259 -0.2091
    3CHL1   H7A  160   3.236   4.467   9.839  1.0746  1.3806  0.9719
    3CHL1   H7B  161   3.409   4.467   9.813  0.4509  1.7208  1.2146
    3CHL1    C8  162   3.332   4.262   9.808 -0.7596  0.1738 -0.0455
    3CHL1    H8  163   3.231   4.221   9.829 -0.0816 -0.9823  1.1450
    3CHL1   C14  164   3.355   4.266   9.654  0.9730 -0.3679 -0.4152
    3CHL1   H14  165   3.452   4.317   9.635  1.9618 -2.3410 -0.9406
    3CHL1   C15  166   3.264   4.351   9.563 -0.2063 -1.1142 -0.8699
    3CHL1  H15A  167   3.157   4.341   9.589 -0.0040 -1.6610 -0.2300
    3CHL1  H15B  168   3.296   4.457   9.563 -1.0792 -0.8393 -0.3906
    3CHL1   C16  169   3.275   4.293   9.425 -0.4944  0.4667 -0.3253
    3CHL1  H16A  170   3.175   4.261   9.390 -0.2235  0.3739 -1.0444
    3CHL1  H16B  171   3.313   4.354   9.340 -0.1609 -1.2068 -1.4239
    3CHL1   C17  172   3.378   4.181   9.435 -0.6157 -0.1517 -0.0445
    3CHL1   H17  173   3.474   4.235   9.422 -0.8111 -0.2838 -2.7285
    3CHL1   C13  174   3.363   4.134   9.576  0.4936 -0.0119 -0.2210
    3CHL1   C18  175   3.232   4.041   9.601 -0.7977 -0.6602  0.2715
    3CHL1  H18A  176   3.233   3.948   9.541  1.1464 -1.3412  1.2758
    3CHL1  H18B  177   3.224   4.016   9.709  3.6657  0.0428  0.9579
    3CHL1  H18C  178   3.141   4.092   9.563 -0.0570  0.9770  0.6071
    3CHL1   C12  179   3.486   4.072   9.650  0.6469 -0.0779 -0.6427
    3CHL1  H12A  180   3.515   3.971   9.614 -1.2086 -0.7743 -0.2810
    3CHL1  H12B  181   3.572   4.140   9.630 -0.9053  1.5646 -1.9622
    3CHL1   C11  182   3.473   4.054   9.806 -0.1731  0.3528 -0.8862
    3CHL1  H11A  183   3.389   3.981   9.813  2.5125 -3.1203 -1.7106
    3CHL1  H11B  184   3.567   4.006   9.841 -0.9940 -0.8767 -0.2795
    3CHL1    C9  185   3.446   4.187   9.881 -0.4011 -1.1243  0.5508
    3CHL1    H9  186   3.535   4.249   9.856 -0.5056 -1.2088 -0.0499
    3CHL1   C10  187   3.429   4.179  10.029  1.2695 -0.1211 -0.1715
    3CHL1   C19  188   3.325   4.070  10.063 -0.9354  0.5284 -0.1575
    3CHL1  H19A  189   3.294   4.080  10.169  1.2102  1.2641  0.4518
    3CHL1  H19B  190   3.230   4.084  10.007 -0.3530  0.5349 -1.1755
    3CHL1  H19C  191   3.374   3.970  10.058  0.8042  1.3132  0.4883
    3CHL1    C1  192   3.560   4.134  10.088 -0.4148  0.6089 -0.6886
    3CHL1   H1A  193   3.581   4.027  10.069  3.4931  1.1589 -0.2233
    3CHL1   H1B  194   3.649   4.189  10.051 -0.0777 -1.0426 -2.5084
    3CHL1    C2  195   3.567   4.137  10.239 -0.0974 -0.2231 -0.2616
    3CHL1   H2A  196   3.664   4.100  10.279 -1.0008  1.0957  3.7170
    3CHL1   H2B  197   3.488   4.077  10.288 -0.2130  1.2966  1.5385
    3CHL1   C20  198   3.368   4.079   9.325 -0.1967  0.2515  0.1321
    3CHL1   H20  199   3.289   4.002   9.340  0.2975 -0.3457 -0.2969
    3CHL1   C21  200   3.500   4.004   9.322 -0.1550 -0.1564  0.6645
    3CHL1  H21A  201   3.528   3.954   9.417 -0.5744  1.9620  1.9489
    3CHL1  H21B  202   3.587   4.066   9.293 -0.9291  0.7258  0.1872
    3CHL1  H21C  203   3.495   3.922   9.247 -0.5417 -1.9737  2.5845
    3CHL1   C22  204   3.335   4.150   9.189  0.2521  0.2027  0.1251
    3CHL1  H22A  205   3.238   4.203   9.192  0.7362  1.2429 -1.2807
    3CHL1  H22B  206   3.415   4.216   9.149  1.3717 -1.3679 -0.3906
    3CHL1   C23  207   3.320   4.042   9.076 -0.2811  0.7059  0.1144
    3CHL1  H23A  208   3.411   3.982   9.053  0.0561  0.9180  0.8509
    3CHL1  H23B  209   3.249   3.970   9.122  3.5743 -2.2796  1.9981
    3CHL1   C24  210   3.283   4.109   8.947 -0.5112  0.0823  0.2433
    3CHL1  H24A  211   3.189   4.166   8.964  0.5033  2.0654 -0.4763
    3CHL1  H24B  212   3.368   4.178   8.926 -0.4818 -0.6420 -2.3871
    3CHL1   C25  213   3.275   4.008   8.827 -0.7385 -0.1017  0.8081
    3CHL1   H25  214   3.316   3.912   8.866 -0.1208 -0.3208 -0.3343
    3CHL1   C26  215   3.136   3.985   8.773  0.5552 -0.2439 -0.0980
    3CHL1  H26A  216   3.100   4.081   8.731 -0.6381 -0.5156  0.2759
    3CHL1  H26B  217   3.130   3.905   8.696  1.7955  1.0277 -1.6017
    3CHL1  H26C  218   3.069   3.954   8.856  0.6525 -0.3494 -0.0588
    3CHL1   C27  219   3.367   4.057   8.711  0.0743  0.1320  0.1199
    3CHL1  H27A  220   3.458   4.117   8.734  0.9379  0.3285 -3.2310
    3CHL1  H27B  221   3.406   3.970   8.654 -0.5890 -1.2070  1.6406
    3CHL1  H27C  222   3.306   4.119   8.642 -0.3840 -1.3871 -0.8944
    4CHL1    C3  223   3.317   0.269  10.673  0.2815  0.4818  0.3578
    4CHL1    H3  224   3.211   0.261  10.640  0.5552 -0.6558 -0.3350
    4CHL1    O3  225   3.331   0.304  10.811 -0.1015  0.4920  0.5574
    4CHL1   H3'  226   3.242   0.320  10.843 -1.1089  0.1329 -1.8425
    4CHL1    C4  227   3.384   0.133  10.643 -0.0604  0.3300 -0.2117
    4CHL1   H4A  228   3.477   0.135  10.704  0.7394  0.4213 -1.4025
    4CHL1   H4B  229   3.330   0.048  10.690  1.2641 -0.1468  0.4953
    4CHL1    C5  230   3.406   0.102  10.497 -0.2191  0.7329 -0.2244
    4CHL1    C6  231   3.375  -0.017  10.443  0.2998 -0.3298 -0.6025
    4CHL1    H6  232   3.333  -0.083  10.521  0.0038  0.4073 -0.1290
    4CHL1    C7  233   3.374  -0.060  10.301 -0.6856  0.8111  0.1604
    4CHL1   H7A  234   3.446  -0.143  10.284 -1.1417  0.5358 -0.4636
    4CHL1   H7B  235   3.271  -0.094  10.276 -0.7650  0.2993  1.0990
    4CHL1    C8  236   3.431   0.049  10.208 -0.4118  0.3665 -0.2568
    4CHL1    H8  237   3.541   0.037  10.215 -0.4348 -0.9955 -1.6858
    4CHL1   C14  238   3.378   0.030  10.064 -0.1233  0.5421  0.1601
    4CHL1   H14  239   3.272   0.063  10.067  0.4944  3.1478 -2.2833
    4CHL1   C15  240   3.385  -0.109   9.998 -0.3750  0.9359 -0.0400
    4CHL1  H15A  241   3.477  -0.164  10.026 -2.7898 -3.1328  0.7849
    4CHL1  H15B  242   3.303  -0.174  10.035  1.7808 -1.2450  1.1580
    4CHL1   C16  243   3.378  -0.076   9.849 -0.3827 -0.6953 -0.3302
    4CHL1  H16A  244   3.459  -0.120   9.788 -0.1499  0.7155 -1.0790
    4CHL1  H16B  245   3.286  -0.126   9.812 -1.7664  0.8281  0.8554
    4CHL1   C17  246   3.368   0.077   9.839 -0.7250 -0.3829  0.3494
    4CHL1   H17  247   3.264   0.114   9.845 -0.0652  1.6075  0.2030
    4CHL1   C13  248   3.442   0.125   9.968 -0.0042  0.1769 -1.0933
    4CHL1   C18  249   3.593   0.107   9.947  0.0462  0.0759  0.1389
    4CHL1  H18A  250   3.639   0.008   9.926 -2.5105 -1.1103 -0.3664
    4CHL1  H18B  251   3.632   0.171   9.865  0.8911  1.5559  1.6397
    4CHL1  H18C  252   3.641   0.139  10.042 -2.0040 -3.9147  2.8366
    4CHL1   C12  253   3.420   0.271  10.009  0.7537  0.0403 -0.1250
    4CHL1  H12A  254   3.473   0.345   9.946 -2.2464  4.8626  2.4027
    4CHL1  H12B  255   3.314   0.296   9.986  0.6180 -0.1043  0.3298
    4CHL1   C11  256   3.456   0.294  10.158  0.4488  0.1534 -0.4130
    4CHL1  H11A  257   3.566   0.302  10.154  0.6959 -0.8245  2.2491
    4CHL1  H11B  258   3.412   0.395  10.172 -0.9183 -0.1466 -2.1740
    4CHL1    C9  259   3.401   0.192  10.259  0.3773  0.9983  0.1823
    4CHL1    H9  260   3.292   0.209  10.243  0.2168 -0.6128 -0.6116
    4CHL1   C10  261   3.441   0.220  10.410  0.1075 -0.3942 -0.1991
    4CHL1   C19  262   3.597   0.236  10.414 -0.4447 -0.2488 -0.1631
    4CHL1  H19A  263   3.649   0.154  10.360  0.4332 -0.8478  1.5195
    4CHL1  H19B  264   3.623   0.337  10.374 -3.2937  0.5100 -0.3189
    4CHL1  H19C  265   3.623   0.231  10.522 -2.1897 -3.3327  0.2235
    4CHL1    C1  266   3.373   0.361  10.448  0.6800 -0.5726  0.0490
    4CHL1   H1A  267   3.407   0.452  10.393 -2.2136  0.9317  0.5762
    4CHL1   H1B  268   3.267   0.360  10.414  0.2276  0.1313  1.3868
    4CHL1    C2  269   3.387   0.391  10.595  0.9255  0.3382  0.0581
    4CHL1   H2A  270   3.318   0.476  10.614  1.5967  1.1908 -1.2201
    4CHL1   H2B  271   3.490   0.412  10.631  0.8466 -0.1801  0.6069
    4CHL1   C20  272   3.422   0.114   9.696  0.3952  0.5547 -0.0551
    4CHL1   H20  273   3.527   0.079   9.683  1.1889  2.6411  0.3079
    4CHL1   C21  274   3.429   0.266   9.670  0.9642 -0.1084  0.2788
    4CHL1  H21A  275   3.457   0.295   9.567 -0.2493  1.0958  0.2592
    4CHL1  H21B  276   3.496   0.329   9.731  1.3500 -1.6180  1.4795
    4CHL1  H21C  277   3.329   0.312   9.687  0.6312 -0.6048 -0.3002
    4CHL1   C22  278   3.339   0.042   9.577  0.4511 -0.1743 -0.2879
    4CHL1  H22A  279   3.380   0.087   9.484  1.4003  1.4455  0.8706
    4CHL1  H22B  280   3.369  -0.064   9.564 -1.1710 -0.9670  1.8793
    4CHL1   C23  281   3.182   0.061   9.577 -0.0644 -0.3953 -0.6126
    4CHL1  H23A  282   3.158   0.024   9.679  2.8902 -0.0997  0.2963
    4CHL1  H23B  283   3.154   0.168   9.565  0.4464  0.3042  3.2625
    4CHL1   C24  284   3.111  -0.029   9.474 -0.5112 -0.5571  0.0847
    4CHL1  H24A  285   3.143   0.020   9.380  1.7870 -0.2860  0.9362
    4CHL1  H24B  286   3.148  -0.133   9.472 -1.4610 -0.8952 -0.6626
    4CHL1   C25  287   2.959  -0.018   9.494  0.0956  0.4876 -0.3063
    4CHL1   H25  288   2.939  -0.041   9.601  1.2840 -0.7946 -0.3423
    4CHL1   C26  289   2.895   0.123   9.477  0.0726  0.0501  0.1921
    4CHL1  H26A  290   2.788   0.143   9.498 -0.8924 -2.2961 -1.9504
    4CHL1  H26B  291   2.950   0.182   9.553  0.4778 -0.1184  0.0373
    4CHL1  H26C  292   2.913   0.151   9.371  0.5901  0.7168  0.4504
    4CHL1   C27  293   2.887  -0.114   9.402  0.2174  0.6841 -0.2623
    4CHL1  H27A  294   2.872  -0.069   9.302 -0.1716  1.8789  0.3168
    4CHL1  H27B  295   2.943  -0.209   9.392 -0.4536  0.5169 -3.3792
    4CHL1  H27C  296   2.789  -0.139   9.447  0.7896 -1.2742 -0.0252
    5CHL1    C3  297   4.060   3.994  10.129  0.3158  0.1149 -0.7970
    5CHL1    H3  298   4.034   3.889  10.152  0.1204  0.2179 -0.5515
    5CHL1    O3  299   4.087   4.074  10.245 -0.1167  0.3093  0.1402
    5CHL1   H3'  300   4.094   4.163  10.208  1.4325  0.2763  0.2950
    5CHL1    C4  301   4.180   4.009  10.033 -0.6056 -0.2798 -0.1796
    5CHL1   H4A  302   4.208   4.116  10.023 -0.6815  0.1337  3.0500
    5CHL1   H4B  303   4.266   3.955  10.079  0.9263  1.4715 -0.8549
    5CHL1    C5  304   4.143   3.952   9.899  0.4695  0.5275  0.1480
    5CHL1    C6  305   4.218   3.855   9.842 -0.3749  0.1435 -0.3643
    5CHL1    H6  306   4.302   3.808   9.896 -0.6291 -0.4474 -0.4720
    5CHL1    C7  307   4.195   3.805   9.700 -0.2749  0.3619  0.4360
    5CHL1   H7A  308   4.299   3.790   9.664 -0.5836  0.6253 -0.6095
    5CHL1   H7B  309   4.132   3.713   9.701 -0.1273  0.2631  1.3512
    5CHL1    C8  310   4.114   3.903   9.626 -0.7963 -0.3549  0.2859
    5CHL1    H8  311   4.174   3.995   9.608 -2.8201  0.8901 -0.5026
    5CHL1   C14  312   4.082   3.835   9.494  0.1849 -0.3776  0.9879
    5CHL1   H14  313   4.010   3.752   9.509 -0.5035 -0.6343 -2.7825
    5CHL1   C15  314   4.201   3.778   9.408 -0.5261 -0.8115 -0.5499
    5CHL1  H15A  315   4.284   3.852   9.415 -2.3865  1.2458  1.3857
    5CHL1  H15B  316   4.236   3.681   9.449 -1.6665 -1.2288 -0.5167
    5CHL1   C16  317   4.143   3.756   9.267 -0.0712  0.4895  0.0683
    5CHL1  H16A  318   4.202   3.800   9.185  0.5647  1.0431  0.8127
    5CHL1  H16B  319   4.130   3.647   9.248  0.0458  0.1957  1.5299
    5CHL1   C17  320   3.990   3.813   9.277  0.2381 -0.1053  1.2533
    5CHL1   H17  321   3.936   3.729   9.325  1.1279 -0.5823  1.4459
    5CHL1   C13  322   3.996   3.914   9.398  0.3773  0.3650  0.2494
    5CHL1   C18  323   4.067   4.042   9.339 -0.2133 -0.1614 -0.1020
    5CHL1  H18A  324   4.167   4.010   9.304 -0.1289 -2.2683  1.8015
    5CHL1  H18B  325   4.003   4.087   9.260  0.5654 -0.3726 -0.8706
    5CHL1  H18C  326   4.080   4.114   9.423 -0.2144 -0.4736  0.1691
    5CHL1   C12  327   3.868   3.957   9.463  0.0899  0.1752 -0.4479
    5CHL1  H12A  328   3.810   4.023   9.394 -2.6060 -1.8543 -0.2938
    5CHL1  H12B  329   3.795   3.880   9.496 -0.2758  0.2735 -1.0089
    5CHL1   C11  330   3.893   4.028   9.598 -0.7217  0.6106 -0.3836
    5CHL1  H11A  331   3.942   4.126   9.582  0.5462 -0.0665 -0.8530
    5CHL1  H11B  332   3.793   4.039   9.644 -1.1342  0.1330 -1.1574
    5CHL1    C9  333   3.985   3.948   9.693 -0.3788  0.4354 -1.1939
    5CHL1    H9  334   3.933   3.851   9.713  1.0757 -0.2332 -0.5542
    5CHL1   C10  335   4.015   4.013   9.828 -0.0755 -0.4468  0.5854
    5CHL1   C19  336   4.041   4.163   9.810 -0.8764 -0.0397  0.1814
    5CHL1  H19A  337   4.114   4.178   9.727  0.0695  1.4674  1.2191
    5CHL1  H19B  338   3.952   4.220   9.776  0.2509  1.0853 -0.9859
    5CHL1  H19C  339   4.082   4.215   9.900  0.7200 -2.4998  0.9689
    5CHL1    C1  340   3.903   3.984   9.928  0.1526 -0.1576  0.2500
    5CHL1   H1A  341   3.820   4.033   9.871  1.6558  1.3487 -0.7466
    5CHL1   H1B  342   3.868   3.879   9.939 -0.9707  0.1208 -0.4982
    5CHL1    C2  343   3.927   4.055  10.064 -0.5598  0.5701 -1.0399
    5CHL1   H2A  344   3.852   4.029  10.141 -0.1992 -2.3009 -1.5205
    5CHL1   H2B  345   3.942   4.165  10.058  1.4418  0.3416 -1.0546
    5CHL1   C20  346   3.937   3.846   9.137  0.0124  0.2678 -0.7761
    5CHL1   H20  347   3.972   3.949   9.113  4.2462  0.4793  4.3213
    5CHL1   C21  348   3.781   3.831   9.158 -0.6667  0.5734  0.8148
    5CHL1  H21A  349   3.729   3.889   9.237 -1.7543 -2.2322  2.2793
    5CHL1  H21B  350   3.755   3.726   9.185 -1.1565 -0.1896 -2.1804
    5CHL1  H21C  351   3.734   3.856   9.060  1.5756  0.5931 -0.3359
    5CHL1   C22  352   3.992   3.759   9.022  0.4459  0.2194  0.7323
    5CHL1  H22A  353   4.100   3.782   9.008  0.2349  0.6081 -0.3014
    5CHL1  H22B  354   3.972   3.651   9.037  0.0930  0.0322 -0.9239
    5CHL1   C23  355   3.920   3.785   8.881 -0.2036 -0.3795  0.7182
    5CHL1  H23A  356   3.818   3.742   8.898 -1.0013  1.0439 -0.2691
    5CHL1  H23B  357   3.913   3.895   8.877  3.1442 -0.1118  0.0478
    5CHL1   C24  358   3.980   3.706   8.769  0.2028  0.1212  0.1822
    5CHL1  H24A  359   4.087   3.730   8.753  0.5609  0.1891  2.4410
    5CHL1  H24B  360   3.986   3.599   8.797 -0.5587  0.4133  1.5834
    5CHL1   C25  361   3.908   3.724   8.633  0.7585 -0.2671  0.3743
    5CHL1   H25  362   3.803   3.699   8.658 -0.5391  2.4014 -1.7384
    5CHL1   C26  363   3.915   3.866   8.575 -0.2039 -0.2479  0.0465
    5CHL1  H26A  364   3.871   3.936   8.649  0.0417 -0.3518  0.2920
    5CHL1  H26B  365   4.018   3.900   8.552 -0.0533  0.5654  1.8035
    5CHL1  H26C  366   3.857   3.872   8.480 -0.5705 -2.8407  0.0464
    5CHL1   C27  367   3.965   3.630   8.538  0.2720 -0.3996 -0.3307
    5CHL1  H27A  368   3.981   3.525   8.571  0.0421 -0.3268  0.0081
    5CHL1  H27B  369   3.900   3.615   8.449 -0.7041 -3.0356  0.7202
    5CHL1  H27C  370   4.066   3.661   8.503  0.5370 -0.9114 -0.0316
    6CHL1    C3  371   2.849   1.350  10.384  0.1314 -0.1937  0.3192
    6CHL1    H3  372   2.757   1.295  10.356 -0.1333  0.1812  0.4429
    6CHL1    O3  373   2.853   1.411  10.518  0.0988 -0.3837  0.7844
    6CHL1   H3'  374   2.780   1.379  10.571 -1.0768  1.7617  0.5506
    6CHL1    C4  375   2.972   1.252  10.356  0.4614  0.2609  0.0562
    6CHL1   H4A  376   3.067   1.301  10.387  0.8417 -1.5647  2.0244
    6CHL1   H4B  377   2.965   1.180  10.441  0.2745 -0.1095 -0.2717
    6CHL1    C5  378   2.969   1.193  10.210 -0.4524  0.3252  0.0821
    6CHL1    C6  379   2.949   1.061  10.183  0.4377  0.3130  0.3243
    6CHL1    H6  380   2.931   0.995  10.270  1.3345 -0.6101 -0.1719
    6CHL1    C7  381   2.935   1.002  10.043 -0.1886  1.2216  0.4005
    6CHL1   H7A  382   2.988   0.905  10.032  0.1478  1.4456  0.0312
    6CHL1   H7B  383   2.827   0.989  10.021  0.1884  0.7898 -1.3745
    6CHL1    C8  384   3.001   1.100   9.936  0.7301  0.6941 -0.3510
    6CHL1    H8  385   3.112   1.091   9.935  0.8028  1.3177 -2.9754
    6CHL1   C14  386   2.960   1.048   9.795  0.1063 -0.2363 -0.8111
    6CHL1   H14  387   2.852   1.075   9.789  0.1770  0.4123  0.4411
    6CHL1   C15  388   2.973   0.897   9.746  0.5143  0.1028  1.0369
    6CHL1  H15A  389   3.062   0.844   9.786  1.3887 -0.2228 -1.1934
    6CHL1  H15B  390   2.883   0.845   9.785 -0.3714  0.4377 -0.4988
    6CHL1   C16  391   2.995   0.907   9.595 -1.0596  0.3612 -0.2803
    6CHL1  H16A  392   3.098   0.870   9.571 -2.0763 -1.5780 -1.9586
    6CHL1  H16B  393   2.923   0.851   9.532  1.8603 -0.5767 -3.0698
    6CHL1   C17  394   2.977   1.053   9.550 -0.5402  0.3678  0.2492
    6CHL1   H17  395   2.869   1.072   9.535 -0.7053 -0.8166 -0.1972
    6CHL1   C13  396   3.020   1.128   9.680 -0.0791  0.3741 -0.4023
    6CHL1   C18  397   3.174   1.130   9.687  0.1301  0.1091  0.0973
    6CHL1  H18A  398   3.220   1.029   9.687  0.8590  0.4376  0.5737
    6CHL1  H18B  399   3.220   1.192   9.608  0.0464 -0.2443 -0.2296
    6CHL1  H18C  400   3.204   1.170   9.786 -1.7443 -1.7620  1.5292
    6CHL1   C12  401   2.968   1.266   9.701  0.4001  0.0219  1.0235
    6CHL1  H12A  402   3.028   1.330   9.633  0.8693 -0.8829  0.5719
    6CHL1  H12B  403   2.861   1.276   9.672  0.5874  1.4729  0.7140
    6CHL1   C11  404   2.987   1.333   9.834  0.1957 -0.7152  0.0881
    6CHL1  H11A  405   3.095   1.362   9.831 -0.5538  2.4503  0.6640
    6CHL1  H11B  406   2.929   1.427   9.840 -0.5350 -1.2471  2.1052
    6CHL1    C9  407   2.949   1.239   9.959 -0.0200 -0.4333  0.7729
    6CHL1    H9  408   2.838   1.242   9.956  0.0167  1.4406 -0.7817
    6CHL1   C10  409   2.976   1.296  10.101 -0.2235 -0.8857 -0.2382
    6CHL1   C19  410   3.121   1.355  10.103 -0.4793  0.1390 -0.4418
    6CHL1  H19A  411   3.138   1.430  10.023 -0.8105 -1.7500 -2.3482
    6CHL1  H19B  412   3.136   1.410  10.198 -1.6206 -0.8997  0.3768
    6CHL1  H19C  413   3.197   1.275  10.093  0.6026  0.7145  2.2552
    6CHL1    C1  414   2.872   1.408  10.135 -0.0956 -0.7486  0.6381
    6CHL1   H1A  415   2.896   1.491  10.065 -0.4210 -1.6798 -0.6196
    6CHL1   H1B  416   2.772   1.364  10.114 -0.0188 -1.3013  1.3835
    6CHL1    C2  417   2.869   1.465  10.282  0.5932 -0.1599  0.3420
    6CHL1   H2A  418   2.788   1.541  10.289  0.7078 -0.0328  0.3098
    6CHL1   H2B  419   2.969   1.508  10.302  2.0857 -2.5864 -1.3597
    6CHL1   C20  420   3.051   1.089   9.421  0.4597  0.2884 -0.2474
    6CHL1   H20  421   3.161   1.076   9.423  0.5566  0.3768 -2.5105
    6CHL1   C21  422   3.031   1.237   9.391 -0.3008 -0.3921  0.1997
    6CHL1  H21A  423   3.036   1.257   9.282 -1.5002  1.6251  0.4660
    6CHL1  H21B  424   3.105   1.308   9.434  1.3450 -0.7618 -1.8519
    6CHL1  H21C  425   2.932   1.283   9.411 -0.0299  0.5423 -0.5601
    6CHL1   C22  426   2.992   1.006   9.297 -0.1410  0.3392 -0.0308
    6CHL1  H22A  427   2.970   0.898   9.316  0.9204 -0.2654 -2.0114
    6CHL1  H22B  428   2.900   1.057   9.262 -0.6309  0.3854  1.2598
    6CHL1   C23  429   3.097   1.016   9.181 -0.2574  0.1720 -0.1440
    6CHL1  H23A  430   3.115   1.123   9.161 -1.1460  0.6070  1.2515
    6CHL1  H23B  431   3.193   0.974   9.219 -0.2835 -0.4626 -0.7443
    6CHL1   C24  432   3.065   0.933   9.058 -0.0018  0.4825 -0.1891
    6CHL1  H24A  433   3.059   0.828   9.092  1.7572  0.7550  1.1178
    6CHL1  H24B  434   2.967   0.966   9.015 -0.7548 -0.8133  0.4934
    6CHL1   C25  435   3.161   0.922   8.940  0.1892  0.3876  0.4595
    6CHL1   H25  436   3.263   0.904   8.980  1.1569  2.8719 -0.6834
    6CHL1   C26  437   3.131   0.806   8.838  0.8785 -0.7498 -0.1805
    6CHL1  H26A  438   3.195   0.814   8.747  0.3127  0.7546 -0.4744
    6CHL1  H26B  439   3.160   0.712   8.891  1.0202 -0.2358  0.6706
    6CHL1  H26C  440   3.025   0.819   8.810  1.1885  0.1553 -1.0035
    6CHL1   C27  441   3.160   1.053   8.857  0.0016  0.4670 -0.1668
    6CHL1  H27A  442   3.227   1.126   8.907 -1.2327  0.6287  1.3351
    6CHL1  H27B  443   3.208   1.046   8.758  0.6043 -2.7952  0.2416
    6CHL1  H27C  444   3.054   1.085   8.857 -0.2596 -0.3631  0.0499
    7CHL1    C3  445   5.322   4.701  10.401  0.5158 -0.1535  0.1514
    7CHL1    H3  446   5.214   4.675  10.400  0.9567 -2.1397 -0.2113
    7CHL1    O3  447   5.375   4.729  10.531  0.5734 -0.0024 -0.5229
    7CHL1   H3'  448   5.469   4.738  10.513  0.8813 -0.0093  0.9598
    7CHL1    C4  449   5.401   4.590  10.335  0.1761  0.0639  0.0890
    7CHL1   H4A  450   5.507   4.618  10.350  0.1427  1.2801 -1.6226
    7CHL1   H4B  451   5.384   4.504  10.403 -0.2135  0.3506  0.3628
    7CHL1    C5  452   5.373   4.559  10.191 -0.3069 -0.0631 -0.3839
    7CHL1    C6  453   5.320   4.447  10.153  0.0412  0.2753 -0.3663
    7CHL1    H6  454   5.297   4.376  10.234 -1.4013  2.3206  1.1409
    7CHL1    C7  455   5.290   4.403  10.012 -0.4611 -0.4523 -0.0491
    7CHL1   H7A  456   5.324   4.297  10.004 -0.8661 -0.6488  0.7275
    7CHL1   H7B  457   5.180   4.405   9.998 -0.5791  0.7919  0.8986
    7CHL1    C8  458   5.347   4.511   9.911  0.4052  0.1724 -0.3967
    7CHL1    H8  459   5.455   4.485   9.902  0.5898  1.1208 -0.9545
    7CHL1   C14  460   5.275   4.500   9.774 -0.0339 -0.4263  0.5763
    7CHL1   H14  461   5.171   4.536   9.789  1.0912  3.0771  0.7183
    7CHL1   C15  462   5.264   4.360   9.695  0.0232  0.6345  0.2087
    7CHL1  H15A  463   5.356   4.302   9.721  0.3022  0.7410 -0.5188
    7CHL1  H15B  464   5.181   4.296   9.731  0.9549 -0.6927  0.0895
    7CHL1   C16  465   5.239   4.391   9.550 -0.3581 -1.2125 -0.1708
    7CHL1  H16A  466   5.314   4.334   9.492  3.0016  1.7154  0.8965
    7CHL1  H16B  467   5.137   4.369   9.512 -0.4418  2.4432 -2.6401
    7CHL1   C17  468   5.265   4.550   9.536  0.0782  0.0985  0.1928
    7CHL1   H17  469   5.164   4.597   9.532 -0.0322 -0.1839 -0.8024
    7CHL1   C13  470   5.339   4.589   9.668  0.6028 -0.0186  0.6141
    7CHL1   C18  471   5.489   4.569   9.645 -0.3713 -0.7878 -0.6325
    7CHL1  H18A  472   5.545   4.601   9.735 -1.8163  0.4644 -0.1290
    7CHL1  H18B  473   5.507   4.461   9.629  0.9096 -0.7715  0.5196
    7CHL1  H18C  474   5.525   4.622   9.555 -0.1807 -0.5451 -0.4165
    7CHL1   C12  475   5.307   4.734   9.709 -0.6618 -0.2614  0.1280
    7CHL1  H12A  476   5.349   4.803   9.633  3.1968 -2.5014 -0.0065
    7CHL1  H12B  477   5.198   4.752   9.699 -0.6817 -0.9432 -0.9786
    7CHL1   C11  478   5.355   4.767   9.853 -0.1140  1.1896 -0.1844
    7CHL1  H11A  479   5.465   4.773   9.845 -0.2361  1.4780 -1.8935
    7CHL1  H11B  480   5.305   4.861   9.886 -1.6227  0.0257  1.0151
    7CHL1    C9  481   5.314   4.651   9.959 -0.4810 -0.2001 -0.5153
    7CHL1    H9  482   5.205   4.660   9.973 -0.2698 -0.5251  1.7171
    7CHL1   C10  483   5.380   4.672  10.096  0.1634  0.0716  0.5902
    7CHL1   C19  484   5.531   4.686  10.081  0.2271 -0.5154 -0.1084
    7CHL1  H19A  485   5.580   4.597  10.034  0.1716 -0.2283 -0.7236
    7CHL1  H19B  486   5.555   4.781  10.030 -1.5945 -0.2179 -0.4814
    7CHL1  H19C  487   5.589   4.703  10.174  0.4890  1.6229 -0.6203
    7CHL1    C1  488   5.313   4.798  10.165 -0.5524 -0.9262  0.2963
    7CHL1   H1A  489   5.350   4.883  10.105  0.4466 -1.0999  0.6477
    7CHL1   H1B  490   5.205   4.780  10.144 -0.7303  2.6156 -2.7061
    7CHL1    C2  491   5.338   4.822  10.314  0.1256 -0.2165 -0.6359
    7CHL1   H2A  492   5.264   4.898  10.347  0.2933  0.3758 -1.5893
    7CHL1   H2B  493   5.439   4.865  10.327  1.2841 -1.6270 -3.8922
    7CHL1   C20  494   5.319   4.589   9.397 -0.0536  1.0332  0.1006
    7CHL1   H20  495   5.418   4.539   9.395 -0.6584 -0.2154  0.3567
    7CHL1   C21  496   5.344   4.735   9.371 -0.5287 -0.5055  0.3375
    7CHL1  H21A  497   5.417   4.772   9.446  0.9820  1.2098 -1.8572
    7CHL1  H21B  498   5.248   4.791   9.381 -0.0400  0.9091 -2.0971
    7CHL1  H21C  499   5.390   4.763   9.274 -0.6901  2.5264  1.0180
    7CHL1   C22  500   5.234   4.524   9.275  0.2488 -0.6814  0.5602
    7CHL1  H22A  501   5.205   4.417   9.282  0.5983 -0.8803 -0.7485
    7CHL1  H22B  502   5.140   4.583   9.261  0.3070 -0.7280 -0.0448
    7CHL1   C23  503   5.317   4.530   9.140  0.0006 -0.3480 -0.0963
    7CHL1  H23A  504   5.341   4.634   9.110 -3.2443  0.0668 -1.6818
    7CHL1  H23B  505   5.406   4.464   9.144  0.2545  0.0129  0.3338
    7CHL1   C24  506   5.235   4.482   9.018  0.8270 -0.1151  0.1727
    7CHL1  H24A  507   5.203   4.376   9.025  1.2101 -0.2934 -0.6316
    7CHL1  H24B  508   5.149   4.551   9.011  0.6160 -0.2958  0.8468
    7CHL1   C25  509   5.321   4.489   8.886 -0.0906  0.1892  0.2509
    7CHL1   H25  510   5.420   4.441   8.907 -0.9580 -0.9308  2.0368
    7CHL1   C26  511   5.251   4.421   8.773  0.5028 -0.3138  0.0587
    7CHL1  H26A  512   5.316   4.412   8.683 -0.4073 -0.3590 -0.6143
    7CHL1  H26B  513   5.223   4.318   8.804  1.8305 -0.7765 -0.2080
    7CHL1  H26C  514   5.163   4.478   8.736  1.4902 -0.4563 -2.7490
    7CHL1   C27  515   5.352   4.634   8.846 -0.3324 -0.2864 -1.0311
    7CHL1  H27A  516   5.251   4.678   8.835 -0.8901  0.3451  4.0573
    7CHL1  H27B  517   5.394   4.686   8.934 -1.2643  0.6069 -1.0983
    7CHL1  H27C  518   5.413   4.638   8.753  1.3745 -0.4563  0.0274
    8CHL1    C3  519   6.304   4.176  10.245  0.1708 -0.8821  0.0946
    8CHL1    H3  520   6.379   4.255  10.225 -0.4019 -0.4069 -0.2073
    8CHL1    O3  521   6.286   4.156  10.384  0.1846 -0.3897 -0.8149
    8CHL1   H3'  522   6.199   4.182  10.416  0.8041  3.0459 -1.5715
    8CHL1    C4  523   6.182   4.237  10.180 -0.5252  0.0004  0.0765
    8CHL1   H4A  524   6.094   4.184  10.221 -0.1052  1.5026  3.2190
    8CHL1   H4B  525   6.171   4.341  10.217  1.6766 -0.4564  2.3763
    8CHL1    C5  526   6.196   4.241  10.030 -0.0867 -0.7288  0.0801
    8CHL1    C6  527   6.187   4.359   9.964 -0.4939 -0.4648 -0.1083
    8CHL1    H6  528   6.158   4.452  10.015 -2.0850 -0.2663 -1.3113
    8CHL1    C7  529   6.204   4.373   9.814  0.1801 -0.2258 -0.3694
    8CHL1   H7A  530   6.137   4.449   9.767  1.0776  0.3648 -0.7192
    8CHL1   H7B  531   6.310   4.399   9.793  0.1257  1.9737  1.6440
    8CHL1    C8  532   6.183   4.230   9.745 -0.4925  0.4765  0.1091
    8CHL1    H8  533   6.074   4.211   9.733 -0.2665  0.7913 -3.3873
    8CHL1   C14  534   6.232   4.247   9.603 -0.7046  0.3745 -0.5368
    8CHL1   H14  535   6.342   4.244   9.620 -0.6448  0.8975 -0.8136
    8CHL1   C15  536   6.196   4.373   9.531  0.8597  0.2903 -0.2816
    8CHL1  H15A  537   6.086   4.371   9.542  0.8494 -2.3786 -0.0659
    8CHL1  H15B  538   6.225   4.476   9.560  1.7760 -0.4334  1.5041
    8CHL1   C16  539   6.219   4.331   9.382 -1.2887 -0.7750 -0.0604
    8CHL1  H16A  540   6.119   4.351   9.336 -0.9105  0.4517 -0.4125
    8CHL1  H16B  541   6.298   4.388   9.328 -1.0284  1.1521  2.1914
    8CHL1   C17  542   6.244   4.178   9.378 -0.2459  0.3502 -0.4667
    8CHL1   H17  543   6.355   4.170   9.375 -0.2574 -1.1109  1.2150
    8CHL1   C13  544   6.204   4.121   9.514  0.1553 -0.5105  0.0577
    8CHL1   C18  545   6.050   4.081   9.510  0.2503  0.3399 -0.8951
    8CHL1  H18A  546   6.013   4.045   9.608 -0.9628  0.6711 -1.2235
    8CHL1  H18B  547   5.991   4.169   9.477 -1.3308 -1.0224 -1.8791
    8CHL1  H18C  548   6.037   3.989   9.449  1.2805 -0.0345 -0.5842
    8CHL1   C12  549   6.284   4.006   9.581  0.7776  0.6407  0.5194
    8CHL1  H12A  550   6.272   3.912   9.523  1.3327  0.9840 -0.1813
    8CHL1  H12B  551   6.389   4.041   9.567  0.6705  0.8378  0.1998
    8CHL1   C11  552   6.259   3.985   9.731  0.3919 -0.1623  0.3625
    8CHL1  H11A  553   6.162   3.934   9.745  1.3045 -1.9814  0.4290
    8CHL1  H11B  554   6.338   3.918   9.774 -0.3334 -0.9094  0.5614
    8CHL1    C9  555   6.258   4.116   9.816  0.6817  0.2218  0.3523
    8CHL1    H9  556   6.364   4.151   9.819  1.4442 -1.9747  2.4277
    8CHL1   C10  557   6.217   4.104   9.968 -0.1289  0.0938  0.5962
    8CHL1   C19  558   6.081   4.023   9.971 -0.5902  0.0239 -0.1646
    8CHL1  H19A  559   6.050   4.007  10.077  2.0145 -2.0972  0.4066
    8CHL1  H19B  560   6.015   4.076   9.899 -1.5221 -0.2695  0.4598
    8CHL1  H19C  561   6.109   3.927   9.923  0.4143  0.1860  0.0750
    8CHL1    C1  562   6.337   4.027  10.037  0.5344 -0.7283 -0.1435
    8CHL1   H1A  563   6.357   3.925   9.999  2.3189 -0.1950 -0.7467
    8CHL1   H1B  564   6.425   4.086  10.003  1.4504 -0.7898  1.9020
    8CHL1    C2  565   6.330   4.034  10.186 -0.3383 -0.1991  0.0054
    8CHL1   H2A  566   6.424   3.997  10.234 -0.0363  2.0577  1.2898
    8CHL1   H2B  567   6.251   3.972  10.233 -0.6060  1.0252  1.2495
    8CHL1   C20  568   6.197   4.110   9.246  0.2254 -0.6795 -0.0992
    8CHL1   H20  569   6.087   4.095   9.237  0.2035 -0.0108 -1.0647
    8CHL1   C21  570   6.251   3.954   9.238  0.4119 -0.0760 -0.3096
    8CHL1  H21A  571   6.198   3.896   9.317 -0.8963 -0.4139 -1.4042
    8CHL1  H21B  572   6.361   3.959   9.249  0.3257  0.0617  0.5466
    8CHL1  H21C  573   6.218   3.908   9.143  0.0795 -0.4900  0.0041
    8CHL1   C22  574   6.242   4.193   9.119  0.1045 -0.0024  0.0890
    8CHL1  H22A  575   6.208   4.298   9.128 -0.5166 -0.2674  0.9136
    8CHL1  H22B  576   6.352   4.210   9.108 -0.2690  2.4649 -0.2654
    8CHL1   C23  577   6.196   4.135   8.987  0.2924 -0.2092  0.4769
    8CHL1  H23A  578   6.235   4.034   8.964  0.0152  0.1032 -1.4819
    8CHL1  H23B  579   6.086   4.121   8.992  0.2989 -0.8556 -0.8126
    8CHL1   C24  580   6.222   4.219   8.858  0.5801 -0.1372 -0.7595
    8CHL1  H24A  581   6.229   4.328   8.878  0.2077 -0.4089  0.9408
    8CHL1  H24B  582   6.321   4.192   8.816  1.5275 -1.2248  1.9961
    8CHL1   C25  583   6.108   4.203   8.757 -0.3766  0.0270  0.9818
    8CHL1   H25  584   6.011   4.244   8.794 -0.8357  1.9699 -2.0096
    8CHL1   C26  585   6.142   4.283   8.628 -0.7997  0.5821  0.4691
    8CHL1  H26A  586   6.160   4.391   8.644  0.5166  0.1595  2.2504
    8CHL1  H26B  587   6.230   4.237   8.577 -0.5663  0.2316  1.1780
    8CHL1  H26C  588   6.058   4.265   8.558  0.4165  3.2713 -1.8482
    8CHL1   C27  589   6.083   4.051   8.732  0.2125  0.3530 -0.6976
    8CHL1  H27A  590   6.005   4.031   8.656 -2.6793 -0.7479  2.2909
    8CHL1  H27B  591   6.181   4.023   8.688  1.1333  1.3608  0.6164
    8CHL1  H27C  592   6.056   3.999   8.826  0.9052  1.9253  0.4304
    9CHL1    C3  593   1.668   3.420  10.029 -0.4884  0.3317  0.3868
    9CHL1    H3  594   1.741   3.491   9.984  0.8465 -0.9893  0.3953
    9CHL1    O3  595   1.684   3.398  10.169 -0.0281  0.3791 -0.2626
    9CHL1   H3'  596   1.768   3.352  10.176  0.9280  2.2579  1.4791
    9CHL1    C4  597   1.521   3.464   9.997  0.1449  0.2233  0.4068
    9CHL1   H4A  598   1.449   3.387  10.032 -1.8000  0.9240 -1.8009
    9CHL1   H4B  599   1.509   3.559  10.053  1.0733  1.6479 -1.6798
    9CHL1    C5  600   1.515   3.484   9.850  0.2770 -0.3620  0.1839
    9CHL1    C6  601   1.490   3.611   9.800 -0.3193  0.6526  0.8410
    9CHL1    H6  602   1.477   3.694   9.870  0.0399  0.3580  1.2621
    9CHL1    C7  603   1.463   3.642   9.655  0.5420  0.9339 -0.6499
    9CHL1   H7A  604   1.367   3.698   9.649 -0.0091  0.0644 -0.2227
    9CHL1   H7B  605   1.547   3.694   9.604  0.8699  0.7818 -0.2627
    9CHL1    C8  606   1.443   3.506   9.575  0.2659 -0.1054 -0.4725
    9CHL1    H8  607   1.343   3.468   9.605  0.1340  0.9909  0.5559
    9CHL1   C14  608   1.443   3.549   9.428 -0.3902 -0.4910 -0.3125
    9CHL1   H14  609   1.546   3.587   9.409  0.4935 -1.5784  1.8774
    9CHL1   C15  610   1.358   3.663   9.372  0.2674 -0.1225 -0.1823
    9CHL1  H15A  611   1.256   3.649   9.414 -0.3587 -0.4751 -1.7727
    9CHL1  H15B  612   1.385   3.768   9.397 -1.8289  0.4843 -0.2819
    9CHL1   C16  613   1.350   3.633   9.216  0.9869  0.3372  0.1596
    9CHL1  H16A  614   1.241   3.633   9.193  1.0363  0.7897 -0.0950
    9CHL1  H16B  615   1.382   3.716   9.150  1.3014 -0.5640 -0.8564
    9CHL1   C17  616   1.429   3.498   9.194 -0.5170  0.0264 -0.3346
    9CHL1   H17  617   1.534   3.531   9.184  0.7040 -2.8208  1.5765
    9CHL1   C13  618   1.422   3.429   9.329  0.1754  0.3334  0.3699
    9CHL1   C18  619   1.279   3.372   9.349  0.8716  0.5013 -0.3895
    9CHL1  H18A  620   1.257   3.326   9.448  1.6423 -0.6747 -0.7516
    9CHL1  H18B  621   1.204   3.452   9.333  1.6726  0.9506 -2.1213
    9CHL1  H18C  622   1.250   3.297   9.272  1.2641 -0.6521  0.5427
    9CHL1   C12  623   1.530   3.325   9.357  0.3080 -0.2979  0.2530
    9CHL1  H12A  624   1.516   3.235   9.294 -0.9408  0.4994 -0.6401
    9CHL1  H12B  625   1.631   3.362   9.327 -0.0282  1.6759  1.3899
    9CHL1   C11  626   1.532   3.284   9.508 -0.1732  0.0848 -0.6711
    9CHL1  H11A  627   1.449   3.216   9.537  1.1171 -1.1845  0.1901
    9CHL1  H11B  628   1.616   3.212   9.517  0.3804  0.7608 -0.2563
    9CHL1    C9  629   1.547   3.401   9.615 -0.5662  0.0207  0.7507
    9CHL1    H9  630   1.642   3.453   9.592 -2.0451  2.1682 -0.9999
    9CHL1   C10  631   1.535   3.367   9.762  0.5416  0.9082  0.1715
    9CHL1   C19  632   1.414   3.264   9.788 -0.0150  0.0189  0.1154
    9CHL1  H19A  633   1.436   3.164   9.745 -2.0739 -1.3973  2.1080
    9CHL1  H19B  634   1.397   3.247   9.897 -0.7505  1.8151  0.3136
    9CHL1  H19C  635   1.322   3.296   9.734 -0.0278 -0.7459 -0.3245
    9CHL1    C1  636   1.667   3.295   9.810 -0.2280 -0.3906 -0.1845
    9CHL1   H1A  637   1.666   3.194   9.765 -1.7620 -0.1281 -0.8204
    9CHL1   H1B  638   1.748   3.342   9.750 -1.3276 -2.0567 -3.1496
    9CHL1    C2  639   1.690   3.284   9.958 -0.2067  0.3059  0.1524
    9CHL1   H2A  640   1.792   3.243   9.972  0.1082  0.7936 -0.6559
    9CHL1   H2B  641   1.614   3.216  10.003 -2.0509  1.2052 -1.4372
    9CHL1   C20  642   1.407   3.408   9.065  0.0759  0.2520  0.0088
    9CHL1   H20  643   1.328   3.334   9.092  0.2436 -0.4614 -1.3687
    9CHL1   C21  644   1.535   3.336   9.020 -0.1276  0.1970  0.3611
    9CHL1  H21A  645   1.591   3.294   9.106  0.3191 -1.5267 -0.7191
    9CHL1  H21B  646   1.600   3.409   8.967  1.6821 -1.1335  0.6436
    9CHL1  H21C  647   1.505   3.258   8.946 -1.9413  0.8121  0.3922
    9CHL1   C22  648   1.335   3.494   8.952 -0.3467  0.6101 -0.9674
    9CHL1  H22A  649   1.236   3.517   8.996  0.0621 -1.4743  1.2625
    9CHL1  H22B  650   1.405   3.579   8.937  2.5855 -1.5565 -0.6216
    9CHL1   C23  651   1.310   3.426   8.816 -0.5613  0.1203 -0.4645
    9CHL1  H23A  652   1.403   3.388   8.769  1.0245 -1.5960  3.5710
    9CHL1  H23B  653   1.241   3.340   8.829 -2.6842  1.9073  0.9240
    9CHL1   C24  654   1.249   3.519   8.716 -0.2823 -0.1559 -0.3609
    9CHL1  H24A  655   1.145   3.537   8.751  0.7088  1.4562  1.9918
    9CHL1  H24B  656   1.304   3.616   8.719 -2.3362  1.1115 -1.3495
    9CHL1   C25  657   1.251   3.473   8.566  0.9008 -0.1017  0.7049
    9CHL1   H25  658   1.347   3.421   8.545  0.9497  0.1083  0.4187
    9CHL1   C26  659   1.131   3.375   8.546  0.0539 -0.4961  0.3462
    9CHL1  H26A  660   1.144   3.290   8.616 -1.7820 -1.0931  0.0184
    9CHL1  H26B  661   1.033   3.424   8.564  0.1233 -0.8002  1.6659
    9CHL1  H26C  662   1.143   3.347   8.439  0.1104  1.2351 -0.1306
    9CHL1   C27  663   1.242   3.599   8.478 -0.4033 -0.3473 -0.4049
    9CHL1  H27A  664   1.247   3.574   8.370 -1.9942 -1.0074 -0.3569
    9CHL1  H27B  665   1.154   3.666   8.494 -0.0759 -0.0877  0.3792
    9CHL1  H27C  666   1.327   3.664   8.507  1.3921 -1.2996 -3.1102
   10CHL1    C3  667   0.701   6.048  10.280  0.3138 -0.6805  0.7651
   10CHL1    H3  668   0.592   6.040  10.261  0.7613 -2.9443 -1.3783
   10CHL1    O3  669   0.734   6.029  10.417  0.5623 -0.2221 -0.0001
   10CHL1   H3'  670   0.827   6.047  10.431  0.8300 -1.7164  0.3349
   10CHL1    C4  671   0.772   5.932  10.209 -0.0832  0.4219  0.1928
   10CHL1   H4A  672   0.877   5.931  10.246  0.1323  1.2077 -0.3747
   10CHL1   H4B  673   0.732   5.835  10.245  1.4075 -0.5955 -0.8211
   10CHL1    C5  674   0.764   5.938  10.063  0.0399  0.2999  0.1501
   10CHL1    C6  675   0.705   5.845   9.988 -0.0127  0.3014 -0.6809
   10CHL1    H6  676   0.672   5.757  10.045 -0.5701  1.9318  1.6637
   10CHL1    C7  677   0.677   5.844   9.844 -1.3416 -0.4865  0.1502
   10CHL1   H7A  678   0.694   5.744   9.800  0.5836  0.3313 -1.1098
   10CHL1   H7B  679   0.573   5.873   9.818 -0.6268  1.7077 -0.5378
   10CHL1    C8  680   0.773   5.945   9.771 -0.1903  0.1547 -1.2703
   10CHL1    H8  681   0.872   5.895   9.766 -0.8300 -1.0707 -2.4835
   10CHL1   C14  682   0.728   5.968   9.630  0.2007 -0.1736  0.3232
   10CHL1   H14  683   0.631   6.022   9.625 -0.2652 -1.0878 -1.5494
   10CHL1   C15  684   0.724   5.846   9.531  0.1590  0.1144 -0.2175
   10CHL1  H15A  685   0.806   5.779   9.566 -0.5199 -0.5925  0.0653
   10CHL1  H15B  686   0.633   5.787   9.554 -1.7597  3.9232  2.9469
   10CHL1   C16  687   0.726   5.909   9.396  0.7799 -0.4832  0.3178
   10CHL1  H16A  688   0.812   5.872   9.337  0.1490  2.2001 -2.5498
   10CHL1  H16B  689   0.636   5.894   9.333  1.4636  2.1434 -1.4619
   10CHL1   C17  690   0.762   6.056   9.405  0.0806 -0.0450 -0.2260
   10CHL1   H17  691   0.670   6.118   9.395 -0.5185 -1.1854 -2.7833
   10CHL1   C13  692   0.817   6.060   9.549 -0.0821 -0.1317  0.4754
   10CHL1   C18  693   0.967   6.017   9.539 -0.0278  0.6502 -0.1363
   10CHL1  H18A  694   0.982   5.923   9.481 -1.8506  0.0479  0.3098
   10CHL1  H18B  695   1.025   6.100   9.492 -0.3025 -0.7896 -3.2557
   10CHL1  H18C  696   1.021   5.996   9.634  1.9867  0.9647 -1.1563
   10CHL1   C12  697   0.807   6.200   9.621 -0.4726  0.3006 -0.8671
   10CHL1  H12A  698   0.879   6.271   9.575  2.3217 -1.8975 -0.1557
   10CHL1  H12B  699   0.703   6.239   9.618 -1.2549 -1.5882  0.2317
   10CHL1   C11  700   0.839   6.193   9.777  0.4948 -0.1302 -0.8239
   10CHL1  H11A  701   0.950   6.182   9.782  0.5800 -1.0826 -3.3255
   10CHL1  H11B  702   0.814   6.293   9.818 -0.7694 -0.0543 -1.7188
   10CHL1    C9  703   0.776   6.077   9.850 -0.4247  0.2803  0.3081
   10CHL1    H9  704   0.668   6.102   9.852 -0.4425  0.2647 -0.3576
   10CHL1   C10  705   0.814   6.067  10.000  0.4035 -0.0356  0.2600
   10CHL1   C19  706   0.968   6.083  10.012 -1.1009 -0.0315 -0.5445
   10CHL1  H19A  707   1.008   5.992   9.963  1.8167 -0.4370  2.2754
   10CHL1  H19B  708   1.017   6.175   9.974 -0.6184  0.9111  2.1840
   10CHL1  H19C  709   1.002   6.084  10.118 -0.1828  0.8263 -0.8354
   10CHL1    C1  710   0.761   6.187  10.076 -0.1274  0.1738 -0.0480
   10CHL1   H1A  711   0.813   6.278  10.041 -2.0625  0.8996 -1.2270
   10CHL1   H1B  712   0.654   6.208  10.054 -0.3955  0.8561  1.8054
   10CHL1    C2  713   0.763   6.184  10.230  0.2993 -0.4767  0.2739
   10CHL1   H2A  714   0.703   6.265  10.278  0.4324 -0.8794  1.1362
   10CHL1   H2B  715   0.871   6.182  10.255  0.4346  0.8216 -0.1376
   10CHL1   C20  716   0.856   6.102   9.290  0.2594 -0.0075  0.0979
   10CHL1   H20  717   0.954   6.050   9.296  0.5879  0.5695 -0.1706
   10CHL1   C21  718   0.887   6.254   9.295 -0.1937 -0.3765 -0.3752
   10CHL1  H21A  719   0.949   6.273   9.205 -0.7810 -1.3336 -1.0006
   10CHL1  H21B  720   0.953   6.280   9.381 -0.2451  0.8492 -0.6756
   10CHL1  H21C  721   0.795   6.316   9.300  0.5544  0.7079  2.7300
   10CHL1   C22  722   0.796   6.069   9.151 -0.5069  0.3321  0.4592
   10CHL1  H22A  723   0.774   5.961   9.136 -1.9066  0.8758 -1.9145
   10CHL1  H22B  724   0.705   6.130   9.134 -0.1713  0.3264 -1.5131
   10CHL1   C23  725   0.890   6.097   9.030 -0.2669  0.2493 -0.8330
   10CHL1  H23A  726   0.914   6.205   9.027  1.6648 -0.0800  0.5060
   10CHL1  H23B  727   0.988   6.050   9.054 -1.0213  0.1647  2.7168
   10CHL1   C24  728   0.828   6.052   8.897 -0.2885 -0.2670  0.2183
   10CHL1  H24A  729   0.797   5.946   8.908 -0.6660 -0.2384 -0.5088
   10CHL1  H24B  730   0.741   6.114   8.866 -0.0514  1.6036  2.9100
   10CHL1   C25  731   0.918   6.069   8.775  0.2637 -0.0540  0.0423
   10CHL1   H25  732   0.947   6.177   8.774  1.1589 -0.2700  0.9517
   10CHL1   C26  733   1.053   6.003   8.788 -0.0276  0.4655 -1.1508
   10CHL1  H26A  734   1.107   6.059   8.867  1.3185  0.2359 -1.8725
   10CHL1  H26B  735   1.049   5.896   8.820  0.5273  0.6745 -0.3564
   10CHL1  H26C  736   1.105   6.004   8.690 -0.1609  0.4333 -1.2227
   10CHL1   C27  737   0.845   6.031   8.645  0.1596  0.3654 -0.2074
   10CHL1  H27A  738   0.766   6.097   8.603  1.2964  0.7329 -1.8578
   10CHL1  H27B  739   0.916   6.025   8.560 -1.6962  0.3067 -1.8184
   10CHL1  H27C  740   0.796   5.932   8.659  0.3668  0.2115 -0.5579
   11CHL1    C3  741   2.762   2.420  10.248 -0.2932 -0.3372  0.0714
   11CHL1    H3  742   2.860   2.469  10.267  0.0641 -0.8137 -0.4991
   11CHL1    O3  743   2.698   2.405  10.372 -0.3428  0.0662 -0.1016
   11CHL1   H3'  744   2.608   2.402  10.340 -1.0435  0.1134  1.6976
   11CHL1    C4  745   2.671   2.523  10.165  0.8731  0.2060 -0.1346
   11CHL1   H4A  746   2.565   2.494  10.177  0.3173  2.0636 -0.1966
   11CHL1   H4B  747   2.687   2.619  10.219 -1.8373  0.8298 -0.2852
   11CHL1    C5  748   2.703   2.535  10.018 -0.2105 -0.3082 -0.4044
   11CHL1    C6  749   2.724   2.649   9.950  0.4181 -0.0164 -0.8103
   11CHL1    H6  750   2.721   2.751   9.990  3.6421  0.2970 -1.0467
   11CHL1    C7  751   2.738   2.652   9.802  0.6517  0.2928 -0.1091
   11CHL1   H7A  752   2.663   2.722   9.759 -0.8161 -0.9947  0.2550
   11CHL1   H7B  753   2.839   2.689   9.775  0.2600  2.2415  0.9414
   11CHL1    C8  754   2.699   2.524   9.723  0.1179  0.1477  0.2634
   11CHL1    H8  755   2.588   2.519   9.716  0.1854  0.4263 -1.4383
   11CHL1   C14  756   2.760   2.526   9.583  0.7412  0.9523  0.5701
   11CHL1   H14  757   2.869   2.535   9.598  0.5534  1.5812  1.6238
   11CHL1   C15  758   2.727   2.648   9.494  0.5454  0.8528 -0.2772
   11CHL1  H15A  759   2.624   2.688   9.502  0.6761  1.0306  0.6823
   11CHL1  H15B  760   2.799   2.726   9.526  2.2840 -0.9596  0.4933
   11CHL1   C16  761   2.735   2.591   9.345 -0.2190 -0.1830 -0.4766
   11CHL1  H16A  762   2.633   2.591   9.301 -0.2753  1.7146 -0.4214
   11CHL1  H16B  763   2.798   2.663   9.289 -1.0276 -0.0460 -1.2351
   11CHL1   C17  764   2.794   2.449   9.364 -0.5684  0.1220 -0.2085
   11CHL1   H17  765   2.904   2.461   9.372 -0.5997 -0.6203  2.1503
   11CHL1   C13  766   2.742   2.401   9.497  0.1129 -0.4182 -0.3266
   11CHL1   C18  767   2.592   2.376   9.483  0.2264  0.0279 -0.2748
   11CHL1  H18A  768   2.542   2.390   9.581 -0.3416  1.4722 -0.7409
   11CHL1  H18B  769   2.540   2.454   9.424  1.0410  0.8538  0.0663
   11CHL1  H18C  770   2.569   2.272   9.450 -0.6149  0.0139  0.3279
   11CHL1   C12  771   2.817   2.286   9.570 -0.3175 -0.1159 -0.4127
   11CHL1  H12A  772   2.795   2.186   9.526  3.7009 -1.3068 -0.1002
   11CHL1  H12B  773   2.923   2.315   9.553 -0.9888  0.9721 -3.4739
   11CHL1   C11  774   2.776   2.279   9.722  0.8068  0.7059  0.2031
   11CHL1  H11A  775   2.676   2.229   9.723  0.8196  0.6778 -0.0033
   11CHL1  H11B  776   2.849   2.213   9.772  0.9349  1.0763  0.5139
   11CHL1    C9  777   2.753   2.410   9.803 -0.0582 -0.2657 -0.0356
   11CHL1    H9  778   2.860   2.436   9.819 -0.0349  1.0136 -2.0351
   11CHL1   C10  779   2.711   2.402   9.949  0.0729  0.1856  0.4089
   11CHL1   C19  780   2.569   2.343   9.940  0.0736  0.3137  0.3144
   11CHL1  H19A  781   2.525   2.318  10.039 -1.8253 -3.4457 -1.2546
   11CHL1  H19B  782   2.499   2.406   9.880  0.5623  0.0833 -0.5062
   11CHL1  H19C  783   2.577   2.239   9.901 -1.7763  0.0978  0.3861
   11CHL1    C1  784   2.801   2.301  10.031  0.2728  0.0357 -0.3986
   11CHL1   H1A  785   2.801   2.206   9.973 -2.1858 -0.7779  0.8020
   11CHL1   H1B  786   2.903   2.345  10.033  2.3329 -4.1602 -1.2765
   11CHL1    C2  787   2.760   2.283  10.175  0.2368 -0.4138  0.0878
   11CHL1   H2A  788   2.827   2.221  10.239  1.4868  2.1597  1.4344
   11CHL1   H2B  789   2.657   2.242  10.181  0.3252 -1.2436 -2.5863
   11CHL1   C20  790   2.767   2.365   9.240 -0.5264  0.6905  1.0332
   11CHL1   H20  791   2.660   2.335   9.236 -0.6520  1.2380  0.1463
   11CHL1   C21  792   2.852   2.229   9.251 -0.2509  0.3569  0.7108
   11CHL1  H21A  793   2.955   2.250   9.286 -0.8415  2.0144  1.5974
   11CHL1  H21B  794   2.864   2.172   9.157 -0.4279 -0.6223  1.2722
   11CHL1  H21C  795   2.804   2.164   9.328  1.3781  0.2459  1.6733
   11CHL1   C22  796   2.799   2.437   9.109 -0.5547 -0.1902 -0.0478
   11CHL1  H22A  797   2.722   2.514   9.088 -0.0826  0.0116 -1.1130
   11CHL1  H22B  798   2.903   2.477   9.115  0.6426 -2.8585 -1.4721
   11CHL1   C23  799   2.797   2.352   8.986 -0.9162  0.2502  0.5341
   11CHL1  H23A  800   2.886   2.286   8.992 -0.5647  0.5083 -1.3305
   11CHL1  H23B  801   2.708   2.288   8.973  0.1412 -1.7018  2.2534
   11CHL1   C24  802   2.819   2.436   8.854  0.7448  0.9694  0.2160
   11CHL1  H24A  803   2.727   2.491   8.824  0.9242  0.4930 -1.3201
   11CHL1  H24B  804   2.915   2.490   8.867  0.7601  1.0191 -0.0956
   11CHL1   C25  805   2.842   2.354   8.730  0.1395  0.7805  1.0350
   11CHL1   H25  806   2.927   2.283   8.742  0.8466  1.3056 -0.6166
   11CHL1   C26  807   2.730   2.259   8.691  0.0682 -0.2249 -0.1537
   11CHL1  H26A  808   2.650   2.320   8.643  1.0484 -0.5994 -2.3542
   11CHL1  H26B  809   2.758   2.189   8.610 -0.0257  0.3150 -0.6619
   11CHL1  H26C  810   2.692   2.206   8.782 -0.7511  1.2708  0.4103
   11CHL1   C27  811   2.882   2.447   8.606  0.2457  0.5709  0.1756
   11CHL1  H27A  812   2.914   2.380   8.524  0.2604 -0.3394  0.9119
   11CHL1  H27B  813   2.796   2.505   8.568  0.0454 -0.3900 -0.8759
   11CHL1  H27C  814   2.976   2.503   8.628  0.0266  1.6978 -1.5474
   12CHL1    C3  815   0.328   4.387  10.300  0.0403 -0.4125  0.5377
   12CHL1    H3  816   0.293   4.492  10.301  2.9065  0.8081 -3.1269
   12CHL1    O3  817   0.394   4.345  10.419  0.4886  0.1871 -0.5599
   12CHL1   H3'  818   0.388   4.249  10.427  0.2090  0.1837 -0.8062
   12CHL1    C4  819   0.201   4.307  10.277 -0.3655  0.2978 -0.0513
   12CHL1   H4A  820   0.226   4.199  10.268  3.4135  0.9546  0.9339
   12CHL1   H4B  821   0.125   4.322  10.357 -1.5083  0.4322 -1.1172
   12CHL1    C5  822   0.137   4.347  10.142  0.0515 -0.1144  0.3349
   12CHL1    C6  823   0.007   4.378  10.133 -0.1806 -0.8478  0.7249
   12CHL1    H6  824  -0.056   4.356  10.220 -0.4757 -0.4663  0.6123
   12CHL1    C7  825  -0.065   4.392   9.998 -0.1070  0.0136  0.4653
   12CHL1   H7A  826  -0.163   4.340  10.001  0.8560 -1.8539  2.3501
   12CHL1   H7B  827  -0.072   4.501   9.979 -0.9267  0.0102  0.6898
   12CHL1    C8  828   0.015   4.338   9.878 -0.2680  0.6331 -0.3202
   12CHL1    H8  829   0.022   4.227   9.879 -0.5092  0.6008 -1.1684
   12CHL1   C14  830  -0.046   4.382   9.745  0.5635  0.4371 -0.1611
   12CHL1   H14  831  -0.039   4.493   9.754  0.0271  0.4526  0.1551
   12CHL1   C15  832  -0.201   4.361   9.716  0.1012  1.4876 -0.2742
   12CHL1  H15A  833  -0.241   4.261   9.742  1.8386  0.6280 -0.6817
   12CHL1  H15B  834  -0.263   4.444   9.754 -1.5629 -0.3144  1.1015
   12CHL1   C16  835  -0.213   4.381   9.564 -0.0605 -0.1036 -0.0504
   12CHL1  H16A  836  -0.248   4.285   9.520  1.6854 -0.5771 -0.4902
   12CHL1  H16B  837  -0.284   4.462   9.537 -0.8796 -0.0757  2.0166
   12CHL1   C17  838  -0.065   4.414   9.512  0.7906  0.5796 -0.3714
   12CHL1   H17  839  -0.042   4.522   9.519 -3.0791  1.5002 -0.0589
   12CHL1   C13  840   0.031   4.342   9.617 -0.3956 -0.1148  0.1184
   12CHL1   C18  841   0.028   4.184   9.604 -1.0726  0.3862 -0.0649
   12CHL1  H18A  842  -0.077   4.156   9.582 -0.0409 -2.7010 -1.7250
   12CHL1  H18B  843   0.079   4.157   9.509 -0.9779 -1.2353  0.4239
   12CHL1  H18C  844   0.070   4.130   9.691  0.9214 -1.2013 -1.8914
   12CHL1   C12  845   0.178   4.396   9.636  0.1761 -1.0553  0.7290
   12CHL1  H12A  846   0.228   4.375   9.538 -1.5422  0.2980 -0.4955
   12CHL1  H12B  847   0.169   4.507   9.638  0.4951 -0.9768 -0.6506
   12CHL1   C11  848   0.245   4.345   9.753  0.0967 -0.7848 -0.1391
   12CHL1  H11A  849   0.245   4.234   9.747  0.7106 -0.8045  0.1597
   12CHL1  H11B  850   0.344   4.391   9.772 -0.3633 -0.1511  0.8243
   12CHL1    C9  851   0.160   4.383   9.886  0.0072 -0.3425 -0.5737
   12CHL1    H9  852   0.164   4.494   9.887 -2.2279 -0.2094  0.1087
   12CHL1   C10  853   0.234   4.341  10.020 -0.3238 -0.2518  0.2880
   12CHL1   C19  854   0.277   4.190  10.007  0.3237  0.2577  0.1209
   12CHL1  H19A  855   0.336   4.188   9.912  1.3046  5.3543  0.3488
   12CHL1  H19B  856   0.347   4.158  10.087 -0.5094 -0.7852  0.4478
   12CHL1  H19C  857   0.184   4.129   9.999 -0.7752  1.1875  4.0924
   12CHL1    C1  858   0.355   4.425  10.050  0.7895 -0.7647 -0.1396
   12CHL1   H1A  859   0.425   4.412   9.964  0.0902 -1.2415 -0.6550
   12CHL1   H1B  860   0.309   4.525  10.056 -2.6982 -2.2998  1.9301
   12CHL1    C2  861   0.424   4.382  10.180  0.6401 -0.3035  0.5303
   12CHL1   H2A  862   0.506   4.455  10.200  0.0596  0.3041  0.7125
   12CHL1   H2B  863   0.473   4.283  10.170  0.7219 -0.2216  0.0821
   12CHL1   C20  864  -0.049   4.387   9.369  0.4659 -0.4197  0.7118
   12CHL1   H20  865  -0.084   4.282   9.361  0.0039 -0.3589  1.7512
   12CHL1   C21  866   0.099   4.396   9.318 -0.0374  0.1725 -0.1650
   12CHL1  H21A  867   0.109   4.392   9.207  2.0343  1.3303 -0.0743
   12CHL1  H21B  868   0.146   4.312   9.372 -0.2929  1.9807  3.1491
   12CHL1  H21C  869   0.128   4.496   9.358 -0.2698 -0.7964  2.6213
   12CHL1   C22  870  -0.153   4.480   9.290 -0.4805 -0.0686 -1.0732
   12CHL1  H22A  871  -0.252   4.463   9.336  0.0913  1.2081  0.7884
   12CHL1  H22B  872  -0.123   4.585   9.310 -2.3159  0.3280 -0.2429
   12CHL1   C23  873  -0.156   4.460   9.143 -0.0257 -0.6595 -0.2792
   12CHL1  H23A  874  -0.058   4.499   9.105 -1.3349  2.0322 -1.1660
   12CHL1  H23B  875  -0.165   4.352   9.117  1.1904 -1.2019  1.3737
   12CHL1   C24  876  -0.269   4.536   9.069  0.2888  0.1506  0.8202
   12CHL1  H24A  877  -0.369   4.522   9.116 -1.0395  0.3631 -1.7173
   12CHL1  H24B  878  -0.249   4.645   9.076 -3.7167  1.0982  0.0484
   12CHL1   C25  879  -0.265   4.502   8.921  0.2981 -0.1952  0.1734
   12CHL1   H25  880  -0.312   4.402   8.918 -1.8803  0.7416  0.6626
   12CHL1   C26  881  -0.367   4.597   8.844  0.0673  0.1206 -0.7101
   12CHL1  H26A  882  -0.467   4.569   8.885  0.0802  1.0218 -0.0250
   12CHL1  H26B  883  -0.343   4.701   8.877 -0.1160  0.5677 -1.9251
   12CHL1  H26C  884  -0.386   4.594   8.735 -1.6794  0.9311 -0.4680
   12CHL1   C27  885  -0.132   4.506   8.848  0.1517  0.2836 -0.1619
   12CHL1  H27A  886  -0.082   4.604   8.867 -0.0798  0.4754 -0.5448
   12CHL1  H27B  887  -0.073   4.423   8.892  0.4044  0.6608  0.2175
   12CHL1  H27C  888  -0.141   4.487   8.739  0.3347  2.1991 -0.5512
   13CHL1    C3  889   5.425   1.009   9.853 -0.4700 -0.3738 -0.5277
   13CHL1    H3  890   5.428   0.898   9.856  1.1640 -0.4397 -2.4103
   13CHL1    O3  891   5.400   1.053   9.985 -0.4246 -0.3718  0.4880
   13CHL1   H3'  892   5.418   1.147   9.977 -0.2838 -0.3985  0.4929
   13CHL1    C4  893   5.547   1.068   9.781 -0.5660 -0.0490 -0.0125
   13CHL1   H4A  894   5.537   1.179   9.787  0.0633  0.0244 -0.1846
   13CHL1   H4B  895   5.638   1.040   9.839 -0.0622  0.1044 -0.7177
   13CHL1    C5  896   5.564   1.042   9.635 -0.3126  0.0240 -0.1655
   13CHL1    C6  897   5.678   1.001   9.578 -0.5649  0.5320  0.0202
   13CHL1    H6  898   5.758   0.978   9.651 -0.6308 -1.0837 -0.3711
   13CHL1    C7  899   5.688   0.961   9.432 -0.3415  0.4253  0.7749
   13CHL1   H7A  900   5.781   1.002   9.386  0.7345 -3.7959 -1.3313
   13CHL1   H7B  901   5.698   0.851   9.423 -0.9256  0.5088 -1.1831
   13CHL1    C8  902   5.570   1.023   9.352 -0.1268 -0.1307 -0.2228
   13CHL1    H8  903   5.576   1.134   9.340 -2.7905  0.0802 -0.2295
   13CHL1   C14  904   5.575   0.964   9.209 -0.1437 -0.4272 -0.7494
   13CHL1   H14  905   5.572   0.854   9.225  0.0532 -0.2748  0.4130
   13CHL1   C15  906   5.708   0.982   9.131 -0.4211  0.1221  0.4434
   13CHL1  H15A  907   5.740   1.088   9.141  0.8400 -0.1845 -0.2660
   13CHL1  H15B  908   5.787   0.913   9.166 -0.0663  1.0175  1.4805
   13CHL1   C16  909   5.659   0.950   8.988  0.5935 -0.2624  0.0692
   13CHL1  H16A  910   5.686   1.037   8.925  1.3469  0.9413  1.9737
   13CHL1  H16B  911   5.697   0.860   8.935  1.0535  0.3480 -0.6589
   13CHL1   C17  912   5.499   0.938   8.993 -0.3879  0.5677 -0.1887
   13CHL1   H17  913   5.473   0.831   9.010  0.4161  0.2427 -0.9632
   13CHL1   C13  914   5.454   1.008   9.120 -0.1061  0.4026 -0.3485
   13CHL1   C18  915   5.445   1.165   9.097 -0.3753  0.7094  0.0903
   13CHL1  H18A  916   5.343   1.184   9.057 -0.2903 -0.4421 -0.7124
   13CHL1  H18B  917   5.467   1.211   9.196  3.0872 -0.8879  0.2072
   13CHL1  H18C  918   5.518   1.188   9.016 -1.4505 -1.2509 -1.5340
   13CHL1   C12  919   5.322   0.960   9.188 -0.1538 -0.3183  0.5772
   13CHL1  H12A  920   5.232   0.983   9.127  1.3358  0.1106 -1.5640
   13CHL1  H12B  921   5.327   0.850   9.203 -0.5056 -0.1325  2.1485
   13CHL1   C11  922   5.308   1.027   9.326 -0.1950  0.4150 -0.7402
   13CHL1  H11A  923   5.300   1.138   9.320  0.5146  0.4336 -1.6460
   13CHL1  H11B  924   5.221   0.981   9.377  1.6063 -1.2945  0.9751
   13CHL1    C9  925   5.434   0.996   9.420 -0.1399  0.1950  0.1380
   13CHL1    H9  926   5.427   0.886   9.434 -0.1467 -0.0098 -1.3186
   13CHL1   C10  927   5.426   1.070   9.555  0.0755 -0.7434 -0.3825
   13CHL1   C19  928   5.401   1.223   9.532 -0.4201 -0.4181  0.2671
   13CHL1  H19A  929   5.449   1.268   9.442  0.5008  0.4432  1.1728
   13CHL1  H19B  930   5.293   1.238   9.511 -0.2982  0.8855  0.4607
   13CHL1  H19C  931   5.418   1.288   9.620  0.4733  0.6129 -0.6267
   13CHL1    C1  932   5.311   1.012   9.630  0.4739 -0.2632  0.0802
   13CHL1   H1A  933   5.210   1.043   9.596 -0.1799 -1.0838  1.2184
   13CHL1   H1B  934   5.323   0.903   9.616  4.3003  0.2468 -1.8452
   13CHL1    C2  935   5.305   1.053   9.779  0.5498  0.5912  1.4416
   13CHL1   H2A  936   5.228   0.986   9.823  1.8142 -1.5490  0.6191
   13CHL1   H2B  937   5.273   1.158   9.792 -1.5219  0.1533  0.2465
   13CHL1   C20  938   5.434   0.979   8.855 -0.1726 -0.2790  0.0943
   13CHL1   H20  939   5.445   1.089   8.844  2.6567 -0.4497  0.5180
   13CHL1   C21  940   5.291   0.929   8.849  0.1901  0.2280 -0.2115
   13CHL1  H21A  941   5.230   0.996   8.913  1.4492 -0.3076  1.6258
   13CHL1  H21B  942   5.272   0.825   8.883 -1.6395 -0.6971 -3.6335
   13CHL1  H21C  943   5.253   0.928   8.745  0.5164 -0.0873 -0.3266
   13CHL1   C22  944   5.524   0.933   8.737  0.0918 -0.8587 -0.2950
   13CHL1  H22A  945   5.616   0.996   8.737  0.0521 -0.7730 -1.4098
   13CHL1  H22B  946   5.545   0.827   8.762 -3.6571 -2.1233 -1.8143
   13CHL1   C23  947   5.462   0.940   8.594  0.5031 -1.0576  1.4091
   13CHL1  H23A  948   5.387   0.858   8.597  1.1447 -1.9585 -2.1618
   13CHL1  H23B  949   5.424   1.042   8.572  2.2761 -0.5296  0.5771
   13CHL1   C24  950   5.567   0.914   8.482  0.0661  0.0751  0.6537
   13CHL1  H24A  951   5.644   0.990   8.503  0.9785 -1.5237  3.6960
   13CHL1  H24B  952   5.600   0.808   8.489  0.1590  0.1285  1.0468
   13CHL1   C25  953   5.513   0.931   8.340 -0.4420  0.2701 -0.1226
   13CHL1   H25  954   5.442   1.017   8.335 -1.0700 -0.2879 -1.1425
   13CHL1   C26  955   5.631   0.953   8.247  0.8266  0.0308  0.7858
   13CHL1  H26A  956   5.593   0.932   8.144 -1.0632  0.0619  1.4458
   13CHL1  H26B  957   5.674   1.055   8.254 -0.9568  1.3017 -3.4700
   13CHL1  H26C  958   5.716   0.887   8.272 -0.8868 -2.2169  1.0067
   13CHL1   C27  959   5.437   0.806   8.294  0.3013 -0.2956  0.2145
   13CHL1  H27A  960   5.361   0.769   8.366  0.8797  0.3231  1.1625
   13CHL1  H27B  961   5.402   0.816   8.189  0.3310  1.3115  0.3359
   13CHL1  H27C  962   5.508   0.720   8.288 -0.7420 -1.3328  1.9012
   14CHL1    C3  963   4.945   4.599  10.318  0.4622  0.3769  0.1250
   14CHL1    H3  964   5.052   4.603  10.286  0.0235  0.4479 -1.3943
   14CHL1    O3  965   4.945   4.600  10.460  0.2402 -0.6841  0.5210
   14CHL1   H3'  966   4.951   4.694  10.475  0.1997 -0.3526 -1.2773
   14CHL1    C4  967   4.871   4.725  10.261 -0.0195 -0.4639  0.1673
   14CHL1   H4A  968   4.766   4.729  10.297  0.2812  0.8017  0.9566
   14CHL1   H4B  969   4.921   4.817  10.297 -0.8227  0.5920 -1.2843
   14CHL1    C5  970   4.884   4.712  10.111 -1.0106 -0.3829  0.0912
   14CHL1    C6  971   4.926   4.815  10.034 -0.5780 -0.1355  0.1078
   14CHL1    H6  972   4.952   4.909  10.085  0.1017  1.4209 -2.8906
   14CHL1    C7  973   4.919   4.817   9.884 -0.1684 -0.8528  0.2338
   14CHL1   H7A  974   4.889   4.916   9.843  2.8660 -0.7462 -2.0308
   14CHL1   H7B  975   5.019   4.802   9.838 -0.1372  0.9485 -0.3763
   14CHL1    C8  976   4.823   4.707   9.826 -0.0654  0.4497 -1.0380
   14CHL1    H8  977   4.715   4.734   9.827  0.0442  0.8838 -1.1383
   14CHL1   C14  978   4.862   4.686   9.683  0.0477 -0.0259  0.4705
   14CHL1   H14  979   4.969   4.655   9.685  0.4172  1.2078  2.2600
   14CHL1   C15  980   4.855   4.804   9.589 -0.5967 -0.0522 -0.4745
   14CHL1  H15A  981   4.764   4.867   9.592 -0.0735  0.6882  0.5072
   14CHL1  H15B  982   4.942   4.869   9.613  1.3056 -1.4638 -3.1212
   14CHL1   C16  983   4.865   4.734   9.445  0.1975 -0.1316 -0.1681
   14CHL1  H16A  984   4.777   4.773   9.390 -0.1694 -1.0485 -0.2576
   14CHL1  H16B  985   4.964   4.764   9.405  0.0743  1.9074  0.9285
   14CHL1   C17  986   4.853   4.581   9.477 -0.7319 -0.0849 -0.2110
   14CHL1   H17  987   4.955   4.538   9.474 -0.5049  0.4192  0.1600
   14CHL1   C13  988   4.792   4.565   9.611  0.2435 -0.0869  0.5684
   14CHL1   C18  989   4.637   4.598   9.606 -0.6004 -0.6511 -0.0994
   14CHL1  H18A  990   4.609   4.689   9.549  0.4744 -0.1738  0.1063
   14CHL1  H18B  991   4.583   4.509   9.568  0.8908 -2.4794  1.8595
   14CHL1  H18C  992   4.598   4.597   9.710  0.3696 -1.9707  0.2768
   14CHL1   C12  993   4.824   4.436   9.683  0.1836 -0.7479  0.8979
   14CHL1  H12A  994   4.779   4.346   9.636 -2.0642 -0.1205  1.7403
   14CHL1  H12B  995   4.934   4.422   9.672  0.0776 -2.4632  1.6548
   14CHL1   C11  996   4.786   4.449   9.832  0.5796 -0.4394  0.0563
   14CHL1  H11A  997   4.676   4.434   9.846  0.7927 -1.4699  0.7531
   14CHL1  H11B  998   4.822   4.354   9.877 -1.5740 -1.2735  0.1456
   14CHL1    C9  999   4.849   4.573   9.902 -0.5514 -0.6105  0.2454
   14CHL1    H9 1000   4.959   4.556   9.895 -0.4261  0.7381 -1.9700
   14CHL1   C10 1001   4.824   4.580  10.057  0.4235  0.0792  0.5419
   14CHL1   C19 1002   4.673   4.587  10.066  0.7532  0.3171 -0.6025
   14CHL1  H19A 1003   4.623   4.655   9.994  1.6481  1.2822 -0.3364
   14CHL1  H19B 1004   4.623   4.488  10.057 -2.9737  1.9878 -0.4322
   14CHL1  H19C 1005   4.649   4.623  10.168 -2.1232 -0.1835 -1.0090
   14CHL1    C1 1006   4.880   4.455  10.131 -0.5167  0.4889  0.0414
   14CHL1   H1A 1007   4.831   4.364  10.092  1.4488  0.8026 -3.6418
   14CHL1   H1B 1008   4.983   4.452  10.089 -0.9220 -0.0651 -0.9320
   14CHL1    C2 1009   4.875   4.473  10.284 -0.3086  0.1323  0.1087
   14CHL1   H2A 1010   4.926   4.395  10.343  0.5298  0.3589 -0.3078
   14CHL1   H2B 1011   4.766   4.480  10.305 -0.5221 -1.5874 -0.2997
   14CHL1   C20 1012   4.791   4.513   9.350  0.4793 -0.5880 -0.0746
   14CHL1   H20 1013   4.681   4.525   9.361  0.2760 -0.7301 -1.6717
   14CHL1   C21 1014   4.824   4.362   9.353 -0.0348 -0.1202 -0.4834
   14CHL1  H21A 1015   4.933   4.365   9.333  0.6961 -0.4440  2.8028
   14CHL1  H21B 1016   4.772   4.309   9.271  1.2000  0.5741 -1.7549
   14CHL1  H21C 1017   4.805   4.300   9.443 -0.1175  0.7401  0.1029
   14CHL1   C22 1018   4.827   4.581   9.213 -0.5991 -0.3347  0.5392
   14CHL1  H22A 1019   4.774   4.677   9.197  0.5503  0.2495  0.0685
   14CHL1  H22B 1020   4.937   4.593   9.203 -0.7445 -0.2090 -1.2397
   14CHL1   C23 1021   4.785   4.496   9.092  0.0715  0.1357 -0.0447
   14CHL1  H23A 1022   4.839   4.400   9.079  0.7188  0.3717  0.8795
   14CHL1  H23B 1023   4.676   4.477   9.099  0.3875 -1.2674  1.6350
   14CHL1   C24 1024   4.816   4.573   8.957  0.6492 -0.2349 -0.4692
   14CHL1  H24A 1025   4.724   4.630   8.933 -1.0118 -1.7070  1.9462
   14CHL1  H24B 1026   4.896   4.644   8.989 -1.2697  0.5510  3.1623
   14CHL1   C25 1027   4.850   4.492   8.839 -0.9985  0.7092  0.3556
   14CHL1   H25 1028   4.936   4.429   8.869 -0.4237  1.9351  1.4103
   14CHL1   C26 1029   4.730   4.396   8.806 -0.1600 -0.5453  0.4375
   14CHL1  H26A 1030   4.752   4.361   8.703  1.1718  3.1785 -0.7093
   14CHL1  H26B 1031   4.721   4.313   8.879 -0.1832 -0.7236  0.2352
   14CHL1  H26C 1032   4.633   4.451   8.802  0.6555  1.1023  1.9284
   14CHL1   C27 1033   4.894   4.580   8.719 -0.1082  0.3078 -0.1081
   14CHL1  H27A 1034   4.974   4.649   8.753  0.1642  0.0088 -0.1444
   14CHL1  H27B 1035   4.935   4.523   8.632 -0.4090 -0.0671 -0.0062
   14CHL1  H27C 1036   4.807   4.631   8.671 -1.1715  0.0449  1.4566
   15CHL1    C3 1037   5.125   2.071  10.014  0.2085  0.6762 -0.7104
   15CHL1    H3 1038   5.149   1.967   9.984  1.8306  0.9137 -0.3712
   15CHL1    O3 1039   5.124   2.073  10.157  0.3795 -0.7012  0.2355
   15CHL1   H3' 1040   5.040   2.038  10.186 -0.7045  2.8450  1.9348
   15CHL1    C4 1041   5.230   2.162   9.965 -0.3081 -0.3210  0.6787
   15CHL1   H4A 1042   5.220   2.265  10.006  2.6051 -0.3439  1.7004
   15CHL1   H4B 1043   5.328   2.131  10.007  0.5708 -0.2281 -1.1801
   15CHL1    C5 1044   5.225   2.158   9.812  0.0692  0.3557 -0.1731
   15CHL1    C6 1045   5.338   2.126   9.746  0.2944 -0.2137 -0.2603
   15CHL1    H6 1046   5.429   2.109   9.805  0.3656 -0.4560 -0.4397
   15CHL1    C7 1047   5.344   2.107   9.598  0.6641  0.0546 -0.0774
   15CHL1   H7A 1048   5.439   2.151   9.560  0.8707  0.3981  0.8202
   15CHL1   H7B 1049   5.351   1.997   9.582 -3.7263 -0.5346  0.7014
   15CHL1    C8 1050   5.215   2.153   9.527 -0.1425 -0.5370 -0.0571
   15CHL1    H8 1051   5.229   2.262   9.515  2.5783 -0.8514 -0.3165
   15CHL1   C14 1052   5.202   2.094   9.387 -0.2882 -0.5496  0.6002
   15CHL1   H14 1053   5.188   1.984   9.394 -0.2785 -0.5559  0.5215
   15CHL1   C15 1054   5.329   2.107   9.291  0.1665  0.4498 -0.4902
   15CHL1  H15A 1055   5.367   2.212   9.294 -0.3816  0.6405  0.9176
   15CHL1  H15B 1056   5.419   2.047   9.313  0.5527  0.7454 -1.2133
   15CHL1   C16 1057   5.272   2.085   9.150 -0.2439 -1.4623  0.1504
   15CHL1  H16A 1058   5.311   2.173   9.095 -1.4769 -1.4536 -0.7626
   15CHL1  H16B 1059   5.296   1.998   9.086 -2.7867 -1.2892 -1.2096
   15CHL1   C17 1060   5.120   2.092   9.161 -0.3038  0.0411 -0.2019
   15CHL1   H17 1061   5.086   1.988   9.174 -2.6293  0.9405  1.6015
   15CHL1   C13 1062   5.086   2.150   9.305  0.0390  0.4099  0.0638
   15CHL1   C18 1063   5.096   2.306   9.299 -0.1586 -0.0345  0.0134
   15CHL1  H18A 1064   5.023   2.351   9.229  2.1163 -1.2344 -3.4130
   15CHL1  H18B 1065   5.080   2.368   9.389  2.1378  0.7276 -0.0228
   15CHL1  H18C 1066   5.197   2.333   9.259  0.5743 -1.6249  0.6952
   15CHL1   C12 1067   4.956   2.115   9.378 -0.3261 -0.7083  0.1118
   15CHL1  H12A 1068   4.876   2.164   9.319 -0.9776 -1.8979 -0.0188
   15CHL1  H12B 1069   4.942   2.005   9.384 -0.2355 -0.7695 -0.7942
   15CHL1   C11 1070   4.958   2.162   9.524  0.5363 -0.4275 -0.7192
   15CHL1  H11A 1071   4.938   2.271   9.516 -1.5780 -0.5765  1.4103
   15CHL1  H11B 1072   4.867   2.124   9.574  0.4493  1.6854  0.8544
   15CHL1    C9 1073   5.089   2.120   9.606  0.0019 -0.4470  0.5343
   15CHL1    H9 1074   5.080   2.009   9.610  2.2639 -0.6491  1.0347
   15CHL1   C10 1075   5.085   2.172   9.753  0.1324  0.0332 -0.2920
   15CHL1   C19 1076   5.058   2.327   9.755 -0.4627  0.0930  0.4022
   15CHL1  H19A 1077   5.056   2.354   9.862  2.2389 -4.1578  1.8122
   15CHL1  H19B 1078   5.140   2.382   9.705  0.1059 -0.3681  0.8204
   15CHL1  H19C 1079   4.963   2.349   9.700 -0.0402 -1.1915 -0.9177
   15CHL1    C1 1080   4.976   2.102   9.833 -0.1283 -0.1350  0.1025
   15CHL1   H1A 1081   4.877   2.147   9.808  0.2691  1.2998  1.0233
   15CHL1   H1B 1082   4.983   1.994   9.808  0.4396  0.3927 -2.2276
   15CHL1    C2 1083   4.986   2.112   9.987 -0.9808 -0.4885  0.5435
   15CHL1   H2A 1084   4.908   2.046  10.031 -0.4180 -1.3532  0.2405
   15CHL1   H2B 1085   4.969   2.218  10.015  0.6043  0.0858 -0.5107
   15CHL1   C20 1086   5.040   2.154   9.037 -0.3250 -0.2727 -0.6129
   15CHL1   H20 1087   5.079   2.258   9.027  1.6289 -0.7951  0.8473
   15CHL1   C21 1088   4.892   2.159   9.064 -0.0733 -0.1927  0.4839
   15CHL1  H21A 1089   4.849   2.174   8.963  0.5640 -0.7741  0.1223
   15CHL1  H21B 1090   4.853   2.248   9.118  2.2663 -0.3192  2.5592
   15CHL1  H21C 1091   4.847   2.069   9.112 -0.6480  0.2004  0.6892
   15CHL1   C22 1092   5.083   2.084   8.907 -0.1442 -0.4067 -0.2003
   15CHL1  H22A 1093   5.048   2.144   8.821 -0.8312 -2.8460 -1.7239
   15CHL1  H22B 1094   5.193   2.076   8.898 -0.0542  0.1213  0.3392
   15CHL1   C23 1095   5.030   1.945   8.876  0.7272 -0.0949 -0.4072
   15CHL1  H23A 1096   5.097   1.888   8.944  0.4813  2.6952  2.3389
   15CHL1  H23B 1097   4.927   1.934   8.916  1.2290 -0.5082  0.8274
   15CHL1   C24 1098   5.041   1.897   8.734 -0.2016 -0.3324 -0.6453
   15CHL1  H24A 1099   5.026   1.787   8.729  1.1660 -0.5188 -1.2249
   15CHL1  H24B 1100   4.967   1.957   8.677  1.0521 -0.0615 -2.0725
   15CHL1   C25 1101   5.176   1.903   8.665 -0.1633 -0.6691  0.4565
   15CHL1   H25 1102   5.204   2.011   8.664 -2.6861  0.0564  1.2080
   15CHL1   C26 1103   5.291   1.814   8.734  0.3128  0.0181  0.4808
   15CHL1  H26A 1104   5.305   1.848   8.839  1.7454 -0.8416  0.5989
   15CHL1  H26B 1105   5.254   1.710   8.740  1.6937 -0.4559  1.1957
   15CHL1  H26C 1106   5.384   1.829   8.675  1.4968 -2.4844  1.5997
   15CHL1   C27 1107   5.158   1.858   8.511  0.4183  0.7933  0.4040
   15CHL1  H27A 1108   5.076   1.923   8.473  0.0674  0.8904  1.3146
   15CHL1  H27B 1109   5.248   1.880   8.449  0.0980  0.3535 -0.2350
   15CHL1  H27C 1110   5.132   1.750   8.505  0.7436  0.7398 -0.1806
   16CHL1    C3 1111   5.054   3.927  10.114  0.9900  0.4512 -0.2375
   16CHL1    H3 1112   5.078   3.819  10.109  1.3192  0.5333 -0.4656
   16CHL1    O3 1113   5.036   3.969  10.248  0.2052  0.6368  0.1591
   16CHL1   H3' 1114   5.127   3.971  10.280  0.3435  1.0801 -0.2432
   16CHL1    C4 1115   5.160   4.007  10.039 -0.2424  0.6885  0.0017
   16CHL1   H4A 1116   5.158   4.115  10.066  0.5061  0.9898 -1.0672
   16CHL1   H4B 1117   5.258   3.976  10.082 -0.4405  1.2936  0.9092
   16CHL1    C5 1118   5.155   3.983   9.889 -0.0405 -0.2089  0.0121
   16CHL1    C6 1119   5.271   3.944   9.832  0.2896 -0.6750  0.2406
   16CHL1    H6 1120   5.366   3.942   9.888  0.7368 -0.9293 -0.5074
   16CHL1    C7 1121   5.289   3.920   9.689  1.0981  0.1013  0.6050
   16CHL1   H7A 1122   5.377   3.973   9.647 -0.3583  0.2891 -2.4877
   16CHL1   H7B 1123   5.307   3.813   9.666  0.8981  0.5224 -1.8296
   16CHL1    C8 1124   5.166   3.964   9.605  0.0111 -0.3026  0.4036
   16CHL1    H8 1125   5.161   4.075   9.606  2.2536 -0.1427 -0.2415
   16CHL1   C14 1126   5.172   3.914   9.463 -0.1812  0.5211 -0.1447
   16CHL1   H14 1127   5.175   3.802   9.463  0.2873  0.5328  0.1177
   16CHL1   C15 1128   5.295   3.946   9.379 -0.6171 -0.2493  0.2275
   16CHL1  H15A 1129   5.320   4.054   9.386 -1.0937  0.2812 -3.8492
   16CHL1  H15B 1130   5.375   3.875   9.409 -0.3733  0.4390  1.2793
   16CHL1   C16 1131   5.258   3.909   9.236 -0.1056  0.8546  0.5403
   16CHL1  H16A 1132   5.290   3.993   9.170  0.8759  1.0128  1.1885
   16CHL1  H16B 1133   5.319   3.826   9.194  1.9226  3.8779 -3.1175
   16CHL1   C17 1134   5.104   3.883   9.246  0.3974  0.0367 -0.0959
   16CHL1   H17 1135   5.094   3.774   9.268  2.5151  0.4596  3.9031
   16CHL1   C13 1136   5.054   3.957   9.375 -0.6150 -0.1670  0.1668
   16CHL1   C18 1137   5.044   4.115   9.354  0.9612  0.0907  0.1750
   16CHL1  H18A 1138   4.940   4.131   9.320  1.8297 -0.9649 -3.3410
   16CHL1  H18B 1139   5.056   4.165   9.453 -0.7113  1.2540 -0.1690
   16CHL1  H18C 1140   5.109   4.162   9.277 -2.7446  2.9959 -1.5080
   16CHL1   C12 1141   4.922   3.899   9.442 -0.9239  0.2753  0.1786
   16CHL1  H12A 1142   4.828   3.936   9.395 -0.9410  0.4565  0.3572
   16CHL1  H12B 1143   4.921   3.788   9.434  2.5800  0.1840 -0.9323
   16CHL1   C11 1144   4.910   3.950   9.587 -0.3051  0.6013  0.4523
   16CHL1  H11A 1145   4.884   4.058   9.578 -2.9065  0.1006  0.9722
   16CHL1  H11B 1146   4.824   3.906   9.642  0.4169 -1.2098  0.2043
   16CHL1    C9 1147   5.033   3.919   9.673 -0.5134  0.0890 -0.8797
   16CHL1    H9 1148   5.040   3.809   9.682  1.8237  0.0267 -2.5523
   16CHL1   C10 1149   5.019   3.979   9.814  0.3829 -0.0068  0.0072
   16CHL1   C19 1150   4.955   4.123   9.804 -0.1375 -0.1683  0.5798
   16CHL1  H19A 1151   4.988   4.186   9.719  0.7508  0.4587  1.3590
   16CHL1  H19B 1152   4.845   4.131   9.799 -0.0480  1.2406  0.2663
   16CHL1  H19C 1153   4.975   4.165   9.905 -0.6823 -2.0934  1.5360
   16CHL1    C1 1154   4.924   3.887   9.905 -0.0817  0.1899 -0.0861
   16CHL1   H1A 1155   4.827   3.874   9.853  0.6107  1.7714 -1.9160
   16CHL1   H1B 1156   4.970   3.786   9.915  0.0115  0.1931 -0.4673
   16CHL1    C2 1157   4.915   3.936  10.051  0.7430 -0.4064  0.6501
   16CHL1   H2A 1158   4.845   3.871  10.108 -1.3050  1.0919 -0.0143
   16CHL1   H2B 1159   4.879   4.041  10.042 -2.6658 -1.3836  1.1372
   16CHL1   C20 1160   5.029   3.915   9.113 -0.3838 -0.3497  0.7449
   16CHL1   H20 1161   5.037   4.026   9.106  0.6333 -0.4516  0.0662
   16CHL1   C21 1162   4.878   3.873   9.123  0.2806  0.4086  0.4454
   16CHL1  H21A 1163   4.829   3.929   9.206 -2.5570 -2.5459  0.9722
   16CHL1  H21B 1164   4.859   3.766   9.142  0.0247  0.0849 -1.4339
   16CHL1  H21C 1165   4.828   3.905   9.030  2.0094  3.7212  0.5007
   16CHL1   C22 1166   5.091   3.866   8.978  0.8399 -0.6219  0.0535
   16CHL1  H22A 1167   5.036   3.891   8.885  0.7492 -0.7644  0.0679
   16CHL1  H22B 1168   5.191   3.911   8.963  0.5851  0.1835  0.7231
   16CHL1   C23 1169   5.087   3.716   8.978  0.4978 -0.2956 -0.1657
   16CHL1  H23A 1170   5.172   3.693   9.046  2.4832  1.6439 -1.8067
   16CHL1  H23B 1171   4.989   3.671   9.003  1.3939 -1.9953  0.4386
   16CHL1   C24 1172   5.115   3.671   8.835 -0.3257  0.4817 -0.4899
   16CHL1  H24A 1173   5.027   3.689   8.770 -2.1426 -1.0762  1.4134
   16CHL1  H24B 1174   5.206   3.726   8.802  1.4342 -1.4976  0.7786
   16CHL1   C25 1175   5.147   3.520   8.813  0.4191 -0.1552 -0.1614
   16CHL1   H25 1176   5.211   3.498   8.901  1.6116 -0.8070 -1.1609
   16CHL1   C26 1177   5.031   3.422   8.836 -0.0334  0.1873 -0.1684
   16CHL1  H26A 1178   4.973   3.451   8.925 -0.5765  2.1983 -1.1150
   16CHL1  H26B 1179   4.954   3.419   8.755 -2.5517  1.0218  2.0612
   16CHL1  H26C 1180   5.054   3.315   8.856 -1.5796 -0.7360 -2.7575
   16CHL1   C27 1181   5.229   3.495   8.687 -0.0932  0.2814 -0.0520
   16CHL1  H27A 1182   5.172   3.488   8.592 -0.0235 -0.7283 -0.0347
   16CHL1  H27B 1183   5.308   3.572   8.677 -0.6726  0.6962 -1.7201
   16CHL1  H27C 1184   5.276   3.394   8.693 -0.6993 -0.3118 -3.4818
   17CHL1    C3 1185   0.626   5.396  10.384 -0.2459  0.0348 -0.1222
   17CHL1    H3 1186   0.526   5.445  10.378  0.7141  2.1559  0.2317
   17CHL1    O3 1187   0.663   5.386  10.524 -0.1183 -0.0040  0.7345
   17CHL1   H3' 1188   0.741   5.331  10.516 -0.0561  0.3850 -2.3578
   17CHL1    C4 1189   0.617   5.251  10.341 -0.1655  0.5996  0.7131
   17CHL1   H4A 1190   0.718   5.205  10.353  0.1430  1.2258  0.5721
   17CHL1   H4B 1191   0.551   5.193  10.408 -1.5398  1.4342  0.1124
   17CHL1    C5 1192   0.572   5.255  10.199  0.3827 -0.3820  0.1285
   17CHL1    C6 1193   0.456   5.197  10.170  0.2255  0.1646  0.1958
   17CHL1    H6 1194   0.390   5.152  10.246 -0.3946  0.2827 -0.2595
   17CHL1    C7 1195   0.396   5.187  10.037  0.5318 -0.4913  0.5517
   17CHL1   H7A 1196   0.370   5.082  10.011 -0.8867  0.3364 -1.6206
   17CHL1   H7B 1197   0.300   5.243  10.038 -0.1255 -1.5539  1.8177
   17CHL1    C8 1198   0.496   5.240   9.927  0.8383  0.3501  0.3271
   17CHL1    H8 1199   0.573   5.159   9.928 -0.0684 -0.5257  1.4274
   17CHL1   C14 1200   0.425   5.259   9.791  0.6023  0.0012 -0.3924
   17CHL1   H14 1201   0.347   5.336   9.809  1.6848  1.0906 -0.2117
   17CHL1   C15 1202   0.352   5.137   9.729  0.3190  0.2096  1.0486
   17CHL1  H15A 1203   0.408   5.042   9.747 -0.2657 -0.1612  0.9593
   17CHL1  H15B 1204   0.247   5.131   9.766  0.5772  0.9855  1.9375
   17CHL1   C16 1205   0.344   5.165   9.577  0.3401  0.3513  0.5247
   17CHL1  H16A 1206   0.415   5.090   9.537  1.8723  1.4927  1.0336
   17CHL1  H16B 1207   0.243   5.139   9.539  1.7519 -1.1067 -2.5674
   17CHL1   C17 1208   0.420   5.301   9.551  0.2844 -0.2469 -0.6359
   17CHL1   H17 1209   0.338   5.376   9.558  1.6964  1.1856  1.9711
   17CHL1   C13 1210   0.520   5.309   9.675  0.3982  0.2010 -0.7809
   17CHL1   C18 1211   0.638   5.208   9.658 -0.0528  0.2855  0.3987
   17CHL1  H18A 1212   0.597   5.118   9.607  1.0898 -1.1200  1.8574
   17CHL1  H18B 1213   0.717   5.250   9.592 -0.6541  2.0369  0.7372
   17CHL1  H18C 1214   0.691   5.178   9.751 -0.4715  1.3507  1.0012
   17CHL1   C12 1215   0.585   5.444   9.715 -0.3485 -0.6003  0.6586
   17CHL1  H12A 1216   0.648   5.470   9.628 -1.1861 -0.4370  0.0855
   17CHL1  H12B 1217   0.503   5.519   9.727  1.4615  1.2996  1.9255
   17CHL1   C11 1218   0.652   5.434   9.847  0.5195 -0.5403 -0.5073
   17CHL1  H11A 1219   0.745   5.380   9.821  0.1618  0.0550 -3.2381
   17CHL1  H11B 1220   0.685   5.533   9.885  0.3237 -0.3553 -0.8183
   17CHL1    C9 1221   0.571   5.368   9.963  0.0843  0.2187 -0.2371
   17CHL1    H9 1222   0.494   5.446   9.982 -1.5052 -1.8448  2.6078
   17CHL1   C10 1223   0.650   5.347  10.096  0.4799 -0.2247  0.4311
   17CHL1   C19 1224   0.791   5.281  10.067  0.6209  0.1025  0.6282
   17CHL1  H19A 1225   0.779   5.177  10.029  0.2666  0.2486  0.3238
   17CHL1  H19B 1226   0.854   5.345  10.000  0.7501 -0.4563  0.2055
   17CHL1  H19C 1227   0.850   5.263  10.159 -0.5554  0.0453  1.3757
   17CHL1    C1 1228   0.671   5.490  10.163  0.7317  0.4118  0.6912
   17CHL1   H1A 1229   0.742   5.551  10.102 -1.7128  1.6409 -1.0985
   17CHL1   H1B 1230   0.567   5.529  10.164  1.1568  1.7758  3.8848
   17CHL1    C2 1231   0.721   5.488  10.303  0.2826 -0.0020 -0.5526
   17CHL1   H2A 1232   0.695   5.588  10.344  0.1715 -0.9974  1.9845
   17CHL1   H2B 1233   0.828   5.460  10.316 -0.0879 -0.9429  0.6881
   17CHL1   C20 1234   0.483   5.301   9.410  0.3292  0.6303  0.0364
   17CHL1   H20 1235   0.551   5.215   9.394  0.6265  1.2321 -2.2622
   17CHL1   C21 1236   0.544   5.440   9.386  0.2388  0.7056  0.1802
   17CHL1  H21A 1237   0.475   5.523   9.412  0.0561  0.4694  0.4615
   17CHL1  H21B 1238   0.560   5.459   9.278  0.5192 -2.8056 -0.5300
   17CHL1  H21C 1239   0.637   5.448   9.447  1.1430 -1.0568 -0.8910
   17CHL1   C22 1240   0.362   5.281   9.311  0.4068 -0.2188  0.1726
   17CHL1  H22A 1241   0.307   5.186   9.331 -1.8692  1.0497  0.3109
   17CHL1  H22B 1242   0.287   5.363   9.318  0.2758 -0.3533  0.3544
   17CHL1   C23 1243   0.402   5.278   9.162 -0.5836 -0.6223  0.3655
   17CHL1  H23A 1244   0.466   5.363   9.128 -0.7204 -0.8125 -0.3936
   17CHL1  H23B 1245   0.450   5.179   9.146 -1.1223 -0.4538 -3.1538
   17CHL1   C24 1246   0.273   5.282   9.070 -0.6566  0.3483 -0.2641
   17CHL1  H24A 1247   0.196   5.216   9.115 -0.6206  0.5648  0.1248
   17CHL1  H24B 1248   0.238   5.387   9.075 -1.3489  0.1051  0.0372
   17CHL1   C25 1249   0.283   5.241   8.924 -0.1493  0.7683 -0.2479
   17CHL1   H25 1250   0.186   5.262   8.873 -1.3560  0.9503  2.0293
   17CHL1   C26 1251   0.380   5.342   8.860 -0.2319 -0.0352  0.2881
   17CHL1  H26A 1252   0.383   5.316   8.752  0.3764 -1.1293  0.5448
   17CHL1  H26B 1253   0.357   5.449   8.878 -1.4894 -0.4500  1.3959
   17CHL1  H26C 1254   0.484   5.322   8.893  0.9448  2.7426 -1.4556
   17CHL1   C27 1255   0.324   5.093   8.892  0.5896 -0.6173  0.2044
   17CHL1  H27A 1256   0.386   5.056   8.977  0.6352 -1.7469 -0.3048
   17CHL1  H27B 1257   0.236   5.026   8.881 -0.2900  0.4617  0.4333
   17CHL1  H27C 1258   0.364   5.097   8.789 -2.6050 -1.3689 -1.1804
   18CHL1    C3 1259   0.370   5.766  10.199  0.2128  0.2215 -0.2255
   18CHL1    H3 1260   0.468   5.787  10.151  0.2685 -1.2576 -0.7998
   18CHL1    O3 1261   0.364   5.751  10.338  0.0393 -0.4487 -0.5892
   18CHL1   H3' 1262   0.361   5.656  10.355  0.3069 -0.5511 -1.1047
   18CHL1    C4 1263   0.282   5.885  10.156 -0.3571  0.1482  0.3528
   18CHL1   H4A 1264   0.180   5.877  10.199 -0.0910 -1.4018  0.7556
   18CHL1   H4B 1265   0.333   5.973  10.200  1.8313 -0.1931 -1.2851
   18CHL1    C5 1266   0.260   5.894  10.006  0.4928  0.5144 -0.0980
   18CHL1    C6 1267   0.282   6.010   9.941 -0.5946  0.2433 -0.5896
   18CHL1    H6 1268   0.298   6.101  10.000 -1.8796  0.1842 -0.1199
   18CHL1    C7 1269   0.276   6.035   9.787  0.6208 -0.1959 -0.4656
   18CHL1   H7A 1270   0.216   6.127   9.772 -0.0147 -0.9093 -2.6068
   18CHL1   H7B 1271   0.372   6.071   9.745  1.1397 -1.3543 -0.3266
   18CHL1    C8 1272   0.215   5.920   9.711  0.0840 -0.1481 -0.3453
   18CHL1    H8 1273   0.105   5.926   9.721  0.1469 -0.8401  1.0075
   18CHL1   C14 1274   0.251   5.923   9.560 -0.0703  0.0047 -0.0227
   18CHL1   H14 1275   0.362   5.927   9.557 -0.1338  1.2750 -1.1955
   18CHL1   C15 1276   0.228   6.051   9.485  0.6468  0.0194 -0.0975
   18CHL1  H15A 1277   0.132   6.097   9.518 -0.1384 -1.2444 -0.5129
   18CHL1  H15B 1278   0.309   6.125   9.497 -0.2223  0.8314  0.8891
   18CHL1   C16 1279   0.226   6.008   9.338 -0.0348 -0.2467  0.1127
   18CHL1  H16A 1280   0.127   6.040   9.298  0.9425  2.2763 -0.4935
   18CHL1  H16B 1281   0.306   6.055   9.277 -2.3749  1.9289 -1.5094
   18CHL1   C17 1282   0.248   5.855   9.338 -1.2135  0.3053  0.0766
   18CHL1   H17 1283   0.356   5.833   9.337 -1.7430 -2.5958 -1.0642
   18CHL1   C13 1284   0.200   5.808   9.474  0.2722  0.2667  0.7976
   18CHL1   C18 1285   0.045   5.802   9.492  0.2531 -0.2804  0.2044
   18CHL1  H18A 1286   0.006   5.724   9.423  0.3341 -0.4007  0.2940
   18CHL1  H18B 1287   0.015   5.775   9.596 -0.6940 -1.0692 -0.2561
   18CHL1  H18C 1288  -0.010   5.895   9.467 -2.4011 -1.7503  0.1950
   18CHL1   C12 1289   0.271   5.682   9.530  0.2058 -0.0458 -0.2258
   18CHL1  H12A 1290   0.241   5.587   9.480  1.3908 -0.5417 -0.0207
   18CHL1  H12B 1291   0.381   5.697   9.529  0.5057 -1.6490  1.8992
   18CHL1   C11 1292   0.235   5.666   9.679  0.0987  0.3800 -0.5116
   18CHL1  H11A 1293   0.131   5.628   9.687 -0.2437  0.6643 -2.9224
   18CHL1  H11B 1294   0.299   5.591   9.730 -1.9226  1.0941  3.5327
   18CHL1    C9 1295   0.261   5.788   9.773 -0.9129  0.2461  0.4193
   18CHL1    H9 1296   0.372   5.794   9.781 -0.7319 -1.3869 -0.3336
   18CHL1   C10 1297   0.225   5.766   9.924 -0.5213 -0.7064 -0.1215
   18CHL1   C19 1298   0.078   5.729   9.939 -0.1233 -0.2600 -0.2807
   18CHL1  H19A 1299   0.016   5.804   9.886  0.2159 -0.1403 -0.5090
   18CHL1  H19B 1300   0.059   5.632   9.888 -1.1399 -0.7524  0.9732
   18CHL1  H19C 1301   0.037   5.712  10.041  1.1494 -0.0548  0.2760
   18CHL1    C1 1302   0.316   5.656   9.979 -0.2205 -0.7146  0.7288
   18CHL1   H1A 1303   0.284   5.561   9.932 -1.0091 -1.2772  2.3231
   18CHL1   H1B 1304   0.423   5.671   9.953 -0.7230 -0.9606 -1.7501
   18CHL1    C2 1305   0.310   5.636  10.130  0.3121  0.3117 -0.2350
   18CHL1   H2A 1306   0.372   5.549  10.161  0.8394  1.8531  3.5996
   18CHL1   H2B 1307   0.213   5.620  10.181  1.7471 -1.9398  2.0428
   18CHL1   C20 1308   0.194   5.788   9.208 -0.2477 -0.0272  0.6742
   18CHL1   H20 1309   0.090   5.815   9.178  0.2685  1.6334  0.2957
   18CHL1   C21 1310   0.211   5.633   9.219  0.5666  0.5559  0.0959
   18CHL1  H21A 1311   0.174   5.596   9.121 -0.1345  0.5153  0.3757
   18CHL1  H21B 1312   0.153   5.597   9.306  2.7655  2.2598  2.4160
   18CHL1  H21C 1313   0.312   5.587   9.225  0.1904 -0.4884 -1.2148
   18CHL1   C22 1314   0.284   5.837   9.095  0.3760  0.5103  0.9984
   18CHL1  H22A 1315   0.291   5.947   9.083  1.2454  0.5390  1.6615
   18CHL1  H22B 1316   0.388   5.800   9.112  0.2582  0.6287  2.0361
   18CHL1   C23 1317   0.251   5.778   8.953 -0.8811 -0.6594  0.3665
   18CHL1  H23A 1318   0.234   5.669   8.942 -1.9213 -0.3891 -0.9824
   18CHL1  H23B 1319   0.151   5.815   8.923 -0.9856 -1.8013 -0.7824
   18CHL1   C24 1320   0.369   5.811   8.848  0.5865  0.1813 -0.4011
   18CHL1  H24A 1321   0.389   5.915   8.882 -4.4345  1.9286 -1.8700
   18CHL1  H24B 1322   0.451   5.740   8.873 -1.5479 -1.6469  2.1046
   18CHL1   C25 1323   0.322   5.813   8.701 -0.2851  0.7011 -0.0944
   18CHL1   H25 1324   0.232   5.878   8.693  1.4402  3.1037 -0.8862
   18CHL1   C26 1325   0.432   5.870   8.615  0.7494  0.1249 -0.0825
   18CHL1  H26A 1326   0.524   5.808   8.628  0.9724  0.6735  1.1669
   18CHL1  H26B 1327   0.407   5.883   8.508 -0.0766 -0.0308  0.0874
   18CHL1  H26C 1328   0.466   5.970   8.651  1.2161  0.1109 -0.4826
   18CHL1   C27 1329   0.281   5.672   8.653 -0.0091  0.0236  0.2384
   18CHL1  H27A 1330   0.236   5.611   8.735  1.1575 -0.4457  0.5559
   18CHL1  H27B 1331   0.220   5.684   8.560  1.1952 -2.1659 -0.9108
   18CHL1  H27C 1332   0.371   5.609   8.636  0.5028  1.1119 -1.2254
   19CHL1    C3 1333   4.862   3.549  10.144  0.5736 -0.5761  0.4750
   19CHL1    H3 1334   4.929   3.627  10.101 -0.2481 -1.3988 -2.5170
   19CHL1    O3 1335   4.873   3.532  10.282 -0.2763 -0.1593 -0.2654
   19CHL1   H3' 1336   4.851   3.610  10.333  0.6277  0.9739 -1.5562
   19CHL1    C4 1337   4.713   3.584  10.110  0.0500  0.0845 -0.4397
   19CHL1   H4A 1338   4.646   3.516  10.166 -2.0063  1.3375 -1.2854
   19CHL1   H4B 1339   4.699   3.686  10.151 -2.2631  0.6842 -2.4891
   19CHL1    C5 1340   4.688   3.573   9.960 -0.1518 -0.6347 -0.1461
   19CHL1    C6 1341   4.626   3.680   9.903  0.6172 -0.3232  0.0061
   19CHL1    H6 1342   4.589   3.760   9.970  0.2953 -1.3618  1.1131
   19CHL1    C7 1343   4.594   3.694   9.760  0.4671 -1.0170  0.0976
   19CHL1   H7A 1344   4.490   3.732   9.746  0.8662  1.6260  3.1458
   19CHL1   H7B 1345   4.654   3.775   9.712 -0.3460 -1.5176 -1.8670
   19CHL1    C8 1346   4.618   3.562   9.674 -0.1620 -0.6631  0.7140
   19CHL1    H8 1347   4.521   3.508   9.676  0.2367 -1.4291 -0.0979
   19CHL1   C14 1348   4.645   3.599   9.528  0.0745  0.1882 -0.0916
   19CHL1   H14 1349   4.747   3.645   9.527  0.5837 -0.9034 -1.4402
   19CHL1   C15 1350   4.549   3.699   9.464  0.2971 -0.6374 -0.4084
   19CHL1  H15A 1351   4.447   3.667   9.493 -0.3778 -0.6039 -2.5414
   19CHL1  H15B 1352   4.570   3.800   9.505  0.2067 -0.1274 -1.5652
   19CHL1   C16 1353   4.576   3.680   9.311  0.2283 -0.2108  0.4255
   19CHL1  H16A 1354   4.480   3.655   9.261  0.3785 -0.0854  0.0722
   19CHL1  H16B 1355   4.604   3.778   9.268 -3.0652  0.1414 -1.1867
   19CHL1   C17 1356   4.672   3.551   9.303  0.1324  0.2895 -0.4910
   19CHL1   H17 1357   4.771   3.601   9.297 -1.0291  2.5769 -2.9181
   19CHL1   C13 1358   4.657   3.482   9.435 -0.1653  0.4299 -0.4369
   19CHL1   C18 1359   4.534   3.388   9.440  0.2899 -0.2542 -0.0882
   19CHL1  H18A 1360   4.447   3.443   9.399 -1.0061 -1.0664  1.4819
   19CHL1  H18B 1361   4.548   3.295   9.379 -0.9578 -0.1595 -0.5607
   19CHL1  H18C 1362   4.499   3.358   9.541  2.4853 -3.1732 -0.0450
   19CHL1   C12 1363   4.778   3.386   9.479  0.1704  0.6674  0.0352
   19CHL1  H12A 1364   4.770   3.289   9.426  0.3676  0.1810  0.8765
   19CHL1  H12B 1365   4.872   3.440   9.456  0.3276  0.4645  0.1959
   19CHL1   C11 1366   4.772   3.353   9.633  0.6743 -0.0180  0.2374
   19CHL1  H11A 1367   4.684   3.286   9.641  0.4187  0.2075 -0.5962
   19CHL1  H11B 1368   4.861   3.297   9.669 -0.4734 -0.3849  2.6668
   19CHL1    C9 1369   4.739   3.480   9.731 -0.2040 -0.6199  1.4239
   19CHL1    H9 1370   4.825   3.550   9.720  0.0185 -1.1658 -0.8759
   19CHL1   C10 1371   4.737   3.453   9.882  0.9452  1.0502 -0.0025
   19CHL1   C19 1372   4.631   3.331   9.899 -1.3886 -0.2296  0.2733
   19CHL1  H19A 1373   4.588   3.325  10.002 -0.2460  0.1845  0.7997
   19CHL1  H19B 1374   4.551   3.353   9.826 -0.7329  2.7021  0.3234
   19CHL1  H19C 1375   4.682   3.234   9.880  2.4037  1.7255 -0.4179
   19CHL1    C1 1376   4.880   3.405   9.936  0.5232 -0.0662 -0.2129
   19CHL1   H1A 1377   4.907   3.307   9.891  1.2546 -0.5200  1.1751
   19CHL1   H1B 1378   4.953   3.478   9.895  0.8120  0.0822  0.5528
   19CHL1    C2 1379   4.903   3.411  10.088  0.4077 -0.2506 -0.6383
   19CHL1   H2A 1380   5.008   3.381  10.109 -0.1237 -0.4334  2.2554
   19CHL1   H2B 1381   4.828   3.340  10.130 -0.1530  1.0112  0.5992
   19CHL1   C20 1382   4.650   3.466   9.170 -0.1715 -0.0424 -0.2829
   19CHL1   H20 1383   4.560   3.402   9.181  0.1265 -0.3136  0.6594
   19CHL1   C21 1384   4.776   3.380   9.151  0.5929 -1.0259  0.5743
   19CHL1  H21A 1385   4.868   3.441   9.166 -0.4322  0.3789  1.4807
   19CHL1  H21B 1386   4.776   3.322   9.057 -0.7392 -0.7201  0.3700
   19CHL1  H21C 1387   4.769   3.308   9.235  1.1349 -1.8618 -0.0884
   19CHL1   C22 1388   4.617   3.568   9.057  0.1452 -0.8169 -0.3099
   19CHL1  H22A 1389   4.534   3.638   9.081  0.2257 -0.8861  0.1921
   19CHL1  H22B 1390   4.701   3.635   9.032 -0.3503  0.4634  1.2739
   19CHL1   C23 1391   4.568   3.498   8.928  0.1011 -0.2654 -0.0099
   19CHL1  H23A 1392   4.576   3.582   8.856  0.2764  1.2930  1.7350
   19CHL1  H23B 1393   4.626   3.416   8.882  1.1853 -0.5550  1.7887
   19CHL1   C24 1394   4.426   3.441   8.943 -0.0646 -0.5418 -0.0581
   19CHL1  H24A 1395   4.429   3.351   9.009 -3.2704 -1.9925 -1.6553
   19CHL1  H24B 1396   4.359   3.517   8.988 -2.5890 -2.4794 -0.3054
   19CHL1   C25 1397   4.368   3.390   8.811  0.1495  1.0255  0.5066
   19CHL1   H25 1398   4.428   3.304   8.774 -0.3247  0.9915 -0.1832
   19CHL1   C26 1399   4.222   3.339   8.828  0.6999  0.7507  0.2643
   19CHL1  H26A 1400   4.200   3.265   8.908 -1.2022 -1.3028 -1.9903
   19CHL1  H26B 1401   4.150   3.424   8.829 -2.5441 -1.7904  1.1868
   19CHL1  H26C 1402   4.194   3.288   8.733  0.0504 -0.4223  1.0601
   19CHL1   C27 1403   4.362   3.491   8.696 -0.1029 -0.0325  0.2141
   19CHL1  H27A 1404   4.303   3.453   8.610 -0.5765  2.0064 -0.3971
   19CHL1  H27B 1405   4.318   3.587   8.729  2.6718  1.2596  0.4137
   19CHL1  H27C 1406   4.468   3.512   8.671  0.4355 -1.2510  1.2986
   20CHL1    C3 1407   6.047   2.828  10.206 -0.8476 -0.1316 -0.4201
   20CHL1    H3 1408   6.082   2.928  10.174  3.0383 -1.8447 -2.2101
   20CHL1    O3 1409   6.004   2.832  10.337  0.6604 -0.3427  0.2482
   20CHL1   H3' 1410   5.990   2.740  10.361  1.7245 -1.0203 -1.5498
   20CHL1    C4 1411   5.924   2.772  10.115 -0.2172  0.0374  0.3666
   20CHL1   H4A 1412   5.887   2.677  10.159  1.0168 -1.2055 -1.1591
   20CHL1   H4B 1413   5.844   2.849  10.110  0.4881  0.7339 -0.6712
   20CHL1    C5 1414   5.972   2.745   9.975  0.2844  0.4563  0.5592
   20CHL1    C6 1415   5.908   2.812   9.873  0.0317  0.0260 -0.4337
   20CHL1    H6 1416   5.825   2.878   9.902  1.1855  0.7446  1.3773
   20CHL1    C7 1417   5.938   2.798   9.725  0.4695  0.5535  0.3558
   20CHL1   H7A 1418   5.842   2.789   9.669  0.6360  0.5644  0.0656
   20CHL1   H7B 1419   5.996   2.883   9.684 -2.3204  1.6332 -1.7288
   20CHL1    C8 1420   6.017   2.663   9.702  1.0806 -0.8441 -0.6984
   20CHL1    H8 1421   5.947   2.580   9.724  0.0803  0.2097  0.1539
   20CHL1   C14 1422   6.065   2.661   9.557  0.7546  0.1891 -0.4205
   20CHL1   H14 1423   6.135   2.747   9.553  0.1275  0.7178 -0.0887
   20CHL1   C15 1424   5.960   2.676   9.441 -0.4377  0.1838  0.9350
   20CHL1  H15A 1425   5.862   2.625   9.454 -1.2605  1.0546 -1.3872
   20CHL1  H15B 1426   5.944   2.785   9.428  1.0844  0.2166 -1.4423
   20CHL1   C16 1427   6.036   2.627   9.317  0.1455  0.5280  0.2175
   20CHL1  H16A 1428   5.966   2.560   9.263  0.2984 -0.1723  0.8671
   20CHL1  H16B 1429   6.066   2.706   9.245 -0.3448  1.1863  0.7238
   20CHL1   C17 1430   6.159   2.556   9.363 -0.4526  0.7310  0.0736
   20CHL1   H17 1431   6.243   2.630   9.362 -0.0253  0.3413  2.5249
   20CHL1   C13 1432   6.136   2.526   9.517  0.2684  0.4258 -0.4936
   20CHL1   C18 1433   6.042   2.398   9.524  0.3840 -0.4464 -0.5533
   20CHL1  H18A 1434   5.959   2.408   9.451 -1.1687  1.2431  1.3246
   20CHL1  H18B 1435   6.104   2.305   9.524 -3.0268 -2.9832  1.7142
   20CHL1  H18C 1436   6.002   2.384   9.627  1.1782 -0.4481 -0.2351
   20CHL1   C12 1437   6.264   2.521   9.608 -0.1723  0.1198  0.4234
   20CHL1  H12A 1438   6.308   2.420   9.602 -1.3603 -0.3508 -1.6164
   20CHL1  H12B 1439   6.332   2.600   9.569  1.1331 -2.3805 -2.8428
   20CHL1   C11 1440   6.222   2.533   9.757 -1.3125 -0.0373 -0.3239
   20CHL1  H11A 1441   6.189   2.430   9.783 -1.6817 -0.1006 -1.0303
   20CHL1  H11B 1442   6.311   2.548   9.822 -1.4810  0.1936 -0.1445
   20CHL1    C9 1443   6.135   2.655   9.794 -0.6021  0.1646  0.8393
   20CHL1    H9 1444   6.197   2.746   9.776  0.0057 -0.5136 -0.6719
   20CHL1   C10 1445   6.084   2.647   9.948 -0.3747 -0.2757 -0.5383
   20CHL1   C19 1446   6.022   2.505   9.979  0.0239 -0.2168  0.5380
   20CHL1  H19A 1447   6.081   2.411   9.972 -0.2254 -0.4655  1.5445
   20CHL1  H19B 1448   5.985   2.502  10.084  0.8056 -3.1685  0.8232
   20CHL1  H19C 1449   5.931   2.486   9.918 -0.4853 -0.8201  1.4486
   20CHL1    C1 1450   6.201   2.688  10.045  0.1689  0.3801 -0.3722
   20CHL1   H1A 1451   6.276   2.607  10.061 -0.3090  0.0612  0.3237
   20CHL1   H1B 1452   6.236   2.788  10.012 -1.4110  0.6952 -1.2008
   20CHL1    C2 1453   6.163   2.724  10.195 -0.4596 -0.0709  0.2204
   20CHL1   H2A 1454   6.242   2.777  10.253 -0.9633  0.9850 -0.0353
   20CHL1   H2B 1455   6.123   2.628  10.236  0.4634 -1.4251 -1.8699
   20CHL1   C20 1456   6.196   2.435   9.268  0.1541 -1.0056  0.3557
   20CHL1   H20 1457   6.106   2.374   9.245  0.4681 -0.9248 -1.1908
   20CHL1   C21 1458   6.308   2.344   9.321 -0.0247 -0.6893  0.2479
   20CHL1  H21A 1459   6.341   2.283   9.234  3.6710  1.4185 -0.0399
   20CHL1  H21B 1460   6.276   2.276   9.403  1.6975 -3.3045 -1.0845
   20CHL1  H21C 1461   6.400   2.404   9.337 -0.9203  0.9880 -0.6017
   20CHL1   C22 1462   6.229   2.490   9.129 -0.3167  0.1821 -0.0211
   20CHL1  H22A 1463   6.176   2.587   9.116  1.5251  1.3954  1.1512
   20CHL1  H22B 1464   6.332   2.531   9.123 -0.5771  0.6891 -1.5645
   20CHL1   C23 1465   6.192   2.395   9.017  0.8315  0.5108 -0.2157
   20CHL1  H23A 1466   6.246   2.298   9.023 -0.3152 -0.3013 -2.0332
   20CHL1  H23B 1467   6.086   2.364   9.016  0.9515  0.0520 -1.9450
   20CHL1   C24 1468   6.211   2.458   8.878 -0.4132 -0.4172 -0.1979
   20CHL1  H24A 1469   6.145   2.547   8.886 -1.9948 -1.6800  1.9792
   20CHL1  H24B 1470   6.316   2.491   8.863  0.6576 -2.0148  2.8108
   20CHL1   C25 1471   6.153   2.361   8.774  0.5228 -0.3544 -0.5543
   20CHL1   H25 1472   6.054   2.329   8.812 -0.2151  2.1207 -0.1775
   20CHL1   C26 1473   6.118   2.435   8.645  0.7845  0.3007  0.2209
   20CHL1  H26A 1474   6.205   2.490   8.603  0.7808 -0.1561 -0.4223
   20CHL1  H26B 1475   6.078   2.363   8.569  0.4066  2.5036 -1.7863
   20CHL1  H26C 1476   6.046   2.518   8.656 -1.6551 -1.3447 -2.0244
   20CHL1   C27 1477   6.252   2.254   8.744  0.1798 -0.1226  0.2779
   20CHL1  H27A 1478   6.228   2.213   8.643  1.6782  0.2311 -0.2486
   20CHL1  H27B 1479   6.357   2.290   8.735 -0.2647  0.8184 -1.6269
   20CHL1  H27C 1480   6.245   2.171   8.818 -3.6769  1.6900  2.2259
   21CHL1    C3 1481   6.803   5.407  10.264  1.2811 -0.1908 -0.7476
   21CHL1    H3 1482   6.845   5.510  10.262  0.5311  0.1456  0.0459
   21CHL1    O3 1483   6.813   5.377  10.401 -0.0735  0.6523 -0.2781
   21CHL1   H3' 1484   6.845   5.457  10.442 -2.0338  0.5559  1.6362
   21CHL1    C4 1485   6.654   5.415  10.221 -0.0985 -0.5559  0.3559
   21CHL1   H4A 1486   6.605   5.318  10.248 -0.7867 -0.5783 -0.9000
   21CHL1   H4B 1487   6.616   5.501  10.281  3.2746  0.3164  1.4451
   21CHL1    C5 1488   6.646   5.434  10.068 -0.3531 -0.8785  0.0331
   21CHL1    C6 1489   6.582   5.541  10.016  0.1219 -0.3048 -0.1146
   21CHL1    H6 1490   6.518   5.603  10.080 -1.2667 -2.3010  0.5349
   21CHL1    C7 1491   6.562   5.547   9.866  0.6848  0.2245 -0.1664
   21CHL1   H7A 1492   6.457   5.574   9.846 -0.0933 -0.9790  1.9383
   21CHL1   H7B 1493   6.627   5.627   9.825  1.1704 -1.0600 -2.0631
   21CHL1    C8 1494   6.597   5.423   9.780 -0.2694  0.0714  0.5053
   21CHL1    H8 1495   6.513   5.351   9.791 -0.5901  0.3643  0.0162
   21CHL1   C14 1496   6.608   5.462   9.633 -0.6439  0.1027 -0.1620
   21CHL1   H14 1497   6.700   5.524   9.627  0.3187 -1.2129  0.5385
   21CHL1   C15 1498   6.491   5.538   9.568  0.3127 -0.0095  0.0911
   21CHL1  H15A 1499   6.396   5.480   9.575  1.9272 -3.1852 -1.8909
   21CHL1  H15B 1500   6.487   5.643   9.604  0.2736 -0.2377  0.7696
   21CHL1   C16 1501   6.538   5.537   9.420  0.4009 -0.5914 -1.4559
   21CHL1  H16A 1502   6.453   5.512   9.354  0.8861 -1.4619 -1.7713
   21CHL1  H16B 1503   6.584   5.636   9.401 -1.5779  0.0280 -3.4598
   21CHL1   C17 1504   6.651   5.439   9.405  0.2242  0.0191 -0.9429
   21CHL1   H17 1505   6.744   5.499   9.412  1.4052 -1.8301 -0.1626
   21CHL1   C13 1506   6.649   5.353   9.532 -0.0781  0.7818 -0.8251
   21CHL1   C18 1507   6.545   5.239   9.528  0.9695 -0.1969 -0.0958
   21CHL1  H18A 1508   6.446   5.280   9.498 -0.6453 -3.3021  0.6550
   21CHL1  H18B 1509   6.577   5.159   9.458 -0.4098 -0.3971 -0.5317
   21CHL1  H18C 1510   6.525   5.188   9.624  0.2244 -0.9955 -0.6566
   21CHL1   C12 1511   6.778   5.292   9.585  1.0385 -0.3994 -0.1537
   21CHL1  H12A 1512   6.816   5.199   9.537  4.7232  0.9269 -0.1698
   21CHL1  H12B 1513   6.864   5.360   9.565  0.7816 -0.2515 -0.7873
   21CHL1   C11 1514   6.778   5.254   9.734  0.7445 -0.2640 -0.1361
   21CHL1  H11A 1515   6.703   5.172   9.741  3.9683 -3.5595 -1.1442
   21CHL1  H11B 1516   6.880   5.226   9.768  0.2443  0.3449  2.0325
   21CHL1    C9 1517   6.726   5.363   9.835 -0.0274 -0.2924  0.4942
   21CHL1    H9 1518   6.796   5.448   9.825 -1.2398  0.5840 -1.1733
   21CHL1   C10 1519   6.719   5.329   9.987 -0.5019 -0.2157 -0.4784
   21CHL1   C19 1520   6.640   5.199  10.010  0.0118 -0.1826  0.1482
   21CHL1  H19A 1521   6.641   5.172  10.118  1.3040  0.3185  0.2823
   21CHL1  H19B 1522   6.536   5.203   9.970 -0.5040  0.0539  1.4358
   21CHL1  H19C 1523   6.687   5.114   9.956  0.2934  0.7720 -1.1641
   21CHL1    C1 1524   6.865   5.319  10.034 -0.0578  0.4592  0.5311
   21CHL1   H1A 1525   6.910   5.232   9.982 -2.9472  0.1194 -1.6673
   21CHL1   H1B 1526   6.929   5.403   9.998  0.4420  0.5203  1.5426
   21CHL1    C2 1527   6.885   5.307  10.186 -0.1364  0.2578  0.1247
   21CHL1   H2A 1528   6.992   5.320  10.211  0.1769 -1.6474 -0.0571
   21CHL1   H2B 1529   6.855   5.205  10.216  2.2628 -0.2053  1.1618
   21CHL1   C20 1530   6.648   5.371   9.263 -0.3899 -0.2305  0.2941
   21CHL1   H20 1531   6.552   5.324   9.233  0.4765 -1.0724 -1.2923
   21CHL1   C21 1532   6.766   5.268   9.253  0.2413 -0.3742  0.2148
   21CHL1  H21A 1533   6.761   5.180   9.321  1.9570 -0.6448  0.0444
   21CHL1  H21B 1534   6.860   5.326   9.264 -0.5835  0.8112  1.3637
   21CHL1  H21C 1535   6.759   5.226   9.150  0.0603 -1.2544  0.5752
   21CHL1   C22 1536   6.676   5.488   9.162  0.4385  0.0015 -0.6729
   21CHL1  H22A 1537   6.588   5.555   9.171 -0.6836 -1.7402  3.3838
   21CHL1  H22B 1538   6.768   5.540   9.197  1.8258 -1.8263 -1.4474
   21CHL1   C23 1539   6.686   5.453   9.011 -0.8115  0.1061  0.3283
   21CHL1  H23A 1540   6.775   5.392   8.988 -1.3078 -0.0021 -1.4964
   21CHL1  H23B 1541   6.599   5.386   8.994  0.0529 -0.7921 -0.6394
   21CHL1   C24 1542   6.681   5.578   8.921  0.4884  0.1786 -0.0084
   21CHL1  H24A 1543   6.589   5.628   8.957 -0.6298 -1.8104  0.0853
   21CHL1  H24B 1544   6.768   5.643   8.945 -0.4825  1.6403 -0.3202
   21CHL1   C25 1545   6.667   5.552   8.769 -0.2194  0.7507 -0.1479
   21CHL1   H25 1546   6.763   5.509   8.734  1.5538  2.0895  2.7348
   21CHL1   C26 1547   6.553   5.457   8.735 -0.0255  0.1604 -0.4894
   21CHL1  H26A 1548   6.460   5.512   8.758  0.5073  1.2803 -0.9524
   21CHL1  H26B 1549   6.548   5.441   8.625  1.9051 -1.8069 -0.3727
   21CHL1  H26C 1550   6.558   5.355   8.779  1.5453  0.8722  1.0885
   21CHL1   C27 1551   6.650   5.681   8.683  0.6294 -0.1193 -0.3241
   21CHL1  H27A 1552   6.751   5.726   8.667  0.9651 -0.1205  1.5602
   21CHL1  H27B 1553   6.607   5.655   8.584  0.5828 -2.7203  0.3095
   21CHL1  H27C 1554   6.587   5.754   8.738  0.7394  0.0088 -0.3685
   22CHL1    C3 1555   6.352   6.450   9.992  0.0217 -0.0080 -0.1659
   22CHL1    H3 1556   6.454   6.406   9.987  0.0319  0.0348 -0.3482
   22CHL1    O3 1557   6.316   6.475  10.130 -0.1816 -0.1897  0.0947
   22CHL1   H3' 1558   6.235   6.525  10.118 -0.3109 -0.3902  0.1126
   22CHL1    C4 1559   6.366   6.580   9.915 -0.1506 -0.2139 -0.9366
   22CHL1   H4A 1560   6.284   6.650   9.941  1.0726  0.7219  0.6066
   22CHL1   H4B 1561   6.458   6.626   9.957 -0.6329  0.7498 -0.8976
   22CHL1    C5 1562   6.373   6.576   9.766  0.0352 -0.0500 -0.3070
   22CHL1    C6 1563   6.469   6.639   9.689 -0.1134  0.9054 -0.2480
   22CHL1    H6 1564   6.539   6.702   9.747 -0.3986  0.3402  0.7288
   22CHL1    C7 1565   6.475   6.642   9.539  0.4226  0.4199  0.3322
   22CHL1   H7A 1566   6.495   6.745   9.502  0.4719 -0.0749 -1.0697
   22CHL1   H7B 1567   6.550   6.568   9.504  0.0901 -0.0369  0.5666
   22CHL1    C8 1568   6.341   6.584   9.477  0.3848 -0.0090  0.6120
   22CHL1    H8 1569   6.261   6.662   9.481 -0.6826 -1.0021 -0.5663
   22CHL1   C14 1570   6.370   6.544   9.330 -0.0240  0.0227  0.7960
   22CHL1   H14 1571   6.449   6.466   9.342  0.0131  0.0610  0.8023
   22CHL1   C15 1572   6.431   6.649   9.233  0.7562  0.1697 -0.7400
   22CHL1  H15A 1573   6.370   6.740   9.248  0.9547  0.3078 -0.7682
   22CHL1  H15B 1574   6.537   6.675   9.253  0.7608 -0.3577 -0.0663
   22CHL1   C16 1575   6.417   6.590   9.094  0.2328 -0.3134 -0.6090
   22CHL1  H16A 1576   6.363   6.674   9.045 -2.1898  0.8357  3.6071
   22CHL1  H16B 1577   6.508   6.568   9.034  0.3168  0.1910 -0.6740
   22CHL1   C17 1578   6.327   6.463   9.106  0.7730 -1.2553  0.0039
   22CHL1   H17 1579   6.393   6.374   9.117  0.6746 -1.4205 -0.7006
   22CHL1   C13 1580   6.259   6.481   9.251  0.2304  0.4889 -0.3300
   22CHL1   C18 1581   6.146   6.583   9.235  0.3663 -0.6770  0.1930
   22CHL1  H18A 1582   6.170   6.673   9.176  1.4062  0.3323  2.0901
   22CHL1  H18B 1583   6.070   6.530   9.173 -0.4512  1.0996 -0.3882
   22CHL1  H18C 1584   6.108   6.615   9.334  0.2438  1.7966 -0.6046
   22CHL1   C12 1585   6.219   6.361   9.332 -0.1129  0.0955 -0.9319
   22CHL1  H12A 1586   6.141   6.299   9.283 -1.5349  1.0353  0.0832
   22CHL1  H12B 1587   6.302   6.287   9.338  0.7820  1.1056 -0.4632
   22CHL1   C11 1588   6.185   6.382   9.485 -0.2907  0.7429  0.3482
   22CHL1  H11A 1589   6.090   6.440   9.482  0.3332  1.7485 -1.3492
   22CHL1  H11B 1590   6.142   6.288   9.526 -1.2831 -0.4709 -3.1261
   22CHL1    C9 1591   6.297   6.465   9.553  0.7054  0.6636  0.0665
   22CHL1    H9 1592   6.394   6.412   9.561  2.2347  3.0748 -1.2779
   22CHL1   C10 1593   6.269   6.492   9.701  0.7589  0.2218 -0.6383
   22CHL1   C19 1594   6.131   6.542   9.734  0.4551  0.8441  0.9046
   22CHL1  H19A 1595   6.055   6.468   9.700  2.4241 -0.0004 -2.0427
   22CHL1  H19B 1596   6.117   6.572   9.840 -2.2982  1.9431  0.3244
   22CHL1  H19C 1597   6.112   6.636   9.677  0.8708 -0.6412 -1.8713
   22CHL1    C1 1598   6.273   6.350   9.770 -0.1040 -0.4924  0.4019
   22CHL1   H1A 1599   6.191   6.289   9.727  0.3340 -1.8885  1.4539
   22CHL1   H1B 1600   6.368   6.301   9.740  0.8826 -0.0896  2.6226
   22CHL1    C2 1601   6.260   6.352   9.924  0.4757  0.5373 -0.6626
   22CHL1   H2A 1602   6.274   6.256   9.978 -0.8229  1.4232  1.3559
   22CHL1   H2B 1603   6.157   6.382   9.952 -0.5202 -3.0401  0.1407
   22CHL1   C20 1604   6.241   6.448   8.981 -0.2030  0.1665 -0.0129
   22CHL1   H20 1605   6.153   6.515   8.990 -0.1552  0.0745  1.4048
   22CHL1   C21 1606   6.182   6.303   8.988  0.0624 -0.5002 -0.3542
   22CHL1  H21A 1607   6.114   6.294   9.075  3.2033 -2.0223  2.1848
   22CHL1  H21B 1608   6.266   6.239   9.024  0.7624  0.5827 -0.0036
   22CHL1  H21C 1609   6.146   6.259   8.892  1.4345 -0.0968 -1.0851
   22CHL1   C22 1610   6.304   6.487   8.846  0.1469  0.2319 -0.4344
   22CHL1  H22A 1611   6.335   6.593   8.834  1.8926 -0.1678  0.1379
   22CHL1  H22B 1612   6.393   6.420   8.845 -1.2328 -1.7602  1.0411
   22CHL1   C23 1613   6.234   6.458   8.721  0.3773  0.7512  0.1752
   22CHL1  H23A 1614   6.302   6.484   8.637  1.0588  0.0198  0.4889
   22CHL1  H23B 1615   6.215   6.348   8.717 -0.3149  0.9096 -1.9930
   22CHL1   C24 1616   6.101   6.528   8.692  0.2662 -0.2013 -0.4133
   22CHL1  H24A 1617   6.039   6.526   8.784  0.6614  0.4354 -0.1282
   22CHL1  H24B 1618   6.101   6.636   8.666 -3.2561  0.6974  2.4565
   22CHL1   C25 1619   6.017   6.454   8.588 -0.2879 -0.3661 -0.4127
   22CHL1   H25 1620   6.000   6.346   8.611  1.1050 -0.8863 -1.6652
   22CHL1   C26 1621   5.877   6.517   8.567 -0.2565 -0.1265  0.6412
   22CHL1  H26A 1622   5.807   6.518   8.653 -0.9891 -0.0545  0.0569
   22CHL1  H26B 1623   5.888   6.622   8.533  2.4969 -1.1643 -2.1894
   22CHL1  H26C 1624   5.814   6.465   8.491  0.5421  0.1033 -0.2013
   22CHL1   C27 1625   6.082   6.452   8.450  0.3398 -0.0985 -0.1083
   22CHL1  H27A 1626   6.003   6.414   8.382  0.9235  0.4182 -1.0969
   22CHL1  H27B 1627   6.104   6.553   8.410 -2.5155 -0.0613 -1.8782
   22CHL1  H27C 1628   6.167   6.381   8.438 -0.1358 -0.9309  1.2065
   23CHL1    C3 1629   2.465   1.816  10.086 -0.1141  0.3358  0.1663
   23CHL1    H3 1630   2.385   1.747  10.053  2.2090 -2.0996 -0.7640
   23CHL1    O3 1631   2.459   1.830  10.229 -0.2539 -0.0593  0.2490
   23CHL1   H3' 1632   2.377   1.877  10.247 -1.5566 -1.5054 -1.5370
   23CHL1    C4 1633   2.590   1.736  10.048  0.7594 -0.2391  0.5169
   23CHL1   H4A 1634   2.667   1.802  10.093  0.9680 -0.8902  1.1336
   23CHL1   H4B 1635   2.582   1.647  10.113  2.2267 -0.8373 -0.0960
   23CHL1    C5 1636   2.601   1.726   9.896 -0.1583 -0.1027  0.0672
   23CHL1    C6 1637   2.616   1.609   9.834  0.4378  0.2186  0.2075
   23CHL1    H6 1638   2.626   1.512   9.884 -1.6446 -1.0406 -1.6027
   23CHL1    C7 1639   2.627   1.588   9.684 -0.5076 -0.7695  0.0111
   23CHL1   H7A 1640   2.716   1.526   9.655  0.4920  1.0332 -0.9292
   23CHL1   H7B 1641   2.538   1.537   9.642 -0.6925 -0.6305  0.2381
   23CHL1    C8 1642   2.647   1.721   9.608 -0.4138  0.2341 -0.0725
   23CHL1    H8 1643   2.755   1.746   9.618 -0.7512  1.7142  0.0795
   23CHL1   C14 1644   2.613   1.709   9.462 -0.3192 -0.2619  0.9069
   23CHL1   H14 1645   2.506   1.684   9.450 -1.2215  3.0628  0.9085
   23CHL1   C15 1646   2.673   1.591   9.384 -0.3699  0.1259  0.5221
   23CHL1  H15A 1647   2.781   1.583   9.410 -0.9324 -1.3818  2.7020
   23CHL1  H15B 1648   2.636   1.488   9.407 -0.1985 -0.5542 -1.9589
   23CHL1   C16 1649   2.662   1.629   9.240 -0.2215 -0.2284  0.4773
   23CHL1  H16A 1650   2.763   1.624   9.193  0.2917  1.1697  1.3423
   23CHL1  H16B 1651   2.593   1.561   9.186 -0.9136 -0.5247  1.6936
   23CHL1   C17 1652   2.605   1.777   9.243 -0.1627 -0.7541  0.4307
   23CHL1   H17 1653   2.494   1.768   9.244 -0.7230  3.6088 -0.8728
   23CHL1   C13 1654   2.640   1.837   9.377 -0.7189  0.2347  0.6527
   23CHL1   C18 1655   2.788   1.876   9.376 -0.5788  1.1219  0.1266
   23CHL1  H18A 1656   2.858   1.796   9.343 -0.7799  1.9642 -2.5337
   23CHL1  H18B 1657   2.813   1.949   9.296  0.9774 -1.8884 -2.3144
   23CHL1  H18C 1658   2.823   1.911   9.476  1.7640  0.8356 -0.5297
   23CHL1   C12 1659   2.558   1.955   9.437  0.1119  0.1249 -0.1510
   23CHL1  H12A 1660   2.594   2.047   9.387 -0.6414 -0.8043 -2.5491
   23CHL1  H12B 1661   2.453   1.944   9.405  0.3001  0.4701 -0.9042
   23CHL1   C11 1662   2.590   1.968   9.588  0.1076  0.1386  0.4950
   23CHL1  H11A 1663   2.697   1.993   9.602  0.7617 -0.0852 -3.1668
   23CHL1  H11B 1664   2.522   2.047   9.627 -0.0784 -0.4623  1.4336
   23CHL1    C9 1665   2.563   1.832   9.666  0.2974 -0.2867 -0.4721
   23CHL1    H9 1666   2.455   1.819   9.645  0.0176 -1.7213  1.5713
   23CHL1   C10 1667   2.583   1.852   9.816  0.5884 -0.5889  0.4822
   23CHL1   C19 1668   2.707   1.939   9.844 -0.5132  0.2361  0.2308
   23CHL1  H19A 1669   2.740   1.937   9.950  0.0789  0.6967  0.0608
   23CHL1  H19B 1670   2.795   1.895   9.792 -0.2518  0.3344  0.5885
   23CHL1  H19C 1671   2.691   2.044   9.811  0.8971  0.1559 -0.8154
   23CHL1    C1 1672   2.455   1.930   9.872  0.1699 -0.1710 -0.6928
   23CHL1   H1A 1673   2.450   2.031   9.827 -0.2277  0.2276  0.2358
   23CHL1   H1B 1674   2.368   1.867   9.844 -0.2673 -0.1057  0.4659
   23CHL1    C2 1675   2.457   1.956  10.022 -0.2750  0.4835 -0.7865
   23CHL1   H2A 1676   2.353   1.988  10.045 -0.8555 -1.9429  0.3392
   23CHL1   H2B 1677   2.528   2.035  10.052 -0.3567 -0.0732  0.9423
   23CHL1   C20 1678   2.640   1.852   9.112 -0.3225  0.0883 -0.0331
   23CHL1   H20 1679   2.750   1.851   9.098 -0.5015 -1.1642 -1.5242
   23CHL1   C21 1680   2.585   1.995   9.112  0.2013 -0.4818 -0.5420
   23CHL1  H21A 1681   2.611   2.051   9.020 -0.0822 -1.9804 -1.5722
   23CHL1  H21B 1682   2.633   2.049   9.197 -0.9543 -1.8364  1.0535
   23CHL1  H21C 1683   2.475   1.993   9.130 -0.2521 -1.9544 -3.0520
   23CHL1   C22 1684   2.596   1.776   8.981 -0.7968  0.4743  0.0537
   23CHL1  H22A 1685   2.637   1.673   8.987  0.4295  0.8291 -1.4737
   23CHL1  H22B 1686   2.486   1.766   8.978 -0.6407 -2.4765  0.9576
   23CHL1   C23 1687   2.640   1.841   8.855 -0.0973 -0.2008  0.5833
   23CHL1  H23A 1688   2.585   1.937   8.842  1.7609  0.6696 -1.3112
   23CHL1  H23B 1689   2.747   1.862   8.874 -0.8382  1.1056  4.3137
   23CHL1   C24 1690   2.620   1.750   8.731  0.0952 -0.2055 -0.1191
   23CHL1  H24A 1691   2.677   1.656   8.745 -0.0379 -0.2134  0.3695
   23CHL1  H24B 1692   2.514   1.716   8.735 -0.0595  0.2839  0.0555
   23CHL1   C25 1693   2.647   1.803   8.588 -0.4664 -0.8054 -0.0038
   23CHL1   H25 1694   2.573   1.882   8.562 -0.9586 -0.8530  1.1710
   23CHL1   C26 1695   2.787   1.859   8.569  0.0819  0.2199 -0.2765
   23CHL1  H26A 1696   2.798   1.890   8.463 -0.2326  1.7172  0.1020
   23CHL1  H26B 1697   2.806   1.954   8.624  1.6056 -0.3981  0.3359
   23CHL1  H26C 1698   2.871   1.789   8.591  0.0721  0.6718  1.3556
   23CHL1   C27 1699   2.622   1.691   8.487  1.0490 -0.2760  0.2746
   23CHL1  H27A 1700   2.514   1.664   8.496  1.3974 -1.1191  2.7220
   23CHL1  H27B 1701   2.641   1.727   8.384  1.0657 -1.3957 -0.1275
   23CHL1  H27C 1702   2.688   1.604   8.506  0.5887 -0.4336  1.2203
   24CHL1    C3 1703   4.220   3.551  10.144  0.9700  0.1646  0.4697
   24CHL1    H3 1704   4.250   3.651  10.104 -0.8272 -0.0205 -1.5120
   24CHL1    O3 1705   4.259   3.542  10.281  0.0191 -0.3885 -0.1060
   24CHL1   H3' 1706   4.198   3.595  10.333  0.6402  1.7800 -1.4713
   24CHL1    C4 1707   4.073   3.529  10.125  0.1309  0.0185  0.1281
   24CHL1   H4A 1708   4.054   3.445  10.195 -0.5812 -0.0288 -0.1116
   24CHL1   H4B 1709   4.018   3.616  10.166  1.6803  0.3452  1.6174
   24CHL1    C5 1710   4.023   3.502   9.980  0.3768  0.1035  0.1062
   24CHL1    C6 1711   3.916   3.563   9.922 -0.5687  0.3848  0.1557
   24CHL1    H6 1712   3.871   3.648   9.975  0.4101  0.8636  0.2279
   24CHL1    C7 1713   3.877   3.546   9.780  0.3167  0.3862  0.1118
   24CHL1   H7A 1714   3.767   3.536   9.786  0.3107  1.0318  1.3780
   24CHL1   H7B 1715   3.904   3.629   9.710  0.4231 -0.5772 -1.0297
   24CHL1    C8 1716   3.924   3.415   9.708 -0.1166 -0.2847 -0.6756
   24CHL1    H8 1717   3.873   3.331   9.760 -0.6668  1.0271  1.0086
   24CHL1   C14 1718   3.914   3.429   9.559  0.7833  0.0671  0.1855
   24CHL1   H14 1719   3.975   3.517   9.530 -0.8498  1.3108  0.3460
   24CHL1   C15 1720   3.776   3.463   9.504 -0.9540  0.0663 -0.4357
   24CHL1  H15A 1721   3.692   3.400   9.541  0.5227 -2.0934 -0.6083
   24CHL1  H15B 1722   3.764   3.572   9.524  2.0589  0.3662  0.0999
   24CHL1   C16 1723   3.783   3.411   9.357 -0.1703 -0.3772  0.1768
   24CHL1  H16A 1724   3.714   3.326   9.338 -1.8208  1.0768 -0.7063
   24CHL1  H16B 1725   3.757   3.488   9.281  0.3050 -2.1253 -1.8442
   24CHL1   C17 1726   3.924   3.353   9.339 -0.0224  0.0690  0.4625
   24CHL1   H17 1727   3.993   3.437   9.313  2.7958 -2.1765  0.1722
   24CHL1   C13 1728   3.974   3.313   9.479 -0.5115  0.1348  0.4283
   24CHL1   C18 1729   3.912   3.180   9.505  0.2140  0.0478  0.1844
   24CHL1  H18A 1730   3.959   3.102   9.442  0.5106  1.1914 -1.0529
   24CHL1  H18B 1731   3.926   3.164   9.614  0.4363 -1.7155 -0.0739
   24CHL1  H18C 1732   3.804   3.194   9.487  0.6428  1.3405 -1.5773
   24CHL1   C12 1733   4.128   3.313   9.508  0.2456  0.5905 -0.9129
   24CHL1  H12A 1734   4.203   3.245   9.462  0.2531 -0.1608  0.1763
   24CHL1  H12B 1735   4.171   3.411   9.478 -0.2817  1.1455  0.0956
   24CHL1   C11 1736   4.150   3.304   9.662  0.0026  0.4668  0.5237
   24CHL1  H11A 1737   4.128   3.198   9.687 -2.7445  0.5449 -1.2044
   24CHL1  H11B 1738   4.260   3.324   9.664 -0.3096  2.3248  1.5571
   24CHL1    C9 1739   4.074   3.412   9.744  0.2609 -0.0612  0.2048
   24CHL1    H9 1740   4.116   3.510   9.716  1.2343 -0.4915  0.1060
   24CHL1   C10 1741   4.107   3.404   9.898 -0.4891  1.1830  0.4979
   24CHL1   C19 1742   4.081   3.261   9.960  0.1013 -0.0938  0.0342
   24CHL1  H19A 1743   4.115   3.249  10.066  0.4574 -1.1550 -0.1923
   24CHL1  H19B 1744   3.973   3.235   9.961 -0.3088  1.4249 -0.8624
   24CHL1  H19C 1745   4.135   3.182   9.905  0.7912 -0.2277  0.8799
   24CHL1    C1 1746   4.254   3.434   9.924 -0.2830  0.4585 -0.0797
   24CHL1   H1A 1747   4.304   3.344   9.882 -1.1394 -0.0808  0.0054
   24CHL1   H1B 1748   4.281   3.527   9.871 -0.3882  0.6609  0.2195
   24CHL1    C2 1749   4.300   3.439  10.070  0.0675  0.5455  0.0092
   24CHL1   H2A 1750   4.409   3.457  10.072  0.1795 -0.0344 -0.7952
   24CHL1   H2B 1751   4.283   3.341  10.121  0.9947 -0.7853 -2.1160
   24CHL1   C20 1752   3.941   3.257   9.224 -0.0984  0.3259 -0.6503
   24CHL1   H20 1753   3.894   3.162   9.260 -1.8058  2.2459  2.7008
   24CHL1   C21 1754   4.089   3.237   9.195  0.2234 -0.1033 -0.3691
   24CHL1  H21A 1755   4.164   3.318   9.183 -0.0779  0.5594  1.7464
   24CHL1  H21B 1756   4.105   3.167   9.111  2.7199  0.0951 -0.1218
   24CHL1  H21C 1757   4.141   3.184   9.277 -0.3713  0.9088  0.6921
   24CHL1   C22 1758   3.860   3.303   9.104  0.0417  0.3699 -0.3406
   24CHL1  H22A 1759   3.752   3.306   9.131  0.4945  1.5819  1.5776
   24CHL1  H22B 1760   3.888   3.408   9.082  1.2839 -0.0547 -0.8982
   24CHL1   C23 1761   3.865   3.202   8.988  0.1716  0.3793  0.0249
   24CHL1  H23A 1762   3.969   3.200   8.948  0.3722  0.4752  0.5336
   24CHL1  H23B 1763   3.848   3.103   9.035  1.8844  0.5772  1.1480
   24CHL1   C24 1764   3.754   3.245   8.893 -0.0171  0.7386  0.0039
   24CHL1  H24A 1765   3.654   3.254   8.939  0.2294 -0.7159  0.8648
   24CHL1  H24B 1766   3.779   3.344   8.848 -2.2549  1.3127 -0.0985
   24CHL1   C25 1767   3.746   3.150   8.775  0.5883 -0.2777  0.4078
   24CHL1   H25 1768   3.709   3.049   8.801 -0.3710 -0.6091 -1.9933
   24CHL1   C26 1769   3.641   3.202   8.674  0.2176  0.6556  0.6590
   24CHL1  H26A 1770   3.658   3.296   8.618 -2.5602  1.1472  0.5043
   24CHL1  H26B 1771   3.608   3.130   8.596  1.0705  1.9093 -0.9136
   24CHL1  H26C 1772   3.545   3.214   8.729 -0.6830  0.3497 -0.8003
   24CHL1   C27 1773   3.880   3.145   8.705 -0.0820 -0.0021  0.0430
   24CHL1  H27A 1774   3.877   3.061   8.632 -0.3286 -1.0263  1.2004
   24CHL1  H27B 1775   3.902   3.239   8.651  0.2658 -0.3676 -0.4681
   24CHL1  H27C 1776   3.968   3.106   8.760 -0.1993  2.8571  2.4864
   25CHL1    C3 1777   4.567   2.581  10.254 -0.2372  0.3416 -0.5712
   25CHL1    H3 1778   4.528   2.679  10.221  0.7653  0.9386 -0.0449
   25CHL1    O3 1779   4.573   2.595  10.393  0.5663 -0.6778 -0.0579
   25CHL1   H3' 1780   4.613   2.516  10.431  1.1728  0.8086  2.7266
   25CHL1    C4 1781   4.492   2.459  10.217 -0.0250 -0.1942 -1.0203
   25CHL1   H4A 1782   4.539   2.373  10.270  0.7597  0.5403 -0.4918
   25CHL1   H4B 1783   4.392   2.475  10.264 -0.6072  1.0623 -2.6006
   25CHL1    C5 1784   4.476   2.457  10.067  0.3700  0.2512 -0.6371
   25CHL1    C6 1785   4.356   2.472  10.007 -0.4054  0.5474 -0.3283
   25CHL1    H6 1786   4.259   2.481  10.058 -0.2600 -0.7178  0.2157
   25CHL1    C7 1787   4.342   2.474   9.861  0.1940  0.1763 -0.0878
   25CHL1   H7A 1788   4.251   2.422   9.823  1.9354 -2.3034 -1.1275
   25CHL1   H7B 1789   4.316   2.581   9.845  0.6690  0.7358  2.4628
   25CHL1    C8 1790   4.466   2.425   9.776 -0.1632 -0.1362 -0.6766
   25CHL1    H8 1791   4.461   2.314   9.774 -1.5223 -0.1351  0.7741
   25CHL1   C14 1792   4.457   2.484   9.634 -0.6068 -0.7095  0.2575
   25CHL1   H14 1793   4.461   2.594   9.654 -2.9981 -0.7519  1.3730
   25CHL1   C15 1794   4.336   2.462   9.554 -0.0887  0.0266  0.5223
   25CHL1  H15A 1795   4.297   2.361   9.574  0.4042  0.0477  1.6827
   25CHL1  H15B 1796   4.254   2.534   9.573  0.2561  0.3308  0.8738
   25CHL1   C16 1797   4.378   2.484   9.406 -0.3004  0.4740  0.3095
   25CHL1  H16A 1798   4.354   2.389   9.352  0.3352  0.8078 -0.5934
   25CHL1  H16B 1799   4.330   2.579   9.373  2.2455  0.9479 -2.4408
   25CHL1   C17 1800   4.535   2.521   9.413  0.9062  0.5717  0.5998
   25CHL1   H17 1801   4.539   2.628   9.443  1.2696  0.5949  0.4692
   25CHL1   C13 1802   4.574   2.457   9.546 -1.1734  0.2530 -0.7626
   25CHL1   C18 1803   4.591   2.304   9.537 -0.3114 -0.1267  0.2347
   25CHL1  H18A 1804   4.630   2.251   9.627 -1.1258  1.0460  1.3164
   25CHL1  H18B 1805   4.493   2.261   9.506 -1.2491  2.3951 -0.4978
   25CHL1  H18C 1806   4.661   2.276   9.456  0.6884  0.7376  0.7722
   25CHL1   C12 1807   4.704   2.516   9.605 -0.2220  0.3866  0.0570
   25CHL1  H12A 1808   4.792   2.483   9.546 -0.8429 -0.0143 -0.6729
   25CHL1  H12B 1809   4.706   2.627   9.592  2.2370  0.5388  1.3589
   25CHL1   C11 1810   4.717   2.471   9.752 -0.0678  0.5647  0.1603
   25CHL1  H11A 1811   4.738   2.362   9.750  0.2505  0.6291 -2.1905
   25CHL1  H11B 1812   4.805   2.527   9.790  0.6989  0.7039 -1.7352
   25CHL1    C9 1813   4.595   2.485   9.843  0.6637 -0.0269 -0.3195
   25CHL1    H9 1814   4.574   2.593   9.833 -1.8899 -0.6598 -2.6908
   25CHL1   C10 1815   4.617   2.453   9.992  0.2982 -0.2454 -0.3632
   25CHL1   C19 1816   4.678   2.305  10.002  0.2733  0.4047  0.0390
   25CHL1  H19A 1817   4.673   2.264  10.105  0.6890 -2.2465 -0.9325
   25CHL1  H19B 1818   4.608   2.242   9.943 -0.0041  1.2206 -0.5273
   25CHL1  H19C 1819   4.782   2.301   9.961  0.6100 -0.5580  0.9600
   25CHL1    C1 1820   4.719   2.553  10.049 -0.0509 -0.9017 -0.9687
   25CHL1   H1A 1821   4.822   2.536  10.012 -0.2294 -0.2712 -1.7906
   25CHL1   H1B 1822   4.684   2.657  10.034 -1.3048 -0.6995  2.4842
   25CHL1    C2 1823   4.718   2.562  10.203  0.5587  0.2174  0.3638
   25CHL1   H2A 1824   4.777   2.648  10.239  0.4816  0.6121 -0.4291
   25CHL1   H2B 1825   4.752   2.469  10.254  0.3032  0.1749  0.4594
   25CHL1   C20 1826   4.609   2.489   9.281  0.0246  0.2371 -0.4544
   25CHL1   H20 1827   4.583   2.387   9.245 -1.6397  0.8890 -1.1992
   25CHL1   C21 1828   4.761   2.504   9.304  0.4815  0.9636 -0.0071
   25CHL1  H21A 1829   4.815   2.517   9.208  1.3531 -0.3064  0.2939
   25CHL1  H21B 1830   4.802   2.414   9.354 -0.8569 -0.3574 -1.2108
   25CHL1  H21C 1831   4.783   2.598   9.359  2.3160  0.4298  0.2402
   25CHL1   C22 1832   4.557   2.584   9.175  0.6365  0.3115  0.4087
   25CHL1  H22A 1833   4.447   2.568   9.168  0.8510 -0.8923 -0.6432
   25CHL1  H22B 1834   4.574   2.690   9.203 -1.8591  1.0678 -0.6856
   25CHL1   C23 1835   4.606   2.560   9.029  0.1926 -0.4467 -0.5585
   25CHL1  H23A 1836   4.542   2.628   8.970 -0.0724 -0.3928 -0.2147
   25CHL1  H23B 1837   4.716   2.573   9.023  0.4052 -1.7353  0.1570
   25CHL1   C24 1838   4.574   2.422   8.973 -0.1327  0.3256 -0.7701
   25CHL1  H24A 1839   4.591   2.341   9.048  0.7461  1.5289  0.3667
   25CHL1  H24B 1840   4.466   2.425   8.949  0.3145  2.5191 -2.8354
   25CHL1   C25 1841   4.648   2.390   8.843 -0.1997 -0.3264  0.5653
   25CHL1   H25 1842   4.758   2.394   8.852  0.1770 -0.8148 -2.7891
   25CHL1   C26 1843   4.634   2.244   8.811 -0.7031 -0.4453  1.1491
   25CHL1  H26A 1844   4.704   2.213   8.731 -0.8777 -2.2130  1.6435
   25CHL1  H26B 1845   4.657   2.173   8.893  2.7480 -4.6270 -2.8764
   25CHL1  H26C 1846   4.527   2.230   8.788 -0.5336 -0.2362  0.1864
   25CHL1   C27 1847   4.601   2.484   8.722 -0.3371 -0.0188 -0.0845
   25CHL1  H27A 1848   4.587   2.422   8.631  4.0826 -0.9810 -0.3106
   25CHL1  H27B 1849   4.511   2.542   8.752  0.1858  0.4119  0.6718
   25CHL1  H27C 1850   4.684   2.555   8.705  0.3463  0.5886  4.4762
   26CHL1    C3 1851   5.967   5.651  10.194 -0.7303 -0.1154  0.9090
   26CHL1    H3 1852   5.867   5.688  10.226 -0.1169  1.4884  1.0197
   26CHL1    O3 1853   6.025   5.606  10.317 -0.2503 -0.0581  0.0472
   26CHL1   H3' 1854   6.118   5.589  10.299  0.0079 -0.8400  1.8829
   26CHL1    C4 1855   5.967   5.536  10.096 -0.0114  0.0288 -0.5830
   26CHL1   H4A 1856   6.069   5.493  10.100 -0.0417 -0.1537 -1.6834
   26CHL1   H4B 1857   5.895   5.458  10.130  0.6528 -0.1460  0.4910
   26CHL1    C5 1858   5.948   5.573   9.946 -0.8979 -0.9977 -0.3109
   26CHL1    C6 1859   5.862   5.513   9.866 -0.2119 -0.6243  0.2328
   26CHL1    H6 1860   5.829   5.418   9.912  2.1307 -0.6840  1.9914
   26CHL1    C7 1861   5.852   5.546   9.720  0.8183  0.0227 -0.2533
   26CHL1   H7A 1862   5.853   5.452   9.660  2.4095  0.7293 -1.4074
   26CHL1   H7B 1863   5.752   5.585   9.691  1.1396  0.0841 -1.3433
   26CHL1    C8 1864   5.967   5.642   9.666 -0.0711  0.2694 -0.4304
   26CHL1    H8 1865   6.058   5.580   9.652 -1.2335 -1.4240 -0.7038
   26CHL1   C14 1866   5.935   5.706   9.531  0.3265 -0.0553 -0.4297
   26CHL1   H14 1867   5.845   5.767   9.552 -1.4786 -2.8019  0.3714
   26CHL1   C15 1868   5.886   5.616   9.419 -0.2733 -0.1958 -0.6649
   26CHL1  H15A 1869   5.945   5.522   9.416  0.7484  0.4059 -0.2335
   26CHL1  H15B 1870   5.782   5.586   9.443 -0.0308  0.0107  0.7747
   26CHL1   C16 1871   5.909   5.692   9.296 -0.0602  0.0705 -0.4209
   26CHL1  H16A 1872   5.966   5.625   9.228 -1.1282  0.7977 -2.1084
   26CHL1  H16B 1873   5.814   5.709   9.241 -0.0227 -0.8071 -0.7650
   26CHL1   C17 1874   5.990   5.823   9.325  0.0202 -0.0581  0.1474
   26CHL1   H17 1875   5.917   5.905   9.345  1.3264  1.1908 -0.1075
   26CHL1   C13 1876   6.048   5.792   9.468 -0.0109  0.2387 -0.0804
   26CHL1   C18 1877   6.175   5.708   9.437  0.4596 -0.6099  0.1473
   26CHL1  H18A 1878   6.149   5.613   9.385 -0.9947  0.0753 -0.4261
   26CHL1  H18B 1879   6.242   5.768   9.372  0.2774 -0.5167  0.0452
   26CHL1  H18C 1880   6.221   5.683   9.535 -0.9905  2.6683  1.7908
   26CHL1   C12 1881   6.065   5.909   9.566 -0.6117 -0.3401  0.8375
   26CHL1  H12A 1882   6.148   5.976   9.537  0.9159 -2.0125  1.1772
   26CHL1  H12B 1883   5.973   5.971   9.567  0.6415  1.6868 -0.7446
   26CHL1   C11 1884   6.097   5.861   9.703 -1.1429  0.2062 -0.9230
   26CHL1  H11A 1885   6.199   5.816   9.701 -1.5837 -0.9934  1.1835
   26CHL1  H11B 1886   6.104   5.950   9.769  2.2894 -1.9507  1.9556
   26CHL1    C9 1887   5.995   5.754   9.763  0.4457 -0.0024 -0.7108
   26CHL1    H9 1888   5.898   5.803   9.783  0.3302 -1.1221  1.8889
   26CHL1   C10 1889   6.031   5.697   9.901 -0.6943  0.6968 -0.3142
   26CHL1   C19 1890   6.180   5.640   9.905 -0.6066 -0.5006  0.5449
   26CHL1  H19A 1891   6.202   5.606  10.008 -0.0514 -0.2399  0.5137
   26CHL1  H19B 1892   6.193   5.561   9.827 -0.6869  2.1247 -2.3105
   26CHL1  H19C 1893   6.249   5.723   9.880 -0.1099 -0.9106  0.5500
   26CHL1    C1 1894   6.018   5.814  10.002  0.3471  0.5605 -0.0101
   26CHL1   H1A 1895   6.089   5.896   9.976 -0.1854  0.5638 -1.5837
   26CHL1   H1B 1896   5.914   5.853  10.010  1.2417  2.9020  1.0808
   26CHL1    C2 1897   6.048   5.771  10.149  0.2687  0.2847 -0.1277
   26CHL1   H2A 1898   6.040   5.855  10.221 -1.0612  0.0107  0.0692
   26CHL1   H2B 1899   6.155   5.744  10.161 -0.1046 -0.4900  1.8375
   26CHL1   C20 1900   6.067   5.873   9.200  0.6487  0.3114  0.0204
   26CHL1   H20 1901   6.154   5.806   9.183  0.7519  0.5888 -0.5543
   26CHL1   C21 1902   6.120   6.013   9.238 -0.3217 -0.1066  1.2073
   26CHL1  H21A 1903   6.206   6.001   9.307  0.7344 -2.2181 -0.3609
   26CHL1  H21B 1904   6.035   6.079   9.265 -0.9791 -0.1252 -0.7123
   26CHL1  H21C 1905   6.158   6.056   9.143 -1.2974 -2.8423 -0.5446
   26CHL1   C22 1906   5.988   5.886   9.074  0.3791 -0.1293  0.2783
   26CHL1  H22A 1907   5.924   5.798   9.050  0.8825  0.0029 -1.6817
   26CHL1  H22B 1908   5.912   5.966   9.087 -0.8620 -1.0919 -0.7338
   26CHL1   C23 1909   6.055   5.903   8.943 -0.3297 -0.5811  0.3613
   26CHL1  H23A 1910   6.120   5.993   8.934  0.6008 -1.3400 -1.1201
   26CHL1  H23B 1911   6.125   5.819   8.923 -0.2461 -0.7846  1.4869
   26CHL1   C24 1912   5.953   5.943   8.834  0.3791 -0.0570 -0.2276
   26CHL1  H24A 1913   5.897   5.854   8.798 -0.7772  0.1427  0.9956
   26CHL1  H24B 1914   5.882   6.017   8.879  2.2561  0.7177  1.6403
   26CHL1   C25 1915   6.017   6.021   8.711  0.2651 -0.0123 -0.3904
   26CHL1   H25 1916   6.072   6.108   8.755  1.5658  0.4826 -2.8373
   26CHL1   C26 1917   6.116   5.944   8.626  0.4918 -0.6401  0.2400
   26CHL1  H26A 1918   6.173   6.000   8.549  0.5177 -0.8127  0.1323
   26CHL1  H26B 1919   6.187   5.886   8.689 -0.4215 -1.8772  0.1848
   26CHL1  H26C 1920   6.056   5.877   8.560  0.2402 -1.7257  1.5247
   26CHL1   C27 1921   5.898   6.083   8.631  0.1210  0.1986  0.3067
   26CHL1  H27A 1922   5.848   6.145   8.708  0.0962 -0.4370  0.8141
   26CHL1  H27B 1923   5.929   6.147   8.546  0.6329 -1.2033 -0.5918
   26CHL1  H27C 1924   5.834   5.998   8.599 -0.4235  0.2818  1.1425
   27CHL1    C3 1925   4.988   2.912  10.331  0.5602  0.4517  0.1097
   27CHL1    H3 1926   4.921   2.823  10.335 -0.6253  1.3231  0.1134
   27CHL1    O3 1927   5.014   2.950  10.461 -0.0743  0.3515  0.4370
   27CHL1   H3' 1928   5.009   3.046  10.455 -2.3313  0.2295 -0.3868
   27CHL1    C4 1929   5.115   2.888  10.251 -0.0238 -0.3088 -0.1678
   27CHL1   H4A 1930   5.188   2.971  10.255  1.2707 -1.4066 -0.3046
   27CHL1   H4B 1931   5.165   2.803  10.301 -0.8615 -1.7056 -1.5944
   27CHL1    C5 1932   5.094   2.859  10.104 -0.5940  0.1561 -0.9305
   27CHL1    C6 1933   5.131   2.738  10.048 -0.0270 -0.1287 -1.1191
   27CHL1    H6 1934   5.170   2.666  10.122 -2.5354 -1.1093 -0.6370
   27CHL1    C7 1935   5.120   2.707   9.899 -0.0033  0.0066  0.6208
   27CHL1   H7A 1936   5.214   2.667   9.856  0.0459  2.8520 -2.3624
   27CHL1   H7B 1937   5.042   2.635   9.870 -0.9942  1.9796 -2.0075
   27CHL1    C8 1938   5.085   2.833   9.818  0.0114  0.2771  0.2530
   27CHL1    H8 1939   5.171   2.903   9.817  1.7494 -1.7755 -0.8393
   27CHL1   C14 1940   5.053   2.791   9.674 -0.7545  0.6795 -0.7898
   27CHL1   H14 1941   4.977   2.709   9.674 -0.1796  0.1394 -1.4157
   27CHL1   C15 1942   5.163   2.728   9.585  0.2725 -0.3444 -0.4195
   27CHL1  H15A 1943   5.255   2.790   9.582  0.1436 -0.0963  0.7150
   27CHL1  H15B 1944   5.176   2.625   9.625  1.8475 -0.4846 -1.2032
   27CHL1   C16 1945   5.091   2.721   9.449  1.4745 -0.0783  0.8185
   27CHL1  H16A 1946   5.151   2.762   9.365 -1.2918 -0.9032 -1.7305
   27CHL1  H16B 1947   5.071   2.616   9.419 -1.6650  0.3339  1.1794
   27CHL1   C17 1948   4.968   2.821   9.454  0.5269 -0.1378 -0.4872
   27CHL1   H17 1949   4.879   2.756   9.468  0.6197 -0.0620  0.5566
   27CHL1   C13 1950   4.997   2.900   9.587  0.1798 -0.4692  0.0022
   27CHL1   C18 1951   5.097   3.013   9.560  0.2631  0.2771  0.4686
   27CHL1  H18A 1952   5.139   3.058   9.653 -1.8744  1.3012  1.0091
   27CHL1  H18B 1953   5.176   2.979   9.489 -2.3977 -0.3512 -2.3894
   27CHL1  H18C 1954   5.039   3.098   9.519 -5.4798 -2.9279  0.9899
   27CHL1   C12 1955   4.871   2.952   9.662 -0.0719 -0.0317 -0.5113
   27CHL1  H12A 1956   4.831   3.036   9.602 -0.0459 -0.1315 -0.6675
   27CHL1  H12B 1957   4.786   2.880   9.670 -1.5913  1.6956 -0.5505
   27CHL1   C11 1958   4.898   3.013   9.796 -0.2420 -0.2249 -0.0305
   27CHL1  H11A 1959   4.977   3.091   9.791  0.8790 -1.3104  0.2084
   27CHL1  H11B 1960   4.806   3.050   9.845 -0.8325  0.0365 -1.2844
   27CHL1    C9 1961   4.966   2.903   9.888 -0.1390 -0.0378  0.4619
   27CHL1    H9 1962   4.897   2.824   9.922 -1.0839  0.5325 -0.0833
   27CHL1   C10 1963   5.007   2.960  10.028 -0.7635 -0.3257  0.0863
   27CHL1   C19 1964   5.103   3.088  10.015 -0.2807 -0.2349 -0.8768
   27CHL1  H19A 1965   5.193   3.051   9.962  0.3858 -1.8046  1.2227
   27CHL1  H19B 1966   5.059   3.178   9.967 -0.9890  0.4174  0.8895
   27CHL1  H19C 1967   5.139   3.121  10.115 -0.0864 -1.2457 -0.6080
   27CHL1    C1 1968   4.886   3.003  10.113 -0.2268 -0.4842  0.4541
   27CHL1   H1A 1969   4.840   3.092  10.066 -0.6098 -0.8236  0.1792
   27CHL1   H1B 1970   4.812   2.921  10.116  0.3597 -0.9934  2.0208
   27CHL1    C2 1971   4.899   3.026  10.265 -1.0075  0.7838 -1.1274
   27CHL1   H2A 1972   4.800   3.023  10.314 -0.6536  0.1549 -0.4284
   27CHL1   H2B 1973   4.953   3.118  10.297 -1.1706 -0.2764  2.6780
   27CHL1   C20 1974   4.948   2.887   9.320  0.1822 -0.1570 -0.4813
   27CHL1   H20 1975   5.045   2.935   9.299  1.6719 -1.9986  1.6131
   27CHL1   C21 1976   4.832   2.990   9.333 -0.1495 -0.3387 -0.4863
   27CHL1  H21A 1977   4.805   3.041   9.238 -1.2785  0.0194  0.0117
   27CHL1  H21B 1978   4.860   3.065   9.410  1.4565 -3.1787  1.9186
   27CHL1  H21C 1979   4.744   2.939   9.378 -1.2492  1.6879 -0.2180
   27CHL1   C22 1980   4.913   2.796   9.200 -0.2685 -0.3431  0.0733
   27CHL1  H22A 1981   4.974   2.704   9.201  0.5461  0.1893  0.8790
   27CHL1  H22B 1982   4.805   2.774   9.196 -0.4203  0.3112  0.3661
   27CHL1   C23 1983   4.963   2.867   9.063  0.1731  0.9959  0.4006
   27CHL1  H23A 1984   4.929   2.972   9.078 -2.4605 -0.0607  2.7729
   27CHL1  H23B 1985   5.074   2.864   9.057  0.0839 -1.4092 -1.4709
   27CHL1   C24 1986   4.898   2.812   8.930  0.2461 -0.5858 -0.5948
   27CHL1  H24A 1987   4.943   2.712   8.912  0.3174 -0.2712 -2.3321
   27CHL1  H24B 1988   4.787   2.804   8.936  0.1216 -1.2311 -2.8647
   27CHL1   C25 1989   4.935   2.898   8.810 -0.0186 -0.3516  0.8176
   27CHL1   H25 1990   5.044   2.913   8.802  0.1492 -1.0378  1.6607
   27CHL1   C26 1991   4.871   2.824   8.690 -0.2847 -0.1388 -0.4585
   27CHL1  H26A 1992   4.889   2.880   8.596  0.2139  1.8873  0.7726
   27CHL1  H26B 1993   4.910   2.721   8.676 -1.5900 -0.7662  0.3279
   27CHL1  H26C 1994   4.762   2.809   8.703 -0.0414 -2.5295 -0.7722
   27CHL1   C27 1995   4.888   3.050   8.824 -0.3646  0.1071 -1.0626
   27CHL1  H27A 1996   4.783   3.057   8.859  0.3005  1.8899  0.7342
   27CHL1  H27B 1997   4.940   3.094   8.912 -1.5229 -0.7959  0.0959
   27CHL1  H27C 1998   4.912   3.106   8.730  1.2335  0.0061 -0.7488
   28CHL1    C3 1999   4.545   1.805  10.073  0.7136  0.0810 -0.2476
   28CHL1    H3 2000   4.577   1.702  10.099  2.3109  0.9601  1.5283
   28CHL1    O3 2001   4.514   1.873  10.192 -0.6986 -0.1188 -0.1399
   28CHL1   H3' 2002   4.509   1.965  10.165 -0.0747 -0.1187 -0.2510
   28CHL1    C4 2003   4.662   1.880  10.008  0.3246 -0.4136 -0.2046
   28CHL1   H4A 2004   4.642   1.989  10.016  0.9481 -0.2063 -1.2891
   28CHL1   H4B 2005   4.747   1.850  10.073  1.2992 -0.6215 -1.5336
   28CHL1    C5 2006   4.684   1.826   9.869 -1.0203  0.8565  0.3035
   28CHL1    C6 2007   4.803   1.787   9.823  0.2493  0.3897  0.6533
   28CHL1    H6 2008   4.890   1.791   9.891  1.1271 -3.8518  0.0218
   28CHL1    C7 2009   4.831   1.743   9.682 -0.6795  0.7805  0.3019
   28CHL1   H7A 2010   4.929   1.787   9.654 -0.5286  1.0957  1.2863
   28CHL1   H7B 2011   4.829   1.632   9.674 -3.2432  0.8713 -1.6013
   28CHL1    C8 2012   4.728   1.785   9.580 -0.4787  0.4361 -0.2080
   28CHL1    H8 2013   4.733   1.893   9.553  1.3084  0.5271  0.3662
   28CHL1   C14 2014   4.755   1.706   9.453 -0.2825  0.7981  0.2813
   28CHL1   H14 2015   4.745   1.599   9.478 -1.5990 -0.0641 -3.3461
   28CHL1   C15 2016   4.892   1.699   9.386 -0.4372  0.2709  0.0033
   28CHL1  H15A 2017   4.933   1.802   9.394  1.2756 -0.1200 -2.4695
   28CHL1  H15B 2018   4.961   1.623   9.428 -0.2107 -1.1979 -2.7958
   28CHL1   C16 2019   4.862   1.643   9.250 -0.4912 -0.3189 -0.3542
   28CHL1  H16A 2020   4.916   1.711   9.180 -3.1556  0.5390 -1.7143
   28CHL1  H16B 2021   4.903   1.540   9.238 -0.2554 -0.3352  0.5794
   28CHL1   C17 2022   4.710   1.625   9.235  0.5298  0.0248 -0.5476
   28CHL1   H17 2023   4.688   1.521   9.268 -0.1921  0.7266  1.2748
   28CHL1   C13 2024   4.654   1.732   9.339  0.1239  0.2892 -0.9492
   28CHL1   C18 2025   4.671   1.875   9.285  0.7200 -0.1476 -0.2435
   28CHL1  H18A 2026   4.650   1.948   9.365 -0.9753 -3.4116  2.5435
   28CHL1  H18B 2027   4.777   1.891   9.258  0.6420 -1.7676 -1.6889
   28CHL1  H18C 2028   4.603   1.897   9.200 -0.3465  0.0169  0.6366
   28CHL1   C12 2029   4.508   1.708   9.391 -0.1068  0.5629  0.6232
   28CHL1  H12A 2030   4.449   1.736   9.302  1.2306  1.3948 -0.0363
   28CHL1  H12B 2031   4.496   1.598   9.398 -2.1956  0.7101 -0.0305
   28CHL1   C11 2032   4.481   1.767   9.526  0.2175 -0.1718  0.1121
   28CHL1  H11A 2033   4.471   1.876   9.512 -0.4309 -0.3154 -0.6518
   28CHL1  H11B 2034   4.379   1.741   9.563  0.7532 -0.1299  1.6944
   28CHL1    C9 2035   4.589   1.741   9.637 -0.3252  0.6415 -0.0167
   28CHL1    H9 2036   4.592   1.632   9.656  0.2641  0.6149 -0.2524
   28CHL1   C10 2037   4.565   1.801   9.781  0.5232 -0.3954 -0.0459
   28CHL1   C19 2038   4.514   1.943   9.743 -0.5070 -0.3929  0.1120
   28CHL1  H19A 2039   4.412   1.938   9.699 -0.4232  2.3947 -0.6104
   28CHL1  H19B 2040   4.505   2.012   9.829  0.8477 -1.9589  1.5804
   28CHL1  H19C 2041   4.579   1.995   9.669  0.8216 -2.4881 -0.2595
   28CHL1    C1 2042   4.450   1.717   9.852 -0.0532 -0.1850 -0.1410
   28CHL1   H1A 2043   4.365   1.704   9.782  0.5520  0.0903 -0.9464
   28CHL1   H1B 2044   4.479   1.611   9.867  0.9253  0.2073  0.8538
   28CHL1    C2 2045   4.420   1.786   9.992  0.1668 -0.6461 -0.0571
   28CHL1   H2A 2046   4.334   1.735  10.040 -0.0769  2.0573  2.7111
   28CHL1   H2B 2047   4.367   1.878   9.959 -0.2425 -0.7550  0.2848
   28CHL1   C20 2048   4.648   1.620   9.085 -0.0549 -0.4965 -0.3485
   28CHL1   H20 2049   4.633   1.722   9.042  1.5848  1.3973  3.1249
   28CHL1   C21 2050   4.516   1.543   9.078  0.7670  0.3122 -0.2864
   28CHL1  H21A 2051   4.431   1.590   9.131  0.6187 -0.1874 -0.0741
   28CHL1  H21B 2052   4.537   1.442   9.120 -2.7317 -1.3777 -2.2006
   28CHL1  H21C 2053   4.479   1.531   8.974 -0.8090 -1.4975  0.4347
   28CHL1   C22 2054   4.751   1.547   8.983 -0.1807 -0.2108  0.3823
   28CHL1  H22A 2055   4.851   1.595   8.990  0.5365 -1.3417 -1.3855
   28CHL1  H22B 2056   4.768   1.444   9.021  1.5073  0.0864  0.5037
   28CHL1   C23 2057   4.711   1.542   8.835 -0.6299 -0.3523  0.6817
   28CHL1  H23A 2058   4.804   1.507   8.787 -0.8093  0.7433 -0.5275
   28CHL1  H23B 2059   4.638   1.464   8.803  0.7821 -0.7128 -1.9638
   28CHL1   C24 2060   4.673   1.672   8.768 -0.2066 -0.1972  0.6957
   28CHL1  H24A 2061   4.587   1.712   8.825 -0.9166  0.5137 -0.8381
   28CHL1  H24B 2062   4.765   1.731   8.791  1.2254 -2.4055  0.9889
   28CHL1   C25 2063   4.638   1.661   8.615 -0.5489  0.5298 -0.1944
   28CHL1   H25 2064   4.560   1.583   8.609  0.7574 -0.7701 -0.9074
   28CHL1   C26 2065   4.571   1.786   8.559 -0.0416  0.4905  0.4823
   28CHL1  H26A 2066   4.490   1.823   8.625  0.8389  3.0180  0.2584
   28CHL1  H26B 2067   4.647   1.867   8.556 -0.4896  0.8870 -1.1801
   28CHL1  H26C 2068   4.538   1.764   8.455  2.1208  1.1193 -0.3823
   28CHL1   C27 2069   4.761   1.624   8.533 -0.5704 -0.4875  0.6907
   28CHL1  H27A 2070   4.799   1.530   8.580  2.4297  1.3901  2.3354
   28CHL1  H27B 2071   4.735   1.601   8.427 -1.9193  0.5035  0.7892
   28CHL1  H27C 2072   4.837   1.704   8.535 -0.8609 -0.1522 -0.6938
   29CHL1    C3 2073   5.582   6.601   6.670  0.5339 -0.3028  0.5685
   29CHL1    H3 2074   5.492   6.565   6.724 -0.5813  2.6968  0.9389
   29CHL1    O3 2075   5.558   6.558   6.533  0.0076  0.2944 -0.1270
   29CHL1   H3' 2076   5.649   6.540   6.508 -0.0698  2.2610 -2.1475
   29CHL1    C4 2077   5.597   6.751   6.672  0.6513 -0.2208 -0.4552
   29CHL1   H4A 2078   5.691   6.769   6.615 -0.6163 -2.2133 -3.3792
   29CHL1   H4B 2079   5.514   6.791   6.611 -0.2157 -1.0104  0.1759
   29CHL1    C5 2080   5.591   6.810   6.812 -0.1240 -0.0719  0.9204
   29CHL1    C6 2081   5.515   6.911   6.851  0.1144 -0.0533  0.3564
   29CHL1    H6 2082   5.458   6.959   6.770 -0.1359 -0.3703  0.3437
   29CHL1    C7 2083   5.512   6.967   6.988  0.0544 -0.3095 -0.6256
   29CHL1   H7A 2084   5.526   7.077   6.980 -0.7909 -0.0816  0.7133
   29CHL1   H7B 2085   5.414   6.939   7.031 -0.2605 -0.4917 -1.4460
   29CHL1    C8 2086   5.622   6.901   7.078  0.4088  0.4965 -0.1730
   29CHL1    H8 2087   5.718   6.950   7.052  0.8889 -0.7467 -0.8073
   29CHL1   C14 2088   5.576   6.927   7.219 -0.1592  0.3184  0.0766
   29CHL1   H14 2089   5.488   6.861   7.230  1.2564 -2.1652 -2.1536
   29CHL1   C15 2090   5.521   7.067   7.253 -0.2182 -1.0499  0.1660
   29CHL1  H15A 2091   5.568   7.160   7.215 -1.4110 -0.4832  0.0431
   29CHL1  H15B 2092   5.417   7.078   7.216 -0.0021 -0.6900 -0.3392
   29CHL1   C16 2093   5.531   7.060   7.406  0.6838 -0.4713 -0.1232
   29CHL1  H16A 2094   5.599   7.143   7.436  1.7819 -0.5198 -2.3259
   29CHL1  H16B 2095   5.427   7.062   7.445  0.3654 -2.1827 -0.7953
   29CHL1   C17 2096   5.591   6.926   7.444  0.5494 -0.4382  0.2596
   29CHL1   H17 2097   5.504   6.859   7.458  0.1427  0.2707  1.2511
   29CHL1   C13 2098   5.676   6.882   7.326 -0.0616 -0.2267  0.0652
   29CHL1   C18 2099   5.801   6.972   7.317  0.4661 -1.3390  0.5671
   29CHL1  H18A 2100   5.860   6.950   7.225  0.9685 -1.4155  0.9050
   29CHL1  H18B 2101   5.780   7.080   7.324  1.9899 -0.8400 -1.4859
   29CHL1  H18C 2102   5.880   6.951   7.392  1.0919 -1.3168 -0.0778
   29CHL1   C12 2103   5.688   6.727   7.306 -0.4387 -0.6735 -0.3762
   29CHL1  H12A 2104   5.763   6.676   7.371 -0.4427 -3.1228 -2.1567
   29CHL1  H12B 2105   5.587   6.684   7.322 -0.4796  0.0315  1.5992
   29CHL1   C11 2106   5.727   6.694   7.166 -0.2121 -0.2271  0.0038
   29CHL1  H11A 2107   5.832   6.719   7.140 -0.4019  0.0219 -0.5466
   29CHL1  H11B 2108   5.728   6.583   7.158  0.4619 -0.3862  1.8205
   29CHL1    C9 2109   5.638   6.753   7.056 -0.2389 -0.7300  0.8589
   29CHL1    H9 2110   5.542   6.700   7.072 -0.4682 -0.1788  1.3632
   29CHL1   C10 2111   5.683   6.734   6.909 -0.9021  0.1155  0.0821
   29CHL1   C19 2112   5.828   6.783   6.889  0.4896 -0.8570 -0.0042
   29CHL1  H19A 2113   5.852   6.774   6.781 -0.8381 -0.9914 -0.2990
   29CHL1  H19B 2114   5.841   6.891   6.913 -1.0454 -0.5238 -0.6027
   29CHL1  H19C 2115   5.903   6.719   6.940  2.1153  0.4634 -0.6382
   29CHL1    C1 2116   5.689   6.576   6.886 -0.0306  0.6221 -0.9026
   29CHL1   H1A 2117   5.774   6.540   6.948 -0.7540  0.8704  0.2651
   29CHL1   H1B 2118   5.601   6.525   6.930 -0.3376  1.1710 -0.8713
   29CHL1    C2 2119   5.706   6.540   6.735  0.4812 -0.1664  0.2412
   29CHL1   H2A 2120   5.718   6.430   6.724  2.8458 -0.0075  0.7660
   29CHL1   H2B 2121   5.798   6.574   6.684 -1.1164  0.4078 -2.4401
   29CHL1   C20 2122   5.666   6.933   7.574  0.5339  0.2128 -0.4045
   29CHL1   H20 2123   5.739   7.016   7.569 -0.6624  1.3561  0.6332
   29CHL1   C21 2124   5.745   6.803   7.600 -0.0663  0.0922  0.8648
   29CHL1  H21A 2125   5.771   6.803   7.708  0.2518  1.2998  0.8028
   29CHL1  H21B 2126   5.840   6.796   7.543 -0.4046 -2.1485  0.5020
   29CHL1  H21C 2127   5.691   6.710   7.574  2.1203 -0.4406 -2.4183
   29CHL1   C22 2128   5.568   6.958   7.694  0.3255 -0.5818 -0.8082
   29CHL1  H22A 2129   5.496   7.041   7.678  1.1876  1.0155  2.7220
   29CHL1  H22B 2130   5.509   6.863   7.701  0.6768 -0.7946 -0.7301
   29CHL1   C23 2131   5.641   6.990   7.834  0.0340 -0.3211 -0.1716
   29CHL1  H23A 2132   5.582   6.954   7.921  1.0337  0.7801  1.0144
   29CHL1  H23B 2133   5.734   6.932   7.842  0.5235  0.1436 -1.9373
   29CHL1   C24 2134   5.672   7.136   7.855 -0.5192  0.2333  0.4423
   29CHL1  H24A 2135   5.756   7.168   7.790  0.0352 -0.4811  0.7917
   29CHL1  H24B 2136   5.584   7.193   7.817 -1.1991 -2.0822 -1.6834
   29CHL1   C25 2137   5.709   7.170   8.002 -0.2554  0.3155  0.3179
   29CHL1   H25 2138   5.765   7.087   8.049 -0.6204 -0.2678 -0.2713
   29CHL1   C26 2139   5.788   7.299   7.998 -0.0640  0.0051 -0.5448
   29CHL1  H26A 2140   5.734   7.385   7.954 -0.2970 -0.8571 -2.0406
   29CHL1  H26B 2141   5.817   7.323   8.103 -1.2043  3.0379 -0.8308
   29CHL1  H26C 2142   5.882   7.278   7.942 -0.3245 -0.9648 -0.6359
   29CHL1   C27 2143   5.573   7.193   8.080  0.1987  0.1086  0.0630
   29CHL1  H27A 2144   5.600   7.206   8.187  0.3010 -0.8806  0.1640
   29CHL1  H27B 2145   5.537   7.295   8.054  1.6081  1.7116  3.7191
   29CHL1  H27C 2146   5.499   7.112   8.065 -1.5493  1.0371  2.8965
   30CHL1    C3 2147   3.974   6.235   7.303  0.0846 -0.5795  0.2112
   30CHL1    H3 2148   3.987   6.127   7.323  2.0903 -0.6413 -1.1184
   30CHL1    O3 2149   3.996   6.255   7.164  0.3115  0.3536  0.0262
   30CHL1   H3' 2150   4.020   6.344   7.138  0.6392  0.2504 -0.0265
   30CHL1    C4 2151   3.828   6.280   7.326  0.3125 -0.1532  0.3451
   30CHL1   H4A 2152   3.819   6.383   7.284  1.6999  0.1628  0.7804
   30CHL1   H4B 2153   3.762   6.211   7.268 -2.4411  2.0796  0.5736
   30CHL1    C5 2154   3.790   6.288   7.478  0.1033  0.3528 -0.0103
   30CHL1    C6 2155   3.681   6.215   7.524  0.3386 -0.3737  0.6794
   30CHL1    H6 2156   3.611   6.165   7.455  0.7147  0.8874 -0.6654
   30CHL1    C7 2157   3.643   6.209   7.664  0.2452 -0.2506 -0.0598
   30CHL1   H7A 2158   3.533   6.193   7.675  0.4570 -0.4496  2.2335
   30CHL1   H7B 2159   3.680   6.109   7.696 -1.1288 -1.0017 -0.6753
   30CHL1    C8 2160   3.699   6.327   7.742  0.4196 -0.2727 -0.0545
   30CHL1    H8 2161   3.646   6.417   7.705  1.2269 -1.1227 -3.6003
   30CHL1   C14 2162   3.673   6.302   7.893  0.0864 -0.7546 -0.0719
   30CHL1   H14 2163   3.731   6.208   7.909 -2.0186 -2.2344 -0.6907
   30CHL1   C15 2164   3.531   6.260   7.946 -0.2272 -0.1487  0.1014
   30CHL1  H15A 2165   3.448   6.314   7.897  0.2751 -0.9689 -1.7451
   30CHL1  H15B 2166   3.525   6.149   7.943  1.9003 -0.2926 -0.3817
   30CHL1   C16 2167   3.538   6.295   8.096 -0.1301 -0.6972  0.0098
   30CHL1  H16A 2168   3.442   6.349   8.114 -0.2714 -1.4807  1.9402
   30CHL1  H16B 2169   3.549   6.206   8.163  0.0898 -0.3310  0.4692
   30CHL1   C17 2170   3.667   6.384   8.120 -0.0732  0.2616 -0.4225
   30CHL1   H17 2171   3.749   6.317   8.155  0.0730 -0.4394 -2.0197
   30CHL1   C13 2172   3.712   6.426   7.975 -0.5516  0.5934  0.2653
   30CHL1   C18 2173   3.638   6.551   7.929  0.5477  0.6661  0.3482
   30CHL1  H18A 2174   3.528   6.541   7.919  0.5304  1.0062  0.2184
   30CHL1  H18B 2175   3.640   6.627   8.010 -0.2809  0.2944  0.7371
   30CHL1  H18C 2176   3.676   6.593   7.834  0.8723 -3.0512 -1.3657
   30CHL1   C12 2177   3.867   6.436   7.957 -0.0673  0.1246  0.0354
   30CHL1  H12A 2178   3.902   6.523   8.015 -2.0632  0.8937  0.1586
   30CHL1  H12B 2179   3.920   6.347   7.997 -0.0534 -0.6132 -1.5555
   30CHL1   C11 2180   3.912   6.457   7.801  0.7891  0.3997 -0.8493
   30CHL1  H11A 2181   3.876   6.562   7.787  0.4929  0.3053 -0.8060
   30CHL1  H11B 2182   4.022   6.457   7.787  0.8602  2.7847 -0.6926
   30CHL1    C9 2183   3.845   6.342   7.712 -0.0029 -0.0749 -0.1370
   30CHL1    H9 2184   3.894   6.251   7.752 -0.2853  1.0273  3.0326
   30CHL1   C10 2185   3.883   6.359   7.565 -0.6708  0.1571  0.4485
   30CHL1   C19 2186   3.872   6.509   7.531 -1.1930 -0.6103  0.3557
   30CHL1  H19A 2187   3.891   6.527   7.423  3.1791  0.2014  1.0704
   30CHL1  H19B 2188   3.778   6.562   7.558 -0.0217  0.3438  2.9917
   30CHL1  H19C 2189   3.950   6.568   7.585 -1.1562 -2.3781  2.3716
   30CHL1    C1 2190   4.030   6.322   7.539  0.3681 -0.0386  0.1516
   30CHL1   H1A 2191   4.104   6.386   7.592  0.1292 -1.4752  2.3486
   30CHL1   H1B 2192   4.047   6.217   7.571  1.4837  0.2764  0.6552
   30CHL1    C2 2193   4.073   6.320   7.386 -0.0110 -0.7814 -0.5058
   30CHL1   H2A 2194   4.174   6.275   7.379  0.4800  0.4520 -1.8849
   30CHL1   H2B 2195   4.073   6.424   7.346 -0.2832 -1.2119 -1.6493
   30CHL1   C20 2196   3.647   6.492   8.224  0.1692 -0.2371  0.1707
   30CHL1   H20 2197   3.566   6.562   8.194  0.2303 -0.1918  0.1126
   30CHL1   C21 2198   3.773   6.575   8.253 -0.3865  0.0635 -0.2931
   30CHL1  H21A 2199   3.809   6.629   8.162 -0.8724  0.1515 -0.4337
   30CHL1  H21B 2200   3.866   6.518   8.275 -0.1478  1.2345  1.9952
   30CHL1  H21C 2201   3.771   6.643   8.340  1.0250 -1.6152  1.1361
   30CHL1   C22 2202   3.601   6.447   8.363  0.2971  0.0247  0.5433
   30CHL1  H22A 2203   3.535   6.359   8.347 -4.3038  3.0038  1.2393
   30CHL1  H22B 2204   3.682   6.426   8.436 -0.9245 -0.2038  1.8583
   30CHL1   C23 2205   3.518   6.561   8.423  0.0789  0.0824  0.1529
   30CHL1  H23A 2206   3.577   6.653   8.406  0.3589 -0.2988 -1.0369
   30CHL1  H23B 2207   3.424   6.559   8.364  0.1979  0.1046 -0.0354
   30CHL1   C24 2208   3.469   6.538   8.566 -0.4022 -0.5498  0.5678
   30CHL1  H24A 2209   3.392   6.459   8.558 -0.7132 -0.0853 -1.8327
   30CHL1  H24B 2210   3.554   6.494   8.623  0.4459  0.6064  0.2214
   30CHL1   C25 2211   3.429   6.663   8.655 -0.3812  0.4192 -0.2187
   30CHL1   H25 2212   3.391   6.618   8.749  0.2394 -3.2105 -1.5415
   30CHL1   C26 2213   3.544   6.754   8.699  0.0896 -0.2921  0.0064
   30CHL1  H26A 2214   3.520   6.824   8.782  1.1677 -0.2485  0.2960
   30CHL1  H26B 2215   3.631   6.694   8.734 -0.4560 -1.1836 -0.1148
   30CHL1  H26C 2216   3.572   6.809   8.607 -1.0733  2.4795  1.1877
   30CHL1   C27 2217   3.317   6.749   8.597  0.5986 -0.0069 -0.2237
   30CHL1  H27A 2218   3.349   6.811   8.510 -1.2051 -0.7990 -1.5027
   30CHL1  H27B 2219   3.225   6.696   8.567  1.1713 -1.1766  0.0512
   30CHL1  H27C 2220   3.292   6.823   8.676  1.3892 -2.0976  2.1099
   31CHL1    C3 2221   4.340   1.441   6.656  0.0699  0.0327  0.4501
   31CHL1    H3 2222   4.416   1.521   6.670  1.4201 -1.3401  1.2613
   31CHL1    O3 2223   4.303   1.428   6.520  0.5735 -0.0944 -0.5215
   31CHL1   H3' 2224   4.378   1.424   6.461  0.7155  0.7424 -0.4153
   31CHL1    C4 2225   4.384   1.314   6.716 -0.2011 -0.1855 -0.0478
   31CHL1   H4A 2226   4.327   1.224   6.683  0.0951 -0.4517  0.1616
   31CHL1   H4B 2227   4.485   1.288   6.676 -0.2628 -1.2352  0.4548
   31CHL1    C5 2228   4.405   1.324   6.869 -0.1320 -0.5171  0.0983
   31CHL1    C6 2229   4.518   1.283   6.927  0.4364 -0.5976 -0.1285
   31CHL1    H6 2230   4.594   1.246   6.857 -1.2247 -1.7507 -1.3691
   31CHL1    C7 2231   4.540   1.268   7.075  0.0624  0.2079 -0.2034
   31CHL1   H7A 2232   4.566   1.164   7.101  0.6325  0.0951 -1.2049
   31CHL1   H7B 2233   4.621   1.334   7.113 -0.4084 -0.2909  1.7969
   31CHL1    C8 2234   4.411   1.297   7.160  0.5157  0.7320 -0.0703
   31CHL1    H8 2235   4.353   1.202   7.152  0.3885  0.8234 -0.2411
   31CHL1   C14 2236   4.455   1.330   7.305 -0.0480 -0.7230  0.4639
   31CHL1   H14 2237   4.525   1.415   7.301 -1.1191  0.2647  1.6624
   31CHL1   C15 2238   4.518   1.219   7.387 -0.4218 -0.9765  0.2180
   31CHL1  H15A 2239   4.462   1.125   7.367  1.4993 -1.7648 -1.8045
   31CHL1  H15B 2240   4.624   1.209   7.357 -0.2685  2.6134 -0.9150
   31CHL1   C16 2241   4.500   1.274   7.532 -0.3849  0.0534 -0.4910
   31CHL1  H16A 2242   4.479   1.199   7.611 -0.6492  0.7918  0.1452
   31CHL1  H16B 2243   4.599   1.314   7.564  0.0008 -0.7091 -0.6932
   31CHL1   C17 2244   4.390   1.384   7.531 -0.3192  0.1179  0.0220
   31CHL1   H17 2245   4.437   1.483   7.546 -0.4697 -0.0328  1.7537
   31CHL1   C13 2246   4.331   1.377   7.387  0.1649  0.3594  0.7205
   31CHL1   C18 2247   4.222   1.267   7.387 -0.6512 -0.2291 -0.6579
   31CHL1  H18A 2248   4.202   1.231   7.283  0.2909 -1.3386 -0.4798
   31CHL1  H18B 2249   4.252   1.188   7.459 -0.7427  1.9405  1.8990
   31CHL1  H18C 2250   4.124   1.302   7.427  0.0161 -0.6458  1.4380
   31CHL1   C12 2251   4.280   1.510   7.324  0.1769 -0.3071  0.1162
   31CHL1  H12A 2252   4.201   1.553   7.389 -1.9915  0.7478 -2.9845
   31CHL1  H12B 2253   4.363   1.583   7.321  0.7715 -0.9227  1.0837
   31CHL1   C11 2254   4.227   1.494   7.184 -0.5693  0.4634  0.1342
   31CHL1  H11A 2255   4.129   1.442   7.197 -0.2960  0.0592  0.6101
   31CHL1  H11B 2256   4.213   1.597   7.144 -0.1221  0.6106  0.3574
   31CHL1    C9 2257   4.329   1.411   7.091  0.3983 -0.5745 -0.0988
   31CHL1    H9 2258   4.416   1.477   7.071 -0.4243  0.0243 -1.9130
   31CHL1   C10 2259   4.283   1.375   6.949 -0.5209 -0.2666 -0.3998
   31CHL1   C19 2260   4.160   1.281   6.975  0.0479  0.3505 -0.0008
   31CHL1  H19A 2261   4.199   1.191   7.026  3.2094  0.3039 -2.2406
   31CHL1  H19B 2262   4.082   1.331   7.038  0.7234  1.2638  0.1379
   31CHL1  H19C 2263   4.118   1.260   6.875 -1.7376  1.3939  0.4781
   31CHL1    C1 2264   4.238   1.508   6.883 -0.1751 -0.0097  0.2035
   31CHL1   H1A 2265   4.138   1.542   6.918 -0.4493 -1.3138  0.7725
   31CHL1   H1B 2266   4.311   1.590   6.895  1.8667 -1.8194  0.8723
   31CHL1    C2 2267   4.211   1.487   6.731  0.2153  0.7883 -0.8840
   31CHL1   H2A 2268   4.174   1.585   6.694 -1.1362  1.2706  1.5421
   31CHL1   H2B 2269   4.125   1.418   6.728  1.4231 -0.9216  0.8607
   31CHL1   C20 2270   4.291   1.383   7.662 -0.9545 -0.2405 -0.0501
   31CHL1   H20 2271   4.250   1.280   7.667  0.5954 -0.8571  0.4760
   31CHL1   C21 2272   4.185   1.492   7.645 -0.1604 -0.7522  1.0695
   31CHL1  H21A 2273   4.130   1.508   7.740  0.4758 -0.8908  1.4650
   31CHL1  H21B 2274   4.103   1.468   7.574 -0.3078 -0.8231  1.2634
   31CHL1  H21C 2275   4.227   1.592   7.618 -0.6527 -0.5872  0.8944
   31CHL1   C22 2276   4.371   1.409   7.798  0.2016 -0.4698  0.6102
   31CHL1  H22A 2277   4.441   1.494   7.783 -0.4333 -0.1855 -0.8597
   31CHL1  H22B 2278   4.302   1.449   7.875  0.1028 -2.2512  1.5048
   31CHL1   C23 2279   4.442   1.290   7.855  0.1938  0.3340  0.0583
   31CHL1  H23A 2280   4.373   1.203   7.864  1.1557 -0.4110  0.4880
   31CHL1  H23B 2281   4.526   1.256   7.790  0.0983  0.1910  0.0090
   31CHL1   C24 2282   4.529   1.320   7.975  0.2079  0.3796  0.3815
   31CHL1  H24A 2283   4.606   1.243   7.997 -1.3077 -0.8751  1.5212
   31CHL1  H24B 2284   4.595   1.406   7.953  2.0444 -0.5907  1.7819
   31CHL1   C25 2285   4.449   1.369   8.096 -0.0144 -0.5759 -0.5312
   31CHL1   H25 2286   4.377   1.449   8.069  1.6851  1.0014 -0.5862
   31CHL1   C26 2287   4.371   1.262   8.173  1.1470 -0.3393  0.0507
   31CHL1  H26A 2288   4.369   1.171   8.110 -2.4824  0.6884 -1.5709
   31CHL1  H26B 2289   4.419   1.227   8.267 -0.4290 -1.2324  0.5657
   31CHL1  H26C 2290   4.268   1.289   8.204  1.0844  1.5282 -1.5646
   31CHL1   C27 2291   4.548   1.437   8.197 -0.5337 -0.1492  0.7626
   31CHL1  H27A 2292   4.627   1.372   8.241  0.0251 -1.0971 -1.4756
   31CHL1  H27B 2293   4.488   1.489   8.275  2.0583  2.2842  1.2917
   31CHL1  H27C 2294   4.606   1.510   8.137 -0.3848 -1.9025 -1.3397
   32CHL1    C3 2295   5.128   6.557   6.773 -0.2706 -0.8680 -0.0224
   32CHL1    H3 2296   5.189   6.467   6.796 -0.8368 -1.4544 -0.7585
   32CHL1    O3 2297   5.120   6.552   6.632 -0.1500 -0.3914 -0.6560
   32CHL1   H3' 2298   5.088   6.639   6.608 -0.8868 -0.1262  1.1376
   32CHL1    C4 2299   4.993   6.554   6.836  0.3559 -0.1965  0.0954
   32CHL1   H4A 2300   4.933   6.641   6.802  0.2962 -0.2985 -0.0605
   32CHL1   H4B 2301   4.937   6.467   6.796 -0.4370  0.5827 -0.5328
   32CHL1    C5 2302   5.013   6.563   6.987  0.2491 -0.1541 -0.0290
   32CHL1    C6 2303   4.965   6.470   7.072  0.1825 -0.1762 -0.2414
   32CHL1    H6 2304   4.918   6.375   7.042 -3.9315  0.3606  3.5370
   32CHL1    C7 2305   4.971   6.481   7.225  0.4217 -0.3632  0.3556
   32CHL1   H7A 2306   4.873   6.455   7.271 -0.4758  0.9881 -0.6921
   32CHL1   H7B 2307   5.056   6.423   7.268 -1.1600 -0.9977  2.8151
   32CHL1    C8 2308   4.986   6.634   7.271  0.4348  0.5761  0.1746
   32CHL1    H8 2309   4.889   6.683   7.249 -2.3120 -3.3398  2.3117
   32CHL1   C14 2310   5.012   6.651   7.420  0.4741  0.7158 -0.3007
   32CHL1   H14 2311   5.105   6.592   7.427  0.0147 -0.2709 -2.0424
   32CHL1   C15 2312   4.908   6.593   7.526 -0.3650  0.5964 -0.5467
   32CHL1  H15A 2313   4.802   6.606   7.495 -0.5111  0.0306 -0.3001
   32CHL1  H15B 2314   4.941   6.488   7.544  1.3347  1.5066  2.1911
   32CHL1   C16 2315   4.935   6.669   7.659 -0.3008  1.0810 -0.0069
   32CHL1  H16A 2316   4.844   6.726   7.687 -1.9636 -0.9200 -1.0794
   32CHL1  H16B 2317   4.956   6.601   7.744 -0.1668  1.1648  0.0284
   32CHL1   C17 2318   5.058   6.766   7.637 -0.4250  0.8130 -0.0864
   32CHL1   H17 2319   5.146   6.700   7.653 -0.5475  1.0233  1.6083
   32CHL1   C13 2320   5.057   6.786   7.479  0.4775 -0.0603  0.2204
   32CHL1   C18 2321   4.943   6.887   7.455 -0.2664 -0.4453 -0.1836
   32CHL1  H18A 2322   4.901   6.884   7.352 -0.0749  1.3526 -0.3464
   32CHL1  H18B 2323   4.858   6.869   7.525 -0.1936  2.9339  0.9248
   32CHL1  H18C 2324   4.985   6.988   7.469  1.5726 -1.2395  0.3239
   32CHL1   C12 2325   5.183   6.834   7.412  0.2549  0.1578  0.1214
   32CHL1  H12A 2326   5.225   6.932   7.444  2.0867 -0.6109  0.2213
   32CHL1  H12B 2327   5.269   6.767   7.432 -0.6202 -0.4498  2.0791
   32CHL1   C11 2328   5.160   6.832   7.253 -0.2325  0.3061 -0.0575
   32CHL1  H11A 2329   5.083   6.909   7.232 -0.6781 -0.5259 -1.6232
   32CHL1  H11B 2330   5.252   6.869   7.203  0.3261  0.4030  1.0108
   32CHL1    C9 2331   5.112   6.692   7.195  0.2606  0.2047  0.0740
   32CHL1    H9 2332   5.196   6.627   7.227  0.6859  1.3053  1.2732
   32CHL1   C10 2333   5.083   6.691   7.038  0.0003  0.2571  0.5087
   32CHL1   C19 2334   4.992   6.816   7.005  0.4237 -0.2803  0.1176
   32CHL1  H19A 2335   4.901   6.825   7.068  0.6284  3.9685  0.1509
   32CHL1  H19B 2336   5.048   6.911   7.020  0.0853  0.1629 -1.2570
   32CHL1  H19C 2337   4.954   6.832   6.901 -0.2138  2.5734  0.6824
   32CHL1    C1 2338   5.222   6.712   6.966 -0.0147  0.0134 -0.0199
   32CHL1   H1A 2339   5.249   6.819   6.975 -2.6770  0.6226  2.0939
   32CHL1   H1B 2340   5.300   6.649   7.013  1.3736 -0.0605 -2.3217
   32CHL1    C2 2341   5.202   6.693   6.809  1.2304  0.5252 -0.1292
   32CHL1   H2A 2342   5.298   6.695   6.754  0.2812 -0.2697 -1.8983
   32CHL1   H2B 2343   5.135   6.776   6.778 -0.7607  0.1934  2.8541
   32CHL1   C20 2344   5.068   6.889   7.727 -0.2833 -0.4753 -0.9492
   32CHL1   H20 2345   4.989   6.965   7.709 -1.3717 -1.0781  1.0880
   32CHL1   C21 2346   5.204   6.953   7.723 -0.2295  0.0251  0.3051
   32CHL1  H21A 2347   5.218   7.020   7.811  1.8280  0.2705 -0.1644
   32CHL1  H21B 2348   5.232   7.003   7.628 -2.5276 -3.0626 -2.2423
   32CHL1  H21C 2349   5.274   6.867   7.728 -0.4379 -0.1444  0.3520
   32CHL1   C22 2350   5.034   6.862   7.874  0.6960  0.2075 -0.2097
   32CHL1  H22A 2351   5.029   6.955   7.935 -2.8821 -0.7458  1.1912
   32CHL1  H22B 2352   4.943   6.802   7.893  1.0810 -0.7367 -1.2253
   32CHL1   C23 2353   5.151   6.789   7.948 -0.1198  0.2135 -0.3243
   32CHL1  H23A 2354   5.174   6.703   7.882  0.7273  2.5176 -3.2530
   32CHL1  H23B 2355   5.245   6.847   7.954 -1.0893  2.1359 -2.3306
   32CHL1   C24 2356   5.109   6.728   8.074 -0.7307  0.6421 -0.0950
   32CHL1  H24A 2357   5.065   6.802   8.144 -1.0107 -0.6318  1.1040
   32CHL1  H24B 2358   5.028   6.653   8.061  0.8580 -1.5118  1.7648
   32CHL1   C25 2359   5.220   6.658   8.158  0.0819  0.0293 -0.3551
   32CHL1   H25 2360   5.270   6.571   8.113  0.9949 -0.4658  1.5144
   32CHL1   C26 2361   5.337   6.751   8.211  0.0221  0.1100  0.6230
   32CHL1  H26A 2362   5.295   6.825   8.283  1.9205 -0.3270  2.2774
   32CHL1  H26B 2363   5.415   6.698   8.270 -1.8438 -1.6342  1.6569
   32CHL1  H26C 2364   5.380   6.809   8.126 -0.4408  0.7117  0.7962
   32CHL1   C27 2365   5.156   6.604   8.284  0.0015  0.0921 -0.7476
   32CHL1  H27A 2366   5.110   6.503   8.280 -3.2590  1.3555  0.9403
   32CHL1  H27B 2367   5.235   6.586   8.359  0.9991  0.6827 -1.6323
   32CHL1  H27C 2368   5.088   6.679   8.330  2.2139  1.4566  0.4517
   33CHL1    C3 2369   6.612   5.643   6.724 -0.6835  0.6876  0.2021
   33CHL1    H3 2370   6.676   5.733   6.720 -0.1437  0.3387  0.8110
   33CHL1    O3 2371   6.553   5.613   6.600 -0.5275  0.8585  0.8692
   33CHL1   H3' 2372   6.472   5.564   6.616 -1.0780  1.1906 -0.7037
   33CHL1    C4 2373   6.704   5.523   6.753 -0.0905 -0.5158  0.2432
   33CHL1   H4A 2374   6.642   5.431   6.753  1.2216 -1.4375  1.7272
   33CHL1   H4B 2375   6.780   5.527   6.673  1.3563 -2.8640  1.3711
   33CHL1    C5 2376   6.771   5.527   6.890  0.5198 -0.0166  0.0191
   33CHL1    C6 2377   6.907   5.513   6.902 -0.4568 -0.3513 -0.2802
   33CHL1    H6 2378   6.967   5.504   6.811 -1.2292 -0.0247 -0.8260
   33CHL1    C7 2379   6.977   5.514   7.044  0.1825 -0.9265  0.0815
   33CHL1   H7A 2380   7.029   5.420   7.071  0.2346 -0.7525  0.5959
   33CHL1   H7B 2381   7.039   5.606   7.049 -1.3326  0.0749  2.4856
   33CHL1    C8 2382   6.879   5.531   7.167  0.4239 -0.4486 -0.4599
   33CHL1    H8 2383   6.848   5.426   7.183  1.0300 -0.5460  0.1368
   33CHL1   C14 2384   6.949   5.594   7.290  0.0633 -0.6195 -0.0281
   33CHL1   H14 2385   6.966   5.697   7.253 -0.3690 -0.3784  0.4397
   33CHL1   C15 2386   7.088   5.548   7.328  0.7725 -0.7336  0.4728
   33CHL1  H15A 2387   7.088   5.437   7.342  1.9155 -0.4704  3.2251
   33CHL1  H15B 2388   7.165   5.578   7.254 -0.2482 -0.0002 -0.3135
   33CHL1   C16 2389   7.107   5.629   7.462  0.1297 -0.2781 -0.3003
   33CHL1  H16A 2390   7.151   5.562   7.539  1.9278 -0.4817 -1.4494
   33CHL1  H16B 2391   7.170   5.719   7.446  0.3373 -0.5221 -0.8494
   33CHL1   C17 2392   6.970   5.685   7.505  0.2824 -0.8261 -0.8165
   33CHL1   H17 2393   6.972   5.792   7.476 -0.3715  0.2215  2.5061
   33CHL1   C13 2394   6.863   5.609   7.416  0.1858  0.2863 -0.5078
   33CHL1   C18 2395   6.843   5.465   7.483 -0.1661  0.8768  0.1923
   33CHL1  H18A 2396   6.780   5.468   7.574 -1.4115 -2.7861 -0.4130
   33CHL1  H18B 2397   6.788   5.413   7.402  2.5084 -0.6560 -0.7729
   33CHL1  H18C 2398   6.933   5.405   7.507 -0.3441 -0.1817 -1.5724
   33CHL1   C12 2399   6.730   5.692   7.384  0.3332  0.3739  0.5930
   33CHL1  H12A 2400   6.656   5.675   7.465  0.0767 -1.2601  0.0534
   33CHL1  H12B 2401   6.758   5.799   7.374 -1.0548  0.8251  1.2233
   33CHL1   C11 2402   6.665   5.645   7.248 -0.0884 -0.1743 -0.0200
   33CHL1  H11A 2403   6.597   5.562   7.275 -0.9361  0.2967 -0.6931
   33CHL1  H11B 2404   6.600   5.732   7.223  1.5281  1.3690  0.8721
   33CHL1    C9 2405   6.757   5.616   7.128  0.3000  0.4273 -0.2176
   33CHL1    H9 2406   6.787   5.720   7.104 -1.9159  1.3706  0.7870
   33CHL1   C10 2407   6.677   5.556   7.006 -0.3262 -1.0236 -0.3575
   33CHL1   C19 2408   6.606   5.425   7.051 -0.5585  0.0332  0.4928
   33CHL1  H19A 2409   6.527   5.450   7.125  0.0670  0.6734  0.9551
   33CHL1  H19B 2410   6.564   5.366   6.967  1.3651 -0.5321 -0.1182
   33CHL1  H19C 2411   6.679   5.356   7.099 -0.3940  0.0282  0.2396
   33CHL1    C1 2412   6.571   5.665   6.969  0.2050 -0.3148 -0.3810
   33CHL1   H1A 2413   6.496   5.670   7.050  2.0182  2.9210  1.2881
   33CHL1   H1B 2414   6.631   5.758   6.963  0.3301 -0.4925 -3.5397
   33CHL1    C2 2415   6.503   5.647   6.832 -0.2618  0.0245  0.7453
   33CHL1   H2A 2416   6.432   5.729   6.808 -0.1924 -0.2900 -0.6511
   33CHL1   H2B 2417   6.435   5.559   6.837 -1.4692  0.9746  1.7602
   33CHL1   C20 2418   6.950   5.680   7.665 -0.6674 -0.4739  0.4222
   33CHL1   H20 2419   6.956   5.573   7.696 -0.1584 -0.8181 -0.8028
   33CHL1   C21 2420   6.811   5.738   7.700 -0.0585  0.6904 -0.4193
   33CHL1  H21A 2421   6.785   5.743   7.808 -1.0819 -0.1451 -0.6096
   33CHL1  H21B 2422   6.733   5.670   7.662  1.4476 -1.9303  0.8999
   33CHL1  H21C 2423   6.802   5.839   7.653  0.3858  0.2931 -1.3818
   33CHL1   C22 2424   7.058   5.751   7.738 -0.2921 -0.0180 -0.4024
   33CHL1  H22A 2425   7.162   5.732   7.704  0.8178  1.9057  1.7115
   33CHL1  H22B 2426   7.027   5.857   7.732 -0.3647  0.0572  1.0404
   33CHL1   C23 2427   7.056   5.707   7.889  0.0338  0.3298  0.0361
   33CHL1  H23A 2428   6.976   5.760   7.944  1.6934  2.0394  0.9139
   33CHL1  H23B 2429   7.053   5.596   7.894  2.5385  0.2398  1.0391
   33CHL1   C24 2430   7.186   5.736   7.962 -0.0580  0.4728 -0.8289
   33CHL1  H24A 2431   7.269   5.690   7.903  0.1272  1.0512 -1.0240
   33CHL1  H24B 2432   7.205   5.845   7.960 -0.8246  0.7514  2.4062
   33CHL1   C25 2433   7.199   5.664   8.101  0.1249 -0.6777 -0.4572
   33CHL1   H25 2434   7.194   5.557   8.069 -2.6789 -1.0017  0.7502
   33CHL1   C26 2435   7.333   5.699   8.177  0.4343  0.2904 -1.4088
   33CHL1  H26A 2436   7.356   5.631   8.262 -4.7146 -0.1066  0.0163
   33CHL1  H26B 2437   7.417   5.691   8.105  0.7742  0.6383 -1.0522
   33CHL1  H26C 2438   7.346   5.806   8.202  0.9149  0.0569 -0.6144
   33CHL1   C27 2439   7.088   5.691   8.199  0.0547  0.0527 -0.0100
   33CHL1  H27A 2440   6.992   5.695   8.143  0.1427 -0.2551 -0.1869
   33CHL1  H27B 2441   7.080   5.622   8.286 -3.9123  0.7547  0.3515
   33CHL1  H27C 2442   7.111   5.791   8.242 -0.1724  0.4246 -0.7515
   34CHL1    C3 2443   0.641   4.596   6.910 -0.0463  0.1327  0.4315
   34CHL1    H3 2444   0.559   4.522   6.904 -1.2278  1.3432  1.0809
   34CHL1    O3 2445   0.689   4.623   6.781  0.3386  0.0623  0.0958
   34CHL1   H3' 2446   0.710   4.717   6.778 -3.4383  1.0905 -3.8365
   34CHL1    C4 2447   0.579   4.731   6.958 -0.0313  0.1967 -0.6293
   34CHL1   H4A 2448   0.657   4.809   6.963  0.0952  0.0921 -0.9461
   34CHL1   H4B 2449   0.505   4.760   6.881  0.3172 -1.0624 -1.4785
   34CHL1    C5 2450   0.515   4.709   7.097 -0.5565 -0.0105  0.3200
   34CHL1    C6 2451   0.379   4.720   7.111 -0.1475 -0.1380  0.2877
   34CHL1    H6 2452   0.328   4.772   7.029  2.4120  1.5630 -0.3503
   34CHL1    C7 2453   0.314   4.682   7.242  0.3547  0.2703  0.0070
   34CHL1   H7A 2454   0.231   4.750   7.271 -0.9339 -2.1209  2.4521
   34CHL1   H7B 2455   0.268   4.582   7.226 -0.0105  0.6607 -1.4604
   34CHL1    C8 2456   0.416   4.690   7.365 -0.0215 -0.1656  0.1118
   34CHL1    H8 2457   0.441   4.797   7.381 -0.9865  0.0616  0.1562
   34CHL1   C14 2458   0.349   4.649   7.497  0.5162  0.4232  1.1047
   34CHL1   H14 2459   0.309   4.546   7.483  0.3347  0.7248 -0.8635
   34CHL1   C15 2460   0.227   4.719   7.548  0.4822 -0.3644  0.0043
   34CHL1  H15A 2461   0.247   4.828   7.556 -1.1275 -0.1710  2.2233
   34CHL1  H15B 2462   0.137   4.712   7.484 -0.2151 -1.0416  1.0285
   34CHL1   C16 2463   0.205   4.663   7.683 -0.3691 -0.5994 -0.0886
   34CHL1  H16A 2464   0.185   4.739   7.761  1.2485  0.9334 -1.1070
   34CHL1  H16B 2465   0.124   4.586   7.688 -0.5977 -0.3013  1.2433
   34CHL1   C17 2466   0.341   4.600   7.730 -0.0623 -0.7630 -0.3886
   34CHL1   H17 2467   0.324   4.491   7.724 -1.5165 -0.5647 -0.2258
   34CHL1   C13 2468   0.447   4.634   7.617  0.6659 -0.7204 -0.0324
   34CHL1   C18 2469   0.500   4.773   7.653 -0.1529 -0.3147  0.1509
   34CHL1  H18A 2470   0.551   4.816   7.565  1.9347  2.3726  2.4870
   34CHL1  H18B 2471   0.416   4.834   7.691  1.0251  1.0039  0.7452
   34CHL1  H18C 2472   0.577   4.775   7.733 -0.4290 -0.6958  0.4288
   34CHL1   C12 2473   0.552   4.537   7.578 -0.3663  0.4425  0.7006
   34CHL1  H12A 2474   0.624   4.527   7.662  0.7466  0.8986 -0.1822
   34CHL1  H12B 2475   0.512   4.435   7.556  0.6322  0.7022 -3.1057
   34CHL1   C11 2476   0.638   4.572   7.453  0.6828 -0.0435 -0.1383
   34CHL1  H11A 2477   0.675   4.673   7.480 -3.2370  1.5947 -0.1695
   34CHL1  H11B 2478   0.717   4.497   7.433 -0.7173 -1.1060 -2.0072
   34CHL1    C9 2479   0.543   4.607   7.335  0.3104 -0.2379 -0.3430
   34CHL1    H9 2480   0.504   4.504   7.317 -3.0100  0.6945  0.8120
   34CHL1   C10 2481   0.610   4.647   7.205  0.2553  0.6188 -0.1567
   34CHL1   C19 2482   0.705   4.759   7.240 -0.4746  0.2651 -0.7977
   34CHL1  H19A 2483   0.653   4.830   7.307 -4.2786 -1.2979 -1.8539
   34CHL1  H19B 2484   0.797   4.716   7.286  0.6944  1.8496 -1.5520
   34CHL1  H19C 2485   0.744   4.821   7.157 -1.2208  0.9929 -0.6131
   34CHL1    C1 2486   0.686   4.531   7.150 -0.7402  0.5930  0.6555
   34CHL1   H1A 2487   0.764   4.503   7.224  0.0535 -0.0381 -0.3976
   34CHL1   H1B 2488   0.625   4.438   7.146  1.6104 -1.0745  1.2636
   34CHL1    C2 2489   0.745   4.543   7.003  0.8631 -0.3712 -0.0508
   34CHL1   H2A 2490   0.782   4.442   6.975  0.9743  0.0439 -1.4813
   34CHL1   H2B 2491   0.839   4.602   6.994 -0.1189  1.2732  0.0342
   34CHL1   C20 2492   0.373   4.629   7.878  0.6048  0.0990 -0.1433
   34CHL1   H20 2493   0.392   4.737   7.898 -0.2315  0.2020  0.1720
   34CHL1   C21 2494   0.503   4.542   7.914  0.0048  0.6733 -0.1776
   34CHL1  H21A 2495   0.529   4.561   8.021 -1.6697  2.1077  0.0258
   34CHL1  H21B 2496   0.592   4.573   7.856 -0.0160  3.3940  1.0838
   34CHL1  H21C 2497   0.472   4.437   7.895  0.9408  0.9162 -3.5210
   34CHL1   C22 2498   0.266   4.585   7.980  0.4949 -0.1756 -0.1507
   34CHL1  H22A 2499   0.165   4.579   7.935  0.5879 -0.8008 -0.2761
   34CHL1  H22B 2500   0.292   4.483   8.016  0.3792  0.1483  0.8782
   34CHL1   C23 2501   0.260   4.691   8.096  0.4644  0.6824 -0.0902
   34CHL1  H23A 2502   0.360   4.710   8.141 -0.0770 -0.0499  1.5082
   34CHL1  H23B 2503   0.232   4.780   8.037 -1.8796 -1.2379 -2.0732
   34CHL1   C24 2504   0.167   4.659   8.219  0.3107 -0.0505 -0.1282
   34CHL1  H24A 2505   0.059   4.669   8.195  0.2019 -1.4612 -0.3145
   34CHL1  H24B 2506   0.198   4.557   8.251 -0.4492  0.0855  1.0645
   34CHL1   C25 2507   0.180   4.767   8.326 -0.3139  0.1406 -0.0228
   34CHL1   H25 2508   0.282   4.809   8.334  1.3103 -2.3634 -4.4489
   34CHL1   C26 2509   0.100   4.889   8.286  0.0761  0.5427  0.7704
   34CHL1  H26A 2510   0.152   4.961   8.220  0.2564  0.2978  0.6401
   34CHL1  H26B 2511   0.003   4.867   8.236 -0.6548  6.3494 -1.0500
   34CHL1  H26C 2512   0.070   4.954   8.370 -1.0750  1.3378 -0.2247
   34CHL1   C27 2513   0.123   4.727   8.464 -0.4426 -0.4207 -0.9689
   34CHL1  H27A 2514   0.099   4.817   8.523 -0.4344 -1.6459  0.9898
   34CHL1  H27B 2515   0.027   4.671   8.460 -0.0283 -1.1275 -1.3277
   34CHL1  H27C 2516   0.196   4.659   8.513  1.7512 -0.6832 -4.2595
   35CHL1    C3 2517   3.287   5.636   7.338 -0.2334 -0.7168 -0.1774
   35CHL1    H3 2518   3.249   5.725   7.394  0.7285  0.2738 -1.0351
   35CHL1    O3 2519   3.311   5.666   7.202 -0.2653 -0.0196  0.1187
   35CHL1   H3' 2520   3.360   5.590   7.169  1.3888  0.6499  0.9277
   35CHL1    C4 2521   3.417   5.573   7.402  0.7082  0.2722 -0.3562
   35CHL1   H4A 2522   3.460   5.487   7.345  0.4503 -0.6787  0.8297
   35CHL1   H4B 2523   3.493   5.654   7.396 -0.8800  1.7653 -0.8560
   35CHL1    C5 2524   3.394   5.539   7.548  0.2906  0.1505 -0.4169
   35CHL1    C6 2525   3.465   5.593   7.649 -0.1352  0.1437 -0.3560
   35CHL1    H6 2526   3.544   5.667   7.628 -1.2917  1.5140 -0.0081
   35CHL1    C7 2527   3.438   5.572   7.794 -0.1680 -0.3262  0.3341
   35CHL1   H7A 2528   3.525   5.577   7.863 -1.7542  2.0052  2.3573
   35CHL1   H7B 2529   3.379   5.657   7.836  2.7829  0.6519  2.8760
   35CHL1    C8 2530   3.357   5.441   7.810  0.3823 -0.7227  0.1274
   35CHL1    H8 2531   3.431   5.361   7.790  0.8784  0.2277 -2.1757
   35CHL1   C14 2532   3.306   5.428   7.959 -0.6354 -0.4947 -0.0094
   35CHL1   H14 2533   3.236   5.513   7.975 -1.1447 -0.5561 -1.7099
   35CHL1   C15 2534   3.410   5.440   8.075 -0.1491 -0.4699  0.1483
   35CHL1  H15A 2535   3.509   5.390   8.065  0.3078  0.5423 -0.5176
   35CHL1  H15B 2536   3.419   5.550   8.079 -2.3180 -0.1946 -0.9960
   35CHL1   C16 2537   3.338   5.375   8.197  0.4480  0.5690  0.1582
   35CHL1  H16A 2538   3.399   5.289   8.233 -0.9020 -0.7828 -0.6825
   35CHL1  H16B 2539   3.327   5.450   8.278 -0.4966 -1.4344  1.9731
   35CHL1   C17 2540   3.197   5.324   8.148  0.1835  0.3673 -0.2135
   35CHL1   H17 2541   3.132   5.412   8.166  0.0183 -0.2358  2.6060
   35CHL1   C13 2542   3.211   5.308   7.992  0.4793 -0.0400  0.2921
   35CHL1   C18 2543   3.282   5.175   7.966  0.0812 -0.3659  0.4254
   35CHL1  H18A 2544   3.218   5.089   7.994 -0.9176  0.3761  0.4466
   35CHL1  H18B 2545   3.306   5.173   7.857 -0.5459 -0.2266  0.2805
   35CHL1  H18C 2546   3.380   5.173   8.019 -0.8593 -0.6944  2.2306
   35CHL1   C12 2547   3.086   5.328   7.904 -0.1000  0.0496 -0.1195
   35CHL1  H12A 2548   3.015   5.243   7.920 -0.1568  0.2000  0.4318
   35CHL1  H12B 2549   3.027   5.419   7.929  1.4829  1.4530 -1.2899
   35CHL1   C11 2550   3.114   5.343   7.755 -0.9632 -0.6796 -0.4624
   35CHL1  H11A 2551   3.148   5.243   7.721  1.0777 -0.8800  1.9035
   35CHL1  H11B 2552   3.032   5.383   7.691  0.0017 -0.5937 -1.6780
   35CHL1    C9 2553   3.236   5.445   7.721 -0.6359  0.1567 -0.4698
   35CHL1    H9 2554   3.185   5.542   7.738  0.5138  0.4890  1.3018
   35CHL1   C10 2555   3.272   5.444   7.571 -0.1959 -0.7208 -0.7444
   35CHL1   C19 2556   3.316   5.302   7.520  0.0184  0.0992 -0.3530
   35CHL1  H19A 2557   3.230   5.236   7.495 -1.2064  2.1133 -1.7799
   35CHL1  H19B 2558   3.355   5.315   7.417 -0.0150 -0.7119 -0.4773
   35CHL1  H19C 2559   3.388   5.243   7.581  1.4286 -0.2044 -2.2340
   35CHL1    C1 2560   3.153   5.491   7.486  0.6470  0.0628 -0.3515
   35CHL1   H1A 2561   3.086   5.402   7.486 -0.7169  0.9809  2.1807
   35CHL1   H1B 2562   3.104   5.574   7.541 -0.2088  1.1269 -2.6063
   35CHL1    C2 2563   3.172   5.533   7.349 -0.3301  0.2834 -0.3470
   35CHL1   H2A 2564   3.085   5.581   7.300  0.1542 -1.3518 -3.0022
   35CHL1   H2B 2565   3.196   5.436   7.301  1.0923  0.3719  0.1325
   35CHL1   C20 2566   3.137   5.214   8.236 -0.1741  0.4627 -0.3495
   35CHL1   H20 2567   3.191   5.117   8.224 -3.1511 -1.2085 -1.3852
   35CHL1   C21 2568   2.996   5.183   8.189 -0.0047  0.7176 -0.1242
   35CHL1  H21A 2569   2.945   5.141   8.278  0.5115 -0.4591 -0.3541
   35CHL1  H21B 2570   2.989   5.101   8.114 -3.3238 -1.6477  2.4399
   35CHL1  H21C 2571   2.939   5.272   8.154 -2.1765  0.0097  1.4099
   35CHL1   C22 2572   3.149   5.267   8.382  0.0962  0.5067  0.3631
   35CHL1  H22A 2573   3.127   5.185   8.454  0.1879 -0.0168 -0.1967
   35CHL1  H22B 2574   3.255   5.296   8.395  0.2781 -0.0401  0.1296
   35CHL1   C23 2575   3.059   5.381   8.422  0.2204  0.7142  0.3731
   35CHL1  H23A 2576   3.090   5.472   8.366 -1.3073 -0.4436 -2.5628
   35CHL1  H23B 2577   2.955   5.356   8.394  0.2427  2.8123 -1.8625
   35CHL1   C24 2578   3.067   5.397   8.571  0.3051 -0.1051 -0.0340
   35CHL1  H24A 2579   3.041   5.305   8.627  0.4095  0.6942  1.3667
   35CHL1  H24B 2580   3.168   5.435   8.595 -0.2330  0.6213  1.2099
   35CHL1   C25 2581   2.988   5.513   8.626  0.2992 -0.4145 -0.3532
   35CHL1   H25 2582   3.023   5.611   8.588  0.2143 -0.8114 -1.4961
   35CHL1   C26 2583   2.831   5.502   8.590  0.2954  1.1183  0.3932
   35CHL1  H26A 2584   2.796   5.400   8.619  0.8395  0.9434  0.4583
   35CHL1  H26B 2585   2.763   5.574   8.641 -0.4437 -1.8257  4.0301
   35CHL1  H26C 2586   2.826   5.509   8.480 -0.1117 -0.8159  0.2587
   35CHL1   C27 2587   3.005   5.520   8.778  0.0266 -0.0347 -0.1270
   35CHL1  H27A 2588   3.106   5.558   8.804 -0.2784  0.4946  0.2981
   35CHL1  H27B 2589   2.992   5.424   8.833  0.6916  0.3121  0.6571
   35CHL1  H27C 2590   2.934   5.592   8.824  0.4960 -0.6329  1.5887
   36CHL1    C3 2591   5.277   4.908   7.060 -1.0963  0.4796 -0.3792
   36CHL1    H3 2592   5.216   4.816   7.075 -1.1571  0.5372 -0.2747
   36CHL1    O3 2593   5.232   4.971   6.943 -0.1523 -0.4211 -0.0025
   36CHL1   H3' 2594   5.266   5.060   6.938  1.5461 -1.0797 -2.3198
   36CHL1    C4 2595   5.257   5.001   7.172  0.7743 -0.6036  0.1784
   36CHL1   H4A 2596   5.304   5.099   7.150 -0.0234 -0.3179 -0.3378
   36CHL1   H4B 2597   5.149   5.020   7.190  0.7913  0.9128 -1.1175
   36CHL1    C5 2598   5.317   4.937   7.300 -0.8174  0.2793  0.2462
   36CHL1    C6 2599   5.237   4.916   7.409 -0.5570 -0.1630  0.5064
   36CHL1    H6 2600   5.129   4.938   7.402 -0.4281  0.2216 -0.3618
   36CHL1    C7 2601   5.288   4.863   7.539  0.8210  0.2124 -0.4573
   36CHL1   H7A 2602   5.237   4.915   7.623 -0.0654  0.7831 -1.3334
   36CHL1   H7B 2603   5.256   4.757   7.548  1.5877  0.0053 -0.1104
   36CHL1    C8 2604   5.442   4.873   7.551 -1.0042 -0.4270 -0.2989
   36CHL1    H8 2605   5.478   4.976   7.573  2.0399 -1.7762  1.7504
   36CHL1   C14 2606   5.490   4.797   7.673 -0.1133  0.0189  0.4497
   36CHL1   H14 2607   5.453   4.693   7.662  0.8595 -0.6740  3.0357
   36CHL1   C15 2608   5.428   4.853   7.798  0.0625  0.0541  0.1293
   36CHL1  H15A 2609   5.420   4.963   7.806 -1.5394  0.0399 -0.7319
   36CHL1  H15B 2610   5.326   4.809   7.805  0.3236 -0.3512  1.6231
   36CHL1   C16 2611   5.514   4.806   7.914 -0.5436  0.1993  0.0883
   36CHL1  H16A 2612   5.567   4.898   7.947  1.0189  0.8381 -3.6141
   36CHL1  H16B 2613   5.464   4.749   7.995  0.8501 -0.8091  0.2719
   36CHL1   C17 2614   5.624   4.717   7.843  0.3392 -0.1858 -0.6180
   36CHL1   H17 2615   5.581   4.616   7.825 -1.0896  0.4602 -1.0458
   36CHL1   C13 2616   5.638   4.786   7.695  0.5836  0.0048 -0.3704
   36CHL1   C18 2617   5.702   4.928   7.702 -0.0470  0.3690  0.3481
   36CHL1  H18A 2618   5.698   4.983   7.606 -1.7008  0.6110  0.5348
   36CHL1  H18B 2619   5.642   4.994   7.769 -0.6300 -1.8244  2.1318
   36CHL1  H18C 2620   5.810   4.922   7.729 -0.0240  0.0852  0.1987
   36CHL1   C12 2621   5.696   4.705   7.581  0.7985  0.3740 -0.1616
   36CHL1  H12A 2622   5.805   4.688   7.594  1.6502  4.6717 -0.3380
   36CHL1  H12B 2623   5.641   4.608   7.584  1.0159  0.1904 -1.4721
   36CHL1   C11 2624   5.658   4.770   7.446  0.1632 -0.2687  0.1295
   36CHL1  H11A 2625   5.731   4.854   7.435 -0.5085  0.3569  0.3501
   36CHL1  H11B 2626   5.670   4.683   7.378 -2.0979 -1.0339  0.6186
   36CHL1    C9 2627   5.505   4.806   7.426  0.0256 -0.3650  0.1892
   36CHL1    H9 2628   5.455   4.707   7.427  0.3726 -0.5383  0.7894
   36CHL1   C10 2629   5.466   4.887   7.298  0.0181 -0.8283  0.0140
   36CHL1   C19 2630   5.551   5.020   7.301  0.2327  0.4536  0.2589
   36CHL1  H19A 2631   5.656   4.986   7.286 -0.0562 -0.1279 -0.4760
   36CHL1  H19B 2632   5.520   5.076   7.210  0.0280  0.7087  0.4865
   36CHL1  H19C 2633   5.536   5.073   7.397 -0.3162 -2.0022  1.6060
   36CHL1    C1 2634   5.485   4.804   7.172 -0.4684 -0.4225 -0.0219
   36CHL1   H1A 2635   5.590   4.770   7.154 -0.2356  0.4625 -0.3707
   36CHL1   H1B 2636   5.416   4.718   7.187 -2.4474  0.9081 -1.2573
   36CHL1    C2 2637   5.431   4.875   7.043 -0.1688  0.3201 -0.2879
   36CHL1   H2A 2638   5.451   4.808   6.957  0.0915  2.6642 -2.1362
   36CHL1   H2B 2639   5.499   4.962   7.043 -0.0369  0.2174 -0.0966
   36CHL1   C20 2640   5.745   4.697   7.929 -0.8745 -0.1712 -0.0092
   36CHL1   H20 2641   5.792   4.796   7.952 -0.8820 -0.3616  0.8659
   36CHL1   C21 2642   5.859   4.628   7.858 -0.7330 -0.7429 -0.2941
   36CHL1  H21A 2643   5.810   4.544   7.805  1.3824 -2.6590  0.6387
   36CHL1  H21B 2644   5.931   4.590   7.934 -1.1790  0.4139  0.7428
   36CHL1  H21C 2645   5.910   4.699   7.789 -0.5475  1.4997  2.0062
   36CHL1   C22 2646   5.722   4.623   8.063  0.5987 -0.0340 -0.1327
   36CHL1  H22A 2647   5.816   4.606   8.119  0.1922  0.2801  0.6636
   36CHL1  H22B 2648   5.648   4.674   8.129  0.3795  0.4367 -0.7349
   36CHL1   C23 2649   5.668   4.478   8.053  0.2730 -0.6558 -0.0980
   36CHL1  H23A 2650   5.558   4.489   8.043  0.5382  0.6885 -2.5155
   36CHL1  H23B 2651   5.699   4.425   7.960  0.7287  2.8238 -2.1116
   36CHL1   C24 2652   5.694   4.396   8.179 -0.2112  0.4044  0.7393
   36CHL1  H24A 2653   5.803   4.382   8.195 -0.6651 -2.6430  1.7492
   36CHL1  H24B 2654   5.661   4.456   8.267  0.0117  1.1199  0.3439
   36CHL1   C25 2655   5.625   4.262   8.190  0.0811  0.6215 -0.2404
   36CHL1   H25 2656   5.678   4.207   8.270 -0.2929  1.7590  0.8064
   36CHL1   C26 2657   5.474   4.281   8.232  0.1303  0.4262 -0.1498
   36CHL1  H26A 2658   5.421   4.184   8.218  2.3962 -0.9507  0.4011
   36CHL1  H26B 2659   5.460   4.305   8.340  1.5606  0.7098 -0.0087
   36CHL1  H26C 2660   5.420   4.360   8.175 -0.4151 -0.3597 -0.7402
   36CHL1   C27 2661   5.635   4.174   8.064 -0.3257 -0.4708 -0.3233
   36CHL1  H27A 2662   5.580   4.080   8.086 -0.8832 -0.8355 -2.9981
   36CHL1  H27B 2663   5.578   4.221   7.981 -1.5946  0.6543  1.1051
   36CHL1  H27C 2664   5.742   4.153   8.045 -0.6050 -1.2550 -1.0671
   37CHL1    C3 2665   0.438   0.224   6.902  0.1146 -0.3477  0.1069
   37CHL1    H3 2666   0.395   0.319   6.941  1.7206  1.0253 -1.3110
   37CHL1    O3 2667   0.453   0.228   6.760 -0.0216 -0.1278  0.1629
   37CHL1   H3' 2668   0.417   0.142   6.738 -1.4107  0.4509  0.0444
   37CHL1    C4 2669   0.578   0.209   6.966  0.1924  0.2650 -0.1760
   37CHL1   H4A 2670   0.622   0.127   6.905 -1.7752 -1.7252  0.8993
   37CHL1   H4B 2671   0.630   0.303   6.941  0.3748 -0.1597 -1.4318
   37CHL1    C5 2672   0.581   0.164   7.113  0.4032 -0.1433  0.1024
   37CHL1    C6 2673   0.660   0.235   7.198  0.2525  0.0873  0.7143
   37CHL1    H6 2674   0.715   0.320   7.154 -0.2609  1.5052  2.6822
   37CHL1    C7 2675   0.662   0.210   7.344  0.0615 -0.3014 -0.1450
   37CHL1   H7A 2676   0.768   0.210   7.378 -0.6018 -0.4510  2.0883
   37CHL1   H7B 2677   0.616   0.292   7.404  0.4785 -0.1637 -0.0065
   37CHL1    C8 2678   0.599   0.075   7.391  0.5766 -0.4303  0.1033
   37CHL1    H8 2679   0.670  -0.004   7.359  0.6748  0.2018 -1.3438
   37CHL1   C14 2680   0.578   0.061   7.545  0.6005  0.0388  0.5113
   37CHL1   H14 2681   0.496   0.129   7.577 -0.1911 -1.1002  0.9989
   37CHL1   C15 2682   0.697   0.098   7.635  0.6789  0.7477  0.1048
   37CHL1  H15A 2683   0.789   0.057   7.588  1.1347  0.5887  1.1283
   37CHL1  H15B 2684   0.711   0.207   7.656  0.9858  1.4025 -2.9875
   37CHL1   C16 2685   0.671   0.009   7.759  0.1107  0.4687  0.9074
   37CHL1  H16A 2686   0.761  -0.054   7.776 -0.0730  0.6774  2.8317
   37CHL1  H16B 2687   0.672   0.075   7.848  0.8268  1.3248  0.2906
   37CHL1   C17 2688   0.530  -0.059   7.741  0.2343  0.4294 -0.4357
   37CHL1   H17 2689   0.459   0.015   7.783 -0.5811 -0.7798  0.3792
   37CHL1   C13 2690   0.524  -0.075   7.587  0.2097 -0.5728  0.1324
   37CHL1   C18 2691   0.624  -0.182   7.543  0.5859  0.4824  0.2446
   37CHL1  H18A 2692   0.719  -0.178   7.600  1.5514 -2.2373 -1.0074
   37CHL1  H18B 2693   0.591  -0.285   7.567 -0.1222  0.1089 -2.1352
   37CHL1  H18C 2694   0.643  -0.181   7.434 -1.6830  1.4692 -0.1930
   37CHL1   C12 2695   0.386  -0.088   7.512  0.1769 -0.3844  0.7981
   37CHL1  H12A 2696   0.337  -0.184   7.542 -1.6392  0.1029 -0.4153
   37CHL1  H12B 2697   0.315  -0.008   7.543  0.1822  0.0239 -0.2128
   37CHL1   C11 2698   0.400  -0.079   7.356  0.2294 -0.0075 -0.7098
   37CHL1  H11A 2699   0.458  -0.169   7.325 -1.3741 -1.2819 -0.1544
   37CHL1  H11B 2700   0.302  -0.090   7.304 -1.2205 -2.5283  2.2344
   37CHL1    C9 2701   0.464   0.050   7.309 -0.1793  0.0703 -0.0443
   37CHL1    H9 2702   0.403   0.134   7.348  1.1093  0.7804  0.5106
   37CHL1   C10 2703   0.480   0.061   7.154 -0.4309 -0.1949 -0.0170
   37CHL1   C19 2704   0.533  -0.070   7.104 -0.6637  0.3975  0.0275
   37CHL1  H19A 2705   0.570  -0.085   7.000  1.1851 -0.4380  0.7623
   37CHL1  H19B 2706   0.619  -0.118   7.155 -0.4764  0.1852 -0.4776
   37CHL1  H19C 2707   0.459  -0.153   7.108  1.4567 -1.5455  1.6663
   37CHL1    C1 2708   0.346   0.095   7.088  0.1859  1.9079 -0.1107
   37CHL1   H1A 2709   0.276   0.012   7.112  2.6141 -0.3413 -0.3477
   37CHL1   H1B 2710   0.295   0.183   7.134 -2.2344  0.7283 -0.3869
   37CHL1    C2 2711   0.339   0.111   6.934 -0.3613 -0.2235 -0.1625
   37CHL1   H2A 2712   0.235   0.132   6.902 -0.3052 -0.2942 -0.3970
   37CHL1   H2B 2713   0.370   0.019   6.879  0.6101  0.9241 -1.6228
   37CHL1   C20 2714   0.508  -0.183   7.830  0.3791  0.0917 -0.3655
   37CHL1   H20 2715   0.587  -0.255   7.801 -0.5636 -0.3796 -1.9111
   37CHL1   C21 2716   0.363  -0.238   7.810 -0.1817  0.1481 -1.0545
   37CHL1  H21A 2717   0.350  -0.296   7.716  0.5440 -0.4487 -0.7976
   37CHL1  H21B 2718   0.293  -0.151   7.807  0.3901  0.6204 -0.8588
   37CHL1  H21C 2719   0.328  -0.307   7.889  1.6250  0.6980  0.2940
   37CHL1   C22 2720   0.542  -0.164   7.977 -0.3033  0.1268 -0.0661
   37CHL1  H22A 2721   0.510  -0.263   8.016  1.0966 -1.3880 -2.5089
   37CHL1  H22B 2722   0.652  -0.159   7.995 -0.1262 -1.3501 -0.6328
   37CHL1   C23 2723   0.471  -0.047   8.050 -0.6005  0.5007  0.2420
   37CHL1  H23A 2724   0.496   0.050   8.003  2.5536  0.4331  1.5700
   37CHL1  H23B 2725   0.363  -0.072   8.038 -0.7193  0.5320  1.1124
   37CHL1   C24 2726   0.503  -0.029   8.198 -0.2516  0.5778  0.0815
   37CHL1  H24A 2727   0.610  -0.006   8.216  0.4278 -0.5155 -2.1876
   37CHL1  H24B 2728   0.441   0.059   8.227  0.4466  2.0446 -2.4676
   37CHL1   C25 2729   0.457  -0.146   8.294 -0.3402 -0.3939 -0.8871
   37CHL1   H25 2730   0.502  -0.242   8.259  0.6670 -1.2670  2.4343
   37CHL1   C26 2731   0.501  -0.108   8.435  0.5274  0.8636 -0.4280
   37CHL1  H26A 2732   0.449  -0.021   8.482  3.3877  1.7897  1.3002
   37CHL1  H26B 2733   0.482  -0.197   8.499 -0.9408 -0.0321 -2.0305
   37CHL1  H26C 2734   0.610  -0.087   8.432  0.3474  1.9042 -0.0495
   37CHL1   C27 2735   0.305  -0.174   8.288  0.5964  0.2770 -0.0638
   37CHL1  H27A 2736   0.249  -0.079   8.305  0.2094  0.2019 -0.8667
   37CHL1  H27B 2737   0.287  -0.204   8.183  1.7874  0.2044 -0.2529
   37CHL1  H27C 2738   0.280  -0.253   8.363 -1.0887 -2.9567 -3.7041
   38CHL1    C3 2739   3.691   1.152   6.701 -0.0645 -0.3318  1.1965
   38CHL1    H3 2740   3.618   1.234   6.685 -1.2818 -1.3237  1.5820
   38CHL1    O3 2741   3.717   1.103   6.573  0.8303  0.2786  0.7792
   38CHL1   H3' 2742   3.645   1.043   6.552  0.5911  1.3331 -1.8331
   38CHL1    C4 2743   3.818   1.219   6.759  0.2413 -0.5953  0.3074
   38CHL1   H4A 2744   3.901   1.145   6.754  1.8447  1.2247 -2.3957
   38CHL1   H4B 2745   3.847   1.300   6.689  1.6218 -1.0105  0.3673
   38CHL1    C5 2746   3.789   1.271   6.897 -0.4463  0.3076 -1.1093
   38CHL1    C6 2747   3.811   1.397   6.933  0.2366 -0.1433  0.7397
   38CHL1    H6 2748   3.849   1.468   6.857  1.9164  0.6795  2.2738
   38CHL1    C7 2749   3.790   1.454   7.072 -0.7304  0.8220 -0.2136
   38CHL1   H7A 2750   3.871   1.523   7.103 -0.8232  1.2964 -0.9854
   38CHL1   H7B 2751   3.691   1.505   7.076 -1.1681 -0.0333  0.0876
   38CHL1    C8 2752   3.787   1.339   7.172  0.0943 -0.7557  0.1766
   38CHL1    H8 2753   3.890   1.297   7.182  1.2222  1.9811  0.8098
   38CHL1   C14 2754   3.737   1.392   7.302 -0.4408  0.4759  0.0308
   38CHL1   H14 2755   3.640   1.442   7.280 -1.3322 -1.0598  0.3100
   38CHL1   C15 2756   3.833   1.509   7.358  0.7698  0.5916  0.4799
   38CHL1  H15A 2757   3.939   1.479   7.344  1.1122  1.7930  0.3836
   38CHL1  H15B 2758   3.814   1.604   7.304 -3.2200 -0.3523 -0.0668
   38CHL1   C16 2759   3.799   1.508   7.504  0.0120 -0.1841  0.1282
   38CHL1  H16A 2760   3.887   1.481   7.567  0.1821 -0.8485 -0.3791
   38CHL1  H16B 2761   3.754   1.603   7.540 -0.3673 -0.2728 -0.1160
   38CHL1   C17 2762   3.689   1.394   7.531 -1.2692  0.7380  0.9878
   38CHL1   H17 2763   3.590   1.432   7.501  0.0839  2.4270 -1.8148
   38CHL1   C13 2764   3.718   1.291   7.418  0.7624 -0.4390  0.5667
   38CHL1   C18 2765   3.859   1.230   7.454  0.1045  0.0882 -0.0148
   38CHL1  H18A 2766   3.928   1.303   7.501  0.5573 -0.6594  0.5045
   38CHL1  H18B 2767   3.836   1.149   7.525 -3.6781 -0.4728 -1.6621
   38CHL1  H18C 2768   3.919   1.184   7.372 -0.3928  1.1968 -1.0303
   38CHL1   C12 2769   3.611   1.193   7.372 -0.3073  0.2585 -0.0950
   38CHL1  H12A 2770   3.590   1.113   7.447  1.6791 -2.1439 -1.9164
   38CHL1  H12B 2771   3.525   1.258   7.346  0.0640  1.5869  1.8247
   38CHL1   C11 2772   3.663   1.125   7.244 -0.4866 -0.5163  0.5770
   38CHL1  H11A 2773   3.742   1.049   7.265 -1.7123 -2.0809 -0.1961
   38CHL1  H11B 2774   3.582   1.061   7.201 -0.8789  1.2218 -1.4436
   38CHL1    C9 2775   3.698   1.223   7.129  0.2799  0.6679 -0.1124
   38CHL1    H9 2776   3.600   1.273   7.114  0.9294  2.0741  0.2105
   38CHL1   C10 2777   3.739   1.154   6.993 -1.0451 -0.5729 -0.7225
   38CHL1   C19 2778   3.844   1.038   7.030  1.0770 -0.3387  0.0400
   38CHL1  H19A 2779   3.889   0.990   6.941  2.4259 -0.1717  0.6097
   38CHL1  H19B 2780   3.933   1.080   7.082  1.6597 -3.2445  1.5826
   38CHL1  H19C 2781   3.789   0.960   7.086 -0.5949  0.7640  0.0235
   38CHL1    C1 2782   3.614   1.095   6.934  1.3683  0.1914  0.2763
   38CHL1   H1A 2783   3.562   1.015   6.990  0.4307  1.4609  1.2781
   38CHL1   H1B 2784   3.538   1.176   6.935  1.3573  0.1790  0.6907
   38CHL1    C2 2785   3.630   1.042   6.788 -0.5407 -0.0457 -0.1327
   38CHL1   H2A 2786   3.532   1.010   6.748  0.4013 -1.8410 -1.1256
   38CHL1   H2B 2787   3.698   0.954   6.784 -0.4046  0.0882 -0.7688
   38CHL1   C20 2788   3.688   1.346   7.679 -0.5581 -0.0932 -0.6313
   38CHL1   H20 2789   3.768   1.269   7.683 -0.9110 -0.4134  1.0675
   38CHL1   C21 2790   3.558   1.269   7.698 -0.7464  0.2768  0.1975
   38CHL1  H21A 2791   3.529   1.249   7.804  1.2186  0.3014  0.7756
   38CHL1  H21B 2792   3.559   1.168   7.651  1.8974 -1.2373  3.1060
   38CHL1  H21C 2793   3.483   1.339   7.657  0.1138  1.1392  0.0675
   38CHL1   C22 2794   3.710   1.454   7.798 -0.9183 -0.3139 -0.2408
   38CHL1  H22A 2795   3.795   1.521   7.776 -0.7222 -0.9090 -1.3552
   38CHL1  H22B 2796   3.618   1.517   7.805 -0.6286 -0.0781  2.4248
   38CHL1   C23 2797   3.738   1.389   7.936 -0.5474  0.1391  0.3170
   38CHL1  H23A 2798   3.638   1.372   7.980 -1.1618 -0.0777 -1.0873
   38CHL1  H23B 2799   3.782   1.290   7.912 -2.3718 -0.8494  0.8262
   38CHL1   C24 2800   3.814   1.486   8.028  0.0384  0.5947  0.6937
   38CHL1  H24A 2801   3.894   1.535   7.968 -0.9538 -0.0217 -1.2109
   38CHL1  H24B 2802   3.747   1.570   8.055 -1.4375 -0.3309  0.0050
   38CHL1   C25 2803   3.876   1.418   8.153  1.2023 -0.1102  0.2382
   38CHL1   H25 2804   3.796   1.369   8.213 -0.6916  0.5630 -1.5852
   38CHL1   C26 2805   3.985   1.318   8.122  0.1304 -0.5297  0.6219
   38CHL1  H26A 2806   3.953   1.229   8.064  0.4883  0.5143 -1.2602
   38CHL1  H26B 2807   4.065   1.377   8.072 -1.5004 -0.3788 -2.0017
   38CHL1  H26C 2808   4.033   1.291   8.218 -0.2645 -0.7881  0.7475
   38CHL1   C27 2809   3.935   1.529   8.246  0.0484 -0.0301 -0.2677
   38CHL1  H27A 2810   3.853   1.588   8.291  1.9378  2.0970  0.5819
   38CHL1  H27B 2811   3.973   1.470   8.331 -2.4429 -1.1408  0.1681
   38CHL1  H27C 2812   4.007   1.596   8.194  0.0758  1.1941  1.3184
   39CHL1    C3 2813   3.336   0.595   6.994 -0.1119  0.1373  0.5418
   39CHL1    H3 2814   3.289   0.695   7.008 -0.8534 -0.1304  0.0409
   39CHL1    O3 2815   3.316   0.559   6.854 -0.4551  0.1514 -0.5182
   39CHL1   H3' 2816   3.373   0.483   6.839  0.7173  0.3977  2.1688
   39CHL1    C4 2817   3.482   0.613   7.027  1.1468  0.0184  0.2965
   39CHL1   H4A 2818   3.533   0.516   7.010 -0.3324 -0.8424  0.6053
   39CHL1   H4B 2819   3.527   0.688   6.958  0.0363  0.1584 -0.2946
   39CHL1    C5 2820   3.497   0.655   7.175 -0.0216 -0.3477  0.5862
   39CHL1    C6 2821   3.550   0.771   7.217  0.2609  0.5758  0.2513
   39CHL1    H6 2822   3.594   0.840   7.143  2.1936 -0.9789 -0.1569
   39CHL1    C7 2823   3.561   0.814   7.360  0.4082 -0.0469  0.2537
   39CHL1   H7A 2824   3.664   0.850   7.377  0.4599 -0.2776  0.4354
   39CHL1   H7B 2825   3.498   0.904   7.373  3.2318  2.0294  0.4132
   39CHL1    C8 2826   3.541   0.703   7.461  0.3935  0.2627 -0.8836
   39CHL1    H8 2827   3.633   0.643   7.448  1.5347  2.0279 -1.2456
   39CHL1   C14 2828   3.534   0.748   7.610 -0.0581 -0.9878 -0.3047
   39CHL1   H14 2829   3.443   0.813   7.613  0.4322 -0.2260  3.3922
   39CHL1   C15 2830   3.635   0.850   7.661 -0.2198  0.5130 -0.1474
   39CHL1  H15A 2831   3.733   0.805   7.634 -1.5611 -1.9177 -1.2758
   39CHL1  H15B 2832   3.604   0.947   7.615 -0.8481  0.7401  0.7359
   39CHL1   C16 2833   3.612   0.853   7.808  0.6982 -0.3131 -0.4869
   39CHL1  H16A 2834   3.705   0.830   7.866  0.7909  0.9341 -0.1062
   39CHL1  H16B 2835   3.569   0.948   7.844  0.1805  0.1591 -2.2894
   39CHL1   C17 2836   3.506   0.730   7.837  0.1757  0.6791 -0.0473
   39CHL1   H17 2837   3.403   0.773   7.835  0.2900  1.1208  1.6073
   39CHL1   C13 2838   3.511   0.637   7.711 -0.8625 -0.5348 -0.7363
   39CHL1   C18 2839   3.636   0.544   7.731  0.2523 -0.4065 -0.3859
   39CHL1  H18A 2840   3.608   0.462   7.801 -2.1604  1.1716  0.6315
   39CHL1  H18B 2841   3.654   0.485   7.639 -0.3064 -3.8392  1.5519
   39CHL1  H18C 2842   3.729   0.598   7.759  0.0478 -0.7418  1.0507
   39CHL1   C12 2843   3.388   0.556   7.672  0.5880  0.3071  0.2102
   39CHL1  H12A 2844   3.378   0.467   7.737 -0.4207  0.3452  0.1313
   39CHL1  H12B 2845   3.296   0.617   7.689  0.7488  0.4997  0.4009
   39CHL1   C11 2846   3.393   0.502   7.529 -0.8554 -0.3191  0.3024
   39CHL1  H11A 2847   3.473   0.424   7.522 -1.5446 -0.9930 -0.2322
   39CHL1  H11B 2848   3.309   0.433   7.509 -1.2913  0.4122 -0.3981
   39CHL1    C9 2849   3.427   0.614   7.425  0.1071 -0.6101 -0.0252
   39CHL1    H9 2850   3.337   0.677   7.415 -0.2551 -0.9285  1.0940
   39CHL1   C10 2851   3.441   0.555   7.278 -0.4576  0.5590  0.0177
   39CHL1   C19 2852   3.540   0.433   7.281  0.2344 -0.5701 -0.0055
   39CHL1  H19A 2853   3.552   0.396   7.176 -0.7340 -0.7436 -0.0581
   39CHL1  H19B 2854   3.643   0.458   7.315  1.6318 -1.5855 -3.0584
   39CHL1  H19C 2855   3.496   0.343   7.329 -2.5386  1.5995  1.8106
   39CHL1    C1 2856   3.297   0.507   7.235  0.1072  0.2812  0.4748
   39CHL1   H1A 2857   3.280   0.411   7.289  0.1852 -0.9210 -1.5363
   39CHL1   H1B 2858   3.216   0.580   7.258  0.0418 -0.6563  3.8180
   39CHL1    C2 2859   3.276   0.484   7.081 -0.1023 -0.3716  0.0431
   39CHL1   H2A 2860   3.168   0.480   7.055  0.2715 -0.9954 -1.5293
   39CHL1   H2B 2861   3.322   0.388   7.048 -0.5453 -0.5437 -0.0792
   39CHL1   C20 2862   3.529   0.673   7.974  0.2637 -1.2891 -0.0579
   39CHL1   H20 2863   3.636   0.646   7.985  0.5590 -0.5772 -0.9707
   39CHL1   C21 2864   3.445   0.550   8.002  0.3690 -1.1078 -0.5731
   39CHL1  H21A 2865   3.482   0.465   7.941  1.2899  0.1771 -1.8785
   39CHL1  H21B 2866   3.341   0.575   7.973  1.6552  2.6352 -2.7431
   39CHL1  H21C 2867   3.462   0.511   8.105 -0.3877 -1.3600 -0.5389
   39CHL1   C22 2868   3.502   0.772   8.082 -0.1269  0.2790  0.0092
   39CHL1  H22A 2869   3.575   0.854   8.065  1.4105 -1.0643 -0.1596
   39CHL1  H22B 2870   3.397   0.808   8.080 -0.8751 -1.5519  1.8510
   39CHL1   C23 2871   3.519   0.737   8.232  0.0005 -1.0860 -0.5182
   39CHL1  H23A 2872   3.443   0.657   8.249 -2.8144  1.0129 -2.4595
   39CHL1  H23B 2873   3.623   0.702   8.250  0.9369  1.3637 -0.8568
   39CHL1   C24 2874   3.507   0.854   8.335  0.3953  0.4057 -0.6497
   39CHL1  H24A 2875   3.596   0.917   8.314 -0.3665  1.8632  0.2817
   39CHL1  H24B 2876   3.418   0.916   8.309  0.5899  1.5465  1.1708
   39CHL1   C25 2877   3.507   0.810   8.487  0.3535  0.0808  0.4411
   39CHL1   H25 2878   3.499   0.907   8.540 -1.2809  0.4535 -0.4418
   39CHL1   C26 2879   3.384   0.716   8.516 -0.1834  0.1375  0.0392
   39CHL1  H26A 2880   3.422   0.613   8.497 -0.8259 -0.1463  0.2930
   39CHL1  H26B 2881   3.356   0.726   8.623 -1.2272  0.3475 -0.2449
   39CHL1  H26C 2882   3.306   0.740   8.441 -0.2306 -0.5741 -0.1510
   39CHL1   C27 2883   3.639   0.744   8.541 -0.3158 -1.0205  0.4204
   39CHL1  H27A 2884   3.723   0.809   8.509 -2.6611  1.6823 -0.6876
   39CHL1  H27B 2885   3.638   0.740   8.652  2.3314  0.2170  0.5625
   39CHL1  H27C 2886   3.642   0.642   8.499  0.6977 -1.2453  1.0274
   40CHL1    C3 2887   6.572   6.069   6.837  0.0413 -0.3093  0.2723
   40CHL1    H3 2888   6.616   5.967   6.827 -2.1568 -1.2026 -0.9037
   40CHL1    O3 2889   6.583   6.121   6.706  0.1976 -0.2690  0.1430
   40CHL1   H3' 2890   6.555   6.211   6.726 -1.4913 -0.8802  0.7366
   40CHL1    C4 2891   6.434   6.074   6.894  0.3634  0.1509  0.4078
   40CHL1   H4A 2892   6.413   6.182   6.885  0.1818  0.0194 -1.0106
   40CHL1   H4B 2893   6.356   6.028   6.829  1.7146 -3.0542  0.8729
   40CHL1    C5 2894   6.431   6.037   7.043  0.1799  0.4372 -0.0831
   40CHL1    C6 2895   6.359   5.938   7.095  0.0678 -0.4249 -0.0911
   40CHL1    H6 2896   6.280   5.899   7.029 -0.6330 -1.7101  1.4157
   40CHL1    C7 2897   6.340   5.902   7.238  0.0299  0.4524 -0.4161
   40CHL1   H7A 2898   6.234   5.889   7.269  0.8966 -0.9335  2.2612
   40CHL1   H7B 2899   6.395   5.812   7.272  0.4926  1.3949  1.4173
   40CHL1    C8 2900   6.393   6.013   7.329 -0.4374 -1.1164 -0.4005
   40CHL1    H8 2901   6.325   6.101   7.327  0.3521 -0.4914 -0.2128
   40CHL1   C14 2902   6.403   5.965   7.467 -0.0654 -0.0007 -0.4970
   40CHL1   H14 2903   6.479   5.884   7.468  0.5728  0.5809  0.2248
   40CHL1   C15 2904   6.289   5.889   7.529 -0.0465 -0.4023 -0.4777
   40CHL1  H15A 2905   6.195   5.947   7.513  0.0117  0.4463  1.8992
   40CHL1  H15B 2906   6.281   5.788   7.484 -0.2953 -0.5816 -0.0392
   40CHL1   C16 2907   6.330   5.871   7.675  0.3020  0.3378  0.1890
   40CHL1  H16A 2908   6.240   5.888   7.738 -0.6956 -0.4741 -0.9627
   40CHL1  H16B 2909   6.365   5.768   7.695 -0.4990 -0.1851 -0.9401
   40CHL1   C17 2910   6.445   5.966   7.700 -0.1023 -0.2647 -0.3133
   40CHL1   H17 2911   6.541   5.911   7.704  0.2536  0.3009 -0.8541
   40CHL1   C13 2912   6.450   6.063   7.577  0.8098  0.1207  0.1452
   40CHL1   C18 2913   6.345   6.179   7.581 -0.2271 -0.1847  0.4470
   40CHL1  H18A 2914   6.245   6.139   7.605 -0.4909 -0.2231 -0.6611
   40CHL1  H18B 2915   6.369   6.247   7.666 -2.2105 -0.0709  0.9557
   40CHL1  H18C 2916   6.360   6.244   7.492  2.1937 -0.3970  0.6264
   40CHL1   C12 2917   6.594   6.110   7.531  0.5352  0.1979  0.4565
   40CHL1  H12A 2918   6.629   6.191   7.598  2.1551  0.7783 -1.0325
   40CHL1  H12B 2919   6.653   6.017   7.543 -0.7166 -0.5228  1.2820
   40CHL1   C11 2920   6.603   6.160   7.386  0.4758 -0.3459  0.5831
   40CHL1  H11A 2921   6.547   6.256   7.377 -0.1143 -0.6678  0.8244
   40CHL1  H11B 2922   6.709   6.169   7.354 -0.5410  2.1062 -2.7063
   40CHL1    C9 2923   6.531   6.062   7.277 -0.8371  0.5964 -1.1096
   40CHL1    H9 2924   6.594   5.970   7.278 -1.1267  0.3583 -2.8385
   40CHL1   C10 2925   6.531   6.108   7.129 -0.2678 -0.1319 -0.1969
   40CHL1   C19 2926   6.497   6.259   7.135 -0.4956  0.1136  0.1731
   40CHL1  H19A 2927   6.418   6.294   7.205 -0.2496  0.7169  0.1657
   40CHL1  H19B 2928   6.591   6.315   7.154 -0.8474  1.1408 -0.9731
   40CHL1  H19C 2929   6.478   6.313   7.040  0.3945  1.0284  0.4898
   40CHL1    C1 2930   6.668   6.094   7.072  0.7687  0.1978 -0.3388
   40CHL1   H1A 2931   6.730   6.149   7.146 -0.6207 -1.6002  2.3264
   40CHL1   H1B 2932   6.710   5.992   7.078 -1.6672 -0.9982 -1.8195
   40CHL1    C2 2933   6.678   6.139   6.930 -0.6890  0.1246  0.3722
   40CHL1   H2A 2934   6.779   6.121   6.888 -0.5239  0.5894  0.5611
   40CHL1   H2B 2935   6.655   6.245   6.904  0.8642  0.0088 -1.7439
   40CHL1   C20 2936   6.447   6.035   7.836 -0.3713 -0.1821  0.2977
   40CHL1   H20 2937   6.356   6.100   7.830 -2.2965 -2.5522  1.8418
   40CHL1   C21 2938   6.570   6.122   7.852 -0.1729 -0.2394  0.8413
   40CHL1  H21A 2939   6.660   6.089   7.795 -0.5818  1.8039 -1.1058
   40CHL1  H21B 2940   6.598   6.155   7.955 -0.6418 -1.1251  1.2655
   40CHL1  H21C 2941   6.544   6.218   7.803  2.1338  0.6141  1.1305
   40CHL1   C22 2942   6.426   5.933   7.952 -0.7624  0.2612 -0.0889
   40CHL1  H22A 2943   6.453   5.996   8.039 -0.9345  0.3310 -0.0852
   40CHL1  H22B 2944   6.323   5.893   7.967  0.3784 -3.1665 -0.7087
   40CHL1   C23 2945   6.531   5.814   7.963  0.0383 -0.1916 -0.8921
   40CHL1  H23A 2946   6.522   5.760   7.867 -1.5542 -1.2437 -0.2030
   40CHL1  H23B 2947   6.634   5.852   7.977 -1.1658  2.3162  2.6529
   40CHL1   C24 2948   6.486   5.717   8.078  0.3460  0.0038  0.4628
   40CHL1  H24A 2949   6.379   5.695   8.057 -0.2914  1.4636  1.9237
   40CHL1  H24B 2950   6.538   5.619   8.069 -1.0704 -0.6726 -0.8568
   40CHL1   C25 2951   6.519   5.760   8.224  0.0761 -0.0811 -0.0591
   40CHL1   H25 2952   6.469   5.858   8.238 -2.5748 -1.0867 -1.7358
   40CHL1   C26 2953   6.462   5.664   8.334  0.0596  0.1389  0.9137
   40CHL1  H26A 2954   6.361   5.621   8.317 -0.0544  0.6635  0.2383
   40CHL1  H26B 2955   6.527   5.574   8.347  0.2172  0.5326  3.2046
   40CHL1  H26C 2956   6.462   5.724   8.427  1.3488  0.7277  0.5678
   40CHL1   C27 2957   6.673   5.782   8.242  0.0127  0.1563 -0.4655
   40CHL1  H27A 2958   6.693   5.795   8.351 -0.6851  2.5248 -0.5651
   40CHL1  H27B 2959   6.735   5.695   8.211 -0.2491  0.4966 -1.9840
   40CHL1  H27C 2960   6.715   5.866   8.183 -1.0106 -0.5274 -2.2542
   41CHL1    C3 2961   0.746   6.193   6.879  0.8788 -0.6560 -0.0818
   41CHL1    H3 2962   0.838   6.132   6.869 -0.1960 -2.0282 -2.4285
   41CHL1    O3 2963   0.704   6.223   6.747 -0.6520  0.2378 -0.4462
   41CHL1   H3' 2964   0.778   6.246   6.691  0.0709  0.1917  0.4571
   41CHL1    C4 2965   0.628   6.122   6.957 -0.2308 -0.7530 -0.3259
   41CHL1   H4A 2966   0.529   6.172   6.953 -0.8714 -1.8069  1.3022
   41CHL1   H4B 2967   0.615   6.020   6.914  1.0764 -1.0959  0.0328
   41CHL1    C5 2968   0.642   6.103   7.108 -0.1836  0.5627 -0.4389
   41CHL1    C6 2969   0.627   5.983   7.175 -1.0843 -0.4629 -0.2318
   41CHL1    H6 2970   0.593   5.895   7.119 -2.2957  1.0174 -1.9629
   41CHL1    C7 2971   0.640   5.970   7.317 -0.0863  0.2397 -0.7113
   41CHL1   H7A 2972   0.552   5.908   7.346 -1.8245  2.2356 -1.4603
   41CHL1   H7B 2973   0.737   5.923   7.342 -0.6898  0.1167  1.6955
   41CHL1    C8 2974   0.627   6.101   7.396 -0.1558  0.1208  0.1812
   41CHL1    H8 2975   0.528   6.149   7.377  1.1213  1.9433 -2.3307
   41CHL1   C14 2976   0.669   6.071   7.537 -0.0022 -0.1978  0.3869
   41CHL1   H14 2977   0.775   6.040   7.546  0.3621  0.7040 -0.5273
   41CHL1   C15 2978   0.588   5.962   7.618 -0.4060  0.4154 -0.1595
   41CHL1  H15A 2979   0.489   5.957   7.568  0.4412 -0.6615 -1.7986
   41CHL1  H15B 2980   0.645   5.868   7.607  0.8803  1.2650 -1.0969
   41CHL1   C16 2981   0.585   6.014   7.766  0.1088 -0.9483  0.1421
   41CHL1  H16A 2982   0.483   6.051   7.791 -0.6249 -1.4308 -1.9165
   41CHL1  H16B 2983   0.621   5.942   7.843  0.6225 -0.9181 -0.0658
   41CHL1   C17 2984   0.683   6.144   7.770  0.6605  0.1159  0.0403
   41CHL1   H17 2985   0.791   6.117   7.776  0.6829 -0.0301 -0.8910
   41CHL1   C13 2986   0.662   6.199   7.621  0.0169 -0.9508  0.6345
   41CHL1   C18 2987   0.526   6.273   7.615 -0.2359 -0.6116 -0.0622
   41CHL1  H18A 2988   0.498   6.307   7.512  0.1893  0.8544  0.2737
   41CHL1  H18B 2989   0.440   6.212   7.648 -1.2013  2.2398  3.3169
   41CHL1  H18C 2990   0.522   6.367   7.675 -0.5838  0.1775 -1.2732
   41CHL1   C12 2991   0.768   6.296   7.562  0.5307  0.5937 -0.1295
   41CHL1  H12A 2992   0.757   6.396   7.609 -2.0217 -0.1450  1.0602
   41CHL1  H12B 2993   0.869   6.253   7.575  0.0241 -1.1132 -1.3856
   41CHL1   C11 2994   0.760   6.327   7.406  0.4763 -0.1609 -0.0057
   41CHL1  H11A 2995   0.670   6.391   7.394 -0.0990 -1.1345 -1.1135
   41CHL1  H11B 2996   0.863   6.360   7.383  1.3334  0.2777  3.7579
   41CHL1    C9 2997   0.729   6.199   7.323 -0.0347 -0.1580  0.4922
   41CHL1    H9 2998   0.823   6.141   7.313  0.0767 -0.6062  3.3604
   41CHL1   C10 2999   0.684   6.232   7.179 -0.6076 -0.1202 -0.1818
   41CHL1   C19 3000   0.557   6.322   7.174  0.3910 -0.4338 -0.0930
   41CHL1  H19A 3001   0.513   6.343   7.075  0.7543  1.4360  0.1020
   41CHL1  H19B 3002   0.476   6.292   7.244 -0.6163  1.9331 -0.1673
   41CHL1  H19C 3003   0.594   6.420   7.211 -2.4127  0.1899  1.3457
   41CHL1    C1 3004   0.807   6.307   7.102  0.5328 -0.3208 -0.0817
   41CHL1   H1A 3005   0.824   6.404   7.153 -1.5376 -0.5805  1.2397
   41CHL1   H1B 3006   0.898   6.247   7.124 -0.5574 -1.2086  2.3757
   41CHL1    C2 3007   0.783   6.321   6.950  0.0115 -0.3430 -0.9299
   41CHL1   H2A 3008   0.872   6.360   6.897  0.1857  0.2104 -0.2527
   41CHL1   H2B 3009   0.703   6.399   6.953  2.0868  1.9826  3.2499
   41CHL1   C20 3010   0.661   6.236   7.894  0.0178 -0.3292  0.9450
   41CHL1   H20 3011   0.563   6.284   7.872 -0.5842 -0.6596  2.7741
   41CHL1   C21 3012   0.765   6.353   7.898  0.2090  0.1880  0.0790
   41CHL1  H21A 3013   0.768   6.399   7.797 -2.3025 -3.1442 -1.7423
   41CHL1  H21B 3014   0.868   6.320   7.925  0.5953  0.5794 -0.8712
   41CHL1  H21C 3015   0.732   6.432   7.968 -3.0205 -1.4165  0.5711
   41CHL1   C22 3016   0.648   6.154   8.029 -0.1821 -0.6649  0.8056
   41CHL1  H22A 3017   0.572   6.074   8.013  0.8427 -1.4712 -0.2261
   41CHL1  H22B 3018   0.750   6.116   8.053  0.4031 -1.4925 -2.4479
   41CHL1   C23 3019   0.620   6.246   8.146  0.7354  0.4381 -0.2673
   41CHL1  H23A 3020   0.702   6.320   8.153  0.5674  0.5063  1.2950
   41CHL1  H23B 3021   0.525   6.300   8.125  0.2087  0.1334  1.2198
   41CHL1   C24 3022   0.621   6.176   8.285 -0.0252 -0.1418 -0.5294
   41CHL1  H24A 3023   0.559   6.084   8.276  0.4604 -0.4880 -0.4026
   41CHL1  H24B 3024   0.718   6.138   8.324 -0.7081 -0.8059  0.6031
   41CHL1   C25 3025   0.551   6.250   8.403  0.0877  0.1482 -0.3070
   41CHL1   H25 3026   0.541   6.172   8.481  4.2142 -0.4332 -0.1574
   41CHL1   C26 3027   0.632   6.369   8.454 -0.2876 -1.0428  0.9298
   41CHL1  H26A 3028   0.736   6.345   8.485  1.4394 -2.4547 -4.6809
   41CHL1  H26B 3029   0.650   6.437   8.368  0.9316 -1.9328  0.4485
   41CHL1  H26C 3030   0.572   6.429   8.526  0.1099  2.8469 -1.6616
   41CHL1   C27 3031   0.413   6.291   8.370  0.2221 -0.0514  0.9648
   41CHL1  H27A 3032   0.361   6.342   8.454  0.6072  4.3136 -1.1604
   41CHL1  H27B 3033   0.417   6.368   8.290  0.1592  1.3328  2.2445
   41CHL1  H27C 3034   0.366   6.207   8.316  0.0025 -0.5380  1.8894
   42CHL1    C3 3035   1.870   2.526   6.900  0.4330  0.0962 -0.2806
   42CHL1    H3 3036   1.813   2.436   6.931 -2.4250  2.6391  2.5194
   42CHL1    O3 3037   1.932   2.493   6.778 -0.6219  0.5657  0.0563
   42CHL1   H3' 3038   2.016   2.540   6.779  0.0581 -0.4565 -2.3792
   42CHL1    C4 3039   1.765   2.637   6.888  0.1209  0.3066  0.5908
   42CHL1   H4A 3040   1.813   2.728   6.845 -1.8622  0.9988 -0.3119
   42CHL1   H4B 3041   1.693   2.598   6.812  2.1751 -0.8514 -0.8746
   42CHL1    C5 3042   1.703   2.678   7.022  0.3869 -0.3375  0.1375
   42CHL1    C6 3043   1.568   2.684   7.044 -1.1204 -0.0011  0.3906
   42CHL1    H6 3044   1.512   2.658   6.953  1.2618  1.0421 -1.5039
   42CHL1    C7 3045   1.503   2.729   7.168  1.0306 -0.6218  0.7184
   42CHL1   H7A 3046   1.423   2.803   7.145  1.9911  0.0906 -0.5014
   42CHL1   H7B 3047   1.453   2.645   7.220 -1.1492 -0.8830 -1.5956
   42CHL1    C8 3048   1.602   2.803   7.262 -0.0998 -0.3515 -0.2428
   42CHL1    H8 3049   1.618   2.903   7.218 -1.9114  0.7154  1.3727
   42CHL1   C14 3050   1.546   2.811   7.402  0.0043 -0.1201  0.7237
   42CHL1   H14 3051   1.546   2.703   7.427  0.7140 -0.3822 -0.3166
   42CHL1   C15 3052   1.404   2.867   7.414 -0.1042 -0.8231 -0.5005
   42CHL1  H15A 3053   1.393   2.961   7.355 -0.5402 -1.6028 -1.6868
   42CHL1  H15B 3054   1.323   2.800   7.379 -0.4540 -1.3270  1.1739
   42CHL1   C16 3055   1.393   2.890   7.567  0.6303 -0.0984  0.5617
   42CHL1  H16A 3056   1.383   3.000   7.584 -0.0153  0.0104 -0.4458
   42CHL1  H16B 3057   1.316   2.826   7.614  1.6217 -0.5747  1.5985
   42CHL1   C17 3058   1.534   2.853   7.623 -0.6049 -0.3985 -0.3502
   42CHL1   H17 3059   1.526   2.743   7.636 -1.6066 -0.1138  1.8488
   42CHL1   C13 3060   1.630   2.881   7.510  0.0391 -0.0208  0.4597
   42CHL1   C18 3061   1.638   3.038   7.490 -0.0775  0.4623  0.4830
   42CHL1  H18A 3062   1.676   3.058   7.387  0.7483  0.9062  0.8632
   42CHL1  H18B 3063   1.539   3.088   7.492 -1.1301 -1.5104  0.2039
   42CHL1  H18C 3064   1.699   3.089   7.568  1.5463 -1.0230  0.2629
   42CHL1   C12 3065   1.761   2.813   7.523 -0.1452  0.2782 -0.8137
   42CHL1  H12A 3066   1.832   2.857   7.596 -1.3401  2.3575 -0.8082
   42CHL1  H12B 3067   1.743   2.710   7.561 -1.3299  1.4869  2.2435
   42CHL1   C11 3068   1.823   2.806   7.382  0.2497 -0.4234 -0.2898
   42CHL1  H11A 3069   1.844   2.909   7.346 -0.1563  0.3149  1.4825
   42CHL1  H11B 3070   1.920   2.756   7.400  0.9251  1.4844  1.9338
   42CHL1    C9 3071   1.741   2.734   7.274  0.4344  0.1162  0.0042
   42CHL1    H9 3072   1.717   2.633   7.314 -2.6755  0.9130  0.3810
   42CHL1   C10 3073   1.806   2.715   7.137  0.1073  0.5494  0.3557
   42CHL1   C19 3074   1.882   2.839   7.085  0.2852  0.0571  0.2284
   42CHL1  H19A 3075   1.921   2.833   6.980  0.3176  0.3333  0.2213
   42CHL1  H19B 3076   1.817   2.929   7.087  1.1945  0.8410 -1.9082
   42CHL1  H19C 3077   1.976   2.858   7.141 -0.1427  1.3452  0.5551
   42CHL1    C1 3078   1.908   2.594   7.141 -0.3017 -0.1789 -0.2569
   42CHL1   H1A 3079   1.974   2.617   7.227 -0.4939  0.9428 -0.3883
   42CHL1   H1B 3080   1.857   2.498   7.162 -2.4787  0.9292 -0.1773
   42CHL1    C2 3081   1.977   2.558   7.006  0.4691 -0.3997  0.0105
   42CHL1   H2A 3082   2.039   2.466   7.020  0.4331 -0.1784  1.8632
   42CHL1   H2B 3083   2.038   2.647   6.979 -0.8686  0.8873  1.0791
   42CHL1   C20 3084   1.558   2.911   7.764 -0.4671 -0.1534 -0.3613
   42CHL1   H20 3085   1.593   3.016   7.768  2.9898 -1.1611 -0.5533
   42CHL1   C21 3086   1.671   2.827   7.828  0.9816  0.2774  0.1060
   42CHL1  H21A 3087   1.656   2.722   7.796  0.7925  0.0790  0.8118
   42CHL1  H21B 3088   1.663   2.827   7.939  0.2124  1.9719  0.0709
   42CHL1  H21C 3089   1.768   2.865   7.791 -0.4756  3.8129 -0.4427
   42CHL1   C22 3090   1.431   2.914   7.852  0.3123  0.4773  0.3180
   42CHL1  H22A 3091   1.348   2.974   7.808 -0.4762 -0.4075  0.5643
   42CHL1  H22B 3092   1.387   2.812   7.863  0.2165  0.3778 -0.8375
   42CHL1   C23 3093   1.459   2.974   7.995  0.2023  0.3094 -0.1642
   42CHL1  H23A 3094   1.523   2.915   8.064  1.7618  2.1684  0.0691
   42CHL1  H23B 3095   1.499   3.077   7.992  0.4315  0.2076 -0.7730
   42CHL1   C24 3096   1.320   2.977   8.060 -0.1067  0.5666 -1.0835
   42CHL1  H24A 3097   1.260   3.054   8.006  2.1746  1.6566 -2.2075
   42CHL1  H24B 3098   1.269   2.880   8.041 -1.1278  0.6339  1.0087
   42CHL1   C25 3099   1.324   3.006   8.216  0.5407  0.7352  0.2291
   42CHL1   H25 3100   1.217   3.022   8.243  0.3128 -1.1024  0.5189
   42CHL1   C26 3101   1.387   2.893   8.304  0.7738 -0.3550  0.1979
   42CHL1  H26A 3102   1.365   2.916   8.411 -0.9899  0.9124 -0.3765
   42CHL1  H26B 3103   1.326   2.806   8.271  0.8301 -0.5481  0.5992
   42CHL1  H26C 3104   1.496   2.884   8.285  0.7834 -1.7461  0.7811
   42CHL1   C27 3105   1.397   3.138   8.247 -0.8015  0.8317 -0.6035
   42CHL1  H27A 3106   1.388   3.141   8.357 -0.8593 -4.2464 -0.2207
   42CHL1  H27B 3107   1.353   3.232   8.208  1.1044  2.9850  2.0788
   42CHL1  H27C 3108   1.507   3.139   8.230 -0.7234 -1.5432 -0.5707
   43CHL1    C3 3109   1.151   1.337   6.850  0.0436 -0.4989  0.1090
   43CHL1    H3 3110   1.175   1.445   6.839 -1.0419 -0.2184  0.3587
   43CHL1    O3 3111   1.133   1.273   6.727 -0.0603  0.0841  0.0987
   43CHL1   H3' 3112   1.085   1.192   6.744 -0.5591  0.3718  0.0606
   43CHL1    C4 3113   1.271   1.267   6.923  0.2745  0.6681  0.0817
   43CHL1   H4A 3114   1.253   1.159   6.944  1.6986  0.1748 -1.0296
   43CHL1   H4B 3115   1.365   1.264   6.864  0.8814 -2.1973  1.0217
   43CHL1    C5 3116   1.286   1.325   7.061 -0.0634  0.7023 -0.3979
   43CHL1    C6 3117   1.407   1.360   7.105 -0.1171 -0.3716 -1.3088
   43CHL1    H6 3118   1.499   1.368   7.046  2.1088  2.4122  2.0937
   43CHL1    C7 3119   1.431   1.415   7.245 -0.1597 -0.0850  1.1298
   43CHL1   H7A 3120   1.521   1.361   7.281 -1.5372 -3.9519 -0.6875
   43CHL1   H7B 3121   1.446   1.525   7.249 -0.2634  0.0418 -0.8540
   43CHL1    C8 3122   1.314   1.386   7.347  0.5096 -0.3291 -0.0893
   43CHL1    H8 3123   1.310   1.279   7.377 -2.1195 -0.6460 -1.2525
   43CHL1   C14 3124   1.331   1.474   7.477  0.7240 -0.4893  0.1125
   43CHL1   H14 3125   1.321   1.581   7.448  1.9097 -0.0411  1.2490
   43CHL1   C15 3126   1.462   1.464   7.547  0.1478 -0.0626  0.6195
   43CHL1  H15A 3127   1.490   1.359   7.572  0.0704 -0.1273  0.4316
   43CHL1  H15B 3128   1.552   1.515   7.507  1.0117 -0.5238  1.9144
   43CHL1   C16 3129   1.435   1.534   7.681 -0.4832 -0.5377 -0.0641
   43CHL1  H16A 3130   1.477   1.467   7.758  0.6904 -0.1129 -0.3178
   43CHL1  H16B 3131   1.491   1.628   7.699  0.4731 -0.6550 -2.0936
   43CHL1   C17 3132   1.280   1.557   7.694 -0.0208  0.3898 -0.1189
   43CHL1   H17 3133   1.247   1.653   7.648  0.2806  0.1386 -0.8794
   43CHL1   C13 3134   1.222   1.458   7.589  0.2170  0.0854  0.1018
   43CHL1   C18 3135   1.225   1.314   7.644 -0.2355 -0.1313 -0.1715
   43CHL1  H18A 3136   1.320   1.292   7.697 -0.1688 -0.4102 -0.4031
   43CHL1  H18B 3137   1.138   1.305   7.714  0.0622  0.0914  0.2312
   43CHL1  H18C 3138   1.209   1.246   7.558 -0.1667 -0.9725  0.4688
   43CHL1   C12 3139   1.095   1.488   7.517 -0.2132  0.1192  0.3375
   43CHL1  H12A 3140   1.009   1.476   7.586 -0.4455  0.8862  0.1954
   43CHL1  H12B 3141   1.086   1.597   7.497 -0.3292  0.4272  1.9130
   43CHL1   C11 3142   1.069   1.407   7.385 -1.0892 -0.0537  0.1646
   43CHL1  H11A 3143   1.077   1.298   7.408  1.0834  0.5160  2.4199
   43CHL1  H11B 3144   0.969   1.438   7.346 -0.8502  0.8749  0.2741
   43CHL1    C9 3145   1.181   1.416   7.277  0.1538 -0.0058  0.1897
   43CHL1    H9 3146   1.186   1.518   7.233  0.0566 -0.9953 -2.2655
   43CHL1   C10 3147   1.162   1.336   7.147  0.8784  0.3423 -1.0551
   43CHL1   C19 3148   1.131   1.186   7.188 -0.8703 -0.1857  0.3618
   43CHL1  H19A 3149   1.101   1.120   7.104 -2.2731  0.5923  0.2243
   43CHL1  H19B 3150   1.206   1.146   7.260 -0.2000 -0.8306 -0.6627
   43CHL1  H19C 3151   1.039   1.195   7.250 -0.7745  2.0707  0.2699
   43CHL1    C1 3152   1.049   1.403   7.065  0.5472  0.0265 -0.2982
   43CHL1   H1A 3153   0.957   1.412   7.126  0.8465  1.1663  0.0122
   43CHL1   H1B 3154   1.067   1.512   7.052 -2.4681  0.9174  1.8586
   43CHL1    C2 3155   1.022   1.344   6.930  0.5069 -0.5329  0.2111
   43CHL1   H2A 3156   0.944   1.410   6.888 -0.2133 -0.9091  0.9127
   43CHL1   H2B 3157   0.975   1.244   6.942  0.7331 -0.4860  1.7972
   43CHL1   C20 3158   1.233   1.569   7.838 -0.5775  0.5193  0.9362
   43CHL1   H20 3159   1.255   1.469   7.880  0.4362  0.9003  1.3465
   43CHL1   C21 3160   1.080   1.587   7.842 -0.4357  0.3192 -0.1578
   43CHL1  H21A 3161   1.033   1.493   7.806 -1.0999 -0.1770  1.8539
   43CHL1  H21B 3162   1.057   1.673   7.776 -2.4464  0.1360  0.2515
   43CHL1  H21C 3163   1.044   1.602   7.946  2.2391 -1.8048  1.2078
   43CHL1   C22 3164   1.305   1.688   7.910 -0.0468  0.2177 -0.3458
   43CHL1  H22A 3165   1.415   1.689   7.893  0.1936  3.4212  0.7006
   43CHL1  H22B 3166   1.258   1.776   7.860  0.8131  0.9518  0.0932
   43CHL1   C23 3167   1.296   1.693   8.064 -0.0240 -0.2119  0.4558
   43CHL1  H23A 3168   1.190   1.683   8.096 -0.3889  0.3251 -0.5511
   43CHL1  H23B 3169   1.339   1.600   8.107  1.0250 -0.6508 -1.4467
   43CHL1   C24 3170   1.351   1.820   8.126 -0.4872  0.0326  0.6341
   43CHL1  H24A 3171   1.461   1.826   8.110 -0.9167  0.6046 -2.9717
   43CHL1  H24B 3172   1.307   1.910   8.078 -2.1673  0.1370  2.2245
   43CHL1   C25 3173   1.336   1.817   8.280 -0.3339  0.2350  0.3282
   43CHL1   H25 3174   1.232   1.792   8.307 -0.4500 -0.2935 -0.5600
   43CHL1   C26 3175   1.420   1.699   8.333  0.5448  0.3218  0.4761
   43CHL1  H26A 3176   1.415   1.705   8.443  0.9468  0.9970  0.4598
   43CHL1  H26B 3177   1.378   1.600   8.305  2.4722 -0.2078 -0.8117
   43CHL1  H26C 3178   1.528   1.704   8.307  0.0913 -0.1500 -1.7769
   43CHL1   C27 3179   1.378   1.951   8.343  0.5831 -0.2134  0.3679
   43CHL1  H27A 3180   1.346   1.947   8.449 -0.1623 -0.9887  0.1196
   43CHL1  H27B 3181   1.489   1.961   8.336  0.4424  0.1245 -2.5026
   43CHL1  H27C 3182   1.326   2.034   8.291  1.2906 -0.2583 -0.4262
   44CHL1    C3 3183   1.220   6.045   6.786  0.0625 -0.0570  0.6644
   44CHL1    H3 3184   1.260   5.942   6.779  1.7763  0.3914  2.5580
   44CHL1    O3 3185   1.182   6.094   6.660  0.0148 -0.0545 -0.1176
   44CHL1   H3' 3186   1.252   6.060   6.604  0.5262  0.5747  0.1338
   44CHL1    C4 3187   1.102   6.039   6.878  0.4022 -0.8725  0.1067
   44CHL1   H4A 3188   1.049   6.135   6.860  1.4647 -0.4395 -0.8640
   44CHL1   H4B 3189   1.030   5.964   6.840 -3.3964  1.7663  1.4987
   44CHL1    C5 3190   1.122   6.029   7.021  0.4249  0.5905  0.2727
   44CHL1    C6 3191   1.058   5.937   7.092 -0.4091 -0.2499  0.1527
   44CHL1    H6 3192   0.987   5.865   7.049 -0.5295  0.4242 -0.8354
   44CHL1    C7 3193   1.072   5.925   7.239  0.2811 -0.3912 -0.2637
   44CHL1   H7A 3194   0.970   5.919   7.283  0.1455  1.1550 -0.3005
   44CHL1   H7B 3195   1.120   5.827   7.256 -0.9220 -0.9521  0.0561
   44CHL1    C8 3196   1.150   6.048   7.306  0.3117  0.4097 -0.3990
   44CHL1    H8 3197   1.086   6.139   7.311  1.2985  1.1281 -0.6301
   44CHL1   C14 3198   1.175   6.019   7.451 -0.3356 -0.5205  0.1055
   44CHL1   H14 3199   1.244   5.932   7.448  1.5854  0.9385 -0.0782
   44CHL1   C15 3200   1.052   6.005   7.539 -0.1440 -0.1464 -0.4693
   44CHL1  H15A 3201   0.987   6.092   7.514  0.3331  0.1193 -0.7966
   44CHL1  H15B 3202   0.991   5.913   7.528  0.0100 -0.2342 -0.5962
   44CHL1   C16 3203   1.109   6.024   7.689 -1.0432 -0.4682  0.3444
   44CHL1  H16A 3204   1.049   6.107   7.731 -2.4310 -1.0089 -0.4680
   44CHL1  H16B 3205   1.084   5.932   7.746 -0.2176  0.3037  1.9940
   44CHL1   C17 3206   1.256   6.066   7.675  0.0005 -0.0753  0.0478
   44CHL1   H17 3207   1.302   5.965   7.668 -0.6254 -0.4211  0.7058
   44CHL1   C13 3208   1.264   6.116   7.528 -0.5147  0.5245 -0.3655
   44CHL1   C18 3209   1.201   6.258   7.525  0.1941 -0.3556 -0.1157
   44CHL1  H18A 3210   1.174   6.298   7.425  3.3081 -0.2616 -0.9955
   44CHL1  H18B 3211   1.117   6.266   7.597  0.6971  0.3306  0.4060
   44CHL1  H18C 3212   1.277   6.328   7.566  1.0972 -1.4264  0.0708
   44CHL1   C12 3213   1.402   6.123   7.453  0.4803 -0.4745  0.6002
   44CHL1  H12A 3214   1.473   6.193   7.502  1.2555 -1.9059  1.5835
   44CHL1  H12B 3215   1.443   6.020   7.455  1.6404 -0.0192  1.6667
   44CHL1   C11 3216   1.376   6.166   7.306 -0.2891 -0.2914  0.0473
   44CHL1  H11A 3217   1.347   6.273   7.299  0.4589 -0.1230 -0.8221
   44CHL1  H11B 3218   1.473   6.167   7.250 -1.1470 -0.2469 -1.5080
   44CHL1    C9 3219   1.274   6.073   7.226 -0.2670  0.2975 -0.4758
   44CHL1    H9 3220   1.326   5.976   7.209  0.0201  0.7597 -2.4565
   44CHL1   C10 3221   1.241   6.110   7.082  0.1262 -0.6986 -0.7295
   44CHL1   C19 3222   1.196   6.263   7.081 -0.4536 -0.3236  0.4599
   44CHL1  H19A 3223   1.279   6.326   7.121 -0.2943 -0.2352 -0.0026
   44CHL1  H19B 3224   1.183   6.307   6.980 -0.9741 -0.1582  0.5971
   44CHL1  H19C 3225   1.104   6.272   7.142 -1.1812 -1.6086 -0.3867
   44CHL1    C1 3226   1.367   6.105   6.992  0.6134  0.6340 -0.0733
   44CHL1   H1A 3227   1.435   6.186   7.028  1.8191 -0.3623 -0.0482
   44CHL1   H1B 3228   1.424   6.010   6.996 -1.5877 -0.8389 -1.6105
   44CHL1    C2 3229   1.333   6.139   6.845 -0.3903 -0.2482 -0.2238
   44CHL1   H2A 3230   1.418   6.135   6.774 -0.1369  0.0906  0.0557
   44CHL1   H2B 3231   1.305   6.246   6.837  3.4659  0.7551 -3.6727
   44CHL1   C20 3232   1.299   6.154   7.797  0.1467 -0.3039  0.8651
   44CHL1   H20 3233   1.253   6.253   7.780 -1.3757 -1.3101 -1.3581
   44CHL1   C21 3234   1.454   6.170   7.798 -0.0485  0.0776  0.4180
   44CHL1  H21A 3235   1.489   6.066   7.810 -1.4360 -0.3913  0.5695
   44CHL1  H21B 3236   1.480   6.241   7.879 -1.3112 -0.4445  1.3091
   44CHL1  H21C 3237   1.488   6.216   7.703 -1.4958 -0.7027 -0.5200
   44CHL1   C22 3238   1.233   6.107   7.935 -0.1454 -0.5211 -0.1519
   44CHL1  H22A 3239   1.126   6.137   7.929 -0.2278 -1.0382 -1.5051
   44CHL1  H22B 3240   1.238   5.996   7.934 -1.0844 -0.5785 -1.2774
   44CHL1   C23 3241   1.296   6.158   8.064 -0.5662  0.0825 -0.5914
   44CHL1  H23A 3242   1.400   6.121   8.075 -0.4921  0.7675  1.2771
   44CHL1  H23B 3243   1.294   6.269   8.066 -0.3238  0.0799  0.9928
   44CHL1   C24 3244   1.219   6.111   8.186  0.6547 -0.5316  0.0069
   44CHL1  H24A 3245   1.128   6.175   8.187  0.5674 -0.6148  2.4934
   44CHL1  H24B 3246   1.184   6.006   8.190  0.1713 -0.3278  2.1301
   44CHL1   C25 3247   1.286   6.146   8.320  0.0866 -0.1963  0.0988
   44CHL1   H25 3248   1.393   6.118   8.316  0.4756  1.3530 -1.0677
   44CHL1   C26 3249   1.267   6.296   8.353  0.1938  0.4694 -0.4126
   44CHL1  H26A 3250   1.158   6.308   8.339  0.0451 -1.4113 -1.0119
   44CHL1  H26B 3251   1.297   6.317   8.458 -1.8742 -0.6595  0.4567
   44CHL1  H26C 3252   1.311   6.365   8.277 -0.2654  0.5303 -0.6289
   44CHL1   C27 3253   1.222   6.068   8.433  0.3572 -0.1640 -0.7995
   44CHL1  H27A 3254   1.112   6.082   8.432  0.3393 -0.2136 -0.2646
   44CHL1  H27B 3255   1.238   5.958   8.428 -1.7655 -0.6210  0.9331
   44CHL1  H27C 3256   1.256   6.116   8.528  0.7808 -0.5216 -0.7639
   45CHL1    C3 3257   2.861   5.436   6.742 -0.0633  0.2089 -0.4408
   45CHL1    H3 3258   2.765   5.414   6.690  0.8010  2.1546 -3.1291
   45CHL1    O3 3259   2.926   5.513   6.639  0.0590 -0.2652  0.5166
   45CHL1   H3' 3260   3.014   5.538   6.667 -0.1828  0.6426  0.5121
   45CHL1    C4 3261   2.845   5.513   6.871  0.2431  0.6321  0.0481
   45CHL1   H4A 3262   2.949   5.532   6.906  0.4260 -1.2580  0.6333
   45CHL1   H4B 3263   2.783   5.600   6.839  0.7269  1.0363  0.2101
   45CHL1    C5 3264   2.767   5.428   6.974 -0.1958 -0.5556  0.2127
   45CHL1    C6 3265   2.653   5.466   7.034  0.0288 -0.4655  0.1458
   45CHL1    H6 3266   2.599   5.558   7.006 -1.2647 -0.6644  1.8592
   45CHL1    C7 3267   2.586   5.376   7.134 -0.7843 -0.3643  0.0525
   45CHL1   H7A 3268   2.537   5.432   7.216 -2.0367 -1.4073  0.0559
   45CHL1   H7B 3269   2.496   5.326   7.091 -0.4075  0.6917 -2.0871
   45CHL1    C8 3270   2.677   5.268   7.192  0.2279 -0.1122 -1.2436
   45CHL1    H8 3271   2.747   5.317   7.263 -0.1200  0.9808 -1.6397
   45CHL1   C14 3272   2.590   5.159   7.261  0.1079 -0.7238  0.5251
   45CHL1   H14 3273   2.523   5.108   7.187 -0.0482 -1.6176  1.2617
   45CHL1   C15 3274   2.504   5.213   7.369 -0.1987  0.6271  0.0144
   45CHL1  H15A 3275   2.571   5.270   7.437 -1.4372  0.7956  1.1510
   45CHL1  H15B 3276   2.414   5.269   7.333 -1.6070 -1.5918 -0.1117
   45CHL1   C16 3277   2.471   5.088   7.452  0.5604  0.0272  0.4231
   45CHL1  H16A 3278   2.479   5.108   7.561 -2.7650  0.0208  0.7727
   45CHL1  H16B 3279   2.365   5.070   7.427  0.3523  0.8093  0.7014
   45CHL1   C17 3280   2.559   4.968   7.399  0.5846  0.7170 -0.0596
   45CHL1   H17 3281   2.500   4.914   7.321  0.6653  0.8668 -0.2233
   45CHL1   C13 3282   2.668   5.038   7.317  0.4327 -0.2820  0.1168
   45CHL1   C18 3283   2.774   5.084   7.414 -0.3945 -0.0623 -0.3762
   45CHL1  H18A 3284   2.857   5.144   7.371  2.3683 -2.1501  1.6672
   45CHL1  H18B 3285   2.736   5.142   7.500  0.1884  1.0152 -0.8227
   45CHL1  H18C 3286   2.827   4.993   7.450 -1.5761 -0.2017  1.0811
   45CHL1   C12 3287   2.730   4.964   7.193 -0.1311 -0.4376  0.5400
   45CHL1  H12A 3288   2.790   4.875   7.219 -1.6638 -1.0550  2.2024
   45CHL1  H12B 3289   2.651   4.929   7.123 -1.4680  1.0635  1.2234
   45CHL1   C11 3290   2.825   5.063   7.117  0.2613 -0.8717 -0.5171
   45CHL1  H11A 3291   2.918   5.083   7.175  0.9093 -3.3233 -0.5920
   45CHL1  H11B 3292   2.871   5.016   7.027 -0.1879 -0.3681 -1.0169
   45CHL1    C9 3293   2.757   5.202   7.081 -1.1541 -0.3477 -0.4169
   45CHL1    H9 3294   2.682   5.176   7.003  0.1473 -1.5783 -1.3000
   45CHL1   C10 3295   2.854   5.298   7.001  0.1800  0.0103  0.2294
   45CHL1   C19 3296   2.982   5.331   7.078 -0.6582 -0.2021  0.4392
   45CHL1  H19A 3297   3.037   5.246   7.123  0.5971  0.8831  0.9951
   45CHL1  H19B 3298   3.048   5.386   7.008  0.4292 -0.3606  1.3103
   45CHL1  H19C 3299   2.953   5.399   7.161  0.5649 -0.0351  0.7377
   45CHL1    C1 3300   2.887   5.221   6.874 -0.2439  0.3602  0.3284
   45CHL1   H1A 3301   2.941   5.126   6.894  0.7961  0.7981 -0.2746
   45CHL1   H1B 3302   2.799   5.175   6.824 -0.1157  1.5635 -1.0813
   45CHL1    C2 3303   2.947   5.305   6.755 -0.5894 -0.0579  0.0619
   45CHL1   H2A 3304   2.936   5.247   6.661  0.3869 -1.9527  1.0600
   45CHL1   H2B 3305   3.054   5.327   6.777 -0.4391  0.3458 -0.9909
   45CHL1   C20 3306   2.610   4.865   7.505 -0.2190  0.0575 -0.2561
   45CHL1   H20 3307   2.675   4.910   7.583 -0.2370  0.7982 -0.6648
   45CHL1   C21 3308   2.687   4.739   7.453  0.7065 -0.0265 -0.2762
   45CHL1  H21A 3309   2.774   4.763   7.387 -0.3534 -0.0905 -1.7557
   45CHL1  H21B 3310   2.627   4.672   7.387 -1.1170  0.7974  0.4747
   45CHL1  H21C 3311   2.728   4.679   7.536  1.9213 -1.7021 -1.9861
   45CHL1   C22 3312   2.488   4.815   7.579  0.6030  0.5669 -0.0635
   45CHL1  H22A 3313   2.424   4.894   7.624 -2.1088 -1.5256  0.0133
   45CHL1  H22B 3314   2.424   4.784   7.494 -0.9082  1.2869  0.7590
   45CHL1   C23 3315   2.506   4.700   7.677 -0.4138  0.2845 -0.3465
   45CHL1  H23A 3316   2.540   4.610   7.621  2.7450  1.0504  0.1686
   45CHL1  H23B 3317   2.588   4.733   7.745  0.6987  1.2981 -2.0898
   45CHL1   C24 3318   2.384   4.663   7.749 -0.3467 -0.1718  0.4575
   45CHL1  H24A 3319   2.336   4.757   7.785 -0.7951  0.3195 -1.2957
   45CHL1  H24B 3320   2.304   4.617   7.687 -0.2056 -0.7384  0.6949
   45CHL1   C25 3321   2.414   4.569   7.869 -0.0267 -0.1328  1.0363
   45CHL1   H25 3322   2.473   4.605   7.956 -1.4012 -3.5218  3.6227
   45CHL1   C26 3323   2.279   4.532   7.928  0.0298  0.1062 -0.3745
   45CHL1  H26A 3324   2.200   4.522   7.850  2.1950  0.1748 -2.7319
   45CHL1  H26B 3325   2.275   4.447   7.999 -3.3862 -0.3221 -0.9312
   45CHL1  H26C 3326   2.255   4.625   7.983 -0.7942  0.7273 -1.7417
   45CHL1   C27 3327   2.478   4.436   7.823 -0.0018 -0.2352  0.3737
   45CHL1  H27A 3328   2.392   4.386   7.774 -1.2502 -0.9189  3.0767
   45CHL1  H27B 3329   2.558   4.450   7.747  0.5499 -0.9580  0.8057
   45CHL1  H27C 3330   2.501   4.358   7.899  1.6410 -1.6250 -1.4307
   46CHL1    C3 3331   1.757   5.939   7.041  0.0355 -0.3784  0.0100
   46CHL1    H3 3332   1.742   6.045   7.073 -0.5526 -0.9898  1.9351
   46CHL1    O3 3333   1.734   5.930   6.899 -0.0453  0.2968  0.0395
   46CHL1   H3' 3334   1.742   5.837   6.873 -0.8815  0.6896 -1.8066
   46CHL1    C4 3335   1.894   5.897   7.079 -0.5788 -0.3049  0.1380
   46CHL1   H4A 3336   1.907   5.788   7.068 -3.0834 -0.6076 -0.4110
   46CHL1   H4B 3337   1.972   5.948   7.018 -0.0343  0.0767  1.1390
   46CHL1    C5 3338   1.912   5.925   7.220  0.2449 -0.7928 -0.0008
   46CHL1    C6 3339   2.015   6.007   7.271  0.9612  0.3273 -0.2701
   46CHL1    H6 3340   2.087   6.048   7.199  0.5055  2.4483  0.4185
   46CHL1    C7 3341   2.039   6.036   7.416 -0.3595 -0.4155  0.3988
   46CHL1   H7A 3342   2.145   6.013   7.441  0.3233  0.0466 -1.8898
   46CHL1   H7B 3343   2.020   6.145   7.421 -0.5742 -0.0446 -4.2956
   46CHL1    C8 3344   1.951   5.942   7.510  0.1668 -0.4254 -0.1112
   46CHL1    H8 3345   1.994   5.839   7.512 -0.6421 -0.7688  0.1716
   46CHL1   C14 3346   1.945   6.006   7.641 -1.1503  0.7681 -0.4030
   46CHL1   H14 3347   1.893   6.101   7.614 -1.1605  0.8291 -0.1741
   46CHL1   C15 3348   2.082   6.048   7.702  0.3957 -0.0940  0.2159
   46CHL1  H15A 3349   2.154   5.964   7.712  0.3259 -0.0915  0.7960
   46CHL1  H15B 3350   2.125   6.140   7.658 -0.5662  0.6108  0.6867
   46CHL1   C16 3351   2.042   6.070   7.853  0.3464  0.4356  0.1538
   46CHL1  H16A 3352   2.115   6.001   7.903 -0.2962 -0.2636  0.1494
   46CHL1  H16B 3353   2.064   6.174   7.885 -3.3394  1.4552 -0.2374
   46CHL1   C17 3354   1.891   6.031   7.871 -0.0570  1.0562  0.1680
   46CHL1   H17 3355   1.836   6.125   7.848 -0.2301  0.8943 -0.0939
   46CHL1   C13 3356   1.866   5.932   7.752  0.3344  0.4038  0.8878
   46CHL1   C18 3357   1.918   5.788   7.790 -0.1743  0.4653 -0.5338
   46CHL1  H18A 3358   2.024   5.802   7.820 -0.7430  1.0541  1.3724
   46CHL1  H18B 3359   1.864   5.741   7.875 -0.6955  0.1772 -1.0167
   46CHL1  H18C 3360   1.907   5.728   7.697 -0.0046  1.2427 -1.0713
   46CHL1   C12 3361   1.727   5.918   7.707  0.6183  0.1551  0.0525
   46CHL1  H12A 3362   1.667   5.848   7.768  0.5474 -0.1942 -0.4081
   46CHL1  H12B 3363   1.681   6.019   7.708  1.9766  0.7869  0.2321
   46CHL1   C11 3364   1.720   5.857   7.565  0.1004 -0.5890 -0.3866
   46CHL1  H11A 3365   1.740   5.750   7.590  0.7111  0.0751  2.2688
   46CHL1  H11B 3366   1.615   5.854   7.529 -0.0207  0.8920 -0.2203
   46CHL1    C9 3367   1.812   5.928   7.456  0.1142 -0.1167 -0.0071
   46CHL1    H9 3368   1.773   6.031   7.442 -0.1678 -0.3138 -0.7161
   46CHL1   C10 3369   1.805   5.860   7.312  0.0119 -0.4514 -0.6050
   46CHL1   C19 3370   1.830   5.707   7.326  0.8249 -0.2229  0.0988
   46CHL1  H19A 3371   1.758   5.677   7.404  2.1375  0.4537  1.6300
   46CHL1  H19B 3372   1.807   5.640   7.240 -0.1447 -0.4215  0.5043
   46CHL1  H19C 3373   1.935   5.687   7.355  1.2438 -1.6321 -2.1411
   46CHL1    C1 3374   1.660   5.876   7.263  0.3030 -0.1977  0.0315
   46CHL1   H1A 3375   1.599   5.796   7.310  0.5170 -0.7310 -0.5820
   46CHL1   H1B 3376   1.612   5.974   7.285  1.0009 -0.1691  1.5664
   46CHL1    C2 3377   1.659   5.850   7.115  0.2064  0.4337  0.1815
   46CHL1   H2A 3378   1.556   5.869   7.081  0.4417 -0.6576 -1.2493
   46CHL1   H2B 3379   1.692   5.744   7.100  0.0039  0.0981  1.8862
   46CHL1   C20 3380   1.859   5.990   8.016  0.5004  0.1317 -0.5001
   46CHL1   H20 3381   1.910   5.894   8.041  0.8534  0.4720  0.0959
   46CHL1   C21 3382   1.711   5.965   8.042 -0.3411 -0.0990  0.0901
   46CHL1  H21A 3383   1.652   6.059   8.036  0.5319  0.4032 -1.0489
   46CHL1  H21B 3384   1.699   5.927   8.146 -1.5374 -0.1613 -0.0466
   46CHL1  H21C 3385   1.666   5.896   7.967  2.4789 -1.3277 -0.5774
   46CHL1   C22 3386   1.913   6.107   8.108 -0.1463  0.3334 -0.2285
   46CHL1  H22A 3387   2.023   6.101   8.092 -0.3852  2.6690 -3.9011
   46CHL1  H22B 3388   1.877   6.209   8.084  1.3798  1.1239  0.6299
   46CHL1   C23 3389   1.888   6.079   8.260 -0.1971  0.2862 -0.0458
   46CHL1  H23A 3390   1.934   6.152   8.329 -2.0204 -1.0996  2.8828
   46CHL1  H23B 3391   1.779   6.084   8.284  0.1103  2.0996  1.1867
   46CHL1   C24 3392   1.946   5.944   8.307  0.8358  0.1560 -0.6662
   46CHL1  H24A 3393   1.916   5.863   8.237  0.8755 -0.5063  0.0785
   46CHL1  H24B 3394   2.056   5.933   8.299  1.0551  1.6036  0.0983
   46CHL1   C25 3395   1.911   5.898   8.455  0.0418 -0.1549 -0.6518
   46CHL1   H25 3396   1.806   5.932   8.469  0.1888  0.1038 -0.1486
   46CHL1   C26 3397   1.908   5.742   8.471 -1.0159 -0.5424 -0.3152
   46CHL1  H26A 3398   1.848   5.698   8.389  0.3345 -0.2942 -1.4792
   46CHL1  H26B 3399   2.007   5.692   8.474  0.3064  1.9018 -0.7140
   46CHL1  H26C 3400   1.851   5.724   8.565 -0.5045 -1.4374 -0.1655
   46CHL1   C27 3401   2.004   5.971   8.548  0.1085  0.0847  0.0660
   46CHL1  H27A 3402   2.022   6.076   8.517  0.2890 -0.1087 -0.4952
   46CHL1  H27B 3403   1.976   5.976   8.655  1.5604  1.2336  0.4199
   46CHL1  H27C 3404   2.105   5.927   8.542 -0.8466 -2.0649 -2.7361
   47CHL1    C3 3405   0.804   5.385   6.568  0.3692  0.5373 -0.2118
   47CHL1    H3 3406   0.721   5.450   6.601 -0.9464 -1.5800  0.8619
   47CHL1    O3 3407   0.782   5.332   6.437 -0.3613 -0.2580  0.3695
   47CHL1   H3' 3408   0.782   5.408   6.378 -0.6584  1.7401  2.7661
   47CHL1    C4 3409   0.945   5.456   6.576 -0.2682  0.1400 -0.3109
   47CHL1   H4A 3410   1.010   5.380   6.527 -0.5403 -0.2435 -0.0837
   47CHL1   H4B 3411   0.948   5.544   6.509  2.6653  0.5459  0.2307
   47CHL1    C5 3412   1.007   5.490   6.705 -0.2646 -0.3099 -0.4143
   47CHL1    C6 3413   1.062   5.613   6.729  0.8068  0.2937 -0.2990
   47CHL1    H6 3414   1.055   5.689   6.649 -2.9026 -0.9223 -1.3356
   47CHL1    C7 3415   1.140   5.633   6.863  0.3215 -0.9329  0.1206
   47CHL1   H7A 3416   1.240   5.676   6.840 -0.4778  0.6797 -0.4696
   47CHL1   H7B 3417   1.090   5.702   6.934  1.3697  0.3581 -0.3510
   47CHL1    C8 3418   1.162   5.500   6.948 -0.6207 -0.5675  0.2094
   47CHL1    H8 3419   1.254   5.452   6.909  0.3238 -0.2178  1.8932
   47CHL1   C14 3420   1.196   5.552   7.086 -0.5928  0.1360 -0.1481
   47CHL1   H14 3421   1.104   5.602   7.124 -1.0850  0.5308 -1.7701
   47CHL1   C15 3422   1.305   5.652   7.096  0.1523 -0.3780  0.2718
   47CHL1  H15A 3423   1.381   5.634   7.017 -1.6522 -0.7911 -1.4269
   47CHL1  H15B 3424   1.263   5.755   7.094  1.8147  0.3875  1.7834
   47CHL1   C16 3425   1.362   5.633   7.237  0.0326 -0.0051  0.1439
   47CHL1  H16A 3426   1.469   5.606   7.242 -0.4287 -1.7314  2.0417
   47CHL1  H16B 3427   1.364   5.728   7.295 -0.9735  1.5492 -2.2002
   47CHL1   C17 3428   1.264   5.530   7.306 -0.2851  0.3984  0.4894
   47CHL1   H17 3429   1.173   5.585   7.338 -0.3086 -0.4594  2.0029
   47CHL1   C13 3430   1.217   5.439   7.190 -0.1419  0.2901  0.4356
   47CHL1   C18 3431   1.340   5.351   7.143  1.0174 -0.2239 -0.7067
   47CHL1  H18A 3432   1.347   5.260   7.206 -1.2973 -0.5120 -0.7950
   47CHL1  H18B 3433   1.333   5.308   7.041  0.2136 -1.6585 -0.0801
   47CHL1  H18C 3434   1.437   5.405   7.151  1.1747 -0.7020  1.1404
   47CHL1   C12 3435   1.086   5.358   7.194  0.2904  0.7964 -0.8868
   47CHL1  H12A 3436   1.090   5.276   7.269  2.4738  2.3091  0.7541
   47CHL1  H12B 3437   1.016   5.436   7.231  0.9205  1.6144 -1.3907
   47CHL1   C11 3438   1.050   5.302   7.053  0.2953  0.2584 -0.4284
   47CHL1  H11A 3439   1.128   5.229   7.022  2.3124  1.7385  0.9452
   47CHL1  H11B 3440   0.951   5.252   7.063  0.6078 -0.0622  1.5097
   47CHL1    C9 3441   1.041   5.411   6.945 -0.5363  0.4738  0.2455
   47CHL1    H9 3442   0.955   5.475   6.974 -1.7885 -1.4245  0.9549
   47CHL1   C10 3443   1.002   5.360   6.805 -0.9979 -0.4906 -0.1800
   47CHL1   C19 3444   1.113   5.261   6.755  0.2103 -0.6170  0.0324
   47CHL1  H19A 3445   1.208   5.319   6.755  0.5127 -1.1078 -0.0372
   47CHL1  H19B 3446   1.122   5.164   6.808 -3.3651 -1.2011 -0.1997
   47CHL1  H19C 3447   1.089   5.232   6.650  1.8655 -3.9606  0.4601
   47CHL1    C1 3448   0.871   5.285   6.801 -0.0574 -0.5635  0.6890
   47CHL1   H1A 3449   0.889   5.190   6.857  1.6158 -0.8159 -0.1961
   47CHL1   H1B 3450   0.793   5.344   6.854 -0.4176 -1.5535  1.2897
   47CHL1    C2 3451   0.806   5.262   6.660  0.5882  0.6028 -0.4663
   47CHL1   H2A 3452   0.704   5.217   6.668  0.4421  0.8820 -0.7659
   47CHL1   H2B 3453   0.866   5.188   6.602 -1.2352 -0.6859 -0.7971
   47CHL1   C20 3454   1.308   5.476   7.444 -0.1240 -1.0476  0.3538
   47CHL1   H20 3455   1.414   5.445   7.440 -0.0026 -0.5408 -0.5399
   47CHL1   C21 3456   1.237   5.353   7.477  0.4344  0.7816  0.1185
   47CHL1  H21A 3457   1.260   5.276   7.402  0.1311  1.5137 -0.7427
   47CHL1  H21B 3458   1.126   5.365   7.474  0.3614 -0.0474 -0.5032
   47CHL1  H21C 3459   1.254   5.308   7.577  5.2417 -2.2140 -1.7248
   47CHL1   C22 3460   1.292   5.587   7.556  0.6218  0.4804  0.3539
   47CHL1  H22A 3461   1.323   5.686   7.517  0.9537 -0.7004 -2.6762
   47CHL1  H22B 3462   1.182   5.591   7.566  0.6614  1.6408  0.4498
   47CHL1   C23 3463   1.352   5.563   7.692  0.1497  0.0234 -0.5071
   47CHL1  H23A 3464   1.326   5.460   7.727  1.2068  0.1624  0.7476
   47CHL1  H23B 3465   1.461   5.556   7.672 -0.2801 -2.6436 -2.5341
   47CHL1   C24 3466   1.320   5.665   7.800  0.3009  0.8117 -0.1246
   47CHL1  H24A 3467   1.355   5.766   7.772 -0.8274  0.9399 -1.1952
   47CHL1  H24B 3468   1.210   5.661   7.818  0.2604 -2.5710 -0.4237
   47CHL1   C25 3469   1.378   5.627   7.936  0.6884 -0.1147 -0.3995
   47CHL1   H25 3470   1.483   5.596   7.923  0.1584 -1.5455 -1.5080
   47CHL1   C26 3471   1.372   5.749   8.026  0.2145 -0.1262 -0.0230
   47CHL1  H26A 3472   1.267   5.780   8.040 -0.2210 -2.3210  2.2087
   47CHL1  H26B 3473   1.405   5.713   8.126  0.2114 -0.0937 -0.0102
   47CHL1  H26C 3474   1.433   5.832   7.986  0.8423  0.3256  1.7825
   47CHL1   C27 3475   1.306   5.503   7.993  0.4901 -0.9613 -0.0036
   47CHL1  H27A 3476   1.338   5.498   8.099 -0.8448 -1.4860  0.3902
   47CHL1  H27B 3477   1.196   5.511   7.982  0.3669 -0.3913  1.4565
   47CHL1  H27C 3478   1.340   5.415   7.935  2.5968  0.6399 -1.3331
   48CHL1    C3 3479   4.678   0.896   6.342 -0.6711  0.0888  0.3272
   48CHL1    H3 3480   4.782   0.918   6.308 -0.9004  0.8909  0.1183
   48CHL1    O3 3481   4.604   0.845   6.234  0.3407 -0.2851 -0.2376
   48CHL1   H3' 3482   4.553   0.917   6.196  1.4954 -0.1040 -1.5323
   48CHL1    C4 3483   4.681   0.779   6.439  0.0934  0.3066  0.6268
   48CHL1   H4A 3484   4.578   0.754   6.473 -1.1687  1.7077 -1.8824
   48CHL1   H4B 3485   4.711   0.691   6.378 -1.5279  1.2209 -1.6132
   48CHL1    C5 3486   4.772   0.807   6.560  0.8929 -0.0421  0.0235
   48CHL1    C6 3487   4.876   0.730   6.582 -0.0542  0.6635 -0.1122
   48CHL1    H6 3488   4.897   0.642   6.520  1.3541  0.4607  0.6159
   48CHL1    C7 3489   4.963   0.753   6.698  0.1797  0.1144  0.2103
   48CHL1   H7A 3490   4.975   0.655   6.747 -0.2206 -1.3168 -2.3516
   48CHL1   H7B 3491   5.064   0.790   6.668 -0.4586  0.9229 -1.0490
   48CHL1    C8 3492   4.904   0.851   6.798  0.4344 -0.2766 -0.3482
   48CHL1    H8 3493   4.822   0.799   6.851  1.2466 -0.1036  1.1109
   48CHL1   C14 3494   5.004   0.895   6.908  0.0159  0.5130 -0.2814
   48CHL1   H14 3495   5.079   0.950   6.846  0.2800  0.1967 -0.2467
   48CHL1   C15 3496   5.085   0.796   6.981  0.2482 -0.3357 -0.7086
   48CHL1  H15A 3497   5.020   0.718   7.027  0.4367 -0.2422 -0.2813
   48CHL1  H15B 3498   5.155   0.735   6.920 -0.0522 -1.7025  0.2605
   48CHL1   C16 3499   5.146   0.870   7.102  0.6645  0.3347  0.6933
   48CHL1  H16A 3500   5.113   0.811   7.190 -2.0611 -0.4530 -0.7564
   48CHL1  H16B 3501   5.257   0.873   7.102  0.6501  2.1339  0.1323
   48CHL1   C17 3502   5.074   1.005   7.106 -0.5629  0.3083  0.6761
   48CHL1   H17 3503   5.148   1.078   7.067 -0.0292  0.1097  1.2901
   48CHL1   C13 3504   4.957   0.998   7.009  0.7328  0.0126 -0.1207
   48CHL1   C18 3505   4.841   0.933   7.089 -0.5313 -0.0335  0.3599
   48CHL1  H18A 3506   4.767   0.893   7.017  0.6761  1.9601 -2.1520
   48CHL1  H18B 3507   4.868   0.844   7.150  1.5330 -0.7600 -1.4619
   48CHL1  H18C 3508   4.804   1.011   7.158 -0.1120 -0.0272  0.5845
   48CHL1   C12 3509   4.919   1.124   6.926  0.0596  0.0323 -0.3591
   48CHL1  H12A 3510   4.887   1.205   6.995 -0.7423 -0.6687  0.1147
   48CHL1  H12B 3511   5.015   1.154   6.879  0.5265 -1.1458 -0.2141
   48CHL1   C11 3512   4.817   1.106   6.818 -0.0745 -0.2037  0.4404
   48CHL1  H11A 3513   4.719   1.083   6.866  0.2124  0.1670  1.2358
   48CHL1  H11B 3514   4.802   1.191   6.748  2.7415  3.1061  3.4372
   48CHL1    C9 3515   4.844   0.979   6.728 -0.2707  0.5104  0.3350
   48CHL1    H9 3516   4.930   1.005   6.663 -1.2041 -0.9476 -1.5851
   48CHL1   C10 3517   4.731   0.941   6.633  0.0726  0.3181 -0.5799
   48CHL1   C19 3518   4.598   0.928   6.713  0.1715 -0.3330  0.0984
   48CHL1  H19A 3519   4.534   0.863   6.650  0.2988  0.5484 -0.9700
   48CHL1  H19B 3520   4.611   0.881   6.813  1.7062  0.0576  0.1190
   48CHL1  H19C 3521   4.555   1.029   6.725  2.9230  0.8797  0.6509
   48CHL1    C1 3522   4.708   1.051   6.527 -0.0115 -0.5194  0.3192
   48CHL1   H1A 3523   4.666   1.145   6.569 -1.7739 -1.2822  0.3379
   48CHL1   H1B 3524   4.810   1.063   6.484 -0.3774 -0.4302 -0.5599
   48CHL1    C2 3525   4.631   1.024   6.394 -0.2978  0.1710  0.0089
   48CHL1   H2A 3526   4.635   1.110   6.323  0.9979  0.8814  0.9025
   48CHL1   H2B 3527   4.524   1.017   6.424  0.2651 -1.8686  1.8319
   48CHL1   C20 3528   5.062   1.057   7.251  0.1214 -0.1300  0.1267
   48CHL1   H20 3529   4.988   0.988   7.296  1.2757 -2.1056 -0.8937
   48CHL1   C21 3530   5.008   1.202   7.251  0.9360 -0.0304  0.6550
   48CHL1  H21A 3531   4.997   1.230   7.358  0.6812 -1.1353  0.9355
   48CHL1  H21B 3532   4.901   1.215   7.222  0.4746  3.2519  3.2677
   48CHL1  H21C 3533   5.066   1.278   7.195  2.9604 -1.9794 -0.0104
   48CHL1   C22 3534   5.193   1.049   7.333  0.5060 -0.6683 -0.6794
   48CHL1  H22A 3535   5.235   0.946   7.324  0.4196 -0.6485 -1.3821
   48CHL1  H22B 3536   5.269   1.108   7.279 -0.7188  0.4743 -1.2026
   48CHL1   C23 3537   5.181   1.082   7.482  1.0392 -0.0036 -0.0974
   48CHL1  H23A 3538   5.272   1.045   7.535 -0.2304 -1.6321  1.0490
   48CHL1  H23B 3539   5.155   1.188   7.504 -1.8253 -0.7285  0.3548
   48CHL1   C24 3540   5.069   0.999   7.553  0.7672  0.3944 -0.0001
   48CHL1  H24A 3541   4.975   1.041   7.512  0.4918 -2.0245 -2.0939
   48CHL1  H24B 3542   5.074   0.896   7.513 -1.2950  0.8572 -1.6319
   48CHL1   C25 3543   5.058   0.997   7.711  0.5877 -0.6754  0.5538
   48CHL1   H25 3544   4.972   0.927   7.721  0.3632 -0.0378  5.0954
   48CHL1   C26 3545   5.188   0.967   7.788  0.3660 -0.5330  0.6073
   48CHL1  H26A 3546   5.236   0.880   7.738  2.6688 -0.0038  1.7670
   48CHL1  H26B 3547   5.260   1.051   7.774 -1.5630  1.2161  0.6568
   48CHL1  H26C 3548   5.176   0.948   7.896  2.2230 -0.0392  0.9372
   48CHL1   C27 3549   4.996   1.127   7.767 -0.1399 -0.1924 -0.2955
   48CHL1  H27A 3550   4.968   1.105   7.872 -1.2280 -0.0342 -0.5395
   48CHL1  H27B 3551   5.045   1.226   7.758 -1.2075  0.2858 -1.0257
   48CHL1  H27C 3552   4.895   1.141   7.722 -1.3600 -1.8320  1.7245
   49CHL1    C3 3553   3.817   2.348   6.746  0.2921 -0.0949  0.3126
   49CHL1    H3 3554   3.736   2.424   6.743  0.1474 -0.1966  1.2993
   49CHL1    O3 3555   3.849   2.298   6.612 -0.1346 -0.5060  0.0738
   49CHL1   H3' 3556   3.825   2.368   6.550  0.3416 -1.5219 -1.2865
   49CHL1    C4 3557   3.942   2.428   6.796  0.1246  0.5884  0.0810
   49CHL1   H4A 3558   4.035   2.367   6.792 -0.3257 -0.0429 -1.7773
   49CHL1   H4B 3559   3.957   2.511   6.722  1.3022 -1.1301 -1.7166
   49CHL1    C5 3560   3.909   2.479   6.936 -0.0446  0.0764  0.3906
   49CHL1    C6 3561   3.923   2.613   6.966  0.0041 -0.1022 -1.0103
   49CHL1    H6 3562   3.969   2.685   6.896 -0.6498  2.7716  1.3376
   49CHL1    C7 3563   3.913   2.661   7.112 -0.4040  0.0042  0.0945
   49CHL1   H7A 3564   4.002   2.727   7.126  0.6552 -0.8806 -1.9606
   49CHL1   H7B 3565   3.827   2.724   7.141 -0.1237 -0.6740  2.6645
   49CHL1    C8 3566   3.910   2.547   7.213 -0.1915  0.1571 -0.1276
   49CHL1    H8 3567   4.014   2.516   7.237 -0.5703 -2.4646 -1.6008
   49CHL1   C14 3568   3.851   2.597   7.347 -0.1324  0.1209 -0.0358
   49CHL1   H14 3569   3.746   2.625   7.324 -0.7416 -1.1505  1.0423
   49CHL1   C15 3570   3.914   2.723   7.406  1.0948 -0.5396  0.3512
   49CHL1  H15A 3571   4.024   2.721   7.393  1.2728 -0.7123  1.7369
   49CHL1  H15B 3572   3.883   2.819   7.359  3.0806 -1.0738 -2.2866
   49CHL1   C16 3573   3.865   2.717   7.554 -0.3086  0.8998  0.6865
   49CHL1  H16A 3574   3.955   2.716   7.620  0.0058 -0.7444  0.2852
   49CHL1  H16B 3575   3.801   2.805   7.578 -1.4732  0.2677 -0.0289
   49CHL1   C17 3576   3.781   2.587   7.570 -0.8882 -0.0040 -0.2232
   49CHL1   H17 3577   3.674   2.614   7.553 -1.1188 -0.9568 -0.3422
   49CHL1   C13 3578   3.831   2.493   7.459 -0.3930 -0.0455  0.6163
   49CHL1   C18 3579   3.970   2.435   7.497  0.5995  0.1793 -0.2765
   49CHL1  H18A 3580   4.036   2.518   7.532  1.6239 -0.8011  0.1665
   49CHL1  H18B 3581   3.961   2.350   7.568  1.4588 -2.6902 -3.3316
   49CHL1  H18C 3582   4.008   2.388   7.404 -0.5461 -0.9435 -0.2074
   49CHL1   C12 3583   3.750   2.369   7.411 -0.1153 -0.1656  0.0937
   49CHL1  H12A 3584   3.738   2.282   7.480  1.6355  0.3141  1.0727
   49CHL1  H12B 3585   3.647   2.404   7.391  0.2718  0.7005 -0.4560
   49CHL1   C11 3586   3.796   2.316   7.272  0.1160  0.0459 -0.0249
   49CHL1  H11A 3587   3.892   2.262   7.291  0.1114  0.0928  0.1301
   49CHL1  H11B 3588   3.716   2.242   7.250  2.2417 -1.7412 -2.3587
   49CHL1    C9 3589   3.828   2.425   7.172  0.0388 -0.6143  0.1093
   49CHL1    H9 3590   3.721   2.449   7.155  0.3540 -1.1071 -3.1565
   49CHL1   C10 3591   3.871   2.366   7.042  0.8603 -0.4358 -0.6627
   49CHL1   C19 3592   3.988   2.262   7.069 -0.0094 -0.2539  0.9696
   49CHL1  H19A 3593   4.068   2.315   7.125  0.2175 -0.1887  0.5882
   49CHL1  H19B 3594   3.954   2.169   7.120 -1.7426 -1.2952 -1.8688
   49CHL1  H19C 3595   4.020   2.231   6.967 -3.9713  0.5578 -0.6816
   49CHL1    C1 3596   3.752   2.284   6.979 -0.2701 -0.0687  0.1686
   49CHL1   H1A 3597   3.754   2.195   7.045 -0.4967 -0.6229 -0.5569
   49CHL1   H1B 3598   3.658   2.343   6.989 -2.8315 -3.6748 -0.7475
   49CHL1    C2 3599   3.773   2.236   6.840 -0.3033  0.3562  0.1783
   49CHL1   H2A 3600   3.683   2.179   6.809 -0.3982  1.8092 -2.5347
   49CHL1   H2B 3601   3.858   2.165   6.840 -1.3120 -0.9562 -1.6452
   49CHL1   C20 3602   3.796   2.533   7.718 -0.1678 -0.7331  0.3306
   49CHL1   H20 3603   3.905   2.532   7.740 -0.1732  3.9981  1.6360
   49CHL1   C21 3604   3.719   2.407   7.728 -0.2115 -0.0955 -0.0539
   49CHL1  H21A 3605   3.622   2.411   7.674 -0.5282 -1.6614  0.3559
   49CHL1  H21B 3606   3.707   2.390   7.837  0.7322  0.5053  0.1593
   49CHL1  H21C 3607   3.781   2.319   7.700  1.5404  0.4859  1.7364
   49CHL1   C22 3608   3.752   2.637   7.825 -0.0084 -0.1254  0.0158
   49CHL1  H22A 3609   3.802   2.733   7.802  1.0950 -0.9927 -1.4297
   49CHL1  H22B 3610   3.643   2.655   7.829  0.2062  1.0358  1.4179
   49CHL1   C23 3611   3.784   2.602   7.978  1.2067  0.0872 -0.5971
   49CHL1  H23A 3612   3.701   2.546   8.027  0.0516  1.1964 -1.2362
   49CHL1  H23B 3613   3.877   2.541   7.985  2.6862  2.3847  1.6035
   49CHL1   C24 3614   3.806   2.730   8.061  0.2680  0.4406  0.2146
   49CHL1  H24A 3615   3.863   2.802   8.000 -0.4964  1.0265  0.1796
   49CHL1  H24B 3616   3.708   2.776   8.084 -0.8574 -1.4266 -0.5804
   49CHL1   C25 3617   3.881   2.700   8.192 -0.1595 -0.3130  0.5823
   49CHL1   H25 3618   3.987   2.675   8.168  0.3429  1.9670  0.2369
   49CHL1   C26 3619   3.895   2.827   8.270  0.3378 -0.3881 -0.3057
   49CHL1  H26A 3620   3.797   2.877   8.288  1.5331  1.3059  2.1094
   49CHL1  H26B 3621   3.936   2.816   8.372 -0.5652  1.2826  0.2851
   49CHL1  H26C 3622   3.939   2.903   8.201 -1.4113  0.4925 -0.5217
   49CHL1   C27 3623   3.826   2.588   8.276 -0.9296 -0.4952 -0.4496
   49CHL1  H27A 3624   3.910   2.565   8.344  0.2172  1.7635 -0.9998
   49CHL1  H27B 3625   3.735   2.616   8.334 -0.4112  0.4110 -0.0574
   49CHL1  H27C 3626   3.805   2.489   8.230 -0.8814 -1.6100  1.8237
   50CHL1    C3 3627   4.790   3.573   7.208  0.1869  0.0071 -0.0237
   50CHL1    H3 3628   4.770   3.464   7.201 -0.6842  0.1370  0.2879
   50CHL1    O3 3629   4.860   3.618   7.095 -0.0893 -0.3879 -0.1270
   50CHL1   H3' 3630   4.881   3.708   7.120  0.1315 -1.0161  2.1493
   50CHL1    C4 3631   4.664   3.658   7.220 -0.1675 -0.5132 -0.1323
   50CHL1   H4A 3632   4.695   3.764   7.224 -3.1852  0.4284  2.6306
   50CHL1   H4B 3633   4.597   3.652   7.132 -0.7093  0.9360  0.1661
   50CHL1    C5 3634   4.593   3.636   7.351  0.4455 -0.7440 -0.5135
   50CHL1    C6 3635   4.462   3.603   7.355 -0.8986  0.6301  0.5598
   50CHL1    H6 3636   4.398   3.603   7.266 -1.0063  0.0608  0.6324
   50CHL1    C7 3637   4.387   3.586   7.477 -1.2360  0.0353 -0.1615
   50CHL1   H7A 3638   4.295   3.647   7.463 -1.2951  0.4649  1.7993
   50CHL1   H7B 3639   4.367   3.477   7.484  1.5867 -0.5113  0.6862
   50CHL1    C8 3640   4.471   3.648   7.600 -0.7288  0.1106 -0.1701
   50CHL1    H8 3641   4.468   3.758   7.586 -0.1456  0.1118 -0.3210
   50CHL1   C14 3642   4.400   3.606   7.728 -1.2463 -0.5232  0.4349
   50CHL1   H14 3643   4.419   3.497   7.715  3.7575  0.1323  0.2421
   50CHL1   C15 3644   4.255   3.643   7.754  0.8206  0.6996  0.8033
   50CHL1  H15A 3645   4.233   3.750   7.732  0.0436  0.2299 -0.8657
   50CHL1  H15B 3646   4.188   3.580   7.692 -1.2123  2.7054  0.8172
   50CHL1   C16 3647   4.219   3.624   7.900 -0.2066  0.1328  0.8957
   50CHL1  H16A 3648   4.186   3.721   7.943  0.1677  1.2330 -1.1850
   50CHL1  H16B 3649   4.138   3.550   7.910  1.0546 -1.2468  1.2666
   50CHL1   C17 3650   4.354   3.576   7.956 -0.2993  0.0654 -0.6937
   50CHL1   H17 3651   4.352   3.465   7.949  0.9139 -0.0565  0.4880
   50CHL1   C13 3652   4.456   3.634   7.862  0.8144 -0.3475 -0.2833
   50CHL1   C18 3653   4.458   3.785   7.877  0.5531 -0.1440  0.0889
   50CHL1  H18A 3654   4.531   3.826   7.804 -0.2490 -0.4885 -0.9354
   50CHL1  H18B 3655   4.359   3.835   7.870  1.0167  1.2892  2.6643
   50CHL1  H18C 3656   4.512   3.821   7.967 -0.0625 -0.3781  0.5549
   50CHL1   C12 3657   4.599   3.577   7.865  0.0166  0.4808 -0.5168
   50CHL1  H12A 3658   4.648   3.611   7.959 -1.8722 -1.7609  1.4029
   50CHL1  H12B 3659   4.586   3.467   7.876  1.6354  0.3877  0.7701
   50CHL1   C11 3660   4.690   3.611   7.744 -0.1495  0.3335  0.1169
   50CHL1  H11A 3661   4.724   3.717   7.752  1.1081 -0.0876  0.6950
   50CHL1  H11B 3662   4.786   3.555   7.738 -0.1631  0.3980 -1.1302
   50CHL1    C9 3663   4.616   3.593   7.607  0.0333  0.7256  0.1381
   50CHL1    H9 3664   4.605   3.483   7.601  1.5868  0.4208  1.8590
   50CHL1   C10 3665   4.688   3.644   7.475  0.4129 -0.5692 -0.0940
   50CHL1   C19 3666   4.736   3.791   7.493  0.3626 -0.7121 -0.3466
   50CHL1  H19A 3667   4.814   3.801   7.572  0.8684  0.7075 -1.0003
   50CHL1  H19B 3668   4.777   3.832   7.398  0.2917  0.9123  0.2945
   50CHL1  H19C 3669   4.653   3.855   7.530  0.9657 -0.6283  0.9127
   50CHL1    C1 3670   4.815   3.560   7.452  0.0354  0.3913 -0.0091
   50CHL1   H1A 3671   4.884   3.579   7.537 -0.3941  1.4347  0.1243
   50CHL1   H1B 3672   4.783   3.454   7.450  1.1088  0.0609 -0.5457
   50CHL1    C2 3673   4.888   3.589   7.326  0.7702 -0.2361  0.0306
   50CHL1   H2A 3674   4.968   3.513   7.311 -1.1561 -2.3529 -0.0650
   50CHL1   H2B 3675   4.927   3.693   7.329 -0.8837  0.4038  1.6847
   50CHL1   C20 3676   4.371   3.605   8.107  0.0834 -0.2233 -0.2233
   50CHL1   H20 3677   4.401   3.711   8.120  1.2652 -0.1540 -2.7083
   50CHL1   C21 3678   4.477   3.512   8.176 -0.0109  0.4180  0.4860
   50CHL1  H21A 3679   4.478   3.405   8.145 -0.3855  0.5139  0.1346
   50CHL1  H21B 3680   4.471   3.510   8.287 -0.5680 -0.8699  0.4538
   50CHL1  H21C 3681   4.579   3.554   8.163  0.1159  0.4942  1.5655
   50CHL1   C22 3682   4.233   3.590   8.182 -0.1514  0.9886 -0.6412
   50CHL1  H22A 3683   4.249   3.609   8.290 -1.9732  0.8752 -0.3226
   50CHL1  H22B 3684   4.145   3.652   8.153 -2.0190  0.1875  2.8000
   50CHL1   C23 3685   4.185   3.439   8.169 -0.3003  0.2815  0.0536
   50CHL1  H23A 3686   4.166   3.413   8.062  2.0471  1.5879 -0.7548
   50CHL1  H23B 3687   4.271   3.381   8.208 -0.6001 -2.1454 -2.5076
   50CHL1   C24 3688   4.060   3.395   8.243 -0.2639  1.0223 -0.1589
   50CHL1  H24A 3689   4.070   3.410   8.353  1.3297 -0.9459  0.0158
   50CHL1  H24B 3690   3.984   3.471   8.213  0.0378  1.2777 -0.2897
   50CHL1   C25 3691   4.031   3.249   8.215 -0.2804  0.3383 -0.6000
   50CHL1   H25 3692   4.035   3.230   8.106 -0.1522 -0.1816 -0.5059
   50CHL1   C26 3693   4.123   3.156   8.290 -0.6258  0.3456  0.3360
   50CHL1  H26A 3694   4.119   3.049   8.261  1.7659  0.4171 -0.4724
   50CHL1  H26B 3695   4.226   3.190   8.268 -0.2652 -0.0470  1.3787
   50CHL1  H26C 3696   4.108   3.162   8.400 -1.5596  0.5830  0.2128
   50CHL1   C27 3697   3.891   3.210   8.277 -0.1155  0.0853 -0.3992
   50CHL1  H27A 3698   3.822   3.266   8.210 -1.9570 -0.6499  0.7874
   50CHL1  H27B 3699   3.874   3.100   8.270 -1.4637  0.2210  0.3343
   50CHL1  H27C 3700   3.886   3.236   8.384 -0.5834 -3.4239  0.5699
   51CHL1    C3 3701   4.996   2.478   6.809  0.2772  0.4876  0.4703
   51CHL1    H3 3702   4.905   2.414   6.808 -0.0185  0.8941  0.7304
   51CHL1    O3 3703   5.063   2.503   6.680  0.1518  0.0605  0.1526
   51CHL1   H3' 3704   5.015   2.574   6.636  0.3359  1.2003  1.7085
   51CHL1    C4 3705   4.952   2.618   6.864  0.4675 -0.6115  0.7715
   51CHL1   H4A 3706   5.032   2.691   6.842 -0.5306 -0.3384 -2.4456
   51CHL1   H4B 3707   4.865   2.645   6.800  1.1584  0.1206  0.1240
   51CHL1    C5 3708   4.913   2.625   7.011  1.1100  0.4947 -0.2869
   51CHL1    C6 3709   4.788   2.674   7.054  0.2368 -0.7643 -0.5116
   51CHL1    H6 3710   4.722   2.713   6.976  1.5124 -1.5660 -2.0667
   51CHL1    C7 3711   4.744   2.686   7.201  0.5324 -0.6672  0.1687
   51CHL1   H7A 3712   4.692   2.784   7.213 -0.0048 -0.5600 -2.4783
   51CHL1   H7B 3713   4.674   2.604   7.226 -0.9946  1.0289  1.8065
   51CHL1    C8 3714   4.870   2.670   7.299  0.1122 -0.6535  0.0298
   51CHL1    H8 3715   4.925   2.766   7.294 -1.6519  0.3689 -0.9469
   51CHL1   C14 3716   4.820   2.648   7.437 -0.0141  0.0545  0.5732
   51CHL1   H14 3717   4.758   2.557   7.422  0.5696 -0.3605  0.6322
   51CHL1   C15 3718   4.725   2.746   7.498  0.4776  0.3220 -0.2236
   51CHL1  H15A 3719   4.757   2.852   7.506 -0.0116  0.4162  0.5472
   51CHL1  H15B 3720   4.623   2.733   7.456  1.4107 -2.5207 -1.9221
   51CHL1   C16 3721   4.722   2.707   7.649  0.2598 -0.7019  0.0271
   51CHL1  H16A 3722   4.753   2.794   7.711 -0.1364  0.5425 -1.4693
   51CHL1  H16B 3723   4.624   2.681   7.695 -0.1888 -1.0837 -1.1136
   51CHL1   C17 3724   4.832   2.601   7.669 -0.1088  0.5151 -0.1561
   51CHL1   H17 3725   4.788   2.499   7.660  0.7512 -0.1775  2.3814
   51CHL1   C13 3726   4.924   2.615   7.548 -0.0065 -0.0872  0.3356
   51CHL1   C18 3727   5.017   2.735   7.563 -0.6657  0.2282 -0.1220
   51CHL1  H18A 3728   5.107   2.704   7.622 -0.7564 -0.0754 -0.1405
   51CHL1  H18B 3729   5.057   2.779   7.470 -1.1876  0.5261 -0.2046
   51CHL1  H18C 3730   4.970   2.815   7.624 -0.8117  0.4193 -0.4864
   51CHL1   C12 3731   5.000   2.487   7.505 -0.2325 -0.0849 -0.1938
   51CHL1  H12A 3732   5.078   2.458   7.578 -0.4357  1.3289  0.6215
   51CHL1  H12B 3733   4.922   2.408   7.509  1.1032 -1.4768 -0.6323
   51CHL1   C11 3734   5.060   2.503   7.359  0.2478 -0.1080  0.5062
   51CHL1  H11A 3735   5.140   2.579   7.374  1.4370 -0.9021 -1.4386
   51CHL1  H11B 3736   5.111   2.408   7.330 -0.7714  0.0505 -1.9850
   51CHL1    C9 3737   4.956   2.551   7.250 -0.2378  0.0796  0.5065
   51CHL1    H9 3738   4.883   2.468   7.243  0.3547 -0.7015  2.8543
   51CHL1   C10 3739   5.017   2.567   7.105  0.2292 -0.1212  0.2669
   51CHL1   C19 3740   5.139   2.676   7.110  0.5728  0.4899  0.2245
   51CHL1  H19A 3741   5.218   2.659   7.186 -0.1409  0.4441  0.9562
   51CHL1  H19B 3742   5.183   2.684   7.007 -1.4921  0.5491 -0.6938
   51CHL1  H19C 3743   5.092   2.773   7.135  0.6113  0.9063 -1.2181
   51CHL1    C1 3744   5.054   2.429   7.045 -0.4217  0.2985 -0.3132
   51CHL1   H1A 3745   5.136   2.382   7.102 -0.7899 -1.1505 -0.9454
   51CHL1   H1B 3746   4.957   2.376   7.058 -1.7318  3.0737  2.9324
   51CHL1    C2 3747   5.105   2.424   6.898 -0.4804  0.1207  0.0769
   51CHL1   H2A 3748   5.150   2.328   6.865 -0.5317  0.0766  0.1337
   51CHL1   H2B 3749   5.195   2.488   6.884  0.5383 -1.4791 -1.0310
   51CHL1   C20 3750   4.898   2.608   7.818 -0.4593  0.0832  0.1459
   51CHL1   H20 3751   4.944   2.709   7.829  1.3597 -0.6707 -0.1709
   51CHL1   C21 3752   5.006   2.492   7.835 -0.0932 -0.8884 -0.0903
   51CHL1  H21A 3753   5.039   2.483   7.941  1.1061 -0.3791 -0.4143
   51CHL1  H21B 3754   5.098   2.519   7.780  0.2066 -1.4374  0.1309
   51CHL1  H21C 3755   4.965   2.392   7.809 -0.1385 -1.1114  0.7874
   51CHL1   C22 3756   4.793   2.570   7.925  0.1645  0.4895 -0.4595
   51CHL1  H22A 3757   4.696   2.619   7.899  1.4455  3.2032 -0.5058
   51CHL1  H22B 3758   4.785   2.460   7.920  2.7335  0.0838  2.0189
   51CHL1   C23 3759   4.838   2.621   8.066  0.1274  0.4454  0.9985
   51CHL1  H23A 3760   4.911   2.548   8.106 -1.6970 -1.8330  0.3779
   51CHL1  H23B 3761   4.876   2.725   8.066 -0.9607  0.8533  0.8463
   51CHL1   C24 3762   4.719   2.604   8.151  0.6897 -0.3568 -0.2592
   51CHL1  H24A 3763   4.646   2.679   8.114  3.0571  1.5689 -1.2935
   51CHL1  H24B 3764   4.678   2.501   8.148  0.9049 -0.4666  0.4027
   51CHL1   C25 3765   4.753   2.632   8.298  0.7091  0.1799  0.0453
   51CHL1   H25 3766   4.847   2.581   8.328  1.3991  1.6365  0.4304
   51CHL1   C26 3767   4.778   2.779   8.323 -0.9090 -0.2421  0.7170
   51CHL1  H26A 3768   4.867   2.814   8.266 -2.7824  3.1119 -0.4239
   51CHL1  H26B 3769   4.698   2.845   8.284 -0.7746 -0.3334  0.2717
   51CHL1  H26C 3770   4.797   2.790   8.432 -1.7634  1.1035  0.7540
   51CHL1   C27 3771   4.644   2.583   8.391  0.1152  0.4101 -0.0405
   51CHL1  H27A 3772   4.659   2.630   8.490 -1.3440  1.3809 -0.2419
   51CHL1  H27B 3773   4.543   2.603   8.348 -1.6364 -2.5186  2.3379
   51CHL1  H27C 3774   4.653   2.473   8.402  0.0393  0.4483  0.3894
   52CHL1    C3 3775   6.634   3.100   7.060 -0.8490  0.7294  0.3175
   52CHL1    H3 3776   6.602   2.994   7.065 -0.2321  0.5441  0.3440
   52CHL1    O3 3777   6.642   3.142   6.924  0.0240 -0.0299  0.5809
   52CHL1   H3' 3778   6.564   3.194   6.906  0.7791  0.8002 -0.3975
   52CHL1    C4 3779   6.524   3.175   7.148  0.3296  0.4233  0.3917
   52CHL1   H4A 3780   6.541   3.283   7.130  2.0340 -0.1723 -2.1387
   52CHL1   H4B 3781   6.419   3.157   7.116  0.6306 -1.6585  0.4440
   52CHL1    C5 3782   6.539   3.142   7.296 -0.2261 -0.9630  0.8642
   52CHL1    C6 3783   6.445   3.097   7.375  0.3227 -0.2285 -0.2466
   52CHL1    H6 3784   6.349   3.083   7.324  0.0891 -0.9479  0.3747
   52CHL1    C7 3785   6.453   3.087   7.526 -0.1237 -0.1515  0.5229
   52CHL1   H7A 3786   6.357   3.125   7.567 -0.7229 -1.2888  0.2316
   52CHL1   H7B 3787   6.457   2.978   7.549 -3.7653 -0.4713  0.3067
   52CHL1    C8 3788   6.574   3.164   7.591  0.0368 -0.9646 -0.0375
   52CHL1    H8 3789   6.546   3.272   7.598  1.6772 -0.6161  2.3425
   52CHL1   C14 3790   6.597   3.118   7.735  0.3376 -0.2316  0.8274
   52CHL1   H14 3791   6.622   3.009   7.734 -0.1183 -0.4585 -3.2461
   52CHL1   C15 3792   6.473   3.129   7.834  1.0271  0.1607  0.1694
   52CHL1  H15A 3793   6.426   3.227   7.811 -2.9320 -1.7037 -0.5577
   52CHL1  H15B 3794   6.411   3.044   7.800  0.6584  0.7970 -0.8004
   52CHL1   C16 3795   6.540   3.109   7.971 -0.2605 -0.1500 -0.6987
   52CHL1  H16A 3796   6.515   3.194   8.038  0.8919 -1.3090  1.2971
   52CHL1  H16B 3797   6.515   3.013   8.021 -0.2225  0.0458 -0.2973
   52CHL1   C17 3798   6.698   3.132   7.949 -0.0270  0.0418  0.5408
   52CHL1   H17 3799   6.747   3.033   7.945 -0.5792 -0.2027 -1.1613
   52CHL1   C13 3800   6.706   3.195   7.800  0.2690  0.2249  0.2035
   52CHL1   C18 3801   6.678   3.343   7.806  0.2087  0.3117 -0.0080
   52CHL1  H18A 3802   6.764   3.403   7.844  0.0448  2.2013 -2.3451
   52CHL1  H18B 3803   6.671   3.388   7.704  0.2252 -2.0066 -1.0976
   52CHL1  H18C 3804   6.585   3.368   7.862  0.6260  0.6246  0.5552
   52CHL1   C12 3805   6.833   3.169   7.717  0.2395  0.1219 -0.7961
   52CHL1  H12A 3806   6.915   3.222   7.770 -0.5507 -1.2053  1.9083
   52CHL1  H12B 3807   6.850   3.059   7.721 -1.3791 -0.1590 -1.1955
   52CHL1   C11 3808   6.821   3.213   7.571  0.1450  0.9598 -0.4676
   52CHL1  H11A 3809   6.809   3.324   7.569 -0.0129  0.9376 -0.8845
   52CHL1  H11B 3810   6.923   3.192   7.532  0.8541  2.3439  0.5444
   52CHL1    C9 3811   6.703   3.145   7.507  0.2374 -0.1791  0.1573
   52CHL1    H9 3812   6.714   3.036   7.493 -3.6987 -0.8308  0.9223
   52CHL1   C10 3813   6.678   3.184   7.353  0.0227 -0.3893  0.4018
   52CHL1   C19 3814   6.690   3.336   7.328 -0.0324 -0.0962 -0.9067
   52CHL1  H19A 3815   6.607   3.381   7.385  0.6244  0.2520 -0.2040
   52CHL1  H19B 3816   6.788   3.373   7.366 -0.2677  1.2638 -1.5610
   52CHL1  H19C 3817   6.691   3.373   7.223 -1.3082 -0.0138 -0.8985
   52CHL1    C1 3818   6.790   3.106   7.267 -0.3316  0.2514 -0.1662
   52CHL1   H1A 3819   6.888   3.129   7.312 -1.2969  1.1683  1.5940
   52CHL1   H1B 3820   6.792   2.996   7.279  3.2317  0.1864 -0.4418
   52CHL1    C2 3821   6.777   3.121   7.116  0.6477  0.1176 -0.3677
   52CHL1   H2A 3822   6.850   3.053   7.067  0.1590 -0.2457 -0.5999
   52CHL1   H2B 3823   6.807   3.226   7.093  0.2418  0.3175 -0.0020
   52CHL1   C20 3824   6.765   3.229   8.053  0.7786 -0.3422  0.1122
   52CHL1   H20 3825   6.727   3.334   8.047 -0.5020 -0.8785 -2.4534
   52CHL1   C21 3826   6.914   3.219   8.034  0.6721 -0.1567 -0.0640
   52CHL1  H21A 3827   6.937   3.114   8.006 -1.6460 -1.2686  1.8790
   52CHL1  H21B 3828   6.977   3.239   8.124  1.3513  0.0234 -0.5703
   52CHL1  H21C 3829   6.938   3.298   7.960 -1.3757  0.2220 -0.3545
   52CHL1   C22 3830   6.729   3.188   8.203 -0.4097 -0.2561  1.2110
   52CHL1  H22A 3831   6.625   3.150   8.213 -0.5349 -1.1374 -2.1626
   52CHL1  H22B 3832   6.795   3.099   8.215  1.7176  1.3014  1.6085
   52CHL1   C23 3833   6.769   3.282   8.311  0.5511  0.1453 -0.1322
   52CHL1  H23A 3834   6.868   3.329   8.293  1.7685 -2.0721  0.3829
   52CHL1  H23B 3835   6.690   3.359   8.323  0.2063 -0.4058  1.2949
   52CHL1   C24 3836   6.778   3.202   8.444 -0.5266  0.0659  0.2176
   52CHL1  H24A 3837   6.679   3.200   8.493  0.3442 -0.0140  2.0687
   52CHL1  H24B 3838   6.822   3.101   8.428  2.0821  1.1550 -0.0445
   52CHL1   C25 3839   6.856   3.287   8.535 -0.4259 -0.4951  0.8251
   52CHL1   H25 3840   6.945   3.316   8.476 -0.4449 -3.2207 -0.6836
   52CHL1   C26 3841   6.780   3.420   8.564 -0.6653 -0.5798  0.5077
   52CHL1  H26A 3842   6.677   3.399   8.599 -0.2916  0.4091  2.2900
   52CHL1  H26B 3843   6.835   3.476   8.643 -1.0790  0.4783  0.0719
   52CHL1  H26C 3844   6.766   3.494   8.482 -1.1455  1.1006  2.0559
   52CHL1   C27 3845   6.887   3.219   8.667 -0.6279  0.5573  0.1664
   52CHL1  H27A 3846   6.790   3.178   8.701  1.2591 -2.8640  1.9783
   52CHL1  H27B 3847   6.955   3.131   8.660 -1.9076 -0.3620 -1.4772
   52CHL1  H27C 3848   6.928   3.289   8.743  0.6782 -0.8880  0.8467
   53CHL1    C3 3849   2.725   1.025   7.153  0.2845  0.0243 -0.2803
   53CHL1    H3 3850   2.788   0.936   7.176  0.5377  0.7871  2.3236
   53CHL1    O3 3851   2.750   1.064   7.019  0.6622 -0.1087  0.3603
   53CHL1   H3' 3852   2.841   1.095   7.009  0.5413  0.0056 -0.4889
   53CHL1    C4 3853   2.577   0.982   7.182 -0.0532 -0.4287 -0.0582
   53CHL1   H4A 3854   2.506   1.064   7.160 -1.1112 -0.5575  2.5893
   53CHL1   H4B 3855   2.553   0.900   7.110 -0.8046  0.7251 -1.1820
   53CHL1    C5 3856   2.551   0.945   7.332 -0.2613  0.0546 -0.9571
   53CHL1    C6 3857   2.497   0.821   7.365 -0.9164 -0.5920  0.5727
   53CHL1    H6 3858   2.461   0.766   7.277 -1.0806  0.5250 -0.0828
   53CHL1    C7 3859   2.459   0.790   7.505  0.3343  0.6662  0.1010
   53CHL1   H7A 3860   2.352   0.760   7.510  0.7255 -0.7428  0.8060
   53CHL1   H7B 3861   2.514   0.697   7.534 -0.4635 -0.5271 -2.0172
   53CHL1    C8 3862   2.480   0.901   7.612 -0.7955 -0.1828 -0.6024
   53CHL1    H8 3863   2.395   0.971   7.620 -0.6461 -0.1898  1.6702
   53CHL1   C14 3864   2.503   0.843   7.751 -0.1272  0.7312 -0.3632
   53CHL1   H14 3865   2.590   0.773   7.746 -1.1468 -0.7645  1.5068
   53CHL1   C15 3866   2.393   0.763   7.823  0.1407  0.1628 -0.6061
   53CHL1  H15A 3867   2.291   0.802   7.803 -0.5777 -1.4338 -0.1643
   53CHL1  H15B 3868   2.394   0.660   7.782  0.5865 -0.4336  0.8423
   53CHL1   C16 3869   2.436   0.751   7.965 -0.2204 -0.7281 -0.9587
   53CHL1  H16A 3870   2.350   0.784   8.028 -0.5229 -0.3654 -1.5544
   53CHL1  H16B 3871   2.464   0.645   7.983  0.3846 -1.2663 -4.3318
   53CHL1   C17 3872   2.556   0.844   7.987 -0.1984 -0.3728 -0.7228
   53CHL1   H17 3873   2.650   0.784   7.980  1.1670  1.6777 -1.0706
   53CHL1   C13 3874   2.551   0.940   7.860  0.0361 -0.5325 -0.5843
   53CHL1   C18 3875   2.449   1.053   7.899  0.3471  0.2899  0.5142
   53CHL1  H18A 3876   2.414   1.107   7.808 -1.2740 -0.8544  0.4069
   53CHL1  H18B 3877   2.358   1.023   7.957 -1.4597  1.1153 -1.7371
   53CHL1  H18C 3878   2.488   1.136   7.961 -0.1223  0.0920  1.0875
   53CHL1   C12 3879   2.681   1.002   7.823  0.9131 -0.0728  0.4493
   53CHL1  H12A 3880   2.715   1.080   7.895 -1.4469  0.8139  0.7218
   53CHL1  H12B 3881   2.765   0.932   7.806 -0.5418 -1.4237 -1.6336
   53CHL1   C11 3882   2.662   1.079   7.686 -0.3017  0.2863 -0.6387
   53CHL1  H11A 3883   2.585   1.159   7.692 -0.6067  0.4808 -4.4699
   53CHL1  H11B 3884   2.751   1.129   7.643  0.4765  0.0331  0.6375
   53CHL1    C9 3885   2.613   0.977   7.572  0.5175  0.1012  0.0772
   53CHL1    H9 3886   2.692   0.900   7.560  0.4034  0.1835 -1.3578
   53CHL1   C10 3887   2.608   1.045   7.435  0.6077  0.2720  0.2382
   53CHL1   C19 3888   2.509   1.154   7.433 -0.3360  0.0852 -0.6525
   53CHL1  H19A 3889   2.403   1.123   7.443 -0.4790  0.1072 -1.9474
   53CHL1  H19B 3890   2.544   1.231   7.504  3.0945 -0.9867 -0.9941
   53CHL1  H19C 3891   2.500   1.206   7.335  0.1518 -1.4213 -1.5309
   53CHL1    C1 3892   2.745   1.100   7.389  0.2123 -0.2336 -0.0682
   53CHL1   H1A 3893   2.766   1.192   7.448 -1.6494  0.8021 -0.9367
   53CHL1   H1B 3894   2.819   1.018   7.406  0.4014 -0.2248 -0.8153
   53CHL1    C2 3895   2.769   1.137   7.248  0.0176  0.4032  0.0013
   53CHL1   H2A 3896   2.873   1.166   7.221  0.0292  0.0213 -0.3791
   53CHL1   H2B 3897   2.691   1.210   7.218 -1.5496 -1.4894 -0.7557
   53CHL1   C20 3898   2.570   0.906   8.124  0.4485 -0.0925 -0.1850
   53CHL1   H20 3899   2.484   0.976   8.130  2.3280  2.4180 -1.0297
   53CHL1   C21 3900   2.694   0.996   8.139  0.3806  0.1058  0.5188
   53CHL1  H21A 3901   2.706   1.030   8.244 -0.9960 -1.5080  1.2467
   53CHL1  H21B 3902   2.679   1.090   8.081  0.3479  0.9871  1.9167
   53CHL1  H21C 3903   2.783   0.937   8.109  0.4717 -0.1741  1.3238
   53CHL1   C22 3904   2.555   0.808   8.235  0.3488 -0.1187 -0.3097
   53CHL1  H22A 3905   2.482   0.730   8.207 -0.0148  0.7484 -1.8940
   53CHL1  H22B 3906   2.652   0.754   8.228  0.9394  0.8594  0.1464
   53CHL1   C23 3907   2.535   0.863   8.379 -0.3432 -0.2504 -0.3278
   53CHL1  H23A 3908   2.516   0.781   8.451  0.3866  1.5642  2.0912
   53CHL1  H23B 3909   2.627   0.918   8.407 -0.9884  0.1955  0.9944
   53CHL1   C24 3910   2.415   0.963   8.398  0.4917 -0.2635  0.0456
   53CHL1  H24A 3911   2.433   1.055   8.340  0.8482 -0.9999 -1.0413
   53CHL1  H24B 3912   2.324   0.909   8.363 -1.1213  0.3482  2.9797
   53CHL1   C25 3913   2.393   1.006   8.550  0.0695  0.0902  0.7584
   53CHL1   H25 3914   2.373   0.914   8.608  2.5409 -0.9359  0.0817
   53CHL1   C26 3915   2.520   1.066   8.610  0.2473  0.4698  0.5994
   53CHL1  H26A 3916   2.606   0.996   8.613  0.1308  0.3433  1.1432
   53CHL1  H26B 3917   2.557   1.147   8.544 -0.2217 -0.3185 -0.6572
   53CHL1  H26C 3918   2.492   1.112   8.707 -1.3703  0.6042  0.1001
   53CHL1   C27 3919   2.263   1.099   8.573 -0.1973  1.0818 -0.1853
   53CHL1  H27A 3920   2.237   1.087   8.680  1.0586  0.1174  0.0331
   53CHL1  H27B 3921   2.288   1.206   8.557  0.4121  0.6376 -2.6966
   53CHL1  H27C 3922   2.174   1.077   8.510 -0.9104 -0.3785  1.2747
   54CHL1    C3 3923   2.952   2.209   6.822 -0.0620  0.1704 -0.4319
   54CHL1    H3 3924   2.952   2.319   6.806  1.1206  0.6205  2.2143
   54CHL1    O3 3925   2.971   2.142   6.698  0.0259  0.0794  0.6274
   54CHL1   H3' 3926   2.977   2.048   6.717  2.2313  0.2144  0.9501
   54CHL1    C4 3927   3.066   2.174   6.915  0.1056  0.2481  0.0356
   54CHL1   H4A 3928   3.082   2.065   6.930 -0.4134  0.2410  0.5965
   54CHL1   H4B 3929   3.158   2.211   6.866 -0.0405 -0.3086 -0.6785
   54CHL1    C5 3930   3.047   2.228   7.054 -0.5167 -0.4459 -0.0324
   54CHL1    C6 3931   3.145   2.302   7.121  1.2817  0.9654  0.3515
   54CHL1    H6 3932   3.243   2.324   7.077  1.5605 -0.9065 -0.0612
   54CHL1    C7 3933   3.131   2.340   7.267  0.0808  1.0525 -0.3692
   54CHL1   H7A 3934   3.224   2.314   7.321 -2.5151 -0.9515  3.6666
   54CHL1   H7B 3935   3.113   2.450   7.276  1.5722  1.2974 -0.1134
   54CHL1    C8 3936   3.015   2.264   7.346 -0.0448 -0.0676 -0.6524
   54CHL1    H8 3937   3.043   2.158   7.361 -1.2497 -0.2857  0.2359
   54CHL1   C14 3938   2.987   2.336   7.482 -0.1096  0.8265 -0.1835
   54CHL1   H14 3939   2.956   2.441   7.461 -2.4985  0.2972  0.4012
   54CHL1   C15 3940   3.099   2.351   7.582  0.0769  0.6441 -0.4331
   54CHL1  H15A 3941   3.163   2.262   7.600  1.0864  1.6726  1.4274
   54CHL1  H15B 3942   3.162   2.439   7.552 -0.9643  1.4374 -0.3541
   54CHL1   C16 3943   3.029   2.378   7.720 -0.4501  0.2195 -0.2486
   54CHL1  H16A 3944   3.064   2.321   7.809 -1.7538 -0.8947 -0.4203
   54CHL1  H16B 3945   3.039   2.484   7.749  1.9324 -0.5912  2.2629
   54CHL1   C17 3946   2.882   2.346   7.688 -0.3023 -0.2474  0.2153
   54CHL1   H17 3947   2.838   2.445   7.660  1.8193  1.0007  1.0644
   54CHL1   C13 3948   2.878   2.271   7.561 -0.2111  0.5955  0.7927
   54CHL1   C18 3949   2.915   2.119   7.598  0.2117 -0.2157  0.4541
   54CHL1  H18A 3950   2.934   2.062   7.505  1.4283  0.3722  0.3197
   54CHL1  H18B 3951   3.011   2.120   7.654 -0.0810 -1.1674  0.9900
   54CHL1  H18C 3952   2.832   2.077   7.659  0.4615  0.2080  1.1114
   54CHL1   C12 3953   2.739   2.272   7.482 -0.5899  0.0889 -0.4810
   54CHL1  H12A 3954   2.665   2.206   7.531 -1.0913  1.0081  0.0130
   54CHL1  H12B 3955   2.700   2.376   7.482 -0.1497  0.3495  2.5864
   54CHL1   C11 3956   2.764   2.208   7.344  0.2380  0.8649 -0.0100
   54CHL1  H11A 3957   2.772   2.100   7.368  0.8221  1.3049  1.9916
   54CHL1  H11B 3958   2.680   2.226   7.274 -0.8403  0.3396  1.1065
   54CHL1    C9 3959   2.889   2.263   7.263  0.2485  0.2596  1.0411
   54CHL1    H9 3960   2.876   2.370   7.239 -1.6471 -0.1671 -0.0441
   54CHL1   C10 3961   2.904   2.193   7.122 -0.2996 -0.0120 -0.4067
   54CHL1   C19 3962   2.890   2.039   7.147 -0.0010  0.0610  0.2411
   54CHL1  H19A 3963   2.964   2.004   7.222  0.0588 -3.1621 -1.1290
   54CHL1  H19B 3964   2.782   2.029   7.166  0.3057 -0.6748  1.7298
   54CHL1  H19C 3965   2.920   1.979   7.058 -0.4641 -0.8424  0.6920
   54CHL1    C1 3966   2.790   2.238   7.021 -0.8886  0.4214 -0.1473
   54CHL1   H1A 3967   2.688   2.217   7.059 -0.3650 -1.3554  0.3674
   54CHL1   H1B 3968   2.804   2.348   7.019  0.0370  0.3350  0.8988
   54CHL1    C2 3969   2.808   2.181   6.881  0.2881  0.3305 -0.3093
   54CHL1   H2A 3970   2.732   2.225   6.813 -0.9465 -0.5209  0.4787
   54CHL1   H2B 3971   2.796   2.071   6.892  0.4769  0.5049  2.3920
   54CHL1   C20 3972   2.800   2.307   7.818 -0.3960 -0.2380  0.3792
   54CHL1   H20 3973   2.825   2.203   7.847 -0.4360 -0.1280  0.8196
   54CHL1   C21 3974   2.648   2.322   7.792 -0.1896  1.2283 -0.3930
   54CHL1  H21A 3975   2.613   2.258   7.708  0.9315  2.7896 -2.1137
   54CHL1  H21B 3976   2.621   2.424   7.758  1.5942  1.4120 -1.3557
   54CHL1  H21C 3977   2.593   2.285   7.881  2.1827 -0.6270  0.4014
   54CHL1   C22 3978   2.834   2.399   7.940  0.0009 -0.0573 -0.6838
   54CHL1  H22A 3979   2.944   2.395   7.955  0.0688  0.5574 -0.9708
   54CHL1  H22B 3980   2.798   2.502   7.919 -1.0270  0.2976  2.3874
   54CHL1   C23 3981   2.776   2.368   8.083  0.7198  0.1456  0.1766
   54CHL1  H23A 3982   2.667   2.386   8.078  1.0480  2.0915 -1.2976
   54CHL1  H23B 3983   2.798   2.260   8.097  1.3664 -0.1045 -2.2670
   54CHL1   C24 3984   2.838   2.439   8.200  0.4455  0.4909 -1.2182
   54CHL1  H24A 3985   2.795   2.412   8.298  0.6263  1.3565 -0.8898
   54CHL1  H24B 3986   2.940   2.395   8.198  0.0216 -0.5910 -0.0856
   54CHL1   C25 3987   2.837   2.596   8.196 -0.2663  0.8258  0.3067
   54CHL1   H25 3988   2.869   2.629   8.095 -0.6306 -0.9583 -0.4298
   54CHL1   C26 3989   2.698   2.646   8.232 -0.2116  0.5622 -0.4279
   54CHL1  H26A 3990   2.684   2.608   8.336  0.2633 -2.0694 -1.2509
   54CHL1  H26B 3991   2.696   2.756   8.249  0.6600  1.1030 -3.3187
   54CHL1  H26C 3992   2.613   2.607   8.173 -1.1745  1.5180  0.2998
   54CHL1   C27 3993   2.950   2.662   8.289 -0.0370 -0.6943 -0.3234
   54CHL1  H27A 3994   2.933   2.771   8.276  1.4001 -0.5603 -1.3107
   54CHL1  H27B 3995   2.940   2.636   8.397 -1.8428  0.7020 -0.0874
   54CHL1  H27C 3996   3.049   2.626   8.256  0.7571  1.0494  0.0723
   55CHL1    C3 3997   2.498   3.426   7.097 -0.3538  0.7305  0.5973
   55CHL1    H3 3998   2.450   3.526   7.108 -0.7433  0.5809  0.2900
   55CHL1    O3 3999   2.521   3.393   6.963 -0.0324 -0.0465  0.2537
   55CHL1   H3' 4000   2.578   3.464   6.933  0.4457  0.2858  1.8458
   55CHL1    C4 4001   2.629   3.424   7.181 -0.7638 -0.2814  0.3477
   55CHL1   H4A 4002   2.682   3.329   7.157  3.8347  2.3493 -1.3924
   55CHL1   H4B 4003   2.706   3.498   7.149 -1.6039 -0.5823 -2.7240
   55CHL1    C5 4004   2.604   3.443   7.329  0.1195  0.3308  0.7508
   55CHL1    C6 4005   2.646   3.552   7.390  0.1868 -0.6094 -0.4001
   55CHL1    H6 4006   2.706   3.630   7.341 -0.6162 -0.0651 -0.5480
   55CHL1    C7 4007   2.618   3.570   7.534  0.1081 -0.5530 -0.6456
   55CHL1   H7A 4008   2.709   3.619   7.575  0.0354 -0.5537 -0.4820
   55CHL1   H7B 4009   2.545   3.654   7.536 -0.9732 -1.4709 -0.7452
   55CHL1    C8 4010   2.571   3.444   7.610  0.1655 -0.3983  0.2184
   55CHL1    H8 4011   2.659   3.379   7.622 -0.8232 -1.8381 -0.0823
   55CHL1   C14 4012   2.520   3.493   7.753 -0.4933  0.0169  1.0667
   55CHL1   H14 4013   2.434   3.560   7.730 -0.8530 -1.1446 -1.3307
   55CHL1   C15 4014   2.610   3.577   7.854  0.1374 -0.2740  0.2185
   55CHL1  H15A 4015   2.713   3.536   7.852  0.0241 -0.5558  0.0232
   55CHL1  H15B 4016   2.625   3.679   7.813  1.9661 -1.3561 -2.0061
   55CHL1   C16 4017   2.540   3.564   7.994 -0.1469  0.4919  0.2798
   55CHL1  H16A 4018   2.608   3.517   8.068 -0.2164 -1.4089 -0.8022
   55CHL1  H16B 4019   2.502   3.659   8.038  0.5123  1.5530 -1.3366
   55CHL1   C17 4020   2.422   3.460   7.962  0.3985 -0.9058  0.1765
   55CHL1   H17 4021   2.331   3.519   7.941  0.0385 -1.4734  0.1197
   55CHL1   C13 4022   2.460   3.379   7.834  0.5236  0.3712  0.5142
   55CHL1   C18 4023   2.574   3.270   7.863  0.0092  0.5492  0.0535
   55CHL1  H18A 4024   2.608   3.219   7.770  0.6328 -0.8975  1.0296
   55CHL1  H18B 4025   2.659   3.314   7.918  2.4985 -2.5755 -0.9816
   55CHL1  H18C 4026   2.529   3.194   7.932  1.6820  2.4898  3.5264
   55CHL1   C12 4027   2.341   3.318   7.750 -0.8089  0.6688 -0.0463
   55CHL1  H12A 4028   2.303   3.228   7.802  2.9103 -0.3521  1.1823
   55CHL1  H12B 4029   2.273   3.406   7.743  0.5891  1.8513  0.8516
   55CHL1   C11 4030   2.384   3.266   7.613  0.5480  0.1298  0.3855
   55CHL1  H11A 4031   2.442   3.172   7.624  0.3484 -0.2709 -1.6027
   55CHL1  H11B 4032   2.297   3.242   7.549  0.9533  0.6327 -0.3702
   55CHL1    C9 4033   2.463   3.375   7.530  0.7891 -0.1082 -0.1123
   55CHL1    H9 4034   2.398   3.462   7.510  1.6672  0.7646  0.7329
   55CHL1   C10 4035   2.510   3.335   7.389 -0.1939 -0.2447  0.0883
   55CHL1   C19 4036   2.583   3.208   7.401 -0.1904  0.3498  0.0469
   55CHL1  H19A 4037   2.632   3.185   7.304 -1.7660 -1.1654 -0.4473
   55CHL1  H19B 4038   2.662   3.209   7.479  0.8142 -2.2103 -0.8597
   55CHL1  H19C 4039   2.508   3.127   7.414  1.1714 -0.8070  0.8604
   55CHL1    C1 4040   2.388   3.319   7.299 -0.3543  0.2510  0.4088
   55CHL1   H1A 4041   2.340   3.225   7.333 -2.2564  2.0124  2.9091
   55CHL1   H1B 4042   2.310   3.396   7.319  1.2668  1.0648  4.6011
   55CHL1    C2 4043   2.411   3.305   7.144  0.0895  0.1482  0.1893
   55CHL1   H2A 4044   2.313   3.303   7.091 -0.5952  0.5479  1.3853
   55CHL1   H2B 4045   2.467   3.210   7.130  1.1141  0.7909 -0.1053
   55CHL1   C20 4046   2.389   3.388   8.094  0.2632 -0.1313  0.3390
   55CHL1   H20 4047   2.476   3.324   8.122 -0.8223 -1.7378  0.2173
   55CHL1   C21 4048   2.282   3.275   8.080  0.3515  0.0961  0.1308
   55CHL1  H21A 4049   2.262   3.225   8.177  0.3341 -1.1998 -0.5220
   55CHL1  H21B 4050   2.317   3.193   8.013 -1.1675 -0.1328 -0.4107
   55CHL1  H21C 4051   2.186   3.313   8.040 -0.6792 -0.7874  1.6882
   55CHL1   C22 4052   2.358   3.493   8.211  0.4002  0.0738 -0.5628
   55CHL1  H22A 4053   2.437   3.571   8.218  0.1841  0.1194  2.3932
   55CHL1  H22B 4054   2.256   3.533   8.193  0.1295  0.1068  0.9032
   55CHL1   C23 4055   2.360   3.415   8.346 -0.8950 -0.4650  1.4403
   55CHL1  H23A 4056   2.275   3.344   8.333 -1.5737  0.4914  0.4001
   55CHL1  H23B 4057   2.458   3.364   8.352 -0.7321 -0.0141  2.8500
   55CHL1   C24 4058   2.344   3.500   8.464  0.2384  0.3648  0.2214
   55CHL1  H24A 4059   2.428   3.572   8.477  0.0841  1.1051 -2.4055
   55CHL1  H24B 4060   2.263   3.572   8.442  1.3413  1.0043 -2.1042
   55CHL1   C25 4061   2.317   3.430   8.601 -0.1718  0.4296 -0.0784
   55CHL1   H25 4062   2.212   3.393   8.593  0.1213 -0.6024  0.6125
   55CHL1   C26 4063   2.408   3.306   8.631  0.0258 -0.1928 -0.0042
   55CHL1  H26A 4064   2.513   3.342   8.642 -0.6906  1.5170  1.9666
   55CHL1  H26B 4065   2.378   3.243   8.718  1.4006 -1.9212 -0.7215
   55CHL1  H26C 4066   2.408   3.258   8.531  3.5170  0.6324 -0.5311
   55CHL1   C27 4067   2.322   3.527   8.719  0.1001 -0.1576  0.5333
   55CHL1  H27A 4068   2.257   3.616   8.699  1.3616  0.5224 -0.7555
   55CHL1  H27B 4069   2.284   3.477   8.810 -1.6237  0.6547  0.3082
   55CHL1  H27C 4070   2.419   3.575   8.744  1.1272 -2.3702  0.9645
   56CHL1    C3 4071   0.979   1.851   7.028 -0.1758  0.1799 -0.5699
   56CHL1    H3 4072   0.913   1.765   7.006  0.6696 -0.4783 -0.5868
   56CHL1    O3 4073   1.058   1.879   6.917  0.0520 -0.0068  0.3798
   56CHL1   H3' 4074   1.005   1.942   6.868 -1.9465 -1.9879 -0.1814
   56CHL1    C4 4075   0.897   1.969   7.065 -0.3912 -0.2002  0.1796
   56CHL1   H4A 4076   0.965   2.057   7.068 -1.1723  0.3940  2.7382
   56CHL1   H4B 4077   0.826   1.984   6.981 -0.9248 -3.8074 -0.1507
   56CHL1    C5 4078   0.824   1.939   7.194  0.0063 -0.1986  0.5927
   56CHL1    C6 4079   0.690   1.949   7.191  0.3101  0.0128 -0.7517
   56CHL1    H6 4080   0.636   1.985   7.102 -0.7576 -0.2141 -0.2094
   56CHL1    C7 4081   0.616   1.936   7.315 -0.0894  0.6374 -0.1431
   56CHL1   H7A 4082   0.522   1.996   7.311 -0.4166  0.3575  1.9632
   56CHL1   H7B 4083   0.572   1.835   7.330  0.4750  0.4379  0.1783
   56CHL1    C8 4084   0.702   1.955   7.445 -0.0054 -0.7338  0.1378
   56CHL1    H8 4085   0.721   2.064   7.452  1.6097 -0.6486 -3.1868
   56CHL1   C14 4086   0.628   1.921   7.575  0.2626 -0.4432  0.0852
   56CHL1   H14 4087   0.596   1.816   7.557  0.9776 -0.7149  0.3562
   56CHL1   C15 4088   0.487   1.987   7.597 -0.3389  0.5530 -0.1580
   56CHL1  H15A 4089   0.502   2.096   7.581  1.2903  0.4829  0.6866
   56CHL1  H15B 4090   0.408   1.943   7.531 -0.1118 -0.1243  0.0150
   56CHL1   C16 4091   0.463   1.964   7.749  0.6377  0.5764  0.8134
   56CHL1  H16A 4092   0.458   2.063   7.799  2.0799 -0.3207  2.8539
   56CHL1  H16B 4093   0.375   1.899   7.770  1.1447 -0.0672  0.9943
   56CHL1   C17 4094   0.591   1.895   7.807  0.1600  0.3477 -0.0667
   56CHL1   H17 4095   0.575   1.786   7.794 -1.4857  0.2541  2.1440
   56CHL1   C13 4096   0.705   1.929   7.705  0.2530  0.0189  0.3733
   56CHL1   C18 4097   0.754   2.068   7.739  0.4024 -0.2691 -0.5217
   56CHL1  H18A 4098   0.801   2.107   7.646 -2.0220  0.9096 -1.3330
   56CHL1  H18B 4099   0.665   2.125   7.774 -0.8587 -2.7139  0.5149
   56CHL1  H18C 4100   0.832   2.066   7.818  0.0047  1.6524 -0.0150
   56CHL1   C12 4101   0.823   1.838   7.694 -0.1281 -0.2347  0.3822
   56CHL1  H12A 4102   0.885   1.825   7.786 -1.3172 -1.4768  1.0446
   56CHL1  H12B 4103   0.779   1.737   7.678  0.3530 -0.4290  0.2821
   56CHL1   C11 4104   0.902   1.873   7.577  0.0550 -0.0562 -0.7085
   56CHL1  H11A 4105   0.945   1.974   7.595 -0.5590  0.0016  0.5531
   56CHL1  H11B 4106   0.981   1.795   7.570 -0.0446 -0.0588 -2.1443
   56CHL1    C9 4107   0.830   1.878   7.441 -0.6031 -0.1495 -0.1506
   56CHL1    H9 4108   0.798   1.773   7.424  1.2421 -0.7010 -0.4437
   56CHL1   C10 4109   0.910   1.912   7.319 -0.9751 -0.6944 -0.2822
   56CHL1   C19 4110   0.984   2.049   7.353  0.5994  0.7297 -0.0094
   56CHL1  H19A 4111   1.037   2.094   7.266 -0.1738  3.2298  0.7199
   56CHL1  H19B 4112   0.917   2.124   7.399 -0.4583 -0.6900  0.8321
   56CHL1  H19C 4113   1.071   2.031   7.420 -0.4465  0.5957  1.3459
   56CHL1    C1 4114   1.003   1.799   7.270  0.0827  0.0160 -0.2411
   56CHL1   H1A 4115   1.075   1.775   7.352  0.3113  0.2000 -0.3849
   56CHL1   H1B 4116   0.938   1.711   7.250 -0.5794  0.7633 -1.4359
   56CHL1    C2 4117   1.081   1.812   7.142 -0.0190  0.5668  0.0988
   56CHL1   H2A 4118   1.140   1.721   7.117 -2.1507 -0.6076 -0.9176
   56CHL1   H2B 4119   1.155   1.896   7.148  0.1925  0.5840 -2.1113
   56CHL1   C20 4120   0.617   1.909   7.959 -0.1216 -0.1484  0.1413
   56CHL1   H20 4121   0.655   2.013   7.970  0.0695  0.2388 -3.1203
   56CHL1   C21 4122   0.738   1.820   8.005 -0.6672  0.5535 -0.5204
   56CHL1  H21A 4123   0.734   1.715   7.971 -1.8208  0.7785 -1.1317
   56CHL1  H21B 4124   0.733   1.809   8.115  0.8989  0.3923 -0.4451
   56CHL1  H21C 4125   0.834   1.861   7.968 -0.3621 -0.5102 -0.9385
   56CHL1   C22 4126   0.493   1.882   8.048  0.5816 -0.0517  0.0900
   56CHL1  H22A 4127   0.415   1.949   8.005  2.0791  0.5122 -1.8651
   56CHL1  H22B 4128   0.451   1.782   8.024  0.3360  0.0684  0.0074
   56CHL1   C23 4129   0.502   1.909   8.202 -0.1565  0.2659  0.3738
   56CHL1  H23A 4130   0.554   1.827   8.257  2.3186  1.8440  0.5292
   56CHL1  H23B 4131   0.564   1.999   8.218  1.1757 -0.9357  2.5403
   56CHL1   C24 4132   0.365   1.920   8.270  0.3429  0.2506 -0.5288
   56CHL1  H24A 4133   0.297   1.995   8.223 -2.4792 -0.5739  1.9006
   56CHL1  H24B 4134   0.324   1.817   8.254 -1.4170  0.8204  0.0398
   56CHL1   C25 4135   0.372   1.942   8.422 -0.2291 -0.9017 -0.0815
   56CHL1   H25 4136   0.421   1.849   8.460  1.6284  0.9134  2.2922
   56CHL1   C26 4137   0.428   2.085   8.462  0.0855  1.0857 -0.6964
   56CHL1  H26A 4138   0.435   2.097   8.573 -0.3706  0.4859 -0.6014
   56CHL1  H26B 4139   0.359   2.163   8.423 -0.9790  0.7260  0.4012
   56CHL1  H26C 4140   0.531   2.105   8.425  0.4008 -0.3601 -0.6408
   56CHL1   C27 4141   0.237   1.939   8.499  0.2930 -0.7858  0.0315
   56CHL1  H27A 4142   0.169   2.023   8.472  0.0438 -0.9252  0.2356
   56CHL1  H27B 4143   0.196   1.839   8.475 -0.6655 -0.3265 -0.3000
   56CHL1  H27C 4144   0.258   1.948   8.608  2.2326 -0.4233 -0.3199
   57SAPC     N 4145   1.699   4.986  10.994 -0.3901  0.2438  0.2680
   57SAPC   C12 4146   1.611   5.107  10.965 -0.4300 -0.1637  0.0801
   57SAPC  H12A 4147   1.651   5.185  11.029 -0.7774  0.8708 -0.9216
   57SAPC  H12B 4148   1.515   5.079  11.006 -0.0081 -2.1503 -0.2151
   57SAPC   C13 4149   1.683   4.936  11.137 -0.2148 -0.2213 -0.4339
   57SAPC  H13A 4150   1.726   4.839  11.162  1.3123  0.7081  0.7387
   57SAPC  H13B 4151   1.737   5.003  11.202 -0.7099  0.3836 -0.6357
   57SAPC  H13C 4152   1.578   4.944  11.161 -0.0250  1.4518 -0.0917
   57SAPC   C14 4153   1.649   4.873  10.902 -0.1001  0.4935  0.3447
   57SAPC  H14A 4154   1.657   4.912  10.802 -1.1512  0.0717  0.0827
   57SAPC  H14B 4155   1.720   4.793  10.918  1.2960  1.7069  0.4474
   57SAPC  H14C 4156   1.549   4.849  10.936 -0.8955  1.5302 -1.1401
   57SAPC   C15 4157   1.837   5.015  10.962  0.3226 -0.2791  0.1873
   57SAPC  H15A 4158   1.863   5.082  10.882  0.2899  0.8612  1.1143
   57SAPC  H15B 4159   1.889   5.048  11.051 -0.1705  0.5029  0.1935
   57SAPC  H15C 4160   1.889   4.921  10.948 -2.0297 -1.3640 -2.2104
   57SAPC   C11 4161   1.591   5.160  10.817  0.1881  0.0963 -0.4691
   57SAPC  H11A 4162   1.691   5.167  10.769  1.2055 -1.1140  1.3433
   57SAPC  H11B 4163   1.547   5.262  10.829 -1.3232 -0.7774  2.2219
   57SAPC     P 4164   1.356   5.074  10.718  0.3267  0.0918  0.0116
   57SAPC   O13 4165   1.312   4.937  10.693  0.6384 -0.6597 -0.3673
   57SAPC   O14 4166   1.302   5.146  10.837 -0.3763 -0.2555 -0.3589
   57SAPC   O12 4167   1.510   5.074  10.733  0.0390  0.0736  0.0697
   57SAPC   O11 4168   1.336   5.158  10.586 -0.2739 -0.0955 -0.0924
   57SAPC    C1 4169   1.392   5.113  10.461 -0.7709 -0.1625  0.0750
   57SAPC    HA 4170   1.401   5.002  10.464  1.7208 -0.0108 -0.1335
   57SAPC    HB 4171   1.330   5.139  10.373  1.4740  0.9320 -1.2710
   57SAPC    C2 4172   1.532   5.173  10.431  0.0008 -0.1201  0.0215
   57SAPC    HS 4173   1.575   5.194  10.531 -0.0786  2.4098 -0.4018
   57SAPC   O21 4174   1.525   5.297  10.361 -0.3196 -0.1251 -0.0892
   57SAPC   C21 4175   1.639   5.369  10.355  0.1310 -0.3993 -0.6483
   57SAPC   O22 4176   1.733   5.344  10.428  0.6183 -0.4142  0.7503
   57SAPC   C22 4177   1.630   5.457  10.232 -0.4156 -0.8321  0.6083
   57SAPC   H2R 4178   1.730   5.456  10.182  0.0491  0.9497  1.4054
   57SAPC   H2S 4179   1.539   5.431  10.175 -1.3447  0.2029  1.5709
   57SAPC    C3 4180   1.634   5.073  10.362 -0.4318 -0.2554 -0.3126
   57SAPC    HX 4181   1.659   4.995  10.437 -2.0813  0.7399  1.3758
   57SAPC    HY 4182   1.732   5.120  10.337 -0.4405  1.3671  2.2608
   57SAPC   O31 4183   1.568   5.006  10.250  0.0680  0.1331  0.2601
   57SAPC   C31 4184   1.580   5.069  10.133 -0.7559 -0.3868  0.4212
   57SAPC   O32 4185   1.641   5.179  10.119 -0.0669 -0.6206 -0.4694
   57SAPC   C32 4186   1.501   5.006  10.021  0.2268 -0.6773 -0.3250
   57SAPC   H2X 4187   1.432   5.083   9.982  0.9360  0.2695  0.2509
   57SAPC   H2Y 4188   1.434   4.930  10.066 -0.8403  0.6492  0.4006
   57SAPC   C23 4189   1.610   5.607  10.270  0.2635 -0.4768 -0.3237
   57SAPC   H3R 4190   1.708   5.633  10.315 -0.2384 -1.4539  1.4178
   57SAPC   H3S 4191   1.520   5.639  10.326  0.7445  0.1548  0.1098
   57SAPC   C24 4192   1.604   5.697  10.144  0.4920 -0.6806 -0.3588
   57SAPC   H4R 4193   1.694   5.684  10.080  0.2313  2.4408 -1.5154
   57SAPC   H4S 4194   1.577   5.798  10.181 -0.0883 -0.6094 -0.9660
   57SAPC   C25 4195   1.486   5.672  10.053 -0.2651  0.6359  0.1781
   57SAPC   H5R 4196   1.386   5.691  10.094 -0.5933  1.4975 -0.9552
   57SAPC   C26 4197   1.483   5.606   9.930  0.4473 -0.1887 -1.1351
   57SAPC   H6R 4198   1.387   5.564   9.896 -1.0812 -0.2294  2.6334
   57SAPC   C27 4199   1.603   5.553   9.863 -0.8000  0.1767  0.7607
   57SAPC   H7R 4200   1.696   5.584   9.914  1.9189 -4.1304 -0.9434
   57SAPC   H7S 4201   1.607   5.600   9.762 -1.5132  0.4324  0.8455
   57SAPC   C28 4202   1.599   5.406   9.851  0.4348 -0.3367  0.1899
   57SAPC   H8R 4203   1.609   5.347   9.943  1.6494 -0.5693 -0.0764
   57SAPC   C29 4204   1.591   5.327   9.737  0.3586  0.3399  0.0089
   57SAPC   H9R 4205   1.595   5.219   9.759  1.5490  1.0165  4.0782
   57SAPC  C210 4206   1.580   5.379   9.591  0.1233 -0.1130 -0.5304
   57SAPC  H10R 4207   1.671   5.347   9.536  0.3313  0.3482 -0.4514
   57SAPC  H10S 4208   1.579   5.490   9.592 -0.2015 -0.1084 -0.9753
   57SAPC  C211 4209   1.459   5.334   9.512 -0.9788  0.6890  0.8649
   57SAPC  H11R 4210   1.391   5.267   9.566 -1.7953  0.2888 -0.6040
   57SAPC  C212 4211   1.436   5.358   9.380  0.1630  0.4344  0.0467
   57SAPC  H12R 4212   1.347   5.314   9.333  0.8848 -0.6135 -0.3821
   57SAPC  C213 4213   1.527   5.442   9.284  0.1514  0.6107  0.0067
   57SAPC  H13R 4214   1.631   5.447   9.322 -0.2389  1.9493  0.9560
   57SAPC  H13S 4215   1.480   5.542   9.275 -3.6990 -0.8060  2.0091
   57SAPC  C214 4216   1.532   5.377   9.140 -0.2697  0.4602  0.3060
   57SAPC  H14R 4217   1.616   5.307   9.131  0.9676  0.6180  6.4819
   57SAPC  C215 4218   1.446   5.382   9.042 -0.0771  0.3672 -0.1336
   57SAPC  H15R 4219   1.472   5.350   8.940  0.4003  0.9972 -0.2140
   57SAPC  C216 4220   1.320   5.458   9.042 -0.3786  0.2971  0.7868
   57SAPC  H16R 4221   1.321   5.538   8.965 -0.7336 -0.0873  0.3759
   57SAPC  H16S 4222   1.298   5.514   9.135  0.4177  0.2079  1.0291
   57SAPC  C217 4223   1.197   5.366   9.023  0.3049  0.0930 -0.0964
   57SAPC  H17R 4224   1.119   5.408   9.089 -1.3524 -0.8416 -1.3971
   57SAPC  H17S 4225   1.201   5.261   9.058 -0.7180 -0.1703 -0.7216
   57SAPC  C218 4226   1.146   5.363   8.883 -0.3623 -0.1978  0.2553
   57SAPC  H18R 4227   1.230   5.334   8.815 -1.2212  0.8788 -1.3402
   57SAPC  H18S 4228   1.118   5.467   8.853 -1.7618  0.3449  3.1554
   57SAPC  C219 4229   1.031   5.266   8.845 -0.5124  0.0452 -0.6806
   57SAPC  H19R 4230   0.950   5.265   8.921  0.3397 -0.0109  0.2464
   57SAPC  H19S 4231   1.072   5.162   8.846  1.0374  0.5199  3.4585
   57SAPC  C220 4232   0.976   5.292   8.700 -0.6674  0.2323  0.1298
   57SAPC  H20R 4233   0.889   5.229   8.673 -0.4489 -0.0813  0.1396
   57SAPC  H20S 4234   1.049   5.259   8.622 -2.1755 -0.2112 -1.1360
   57SAPC  H20T 4235   0.970   5.401   8.680  2.5117  0.8980  2.0188
   57SAPC   C33 4236   1.590   4.965   9.904  0.3452 -0.7672 -0.0460
   57SAPC   H3X 4237   1.641   4.873   9.940 -0.3881 -0.7807  1.0222
   57SAPC   H3Y 4238   1.667   5.043   9.885 -0.8553  1.3205  2.7978
   57SAPC   C34 4239   1.505   4.929   9.791  0.0684 -1.0413  0.2331
   57SAPC   H4X 4240   1.457   5.023   9.757  1.9917 -0.0984 -0.0278
   57SAPC   H4Y 4241   1.419   4.874   9.832  0.2598  0.1260  2.3052
   57SAPC   C35 4242   1.566   4.861   9.667 -0.3345  0.1343  0.3579
   57SAPC   H5X 4243   1.567   4.750   9.662 -2.5233  0.0290  1.0678
   57SAPC   H5Y 4244   1.670   4.893   9.648 -0.1664 -1.7488 -2.4631
   57SAPC   C36 4245   1.484   4.912   9.553  0.5163 -0.8171  0.1732
   57SAPC   H6X 4246   1.477   5.023   9.550 -3.2712 -0.8392  1.7573
   57SAPC   H6Y 4247   1.381   4.871   9.566  1.1838 -2.1840  1.3658
   57SAPC   C37 4248   1.531   4.869   9.409  0.1036 -0.2187 -0.1116
   57SAPC   H7X 4249   1.509   4.760   9.404 -0.3439 -0.3002  2.3804
   57SAPC   H7Y 4250   1.642   4.882   9.413 -0.0782  1.1949  1.1346
   57SAPC   C38 4251   1.457   4.940   9.294  0.2206  0.2460 -0.5056
   57SAPC   H8X 4252   1.490   5.046   9.293  0.5852  0.1569  0.8042
   57SAPC   H8Y 4253   1.348   4.954   9.305  0.1310  2.7377 -3.2604
   57SAPC   C39 4254   1.471   4.886   9.147 -0.0227 -0.3281 -0.4097
   57SAPC   H9X 4255   1.469   4.776   9.158  2.6315 -0.6664 -2.3366
   57SAPC   H9Y 4256   1.573   4.908   9.107  0.4250 -0.0119  0.8683
   57SAPC  C310 4257   1.380   4.958   9.048 -0.1756 -0.3709 -0.5694
   57SAPC  H10X 4258   1.405   5.066   9.049 -0.4182 -0.3200  0.7437
   57SAPC  H10Y 4259   1.278   4.955   9.091  0.4250 -0.0477  0.9366
   57SAPC  C311 4260   1.360   4.888   8.913 -0.6072 -0.1187  0.6929
   57SAPC  H11X 4261   1.320   4.784   8.911 -2.5442  0.5988 -0.9625
   57SAPC  H11Y 4262   1.457   4.882   8.859 -0.2918  0.4085  1.1790
   57SAPC  C312 4263   1.259   4.963   8.824 -0.1919  0.5815 -0.1958
   57SAPC  H12X 4264   1.298   5.063   8.797  1.0565  0.3183  0.5686
   57SAPC  H12Y 4265   1.164   4.970   8.882  1.7012 -1.2548  3.4822
   57SAPC  C313 4266   1.231   4.884   8.691 -0.2298  0.0216 -0.7053
   57SAPC  H13X 4267   1.160   4.801   8.715 -0.1390  0.0400 -0.3714
   57SAPC  H13Y 4268   1.334   4.849   8.668  0.0657 -0.4546  1.1877
   57SAPC  C314 4269   1.177   4.972   8.580 -0.1432 -0.3968 -0.3953
   57SAPC  H14X 4270   1.254   5.050   8.563  0.6383 -0.9336  0.6071
   57SAPC  H14Y 4271   1.079   5.010   8.617 -0.5487 -2.8970  1.3570
   57SAPC  C315 4272   1.168   4.904   8.442 -0.8474 -0.7907  0.5765
   57SAPC  H15X 4273   1.129   4.974   8.365  1.9360  1.7169  1.2602
   57SAPC  H15Y 4274   1.105   4.814   8.456 -2.5971  0.3662  0.4844
   57SAPC  C316 4275   1.309   4.866   8.384 -0.6354  0.3982 -0.0959
   57SAPC  H16X 4276   1.387   4.915   8.446 -0.6065 -0.3309  0.4518
   57SAPC  H16Y 4277   1.322   4.906   8.281  2.5541 -1.1829 -0.4504
   57SAPC  C317 4278   1.340   4.713   8.386 -0.5021  0.6971  0.0974
   57SAPC  H17X 4279   1.256   4.665   8.333 -0.1105  0.2118 -0.0984
   57SAPC  H17Y 4280   1.342   4.686   8.494 -1.1382  2.3309  0.5503
   57SAPC  C318 4281   1.477   4.671   8.319  0.2567  0.0041 -0.0373
   57SAPC  H18X 4282   1.565   4.704   8.379  0.5953  1.7801 -1.4157
   57SAPC  H18Y 4283   1.488   4.688   8.210  1.3590  0.1632  0.0853
   57SAPC  H18Z 4284   1.480   4.560   8.320 -1.2077 -0.0951  2.6057
   58SAPC     N 4285   4.569   3.574  10.730 -0.6672  0.8714 -0.2861
   58SAPC   C12 4286   4.567   3.426  10.758  0.0293  0.3543 -0.2966
   58SAPC  H12A 4287   4.536   3.418  10.861 -1.7710  2.2960 -0.6285
   58SAPC  H12B 4288   4.666   3.384  10.746 -0.9431 -1.6366 -1.9445
   58SAPC   C13 4289   4.606   3.581  10.582  0.3737  0.2683 -0.4712
   58SAPC  H13A 4290   4.530   3.533  10.521  0.9900  1.1669 -2.0178
   58SAPC  H13B 4291   4.611   3.685  10.552  2.0992  0.3940  0.1208
   58SAPC  H13C 4292   4.703   3.539  10.560  0.8836  1.4763 -0.6039
   58SAPC   C14 4293   4.436   3.646  10.742 -0.2902  0.0887  0.1055
   58SAPC  H14A 4294   4.402   3.667  10.842  1.3829  1.9669  0.3403
   58SAPC  H14B 4295   4.431   3.734  10.680  1.2501 -0.9528 -1.6031
   58SAPC  H14C 4296   4.355   3.584  10.705 -0.3315  1.0178 -1.4281
   58SAPC   C15 4297   4.661   3.638  10.828 -0.2984 -0.3165 -0.6566
   58SAPC  H15A 4298   4.760   3.601  10.804  0.3524  1.9617 -1.7484
   58SAPC  H15B 4299   4.662   3.745  10.823 -0.3060 -0.1820  1.3932
   58SAPC  H15C 4300   4.624   3.615  10.926 -0.3428  2.7233  0.1331
   58SAPC   C11 4301   4.480   3.338  10.663 -0.5652 -0.9027  0.0355
   58SAPC  H11A 4302   4.498   3.236  10.703  0.6323 -0.7009  0.0239
   58SAPC  H11B 4303   4.521   3.334  10.560 -0.3571  2.7612 -0.1368
   58SAPC     P 4304   4.222   3.304  10.724 -0.2849  0.5474 -0.4248
   58SAPC   O13 4305   4.267   3.203  10.819  0.2613  0.1924 -0.1156
   58SAPC   O14 4306   4.125   3.396  10.773  0.0203 -0.3123 -0.3820
   58SAPC   O12 4307   4.343   3.383  10.658  0.2601 -0.3795 -0.1690
   58SAPC   O11 4308   4.168   3.223  10.608  0.2745 -0.0049 -0.3418
   58SAPC    C1 4309   4.123   3.291  10.486  0.2011  0.8521  0.7853
   58SAPC    HA 4310   4.012   3.293  10.482  0.1737  0.1679  1.1179
   58SAPC    HB 4311   4.156   3.396  10.467 -0.7038  0.7083 -2.0251
   58SAPC    C2 4312   4.187   3.213  10.362 -0.3805  1.2441 -0.2349
   58SAPC    HS 4313   4.158   3.266  10.268 -1.6765  1.5017  0.2922
   58SAPC   O21 4314   4.128   3.077  10.360  0.2315 -0.4990  0.1665
   58SAPC   C21 4315   4.011   3.072  10.310  0.1736  0.2631 -0.6633
   58SAPC   O22 4316   3.944   3.164  10.269 -0.0897  0.0447  0.4181
   58SAPC   C22 4317   3.947   2.929  10.341 -0.1936  0.0767  0.2286
   58SAPC   H2R 4318   4.010   2.876  10.416  0.8566 -0.0082 -0.6875
   58SAPC   H2S 4319   3.850   2.939  10.395  0.2580 -0.4278  1.1563
   58SAPC    C3 4320   4.349   3.199  10.379  0.8887 -0.2312 -0.0562
   58SAPC    HX 4321   4.372   3.158  10.480  1.5281  0.0890 -0.0672
   58SAPC    HY 4322   4.392   3.301  10.387 -1.4744  0.7149  1.6085
   58SAPC   O31 4323   4.414   3.129  10.276 -0.3119  0.0415 -0.2273
   58SAPC   C31 4324   4.420   2.993  10.284  0.0346 -0.4183 -0.3801
   58SAPC   O32 4325   4.384   2.933  10.388 -0.1067 -0.8969  0.4428
   58SAPC   C32 4326   4.464   2.937  10.149 -0.2637  0.6412  0.3423
   58SAPC   H2X 4327   4.403   2.845  10.140  1.1260 -0.3083  0.1379
   58SAPC   H2Y 4328   4.567   2.895  10.154 -0.6056 -0.3036 -0.1823
   58SAPC   C23 4329   3.921   2.846  10.212 -0.8210  0.0372  0.6316
   58SAPC   H3R 4330   3.871   2.909  10.135  1.0609 -1.3856 -1.9253
   58SAPC   H3S 4331   3.850   2.763  10.233  1.3920 -2.3229 -0.5940
   58SAPC   C24 4332   4.055   2.788  10.160 -0.6351  0.9794 -0.2531
   58SAPC   H4R 4333   4.123   2.748  10.238 -1.3289  0.0839 -0.0879
   58SAPC   H4S 4334   4.105   2.874  10.111 -0.3004 -0.3050 -2.2493
   58SAPC   C25 4335   4.029   2.673  10.061 -0.0938 -0.4236 -0.0916
   58SAPC   H5R 4336   4.007   2.575  10.106 -1.3554  0.4156  1.1705
   58SAPC   C26 4337   4.042   2.688   9.927  0.2798 -0.2441  0.0014
   58SAPC   H6R 4338   4.008   2.602   9.868 -0.2425 -1.0500  1.4298
   58SAPC   C27 4339   4.085   2.807   9.841 -0.2697 -0.1247  0.3168
   58SAPC   H7R 4340   4.172   2.780   9.777 -0.5954  0.3193 -0.3332
   58SAPC   H7S 4341   4.127   2.889   9.902 -0.1516  2.2378 -2.6786
   58SAPC   C28 4342   3.973   2.863   9.766  0.5006 -0.0308  0.0412
   58SAPC   H8R 4343   3.911   2.932   9.825 -0.2605 -1.2883  0.7218
   58SAPC   C29 4344   3.938   2.835   9.634 -0.1017 -0.6426  0.3888
   58SAPC   H9R 4345   3.852   2.889   9.590  1.4659  0.3292 -1.6637
   58SAPC  C210 4346   4.022   2.749   9.542  0.5006 -0.2543  0.4039
   58SAPC  H10R 4347   4.042   2.657   9.600  0.5857  1.0162  2.4892
   58SAPC  H10S 4348   4.120   2.795   9.516  0.1410 -0.7981 -2.1608
   58SAPC  C211 4349   3.953   2.712   9.420 -0.5992 -0.1386 -0.2908
   58SAPC  H11R 4350   3.868   2.643   9.427  2.1186 -3.8032 -0.3670
   58SAPC  C212 4351   3.984   2.750   9.294  0.5534  0.1835  0.9920
   58SAPC  H12R 4352   3.923   2.709   9.213 -0.3718  1.3549  1.0798
   58SAPC  C213 4353   4.098   2.837   9.240  0.6869 -0.1983 -0.1837
   58SAPC  H13R 4354   4.189   2.783   9.276  0.9766  0.9470  0.8644
   58SAPC  H13S 4355   4.103   2.937   9.286  1.0718  0.2116 -1.0909
   58SAPC  C214 4356   4.088   2.848   9.088 -0.2549 -0.2494  0.5717
   58SAPC  H14R 4357   4.026   2.932   9.052 -0.5818  0.3638  2.4516
   58SAPC  C215 4358   4.128   2.763   8.988 -0.2572  0.6338  0.7721
   58SAPC  H15R 4359   4.105   2.798   8.886  0.2087  1.3121  0.8932
   58SAPC  C216 4360   4.197   2.624   8.998 -0.4025 -0.1685  0.6572
   58SAPC  H16R 4361   4.218   2.610   9.106 -0.5013  3.2998  1.2378
   58SAPC  H16S 4362   4.292   2.627   8.940 -0.7631 -2.5466 -0.1797
   58SAPC  C217 4363   4.139   2.491   8.945 -0.1521  0.1270  0.9574
   58SAPC  H17R 4364   4.041   2.468   8.992 -0.0018 -2.0168  0.3146
   58SAPC  H17S 4365   4.217   2.414   8.963  0.1351  0.4444  1.0827
   58SAPC  C218 4366   4.100   2.504   8.796  0.0125 -0.1968  0.5413
   58SAPC  H18R 4367   4.030   2.589   8.778  1.2400  0.4952 -1.3003
   58SAPC  H18S 4368   4.053   2.406   8.774 -0.9722  0.7160 -1.7073
   58SAPC  C219 4369   4.215   2.518   8.688 -0.3500 -0.0320  0.2228
   58SAPC  H19R 4370   4.293   2.444   8.718 -2.2794 -2.0816  0.4058
   58SAPC  H19S 4371   4.265   2.617   8.686 -0.5962  0.0796 -0.6157
   58SAPC  C220 4372   4.168   2.491   8.539 -0.1319 -0.6934 -0.9428
   58SAPC  H20R 4373   4.110   2.581   8.510 -3.7597 -2.4671  0.1834
   58SAPC  H20S 4374   4.107   2.398   8.541  0.0441 -0.8189  1.2348
   58SAPC  H20T 4375   4.267   2.474   8.493  1.7980  1.9822  1.8201
   58SAPC   C33 4376   4.449   3.025  10.026  0.5969  0.0356 -0.0271
   58SAPC   H3X 4377   4.515   3.115  10.021 -0.8036  1.0541 -0.7654
   58SAPC   H3Y 4378   4.343   3.055  10.022  0.8602  1.2640  1.3926
   58SAPC   C34 4379   4.465   2.943   9.893 -0.1165  0.7605  0.1045
   58SAPC   H4X 4380   4.417   2.846   9.920  3.0755 -0.4886  1.9545
   58SAPC   H4Y 4381   4.573   2.927   9.870 -0.7662 -3.1380 -1.0372
   58SAPC   C35 4382   4.416   3.012   9.765 -0.0154 -0.1214 -0.7913
   58SAPC   H5X 4383   4.471   3.108   9.755 -4.3268  2.8081  0.7241
   58SAPC   H5Y 4384   4.317   3.058   9.781  0.4408 -0.0840  2.5651
   58SAPC   C36 4385   4.431   2.928   9.640 -0.1760  0.2400 -0.0078
   58SAPC   H6X 4386   4.351   2.853   9.620 -0.5406  1.0509 -1.8150
   58SAPC   H6Y 4387   4.531   2.882   9.626  0.9238  2.6683 -0.6122
   58SAPC   C37 4388   4.421   3.025   9.517  0.3818 -0.0801  0.0622
   58SAPC   H7X 4389   4.504   3.097   9.529 -1.2615  2.0925 -0.8250
   58SAPC   H7Y 4390   4.323   3.076   9.528 -0.2550 -1.4144  0.9393
   58SAPC   C38 4391   4.428   2.940   9.395  0.2659  0.1264 -0.0420
   58SAPC   H8X 4392   4.345   2.866   9.389 -0.5649  1.0947 -0.6872
   58SAPC   H8Y 4393   4.530   2.897   9.400  0.0849 -0.1936  2.7549
   58SAPC   C39 4394   4.429   3.021   9.263  0.5096 -0.7735  0.1547
   58SAPC   H9X 4395   4.508   3.100   9.258 -0.0280 -0.2581 -0.3311
   58SAPC   H9Y 4396   4.332   3.075   9.267  1.0449  0.1353  2.7751
   58SAPC  C310 4397   4.451   2.942   9.133  0.0747  0.6273 -0.1332
   58SAPC  H10X 4398   4.378   2.858   9.134  2.0655 -1.2433 -1.7467
   58SAPC  H10Y 4399   4.556   2.907   9.123  0.0433  0.6690 -0.6226
   58SAPC  C311 4400   4.423   3.025   9.011  0.8687  0.2448 -0.1511
   58SAPC  H11X 4401   4.503   3.102   9.016 -1.2321  2.4821  1.4461
   58SAPC  H11Y 4402   4.330   3.087   9.012  1.4274  1.0980 -0.4689
   58SAPC  C312 4403   4.452   2.958   8.878  0.3377  0.2028 -0.5217
   58SAPC  H12X 4404   4.443   2.847   8.890 -2.3612 -0.1078 -3.8481
   58SAPC  H12Y 4405   4.554   2.983   8.842 -0.4062  2.6953 -1.0190
   58SAPC  C313 4406   4.353   2.974   8.762 -0.5123  0.6207  0.2748
   58SAPC  H13X 4407   4.355   3.081   8.731 -0.0262  0.3192 -0.7518
   58SAPC  H13Y 4408   4.253   2.955   8.806 -0.7518  0.5965 -0.2752
   58SAPC  C314 4409   4.378   2.893   8.639 -0.3048  0.1855  0.0721
   58SAPC  H14X 4410   4.366   2.785   8.662  0.1643  0.4625  1.8044
   58SAPC  H14Y 4411   4.483   2.904   8.604 -0.3511 -0.5146 -0.3030
   58SAPC  C315 4412   4.270   2.927   8.534  0.0727  0.2174  0.6099
   58SAPC  H15X 4413   4.269   3.036   8.513 -2.7880  0.7788  2.9647
   58SAPC  H15Y 4414   4.173   2.901   8.581 -1.7720  2.4883 -1.6632
   58SAPC  C316 4415   4.277   2.840   8.408  0.3635 -0.1382  0.0833
   58SAPC  H16X 4416   4.174   2.819   8.374  0.9245 -1.3450 -0.9795
   58SAPC  H16Y 4417   4.308   2.740   8.445  1.1010  0.5583  1.4352
   58SAPC  C317 4418   4.379   2.899   8.304  0.0284  0.0224 -0.3688
   58SAPC  H17X 4419   4.480   2.877   8.344 -0.1410 -1.5418 -0.7615
   58SAPC  H17Y 4420   4.384   3.010   8.303  0.7664  0.0248  0.9835
   58SAPC  C318 4421   4.364   2.839   8.168 -0.1425  0.4872 -0.0666
   58SAPC  H18X 4422   4.445   2.876   8.103 -0.7712 -1.1615 -1.8779
   58SAPC  H18Y 4423   4.272   2.867   8.113  0.0097  0.1823 -0.4832
   58SAPC  H18Z 4424   4.359   2.728   8.179  1.5615  0.4839  0.9449
   59SAPC     N 4425   5.774   4.848  11.090  0.2225  0.0678  0.0064
   59SAPC   C12 4426   5.762   4.934  10.967 -0.7433 -0.1422 -0.5677
   59SAPC  H12A 4427   5.722   4.868  10.891  3.2375 -1.7043 -1.5824
   59SAPC  H12B 4428   5.862   4.960  10.936  0.3799 -2.3527  0.9097
   59SAPC   C13 4429   5.644   4.806  11.155  0.2223  0.3764 -0.3924
   59SAPC  H13A 4430   5.569   4.763  11.089 -1.0437  2.4290 -0.3908
   59SAPC  H13B 4431   5.653   4.740  11.240 -0.4951 -0.5831 -1.0411
   59SAPC  H13C 4432   5.593   4.894  11.193  2.0563  1.1170  0.4564
   59SAPC   C14 4433   5.853   4.723  11.064 -0.8630 -0.4107  0.5287
   59SAPC  H14A 4434   5.862   4.668  11.156 -1.3341 -2.4869 -0.5936
   59SAPC  H14B 4435   5.801   4.659  10.994 -1.1806  0.6577 -0.2417
   59SAPC  H14C 4436   5.952   4.754  11.034 -0.3077 -1.8885  0.7294
   59SAPC   C15 4437   5.848   4.927  11.203  0.3409  0.7477  0.2043
   59SAPC  H15A 4438   5.792   5.014  11.234  0.3083  1.0365 -0.6288
   59SAPC  H15B 4439   5.893   4.859  11.273  0.0952  1.4622  1.0738
   59SAPC  H15C 4440   5.938   4.970  11.159  1.6395 -1.5954  0.4380
   59SAPC   C11 4441   5.690   5.067  10.975  0.1406 -1.1407 -0.1065
   59SAPC  H11A 4442   5.707   5.125  10.882 -1.3681  0.0049  0.3032
   59SAPC  H11B 4443   5.713   5.142  11.053 -3.3056  0.6421 -0.6192
   59SAPC     P 4444   5.432   5.065  10.892 -0.0920  0.1251  0.0884
   59SAPC   O13 4445   5.430   4.935  10.823  0.0461  0.2727  0.0731
   59SAPC   O14 4446   5.314   5.115  10.957  0.2740  0.0655  0.2426
   59SAPC   O12 4447   5.552   5.051  10.997 -0.0539  0.0736 -0.0244
   59SAPC   O11 4448   5.494   5.182  10.799  0.5633 -0.6170 -0.1654
   59SAPC    C1 4449   5.411   5.250  10.698 -0.3347 -0.3196 -0.4414
   59SAPC    HA 4450   5.312   5.200  10.692 -0.1234 -0.6821 -0.9266
   59SAPC    HB 4451   5.397   5.352  10.739 -0.9303 -0.1299 -1.1015
   59SAPC    C2 4452   5.483   5.250  10.564  0.2951 -0.1994 -0.2542
   59SAPC    HS 4453   5.585   5.288  10.587 -0.2086 -0.2254  2.2718
   59SAPC   O21 4454   5.412   5.336  10.480 -0.5568 -0.3375  0.7649
   59SAPC   C21 4455   5.460   5.451  10.445 -0.5345 -0.0537 -0.4240
   59SAPC   O22 4456   5.563   5.506  10.490 -0.3705  0.1604 -0.7373
   59SAPC   C22 4457   5.378   5.526  10.340  0.1051 -0.7911  0.8494
   59SAPC   H2R 4458   5.448   5.601  10.299  2.3801 -2.0132  2.2531
   59SAPC   H2S 4459   5.342   5.458  10.259  0.5773  0.0282 -0.0723
   59SAPC    C3 4460   5.494   5.110  10.509 -0.4831 -0.0886 -0.0474
   59SAPC    HX 4461   5.389   5.073  10.505 -0.4195 -0.1924 -1.4804
   59SAPC    HY 4462   5.547   5.037  10.574 -0.3260 -1.7369 -1.9223
   59SAPC   O31 4463   5.559   5.111  10.381 -0.4508 -0.3636 -0.2272
   59SAPC   C31 4464   5.690   5.085  10.374  0.0065  0.0505  0.8824
   59SAPC   O32 4465   5.753   5.051  10.470  0.2330  0.0765  0.1902
   59SAPC   C32 4466   5.738   5.088  10.227 -0.0860  0.4221  0.2097
   59SAPC   H2X 4467   5.695   4.992  10.192  0.6960  0.2502 -0.3006
   59SAPC   H2Y 4468   5.848   5.072  10.229 -0.2399 -0.5956  0.8659
   59SAPC   C23 4469   5.256   5.596  10.404  0.0648 -0.2104  0.2200
   59SAPC   H3R 4470   5.290   5.659  10.489 -0.3576 -0.0370  0.2643
   59SAPC   H3S 4471   5.189   5.517  10.444  1.3926 -2.1396 -1.1915
   59SAPC   C24 4472   5.163   5.673  10.309 -0.4380 -0.0764 -0.0741
   59SAPC   H4R 4473   5.139   5.607  10.223  0.6713 -0.4138 -0.1437
   59SAPC   H4S 4474   5.224   5.743  10.247 -2.3330  2.9003  1.1623
   59SAPC   C25 4475   5.057   5.738  10.379 -0.0096 -1.2614 -0.7367
   59SAPC   H5R 4476   5.016   5.681  10.464 -0.1169  1.6660  1.3554
   59SAPC   C26 4477   5.003   5.856  10.354 -0.3578 -0.3046 -0.1559
   59SAPC   H6R 4478   4.920   5.898  10.412 -0.1654  0.2502 -0.2799
   59SAPC   C27 4479   5.046   5.958  10.256  0.5698 -0.4498  0.5708
   59SAPC   H7R 4480   4.999   5.929  10.160 -1.9969  1.4703  1.1370
   59SAPC   H7S 4481   5.155   5.962  10.238  0.4500 -1.8333 -0.6457
   59SAPC   C28 4482   4.997   6.100  10.285  0.1456 -0.5979  0.2367
   59SAPC   H8R 4483   5.010   6.136  10.388 -1.3365  1.5373 -0.2542
   59SAPC   C29 4484   4.960   6.206  10.206  0.2136 -0.7343 -0.4493
   59SAPC   H9R 4485   4.923   6.291  10.264  2.5223  0.3137 -0.4147
   59SAPC  C210 4486   4.949   6.230  10.061  0.0044 -0.4517  0.5863
   59SAPC  H10R 4487   4.946   6.139   9.996 -1.9518 -0.1954  0.2647
   59SAPC  H10S 4488   5.048   6.275  10.038  0.1683 -0.6668  0.8597
   59SAPC  C211 4489   4.858   6.334  10.000  0.8140  0.8929 -0.1923
   59SAPC  H11R 4490   4.787   6.370  10.076 -1.3538 -2.1664 -0.5750
   59SAPC  C212 4491   4.851   6.378   9.877 -0.3452  0.8536 -0.9866
   59SAPC  H12R 4492   4.766   6.444   9.853  0.6969  2.2947 -0.8178
   59SAPC  C213 4493   4.930   6.319   9.754  0.4893 -0.3790 -0.1564
   59SAPC  H13R 4494   4.896   6.217   9.728 -1.4673  0.6547 -1.9563
   59SAPC  H13S 4495   5.038   6.312   9.781  0.5968 -0.0536 -0.4998
   59SAPC  C214 4496   4.913   6.412   9.634  0.1833  0.2121 -0.3352
   59SAPC  H14R 4497   4.986   6.492   9.616  0.5695  0.0887  0.6268
   59SAPC  C215 4498   4.820   6.394   9.542  0.1771 -0.1510 -0.8210
   59SAPC  H15R 4499   4.797   6.476   9.473 -1.1958  0.1346 -0.0502
   59SAPC  C216 4500   4.713   6.285   9.537 -0.2482  0.0988 -0.7578
   59SAPC  H16R 4501   4.618   6.332   9.502  0.8507  1.5663 -1.9082
   59SAPC  H16S 4502   4.692   6.236   9.635  1.7652  2.1830  0.8197
   59SAPC  C217 4503   4.742   6.164   9.444 -1.0546 -0.3888 -0.6058
   59SAPC  H17R 4504   4.724   6.069   9.497 -0.7297  0.7269  1.6211
   59SAPC  H17S 4505   4.852   6.169   9.427 -0.9068  0.2140  0.4435
   59SAPC  C218 4506   4.656   6.179   9.316 -0.0637  0.5740 -0.3613
   59SAPC  H18R 4507   4.551   6.179   9.355  0.8383 -0.5936  2.3396
   59SAPC  H18S 4508   4.693   6.091   9.261 -0.1376  0.0440  0.4110
   59SAPC  C219 4509   4.667   6.308   9.235  0.0867  0.0935 -0.0107
   59SAPC  H19R 4510   4.768   6.355   9.232 -1.0059  2.7690  1.3115
   59SAPC  H19S 4511   4.601   6.385   9.281  0.0598 -1.0134  1.8993
   59SAPC  C220 4512   4.616   6.298   9.095 -0.3561 -0.2117 -0.0443
   59SAPC  H20R 4513   4.667   6.218   9.037  2.0408  0.6064  0.8150
   59SAPC  H20S 4514   4.630   6.395   9.043 -0.5601 -0.9897 -1.5927
   59SAPC  H20T 4515   4.508   6.272   9.099 -0.3457 -0.2513 -0.0207
   59SAPC   C33 4516   5.675   5.204  10.140  0.6682 -0.1111  0.1690
   59SAPC   H3X 4517   5.718   5.293  10.191  1.1892 -0.7916  0.9492
   59SAPC   H3Y 4518   5.565   5.206  10.156  0.8425 -0.6841  1.5804
   59SAPC   C34 4519   5.704   5.199   9.986 -0.4923 -0.4425  0.0609
   59SAPC   H4X 4520   5.811   5.185   9.959 -0.5743 -2.4601  0.5724
   59SAPC   H4Y 4521   5.666   5.293   9.940  0.5846 -0.7441 -1.5249
   59SAPC   C35 4522   5.647   5.072   9.918  0.5130 -0.2754 -0.1996
   59SAPC   H5X 4523   5.536   5.072   9.924  0.4946 -0.0825 -0.5094
   59SAPC   H5Y 4524   5.681   4.982   9.974 -0.7491 -0.0005  1.0553
   59SAPC   C36 4525   5.686   5.057   9.771 -0.0274 -0.0677  0.1726
   59SAPC   H6X 4526   5.638   4.964   9.733 -1.5910  0.7357  0.1111
   59SAPC   H6Y 4527   5.796   5.047   9.762 -0.2192 -1.2306 -1.1991
   59SAPC   C37 4528   5.634   5.169   9.678 -0.5466  0.7193 -0.2274
   59SAPC   H7X 4529   5.698   5.258   9.698 -0.0279 -0.0897  2.0744
   59SAPC   H7Y 4530   5.533   5.189   9.718  0.6538  0.5147  3.2353
   59SAPC   C38 4531   5.628   5.130   9.527  0.0398  0.1007  0.5481
   59SAPC   H8X 4532   5.550   5.051   9.536 -1.3637  1.6360  2.8296
   59SAPC   H8Y 4533   5.725   5.089   9.491  0.7500  1.9827  0.2247
   59SAPC   C39 4534   5.571   5.241   9.443  0.1853  0.5500  0.2942
   59SAPC   H9X 4535   5.618   5.341   9.450  1.4935 -0.0603  0.6629
   59SAPC   H9Y 4536   5.472   5.271   9.484 -0.3641  0.0245 -0.6114
   59SAPC  C310 4537   5.561   5.212   9.292 -0.7072 -0.0642  0.1678
   59SAPC  H10X 4538   5.490   5.275   9.235 -2.6964 -1.6498  0.7641
   59SAPC  H10Y 4539   5.519   5.112   9.268 -0.0144  0.1959 -2.3855
   59SAPC  C311 4540   5.699   5.211   9.223  0.1418 -0.3550  0.2673
   59SAPC  H11X 4541   5.765   5.140   9.276  1.3362  0.6848  0.2161
   59SAPC  H11Y 4542   5.741   5.313   9.237 -1.3958  0.3599 -0.0494
   59SAPC  C312 4543   5.697   5.182   9.077 -0.4563 -0.6500 -0.0355
   59SAPC  H12X 4544   5.636   5.266   9.035  1.2830  0.1839 -1.0106
   59SAPC  H12Y 4545   5.638   5.090   9.056 -1.2542  0.2336 -1.9556
   59SAPC  C313 4546   5.831   5.166   9.005  0.4085 -0.2997  0.1025
   59SAPC  H13X 4547   5.881   5.076   9.046 -1.5389 -0.5253  2.1958
   59SAPC  H13Y 4548   5.887   5.257   9.033  0.8511  0.0219 -1.7061
   59SAPC  C314 4549   5.812   5.154   8.853 -0.3773  0.4608 -0.3063
   59SAPC  H14X 4550   5.746   5.241   8.830 -0.0824  0.2011 -2.2704
   59SAPC  H14Y 4551   5.754   5.062   8.829 -0.6742  0.2744  1.0351
   59SAPC  C315 4552   5.936   5.161   8.766  0.4352 -0.2756  0.7930
   59SAPC  H15X 4553   6.006   5.246   8.781  2.0368 -0.3621 -4.2290
   59SAPC  H15Y 4554   5.891   5.172   8.665 -1.8805  2.3605  1.9702
   59SAPC  C316 4555   6.009   5.028   8.764  0.3924  0.0236  0.0934
   59SAPC  H16X 4556   6.042   5.010   8.660  0.4275  1.6535 -0.1970
   59SAPC  H16Y 4557   5.941   4.944   8.788  0.5985  0.4078  2.3248
   59SAPC  C317 4558   6.123   5.009   8.863  0.8120 -1.1069  0.6624
   59SAPC  H17X 4559   6.076   4.988   8.961 -2.6858  0.0555 -0.6172
   59SAPC  H17Y 4560   6.183   5.103   8.857 -1.9431  0.7075 -0.3564
   59SAPC  C318 4561   6.195   4.874   8.847 -0.5030 -0.1243 -0.0585
   59SAPC  H18X 4562   6.240   4.874   8.746  1.2724 -0.2914  0.6903
   59SAPC  H18Y 4563   6.127   4.788   8.870 -0.1183 -0.5929 -0.6563
   59SAPC  H18Z 4564   6.282   4.866   8.915  0.1301  2.7419 -0.4408
   60SAPC     N 4565   1.278   2.095  10.925 -0.5425 -0.3902 -0.4912
   60SAPC   C12 4566   1.159   2.189  10.919 -0.4049 -0.2554  0.3379
   60SAPC  H12A 4567   1.089   2.134  10.981  0.1032 -2.6131 -1.0459
   60SAPC  H12B 4568   1.131   2.200  10.816  1.8379  0.4777 -0.2472
   60SAPC   C13 4569   1.405   2.167  10.878 -0.0395 -0.2720  0.3607
   60SAPC  H13A 4570   1.492   2.110  10.907  0.3086  1.1513  2.3248
   60SAPC  H13B 4571   1.401   2.173  10.770  1.2615 -4.1136 -0.0537
   60SAPC  H13C 4572   1.398   2.267  10.918  0.6646 -0.2902  0.5395
   60SAPC   C14 4573   1.297   2.044  11.063 -0.1258 -0.0630 -0.1367
   60SAPC  H14A 4574   1.207   1.996  11.101  0.2798 -1.0030 -0.3510
   60SAPC  H14B 4575   1.371   1.966  11.069  1.5224  1.4788  0.2725
   60SAPC  H14C 4576   1.325   2.122  11.133 -2.4118 -1.5722  2.6899
   60SAPC   C15 4577   1.249   1.975  10.843 -0.8671  0.9094  0.3235
   60SAPC  H15A 4578   1.239   2.004  10.740  3.4641 -0.3643 -0.6874
   60SAPC  H15B 4579   1.331   1.906  10.834 -2.0292 -0.3578 -0.8736
   60SAPC  H15C 4580   1.155   1.927  10.863 -1.2760  1.7375  0.4251
   60SAPC   C11 4581   1.188   2.331  10.980 -0.1121 -0.5248  0.2150
   60SAPC  H11A 4582   1.252   2.319  11.071 -1.5781  1.0669  1.5284
   60SAPC  H11B 4583   1.084   2.361  11.005  0.2776  1.8568 -0.7484
   60SAPC     P 4584   1.162   2.495  10.778 -0.3856 -0.3676  0.2584
   60SAPC   O13 4585   1.079   2.587  10.855 -0.5388  0.3967 -0.5370
   60SAPC   O14 4586   1.263   2.562  10.692  0.4831  0.2296  0.3158
   60SAPC   O12 4587   1.251   2.419  10.890  0.0003 -0.6025  0.5161
   60SAPC   O11 4588   1.074   2.400  10.688  0.1022  0.3667 -0.1336
   60SAPC    C1 4589   0.932   2.365  10.708 -0.4653 -0.0692  0.6256
   60SAPC    HA 4590   0.902   2.370  10.815  2.3368  1.5206  1.4355
   60SAPC    HB 4591   0.870   2.440  10.655 -0.4691 -0.4540  0.0792
   60SAPC    C2 4592   0.880   2.242  10.639 -0.0567  0.1524  0.3657
   60SAPC    HS 4593   0.900   2.152  10.700 -1.9522  0.7919  2.0279
   60SAPC   O21 4594   0.942   2.225  10.506 -0.1374 -0.2258  0.4012
   60SAPC   C21 4595   0.917   2.114  10.448  0.5749 -0.2939  0.2059
   60SAPC   O22 4596   0.858   2.012  10.480 -0.3144 -0.1610 -0.3656
   60SAPC   C22 4597   0.983   2.120  10.302  0.1680  0.2890 -0.6132
   60SAPC   H2R 4598   0.907   2.177  10.244  1.2425  3.0120  0.5043
   60SAPC   H2S 4599   1.078   2.175  10.321  0.8227 -0.6250 -1.1233
   60SAPC    C3 4600   0.724   2.243  10.630  0.1385  0.7927  0.5836
   60SAPC    HX 4601   0.690   2.248  10.736  1.2546  2.9244  0.9060
   60SAPC    HY 4602   0.691   2.144  10.594  0.6327  0.5581  0.7672
   60SAPC   O31 4603   0.678   2.358  10.549 -0.2723  0.0936  0.0513
   60SAPC   C31 4604   0.653   2.336  10.418  0.1340  0.5169 -0.0807
   60SAPC   O32 4605   0.670   2.228  10.362 -0.9023 -0.3563 -0.8719
   60SAPC   C32 4606   0.606   2.463  10.343 -0.0285  0.3567 -0.2612
   60SAPC   H2X 4607   0.672   2.549  10.368 -0.7848  1.3158 -1.4471
   60SAPC   H2Y 4608   0.500   2.476  10.375 -1.2650 -1.1989 -3.3236
   60SAPC   C23 4609   1.021   1.986  10.233 -0.0361 -0.3899  0.3751
   60SAPC   H3R 4610   1.018   2.013  10.125 -0.0837 -3.1209 -0.3654
   60SAPC   H3S 4611   0.937   1.916  10.252  0.7321 -1.5952 -0.5117
   60SAPC   C24 4612   1.153   1.922  10.280  0.0126 -0.3123  0.5496
   60SAPC   H4R 4613   1.157   1.812  10.261 -0.4673 -0.4443  1.1819
   60SAPC   H4S 4614   1.162   1.936  10.390  1.3397 -1.3035  0.5995
   60SAPC   C25 4615   1.274   1.987  10.215  0.3647  0.4447 -0.9150
   60SAPC   H5R 4616   1.308   2.085  10.253 -0.5459  0.7214 -0.7897
   60SAPC   C26 4617   1.346   1.921  10.123 -0.2990 -0.3730  0.1468
   60SAPC   H6R 4618   1.443   1.951  10.081 -0.0779 -3.5277 -1.9096
   60SAPC   C27 4619   1.307   1.793  10.059 -0.6431 -0.1803  0.5064
   60SAPC   H7R 4620   1.199   1.803  10.034 -0.2725  2.4154 -0.2775
   60SAPC   H7S 4621   1.315   1.703  10.124  0.0114  0.5253  1.4273
   60SAPC   C28 4622   1.387   1.764   9.931 -0.4701 -0.4631 -0.3470
   60SAPC   H8R 4623   1.340   1.803   9.839 -0.5672 -0.3832 -0.2625
   60SAPC   C29 4624   1.499   1.683   9.915  0.8037 -0.0142 -0.3935
   60SAPC   H9R 4625   1.537   1.655   9.815 -2.4603  0.9573 -2.0102
   60SAPC  C210 4626   1.568   1.608  10.025  0.4134 -0.3892  0.7415
   60SAPC  H10R 4627   1.560   1.654  10.126 -0.3128 -3.9814  2.4859
   60SAPC  H10S 4628   1.677   1.608  10.005  0.2482  1.7661 -0.4478
   60SAPC  C211 4629   1.502   1.473  10.021  0.0294  0.5268 -0.0754
   60SAPC  H11R 4630   1.399   1.471  10.057  0.0905  3.6001  0.5639
   60SAPC  C212 4631   1.553   1.353   9.976 -0.8442 -0.9293  0.0565
   60SAPC  H12R 4632   1.494   1.261   9.963  0.2157 -1.4045 -1.8095
   60SAPC  C213 4633   1.693   1.327   9.923  0.5920  0.1337 -0.3702
   60SAPC  H13R 4634   1.753   1.289  10.008  1.0785 -1.0306 -1.2244
   60SAPC  H13S 4635   1.740   1.420   9.883  1.2564  1.6763  3.5333
   60SAPC  C214 4636   1.701   1.230   9.810 -0.1087  0.7694  0.1120
   60SAPC  H14R 4637   1.647   1.136   9.828  0.6359  0.4055  0.4680
   60SAPC  C215 4638   1.756   1.251   9.686  0.2641 -0.6087  0.3822
   60SAPC  H15R 4639   1.735   1.172   9.612 -0.4168  0.4294 -0.5664
   60SAPC  C216 4640   1.816   1.378   9.632 -0.5307 -0.0857  0.2786
   60SAPC  H16R 4641   1.924   1.373   9.658 -0.1493  0.8896 -0.9888
   60SAPC  H16S 4642   1.794   1.474   9.682  0.6283  1.0245 -1.2389
   60SAPC  C217 4643   1.791   1.401   9.480 -0.0654 -0.3799  0.4983
   60SAPC  H17R 4644   1.837   1.499   9.455 -2.0435  0.0364 -1.8074
   60SAPC  H17S 4645   1.681   1.410   9.467  0.0931  2.1304  0.3718
   60SAPC  C218 4646   1.834   1.289   9.384  0.4092  0.4000 -0.1924
   60SAPC  H18R 4647   1.774   1.196   9.397  0.3895 -0.0722 -3.0081
   60SAPC  H18S 4648   1.939   1.266   9.412  0.0657 -1.1668 -0.0880
   60SAPC  C219 4649   1.844   1.337   9.242 -0.0816  0.0312 -1.0416
   60SAPC  H19R 4650   1.906   1.428   9.231 -0.7329  0.4547 -1.2590
   60SAPC  H19S 4651   1.743   1.378   9.217 -1.7487 -1.7312  2.1545
   60SAPC  C220 4652   1.914   1.226   9.162 -0.4747 -0.4104 -0.2940
   60SAPC  H20R 4653   1.927   1.261   9.057  1.5113 -1.8947 -0.5975
   60SAPC  H20S 4654   1.845   1.140   9.151 -0.1359 -0.5044 -2.0293
   60SAPC  H20T 4655   2.004   1.194   9.218 -2.8972 -2.1170  2.9415
   60SAPC   C33 4656   0.583   2.442  10.197 -0.0511  0.1955  0.4476
   60SAPC   H3X 4657   0.554   2.545  10.167 -2.4025 -0.2855  0.8197
   60SAPC   H3Y 4658   0.496   2.378  10.168 -1.2914  1.8007  0.4842
   60SAPC   C34 4659   0.715   2.406  10.117  1.0134 -0.1275  0.2227
   60SAPC   H4X 4660   0.726   2.296  10.130 -4.4723 -0.7403  2.0368
   60SAPC   H4Y 4661   0.797   2.466  10.164  0.1471  1.8441 -0.6485
   60SAPC   C35 4662   0.718   2.434   9.961 -0.0118 -0.5791 -0.4330
   60SAPC   H5X 4663   0.635   2.377   9.914  1.6854 -2.6141 -1.1567
   60SAPC   H5Y 4664   0.815   2.392   9.927  0.6548  0.1176  0.5706
   60SAPC   C36 4665   0.733   2.579   9.925  0.1308  0.0230 -0.1262
   60SAPC   H6X 4666   0.841   2.601   9.938 -0.2296  1.4695  0.6819
   60SAPC   H6Y 4667   0.676   2.646   9.993  0.0044  1.6466 -1.7433
   60SAPC   C37 4668   0.691   2.617   9.787  0.0961 -0.6826  0.0958
   60SAPC   H7X 4669   0.716   2.724   9.775 -1.2945 -0.3727 -0.2231
   60SAPC   H7Y 4670   0.581   2.620   9.777 -0.0130 -0.4461  1.2359
   60SAPC   C38 4671   0.762   2.526   9.688  0.5808  0.3317 -0.3240
   60SAPC   H8X 4672   0.704   2.431   9.692 -1.5207  1.4997 -1.5132
   60SAPC   H8Y 4673   0.869   2.515   9.716  1.1048  0.0464 -2.2904
   60SAPC   C39 4674   0.763   2.569   9.541 -0.6937  0.5345  0.5744
   60SAPC   H9X 4675   0.811   2.669   9.533  0.2615  0.0726  0.5150
   60SAPC   H9Y 4676   0.660   2.577   9.499 -0.2283 -1.0725 -0.9800
   60SAPC  C310 4677   0.835   2.464   9.450  0.3118 -0.1306 -0.1963
   60SAPC  H10X 4678   0.812   2.478   9.343 -0.8467  1.8393  0.2602
   60SAPC  H10Y 4679   0.811   2.358   9.474  0.4437  0.1748  1.4200
   60SAPC  C311 4680   0.989   2.479   9.464 -0.7650  0.2040  0.6143
   60SAPC  H11X 4681   1.005   2.454   9.571 -0.8840  0.3810  0.6756
   60SAPC  H11Y 4682   1.026   2.583   9.451 -0.0191 -0.3077 -1.8128
   60SAPC  C312 4683   1.070   2.397   9.362  0.9201  0.0257 -0.5805
   60SAPC  H12X 4684   1.029   2.294   9.360 -1.1983  0.6189  3.1096
   60SAPC  H12Y 4685   1.178   2.392   9.387  1.0931  1.0016 -1.0886
   60SAPC  C313 4686   1.057   2.455   9.222 -0.1797 -1.1164  0.6126
   60SAPC  H13X 4687   1.078   2.563   9.231  1.0538 -1.4080  1.6927
   60SAPC  H13Y 4688   0.957   2.432   9.179 -0.8734  3.9936 -1.1016
   60SAPC  C314 4689   1.159   2.411   9.114 -0.4708 -0.0618  0.1324
   60SAPC  H14X 4690   1.261   2.422   9.156  0.8757 -1.7149 -2.3833
   60SAPC  H14Y 4691   1.154   2.483   9.030 -0.3554  2.5047  2.2038
   60SAPC  C315 4692   1.150   2.274   9.043 -0.0919  0.4838 -1.0118
   60SAPC  H15X 4693   1.049   2.265   8.997 -0.3507  0.0575 -0.3761
   60SAPC  H15Y 4694   1.160   2.188   9.112 -0.3875  1.2299 -0.0121
   60SAPC  C316 4695   1.262   2.243   8.944  0.6240  0.0807 -0.1240
   60SAPC  H16X 4696   1.359   2.225   8.996  0.8897 -1.3255 -1.0609
   60SAPC  H16Y 4697   1.278   2.324   8.870  0.6768  0.1959  0.0109
   60SAPC  C317 4698   1.232   2.128   8.853 -0.0051  0.7861  0.0584
   60SAPC  H17X 4699   1.155   2.154   8.778 -1.6080 -0.3254  1.2461
   60SAPC  H17Y 4700   1.195   2.033   8.897 -0.8008  0.4298 -1.3433
   60SAPC  C318 4701   1.358   2.080   8.778 -0.3211 -0.0943  0.2032
   60SAPC  H18X 4702   1.417   2.018   8.848 -1.4777  1.5318  2.7609
   60SAPC  H18Y 4703   1.419   2.167   8.743  0.4857 -0.9863 -0.6783
   60SAPC  H18Z 4704   1.321   2.021   8.691  2.7646 -0.2991 -1.1110
   61SAPC     N 4705   2.201   2.883  11.128  0.3719  0.1013  0.2086
   61SAPC   C12 4706   2.270   2.897  10.994  0.2746 -0.1603 -0.2367
   61SAPC  H12A 4707   2.372   2.873  11.020 -0.3384  0.2098  2.9436
   61SAPC  H12B 4708   2.269   3.002  10.971  0.6612 -0.5166 -2.0556
   61SAPC   C13 4709   2.061   2.934  11.108  1.0813 -0.2935 -0.6746
   61SAPC  H13A 4710   2.056   3.042  11.108 -1.3319 -0.3280  1.2006
   61SAPC  H13B 4711   2.019   2.906  11.012  1.1104 -2.6825 -0.0426
   61SAPC  H13C 4712   1.992   2.897  11.182  0.1132  0.6797 -1.0557
   61SAPC   C14 4713   2.183   2.740  11.170 -0.4408  0.4239  0.4268
   61SAPC  H14A 4714   2.275   2.696  11.206 -1.1313 -0.6569  0.9253
   61SAPC  H14B 4715   2.109   2.721  11.246 -1.6386 -0.7338 -0.9831
   61SAPC  H14C 4716   2.158   2.672  11.090 -2.7700  0.0831  1.3668
   61SAPC   C15 4717   2.265   2.961  11.235 -0.5224 -0.5404 -0.1086
   61SAPC  H15A 4718   2.365   2.925  11.254 -0.1025  0.9703  0.7197
   61SAPC  H15B 4719   2.279   3.064  11.206 -0.1305 -0.5108  0.1801
   61SAPC  H15C 4720   2.211   2.951  11.328  0.0691  1.1199  0.4468
   61SAPC   C11 4721   2.237   2.822  10.865  0.1808 -0.7233 -0.2220
   61SAPC  H11A 4722   2.253   2.716  10.890 -0.9854 -1.0381 -0.7143
   61SAPC  H11B 4723   2.321   2.853  10.798  1.1182 -1.2730  0.6823
   61SAPC     P 4724   2.063   2.938  10.698  0.2014  0.1172 -0.0591
   61SAPC   O13 4725   1.912   2.935  10.673  0.5979  0.3231  0.7609
   61SAPC   O14 4726   2.126   3.070  10.718  0.5098  0.3128  0.9112
   61SAPC   O12 4727   2.104   2.846  10.818 -0.3384  0.1495  0.9842
   61SAPC   O11 4728   2.127   2.850  10.581 -0.1606  0.4433 -0.0586
   61SAPC    C1 4729   2.105   2.710  10.574  0.2558 -0.2143 -0.6697
   61SAPC    HA 4730   2.200   2.654  10.591  1.3656  0.8754 -2.8208
   61SAPC    HB 4731   2.030   2.675  10.647  1.5261  2.3806  2.0796
   61SAPC    C2 4732   2.050   2.672  10.435  0.6660 -0.6345  0.9028
   61SAPC    HS 4733   2.065   2.563  10.418  1.2665 -0.2115 -1.8352
   61SAPC   O21 4734   2.123   2.734  10.322  0.0451  0.8887 -0.1055
   61SAPC   C21 4735   2.251   2.694  10.316 -0.0416 -0.0818  0.1952
   61SAPC   O22 4736   2.298   2.609  10.386  0.2425 -0.3400  0.5348
   61SAPC   C22 4737   2.324   2.762  10.199 -0.0626 -0.5495  0.1896
   61SAPC   H2R 4738   2.324   2.869  10.227  2.0695 -0.2111 -0.8811
   61SAPC   H2S 4739   2.429   2.727  10.209 -0.4751 -2.4469 -1.3738
   61SAPC    C3 4740   1.893   2.712  10.416 -0.3440  0.5469 -0.7077
   61SAPC    HX 4741   1.881   2.821  10.434 -0.1519  0.1522  2.1814
   61SAPC    HY 4742   1.838   2.654  10.493  1.3204 -1.4204 -0.8911
   61SAPC   O31 4743   1.860   2.680  10.278 -0.9800  0.2249  0.1357
   61SAPC   C31 4744   1.822   2.554  10.249 -0.6864  0.2654  0.2909
   61SAPC   O32 4745   1.805   2.463  10.324  0.7245  0.5010  0.3906
   61SAPC   C32 4746   1.811   2.535  10.099  0.1185 -0.1616 -0.1351
   61SAPC   H2X 4747   1.908   2.501  10.057 -0.1631 -1.8419  0.4991
   61SAPC   H2Y 4748   1.787   2.633  10.052  2.7454 -0.7447 -2.9904
   61SAPC   C23 4749   2.253   2.740  10.063 -1.5341  0.6787 -0.0958
   61SAPC   H3R 4750   2.269   2.824   9.992 -1.7406 -0.3075 -1.3457
   61SAPC   H3S 4751   2.142   2.739  10.053 -1.2892  0.1653 -5.2976
   61SAPC   C24 4752   2.312   2.612   9.991  0.0278 -0.2914  0.1090
   61SAPC   H4R 4753   2.422   2.613  10.008 -0.1988 -1.0601  1.7413
   61SAPC   H4S 4754   2.305   2.624   9.880 -0.1424 -0.1467  0.1354
   61SAPC   C25 4755   2.273   2.473  10.025  0.0427  0.4356  0.3030
   61SAPC   H5R 4756   2.305   2.430  10.120  0.0498 -1.5028 -0.5285
   61SAPC   C26 4757   2.204   2.386   9.939 -0.1604 -0.2215 -0.9244
   61SAPC   H6R 4758   2.168   2.293   9.987  1.6325 -0.3763  0.2230
   61SAPC   C27 4759   2.166   2.409   9.797  0.0238 -0.1127  0.5390
   61SAPC   H7R 4760   2.255   2.417   9.731 -0.1584 -0.5183  0.2479
   61SAPC   H7S 4761   2.115   2.508   9.796  0.0809 -0.0113  2.6348
   61SAPC   C28 4762   2.065   2.309   9.754 -0.1485 -0.1458  0.6373
   61SAPC   H8R 4763   1.976   2.302   9.817  0.1777  0.6687  1.2006
   61SAPC   C29 4764   2.068   2.228   9.649 -0.4821  0.0131  0.0967
   61SAPC   H9R 4765   1.976   2.175   9.622 -0.8389  0.3001  0.7290
   61SAPC  C210 4766   2.183   2.228   9.547 -0.9111  0.2000 -0.4412
   61SAPC  H10R 4767   2.246   2.137   9.555  0.3091  1.1111  0.9361
   61SAPC  H10S 4768   2.254   2.311   9.565 -1.0483  0.2460 -0.0979
   61SAPC  C211 4769   2.141   2.229   9.403  0.0157  0.5683  0.1053
   61SAPC  H11R 4770   2.131   2.325   9.350 -3.0410 -0.2708 -1.0995
   61SAPC  C212 4771   2.114   2.126   9.326 -0.0697  0.0762  0.1234
   61SAPC  H12R 4772   2.091   2.147   9.221  2.6494  1.5928 -0.2596
   61SAPC  C213 4773   2.125   1.983   9.375  0.7142  0.2199 -0.3164
   61SAPC  H13R 4774   2.085   1.975   9.478 -0.0358 -0.0711 -0.6199
   61SAPC  H13S 4775   2.229   1.943   9.381  0.6705  0.3364  1.9918
   61SAPC  C214 4776   2.035   1.893   9.300 -0.3995 -0.2432 -0.0137
   61SAPC  H14R 4777   1.954   1.856   9.363  0.2986 -1.9616 -0.0698
   61SAPC  C215 4778   2.054   1.836   9.179 -0.6997  0.2530 -0.2151
   61SAPC  H15R 4779   1.974   1.770   9.141  0.3913 -0.6249 -1.0888
   61SAPC  C216 4780   2.173   1.865   9.090 -0.0007 -0.1901 -0.0043
   61SAPC  H16R 4781   2.244   1.782   9.112 -1.0391 -0.5663  2.1123
   61SAPC  H16S 4782   2.216   1.965   9.115  0.5893 -0.7298  1.2193
   61SAPC  C217 4783   2.133   1.863   8.939  0.1127  0.0139 -0.6394
   61SAPC  H17R 4784   2.040   1.923   8.936  0.4829  0.8368  2.0859
   61SAPC  H17S 4785   2.099   1.759   8.917 -1.9368  0.7762 -1.3491
   61SAPC  C218 4786   2.238   1.908   8.834  0.1119 -0.4073  0.1974
   61SAPC  H18R 4787   2.196   1.896   8.732  3.7290  0.8508 -1.6184
   61SAPC  H18S 4788   2.332   1.850   8.842 -0.8004 -1.8549  0.8839
   61SAPC  C219 4789   2.272   2.056   8.845  0.4401 -0.1965  0.0027
   61SAPC  H19R 4790   2.301   2.068   8.951 -0.1091  1.3115 -0.0030
   61SAPC  H19S 4791   2.175   2.109   8.836  0.6287  0.3887  1.3084
   61SAPC  C220 4792   2.376   2.106   8.739 -0.0352 -0.2099 -0.4932
   61SAPC  H20R 4793   2.414   2.021   8.679 -0.5299 -1.4410  0.8661
   61SAPC  H20S 4794   2.465   2.138   8.799 -1.1052  3.8804 -0.7819
   61SAPC  H20T 4795   2.327   2.185   8.679 -2.0090 -0.8938  0.1565
   61SAPC   C33 4796   1.704   2.446  10.049  0.0011 -0.3666  0.4953
   61SAPC   H3X 4797   1.602   2.490  10.040  1.0722  2.7610  2.3291
   61SAPC   H3Y 4798   1.707   2.346  10.097  0.1179 -0.8557 -0.5023
   61SAPC   C34 4799   1.741   2.410   9.905  0.2495 -0.0561  0.1965
   61SAPC   H4X 4800   1.813   2.325   9.910 -0.2132 -0.6317 -2.0414
   61SAPC   H4Y 4801   1.784   2.498   9.853 -2.1445  1.4032  0.5508
   61SAPC   C35 4802   1.623   2.373   9.809  0.0509 -0.4644  0.0845
   61SAPC   H5X 4803   1.567   2.466   9.783  0.7447 -1.0047 -3.8829
   61SAPC   H5Y 4804   1.550   2.315   9.869 -0.5960  0.7804  0.5567
   61SAPC   C36 4805   1.671   2.295   9.687  0.6751 -1.2242 -0.2167
   61SAPC   H6X 4806   1.676   2.184   9.693  0.1464 -1.3025 -0.9918
   61SAPC   H6Y 4807   1.776   2.325   9.667 -0.2233  1.5281 -1.2328
   61SAPC   C37 4808   1.590   2.337   9.560  0.0149 -0.6725 -0.1038
   61SAPC   H7X 4809   1.608   2.443   9.531  1.3072 -0.9817 -0.4969
   61SAPC   H7Y 4810   1.480   2.330   9.574 -0.4293 -2.1796 -3.3268
   61SAPC   C38 4811   1.626   2.245   9.444  0.1264 -0.1450  0.0117
   61SAPC   H8X 4812   1.600   2.138   9.463  0.4126 -0.4470 -1.2183
   61SAPC   H8Y 4813   1.736   2.252   9.432  0.4100 -2.2582  0.8637
   61SAPC   C39 4814   1.558   2.269   9.310  0.3709  0.1003 -0.2391
   61SAPC   H9X 4815   1.572   2.374   9.277  1.2912 -0.4763 -1.7573
   61SAPC   H9Y 4816   1.448   2.254   9.316 -0.6435  4.4971 -3.0450
   61SAPC  C310 4817   1.609   2.174   9.199 -0.2721  0.4403  0.1113
   61SAPC  H10X 4818   1.558   2.206   9.106  0.0455 -2.3310 -1.1018
   61SAPC  H10Y 4819   1.579   2.069   9.216 -0.7490  0.6606  0.6589
   61SAPC  C311 4820   1.765   2.181   9.193  0.3202 -0.6013 -0.4744
   61SAPC  H11X 4821   1.811   2.132   9.282  0.2754  0.0702 -0.0707
   61SAPC  H11Y 4822   1.787   2.290   9.200 -1.3227 -0.2423 -0.5265
   61SAPC  C312 4823   1.822   2.122   9.069 -0.1352  0.7191 -0.7160
   61SAPC  H12X 4824   1.784   2.018   9.060 -1.9924  1.2000  0.9653
   61SAPC  H12Y 4825   1.932   2.118   9.085 -0.4636 -3.9714  1.9705
   61SAPC  C313 4826   1.785   2.190   8.936  0.5377 -0.4712  0.1631
   61SAPC  H13X 4827   1.786   2.297   8.965  2.7899 -0.8213  1.6420
   61SAPC  H13Y 4828   1.676   2.176   8.919  0.5913  0.0336 -0.5842
   61SAPC  C314 4829   1.872   2.162   8.817 -0.0096  0.0629 -0.2194
   61SAPC  H14X 4830   1.885   2.051   8.817  2.0332  0.2619 -0.2907
   61SAPC  H14Y 4831   1.969   2.205   8.850 -0.1653 -0.8376  1.5166
   61SAPC  C315 4832   1.810   2.207   8.682 -0.7823  0.4101  0.6986
   61SAPC  H15X 4833   1.814   2.318   8.677  1.0274  0.3635  0.1489
   61SAPC  H15Y 4834   1.706   2.170   8.683 -0.0609 -1.7937  2.0229
   61SAPC  C316 4835   1.881   2.158   8.552  0.1329  0.4746  0.6177
   61SAPC  H16X 4836   1.813   2.181   8.468 -0.0494  1.0357  0.9131
   61SAPC  H16Y 4837   1.888   2.047   8.552 -1.0582  0.3701 -0.8226
   61SAPC  C317 4838   2.012   2.229   8.531  0.1337 -0.9510 -0.0942
   61SAPC  H17X 4839   2.063   2.196   8.439  1.2751 -3.5044  1.3559
   61SAPC  H17Y 4840   2.081   2.219   8.618  0.5489  2.9284  0.2107
   61SAPC  C318 4841   1.988   2.381   8.525  0.9021 -0.4996  0.0322
   61SAPC  H18X 4842   1.894   2.406   8.471  1.2398 -1.7028 -1.1721
   61SAPC  H18Y 4843   2.073   2.430   8.472 -0.5531  0.2384 -1.7552
   61SAPC  H18Z 4844   1.985   2.415   8.631  0.5015 -1.0091  0.1894
   62SAPC     N 4845   2.130   0.169  10.715  0.1197 -0.4635  0.1730
   62SAPC   C12 4846   2.271   0.193  10.722  0.0478 -0.5479 -0.2010
   62SAPC  H12A 4847   2.330   0.102  10.729 -0.3143 -0.8994 -1.4301
   62SAPC  H12B 4848   2.291   0.245  10.815  1.1198  0.5818 -1.0242
   62SAPC   C13 4849   2.081   0.076  10.825  0.2605  0.3881  0.0916
   62SAPC  H13A 4850   1.993   0.019  10.801 -0.0792 -0.1270  2.3104
   62SAPC  H13B 4851   2.162   0.005  10.829  0.2004  0.3604  1.0620
   62SAPC  H13C 4852   2.080   0.131  10.918 -2.3487  2.0090 -0.7905
   62SAPC   C14 4853   2.051   0.299  10.725  0.0337  0.5205 -0.5933
   62SAPC  H14A 4854   2.086   0.365  10.647  0.1969  0.5136 -0.5258
   62SAPC  H14B 4855   1.949   0.288  10.690  0.5092 -0.9182 -1.6715
   62SAPC  H14C 4856   2.060   0.355  10.816  5.4344 -0.2979 -0.2842
   62SAPC   C15 4857   2.102   0.099  10.591  0.3694  0.2255  0.8445
   62SAPC  H15A 4858   1.997   0.080  10.573  0.6750 -0.9271  0.1697
   62SAPC  H15B 4859   2.140   0.161  10.511  0.6967  2.1540  2.4181
   62SAPC  H15C 4860   2.148   0.002  10.577 -2.4884 -1.0197 -0.7285
   62SAPC   C11 4861   2.344   0.275  10.604  0.4618  0.3263 -0.0085
   62SAPC  H11A 4862   2.334   0.224  10.506 -0.2440  0.5056 -0.0355
   62SAPC  H11B 4863   2.453   0.280  10.626  0.1714  1.8315  1.3302
   62SAPC     P 4864   2.280   0.488  10.461  0.0109  0.2129  0.7671
   62SAPC   O13 4865   2.208   0.611  10.487  0.0937 -0.6204 -0.8035
   62SAPC   O14 4866   2.410   0.490  10.387  0.7065 -0.1936  0.2768
   62SAPC   O12 4867   2.292   0.407  10.598 -0.4930 -0.0801 -0.1463
   62SAPC   O11 4868   2.194   0.405  10.363 -0.1665  0.1955  0.5826
   62SAPC    C1 4869   2.056   0.433  10.335 -0.4577  0.6707 -0.8430
   62SAPC    HA 4870   1.992   0.367  10.398  1.0315  0.9774  1.0747
   62SAPC    HB 4871   2.027   0.533  10.374  0.9766  0.0543  2.1515
   62SAPC    C2 4872   2.033   0.427  10.184  0.0780 -0.4878 -0.5215
   62SAPC    HS 4873   1.922   0.426  10.188 -0.0519  1.0663  5.3184
   62SAPC   O21 4874   2.094   0.306  10.129 -0.3517 -0.3198 -0.2038
   62SAPC   C21 4875   2.025   0.199  10.164  0.1155  0.0333  0.1139
   62SAPC   O22 4876   1.937   0.196  10.249 -0.6346 -0.2771 -0.0765
   62SAPC   C22 4877   2.085   0.079  10.095 -0.4173  0.4837  0.1377
   62SAPC   H2R 4878   2.145   0.107  10.006 -0.8042  1.4322  0.1647
   62SAPC   H2S 4879   2.160   0.026  10.158  1.7855 -1.6529 -3.8565
   62SAPC    C3 4880   2.090   0.548  10.111 -0.1666 -0.5836 -0.4806
   62SAPC    HX 4881   2.198   0.564  10.130  0.2701 -0.6547 -2.6459
   62SAPC    HY 4882   2.042   0.640  10.150  0.6823  0.0067 -0.8043
   62SAPC   O31 4883   2.083   0.551   9.969 -0.0355  0.4062  0.1709
   62SAPC   C31 4884   1.968   0.526   9.907  0.1507 -0.2264 -0.0710
   62SAPC   O32 4885   1.856   0.526   9.953  0.3072 -0.1140 -0.3150
   62SAPC   C32 4886   1.994   0.509   9.760 -0.2387 -0.1566 -0.4394
   62SAPC   H2X 4887   2.077   0.580   9.738  0.5951 -0.1590  2.3105
   62SAPC   H2Y 4888   1.908   0.543   9.698 -0.6357  1.0976  0.7535
   62SAPC   C23 4889   1.978  -0.030  10.061 -0.0776  0.1720 -0.1736
   62SAPC   H3R 4890   1.911  -0.056  10.146 -1.3499  0.7635 -0.9590
   62SAPC   H3S 4891   2.034  -0.124  10.043  0.0393  0.3709 -0.8753
   62SAPC   C24 4892   1.895  -0.004   9.943  0.3678  0.0207 -0.0019
   62SAPC   H4R 4893   1.848   0.093   9.971 -0.6534 -0.6134  0.5448
   62SAPC   H4S 4894   1.806  -0.069   9.928  1.3181 -0.6730 -3.5991
   62SAPC   C25 4895   1.969  -0.007   9.816  0.4239  0.1957  0.4320
   62SAPC   H5R 4896   1.965   0.092   9.769  2.6384  1.7377  3.2116
   62SAPC   C26 4897   2.023  -0.113   9.750  0.0904 -0.0215  1.0083
   62SAPC   H6R 4898   2.069  -0.103   9.651  1.5818  0.2112  1.7091
   62SAPC   C27 4899   2.017  -0.253   9.803 -0.1628 -0.2365  0.1613
   62SAPC   H7R 4900   2.001  -0.322   9.718  1.4616  0.6052 -0.8838
   62SAPC   H7S 4901   1.939  -0.275   9.878 -3.6121  0.1060 -3.0376
   62SAPC   C28 4902   2.154  -0.285   9.864  0.1308  0.0882 -0.2720
   62SAPC   H8R 4903   2.217  -0.206   9.909 -0.2683 -1.2449  2.9004
   62SAPC   C29 4904   2.210  -0.406   9.854 -0.1386  0.4676 -0.3362
   62SAPC   H9R 4905   2.300  -0.425   9.915 -1.0598  2.7688  1.9571
   62SAPC  C210 4906   2.156  -0.529   9.783  0.0045 -0.1927  0.1374
   62SAPC  H10R 4907   2.048  -0.542   9.806  0.1229 -0.7960  0.3779
   62SAPC  H10S 4908   2.207  -0.619   9.824  1.2620  0.9947  1.2710
   62SAPC  C211 4909   2.198  -0.541   9.641 -0.3853  0.7421 -0.5502
   62SAPC  H11R 4910   2.307  -0.553   9.629 -0.5672 -3.8587  0.5026
   62SAPC  C212 4911   2.121  -0.551   9.530 -0.4456 -0.3439 -0.0772
   62SAPC  H12R 4912   2.170  -0.578   9.435  0.5847  0.4024  0.2259
   62SAPC  C213 4913   1.975  -0.540   9.510 -0.2138  0.1613 -0.1728
   62SAPC  H13R 4914   1.952  -0.474   9.424 -4.2095  0.7103  1.0941
   62SAPC  H13S 4915   1.921  -0.505   9.601 -0.4082 -0.0077 -0.2235
   62SAPC  C214 4916   1.915  -0.674   9.487 -0.4707  0.3859  0.4529
   62SAPC  H14R 4917   1.955  -0.761   9.540  0.0680  1.0174  1.1063
   62SAPC  C215 4918   1.817  -0.697   9.399 -0.0330  0.4580 -0.0521
   62SAPC  H15R 4919   1.782  -0.801   9.391  0.5251  0.2676 -0.0259
   62SAPC  C216 4920   1.747  -0.602   9.308 -0.3247 -0.0949  0.0662
   62SAPC  H16R 4921   1.811  -0.514   9.285 -1.1344  0.7643  1.0232
   62SAPC  H16S 4922   1.657  -0.559   9.356  0.7740  2.0550  0.3456
   62SAPC  C217 4923   1.700  -0.667   9.179  0.2078 -0.0051 -0.5865
   62SAPC  H17R 4924   1.594  -0.696   9.196  0.1122  0.4668 -0.3387
   62SAPC  H17S 4925   1.759  -0.755   9.146  1.8537  0.4203  1.0561
   62SAPC  C218 4926   1.704  -0.577   9.059 -0.1470  0.9535  0.1854
   62SAPC  H18R 4927   1.630  -0.494   9.064 -0.8481  0.3960 -0.8061
   62SAPC  H18S 4928   1.671  -0.635   8.971  3.8356  0.3948 -1.1624
   62SAPC  C219 4929   1.843  -0.512   9.039 -0.2368 -0.5536 -0.0008
   62SAPC  H19R 4930   1.858  -0.422   9.102  1.6371  0.6277 -2.0073
   62SAPC  H19S 4931   1.844  -0.487   8.931  1.2822 -2.0085 -0.3661
   62SAPC  C220 4932   1.954  -0.610   9.049  0.1643  0.0954 -0.0430
   62SAPC  H20R 4933   1.921  -0.708   9.008  3.1304 -1.0097 -0.0860
   62SAPC  H20S 4934   1.968  -0.625   9.159 -1.5761 -1.4807  0.0109
   62SAPC  H20T 4935   2.058  -0.589   9.015  0.7947  0.5740  2.0097
   62SAPC   C33 4936   2.040   0.364   9.716 -0.0042 -0.0466  0.4694
   62SAPC   H3X 4937   1.960   0.292   9.747  0.8531 -1.4620 -0.5350
   62SAPC   H3Y 4938   2.132   0.330   9.768  0.7460  0.0580 -0.7574
   62SAPC   C34 4939   2.071   0.357   9.569 -0.5233 -0.2981 -0.2452
   62SAPC   H4X 4940   2.181   0.374   9.566 -0.6120  0.3425 -0.0961
   62SAPC   H4Y 4941   2.031   0.446   9.516 -2.2147  0.1615  1.6581
   62SAPC   C35 4942   2.039   0.224   9.502 -0.2272  0.7149  0.3159
   62SAPC   H5X 4943   1.931   0.201   9.506  0.0547 -0.6828  0.3707
   62SAPC   H5Y 4944   2.104   0.152   9.555  0.9371  1.8563  0.5047
   62SAPC   C36 4945   2.070   0.215   9.349  0.7483  0.2819  0.0593
   62SAPC   H6X 4946   2.031   0.118   9.312  2.7738 -0.4250 -0.3347
   62SAPC   H6Y 4947   2.179   0.202   9.330  0.7361 -3.0891  1.6871
   62SAPC   C37 4948   2.008   0.333   9.273 -0.0730  0.8081  0.8265
   62SAPC   H7X 4949   2.076   0.419   9.294  2.8693 -1.4470  1.1507
   62SAPC   H7Y 4950   1.902   0.340   9.304  0.3984  2.4710  2.2176
   62SAPC   C38 4951   2.001   0.304   9.117 -0.0767 -0.2974  0.0527
   62SAPC   H8X 4952   1.928   0.376   9.076  0.9201  1.9798  2.0257
   62SAPC   H8Y 4953   1.961   0.203   9.095 -0.6183 -0.1568  0.3931
   62SAPC   C39 4954   2.134   0.325   9.041  0.3618  0.7582  0.6921
   62SAPC   H9X 4955   2.214   0.258   9.079  0.5703  0.9007  0.5103
   62SAPC   H9Y 4956   2.179   0.424   9.062 -0.6170  1.3031  0.2636
   62SAPC  C310 4957   2.111   0.312   8.883  0.0339 -0.9697  0.0542
   62SAPC  H10X 4958   2.204   0.349   8.835  1.2589 -1.8579  1.6301
   62SAPC  H10Y 4959   2.022   0.371   8.855  2.1251  1.8018 -1.3112
   62SAPC  C311 4960   2.073   0.169   8.839  0.3831 -0.6998  0.0183
   62SAPC  H11X 4961   2.072   0.167   8.728  1.7481 -1.3311 -0.0083
   62SAPC  H11Y 4962   1.983   0.123   8.886  1.8216 -2.6409  1.0494
   62SAPC  C312 4963   2.189   0.072   8.873 -0.2522  0.2742 -0.2448
   62SAPC  H12X 4964   2.207   0.054   8.981  2.0726  1.9536 -0.2798
   62SAPC  H12Y 4965   2.288   0.110   8.839  0.3470 -0.9742  0.0537
   62SAPC  C313 4966   2.156  -0.062   8.809 -0.3658  0.3151 -0.3266
   62SAPC  H13X 4967   2.153  -0.051   8.698  1.3043 -1.0880 -0.5528
   62SAPC  H13Y 4968   2.062  -0.111   8.841 -2.1540  2.4883 -1.8931
   62SAPC  C314 4969   2.260  -0.175   8.838 -0.4601 -0.1711 -0.3038
   62SAPC  H14X 4970   2.297  -0.196   8.941  0.1008 -2.2744 -0.8930
   62SAPC  H14Y 4971   2.355  -0.131   8.803 -0.6604  0.2690 -0.3097
   62SAPC  C315 4972   2.228  -0.310   8.772 -0.0776  0.1470 -0.6956
   62SAPC  H15X 4973   2.171  -0.286   8.680 -0.9795 -1.2583 -0.5471
   62SAPC  H15Y 4974   2.150  -0.367   8.828  1.1044  0.9155  1.8920
   62SAPC  C316 4975   2.348  -0.400   8.727 -0.1704 -0.5681 -0.5801
   62SAPC  H16X 4976   2.420  -0.411   8.811 -0.1159  1.9327 -0.2167
   62SAPC  H16Y 4977   2.402  -0.346   8.645 -2.3677 -0.3823 -1.9906
   62SAPC  C317 4978   2.291  -0.532   8.667 -0.0526  0.3582 -0.0595
   62SAPC  H17X 4979   2.334  -0.553   8.567  1.4247  0.7056  0.4757
   62SAPC  H17Y 4980   2.182  -0.527   8.645  0.1105 -1.7170 -1.6778
   62SAPC  C318 4981   2.333  -0.651   8.752  0.2825 -0.7956 -0.2097
   62SAPC  H18X 4982   2.281  -0.747   8.729 -1.1116  0.0628 -0.7829
   62SAPC  H18Y 4983   2.322  -0.627   8.860 -2.7912  0.3716 -0.6727
   62SAPC  H18Z 4984   2.435  -0.677   8.716  0.0115 -0.8894 -0.9344
   63SAPC     N 4985   4.978   0.141   6.048  0.4661  0.5101 -0.4835
   63SAPC   C12 4986   4.959   0.110   6.198  0.4373 -0.3720  0.9583
   63SAPC  H12A 4987   5.018   0.022   6.219  0.5622 -0.5243 -0.0015
   63SAPC  H12B 4988   4.861   0.069   6.220  0.4388  1.1390  4.3507
   63SAPC   C13 4989   5.125   0.143   6.033 -0.3190  0.4926  0.8957
   63SAPC  H13A 4990   5.170   0.048   6.060  0.2252  0.8881  1.4241
   63SAPC  H13B 4991   5.150   0.171   5.933  0.8455  0.7039  1.2331
   63SAPC  H13C 4992   5.163   0.219   6.100 -1.0086  2.7792 -1.1928
   63SAPC   C14 4993   4.918   0.033   5.970 -0.0271  0.1748  0.4434
   63SAPC  H14A 4994   4.952  -0.069   5.983  0.5355 -0.0207 -1.9303
   63SAPC  H14B 4995   4.817   0.024   6.005 -0.2404  0.8616  0.0243
   63SAPC  H14C 4996   4.910   0.057   5.865  1.8900 -1.6538 -0.2070
   63SAPC   C15 4997   4.919   0.274   6.018  0.2069  0.6501  0.6531
   63SAPC  H15A 4998   4.992   0.353   6.027 -0.0416  0.8653  0.7681
   63SAPC  H15B 4999   4.891   0.283   5.914 -1.9654  1.7294  1.2926
   63SAPC  H15C 5000   4.829   0.296   6.072 -0.2996 -0.6480  0.3866
   63SAPC   C11 5001   4.983   0.223   6.302 -0.4534 -0.3495  0.7521
   63SAPC  H11A 5002   5.080   0.273   6.278  0.6095 -3.2222 -1.5424
   63SAPC  H11B 5003   4.999   0.168   6.397  2.9753 -0.9067 -0.0204
   63SAPC     P 5004   4.724   0.274   6.347  0.2793 -0.3620 -0.1225
   63SAPC   O13 5005   4.648   0.400   6.349  0.3998 -0.1898 -0.0457
   63SAPC   O14 5006   4.680   0.164   6.255 -0.3782 -0.0438 -0.0167
   63SAPC   O12 5007   4.871   0.313   6.304 -0.3750 -0.0075 -0.1887
   63SAPC   O11 5008   4.743   0.216   6.493  0.4418  0.1327 -0.5334
   63SAPC    C1 5009   4.798   0.296   6.598 -0.4280 -0.5007 -0.5303
   63SAPC    HA 5010   4.844   0.238   6.681 -3.1179 -1.3896  0.4398
   63SAPC    HB 5011   4.871   0.372   6.565  0.8691 -0.9500  1.1543
   63SAPC    C2 5012   4.687   0.367   6.670 -0.1232  0.3579  0.0855
   63SAPC    HS 5013   4.645   0.444   6.603 -0.7265  0.6453  0.7712
   63SAPC   O21 5014   4.739   0.435   6.784 -0.9747  0.4380  0.3005
   63SAPC   C21 5015   4.658   0.521   6.840  0.1694  0.3866  0.4233
   63SAPC   O22 5016   4.557   0.574   6.795 -0.4604  0.6024 -0.3231
   63SAPC   C22 5017   4.709   0.523   6.986 -0.4422 -0.3727  0.1117
   63SAPC   H2R 5018   4.751   0.423   7.011  1.5312  0.6613  1.2201
   63SAPC   H2S 5019   4.779   0.609   6.997 -0.2577 -0.4351 -0.5240
   63SAPC    C3 5020   4.571   0.267   6.713 -0.2262 -1.0175  0.2294
   63SAPC    HX 5021   4.543   0.235   6.610 -4.6276  1.6153  0.3330
   63SAPC    HY 5022   4.498   0.330   6.768  1.5930  1.8603 -0.4806
   63SAPC   O31 5023   4.622   0.157   6.795 -0.2214 -0.3288  0.0897
   63SAPC   C31 5024   4.548   0.041   6.797  0.8218 -0.2092 -0.8503
   63SAPC   O32 5025   4.441   0.026   6.748  0.2066  0.0612 -0.3005
   63SAPC   C32 5026   4.615  -0.059   6.888  0.2707 -0.2909  0.6425
   63SAPC   H2X 5027   4.720  -0.033   6.915  0.6700 -0.8600 -0.3025
   63SAPC   H2Y 5028   4.622  -0.160   6.842 -0.5867 -0.6085  1.1799
   63SAPC   C23 5029   4.589   0.543   7.087 -0.6569  0.4871  0.0807
   63SAPC   H3R 5030   4.526   0.451   7.080 -0.2155  0.2038 -0.2534
   63SAPC   H3S 5031   4.541   0.636   7.050  0.0692  0.9789  0.3582
   63SAPC   C24 5032   4.642   0.570   7.229 -0.5143 -0.2811  0.0571
   63SAPC   H4R 5033   4.709   0.658   7.222  1.0253 -1.3889  0.4041
   63SAPC   H4S 5034   4.710   0.483   7.235  0.8393  0.4143 -3.0455
   63SAPC   C25 5035   4.540   0.585   7.334  0.4189  0.1359  0.4070
   63SAPC   H5R 5036   4.440   0.548   7.308  0.2876  0.3661  0.5800
   63SAPC   C26 5037   4.563   0.625   7.458 -0.0762 -0.0537 -0.5627
   63SAPC   H6R 5038   4.481   0.655   7.525  1.2585 -0.1733  1.2091
   63SAPC   C27 5039   4.690   0.674   7.520  0.0720  0.1541 -0.5104
   63SAPC   H7R 5040   4.774   0.640   7.456  0.8750  1.1113  0.0036
   63SAPC   H7S 5041   4.694   0.616   7.615 -0.7116  1.9933  0.7198
   63SAPC   C28 5042   4.705   0.823   7.548  0.1753  0.0782 -0.4036
   63SAPC   H8R 5043   4.757   0.877   7.468 -1.2145 -0.2290 -1.5669
   63SAPC   C29 5044   4.664   0.889   7.654  0.8244  0.4242 -0.2651
   63SAPC   H9R 5045   4.695   0.994   7.664  0.8948  0.4353 -0.5905
   63SAPC  C210 5046   4.580   0.840   7.769 -0.0863  0.3486  1.2014
   63SAPC  H10R 5047   4.563   0.730   7.762 -0.6783  0.4056  1.6309
   63SAPC  H10S 5048   4.475   0.872   7.753  0.3489  0.8177 -1.0311
   63SAPC  C211 5049   4.637   0.875   7.908 -0.0036  0.4524  0.9083
   63SAPC  H11R 5050   4.720   0.947   7.906  0.9469 -0.6335 -0.6982
   63SAPC  C212 5051   4.602   0.830   8.028 -0.2371  0.2262  0.8874
   63SAPC  H12R 5052   4.669   0.855   8.111  2.6584 -2.1974 -0.5110
   63SAPC  C213 5053   4.493   0.729   8.062 -0.4660  0.0584  0.0578
   63SAPC  H13R 5054   4.440   0.683   7.976 -1.6728  0.8276  0.3786
   63SAPC  H13S 5055   4.407   0.772   8.117 -0.7432 -1.9977  1.3398
   63SAPC  C214 5056   4.556   0.620   8.143 -0.2338  0.9861 -0.3622
   63SAPC  H14R 5057   4.659   0.595   8.115 -1.0042 -2.4032 -0.5456
   63SAPC  C215 5058   4.506   0.553   8.250 -0.0795 -0.2642 -0.7490
   63SAPC  H15R 5059   4.560   0.468   8.294  0.7228  0.4669 -0.3043
   63SAPC  C216 5060   4.365   0.582   8.302 -0.0628 -1.1166  0.2738
   63SAPC  H16R 5061   4.289   0.573   8.221 -0.3041  0.4982  0.2838
   63SAPC  H16S 5062   4.373   0.686   8.342  1.0992  0.6848 -4.0990
   63SAPC  C217 5063   4.316   0.486   8.415  0.4894  0.0605  0.3631
   63SAPC  H17R 5064   4.403   0.453   8.476 -0.4277 -1.8124  0.7315
   63SAPC  H17S 5065   4.281   0.392   8.366 -0.6927  0.3464  0.6423
   63SAPC  C218 5066   4.203   0.550   8.496 -0.0932 -0.0951 -1.1094
   63SAPC  H18R 5067   4.119   0.573   8.426 -1.5435 -0.8683  0.3110
   63SAPC  H18S 5068   4.237   0.651   8.527 -0.5559  0.1275 -1.3164
   63SAPC  C219 5069   4.142   0.480   8.609  0.3889  0.0882  0.1348
   63SAPC  H19R 5070   4.221   0.451   8.681  1.4353 -0.6928 -1.2767
   63SAPC  H19S 5071   4.084   0.392   8.575 -3.4974  0.5594  4.5049
   63SAPC  C220 5072   4.029   0.568   8.668 -0.0373 -1.0199  0.1294
   63SAPC  H20R 5073   3.982   0.508   8.749 -1.0507 -2.1949 -1.2692
   63SAPC  H20S 5074   3.954   0.600   8.593  0.7334 -0.2048 -0.3148
   63SAPC  H20T 5075   4.069   0.663   8.708 -0.3531 -0.8715  0.0887
   63SAPC   C33 5076   4.540  -0.052   7.027 -0.1105 -0.4195 -0.5316
   63SAPC   H3X 5077   4.567  -0.148   7.075  1.6019 -1.6870 -3.7437
   63SAPC   H3Y 5078   4.429  -0.053   7.023 -0.1023 -0.0762 -1.0721
   63SAPC   C34 5079   4.593   0.056   7.125 -1.2683 -0.2738  0.3672
   63SAPC   H4X 5080   4.584   0.157   7.078  0.2361 -0.5834 -0.6228
   63SAPC   H4Y 5081   4.702   0.038   7.136 -1.5247 -0.6009  2.9713
   63SAPC   C35 5082   4.530   0.055   7.266 -0.0578  1.4317 -0.7555
   63SAPC   H5X 5083   4.543  -0.046   7.311  0.8902  2.1966  0.7863
   63SAPC   H5Y 5084   4.421   0.074   7.256 -0.5550  0.4431  1.8658
   63SAPC   C36 5085   4.587   0.161   7.353 -0.1351 -0.7042  0.4023
   63SAPC   H6X 5086   4.592   0.246   7.282 -1.1059 -1.8990 -1.1694
   63SAPC   H6Y 5087   4.687   0.129   7.389 -0.5354 -0.4351  1.8020
   63SAPC   C37 5088   4.491   0.200   7.468 -0.1275  0.6726 -0.3225
   63SAPC   H7X 5089   4.426   0.118   7.507  0.3432  1.1290  1.4923
   63SAPC   H7Y 5090   4.419   0.272   7.423 -0.9299 -0.1364 -0.3875
   63SAPC   C38 5091   4.563   0.273   7.584  0.4568  0.5103  0.4443
   63SAPC   H8X 5092   4.497   0.356   7.614  1.4568  1.7759 -0.7196
   63SAPC   H8Y 5093   4.664   0.306   7.552  0.0142  1.5051  0.0513
   63SAPC   C39 5094   4.589   0.181   7.700  0.6085  0.1943  0.2731
   63SAPC   H9X 5095   4.675   0.120   7.665  1.7082  1.0507  1.3667
   63SAPC   H9Y 5096   4.501   0.117   7.722  0.3597  0.3515 -0.2584
   63SAPC  C310 5097   4.633   0.253   7.830  0.0624  0.0787  0.3450
   63SAPC  H10X 5098   4.556   0.326   7.860 -0.0729  0.6119 -1.2308
   63SAPC  H10Y 5099   4.722   0.318   7.814  0.3338 -0.5751 -0.9527
   63SAPC  C311 5100   4.670   0.145   7.936 -0.4779  0.1372  0.0047
   63SAPC  H11X 5101   4.720   0.054   7.896 -1.1503 -0.7649  1.1535
   63SAPC  H11Y 5102   4.575   0.107   7.978 -0.6883  0.7434  0.0918
   63SAPC  C312 5103   4.758   0.199   8.054  0.0629 -0.0766 -0.3668
   63SAPC  H12X 5104   4.699   0.290   8.079 -2.1106 -1.5382  0.0223
   63SAPC  H12Y 5105   4.861   0.230   8.024 -0.1172  0.4735 -0.4202
   63SAPC  C313 5106   4.766   0.100   8.167  0.3652  0.4562  0.6938
   63SAPC  H13X 5107   4.828   0.010   8.147  1.9684  1.7540 -0.4854
   63SAPC  H13Y 5108   4.665   0.062   8.194  0.2644  0.5187  0.4088
   63SAPC  C314 5109   4.817   0.172   8.286 -0.1427 -0.4151 -1.3282
   63SAPC  H14X 5110   4.882   0.252   8.244 -1.2707 -0.2121 -2.7789
   63SAPC  H14Y 5111   4.876   0.113   8.359  0.8492  0.7202 -1.1870
   63SAPC  C315 5112   4.708   0.245   8.370 -0.7162 -0.4510 -0.1817
   63SAPC  H15X 5113   4.610   0.223   8.323 -1.3278  0.6564  0.5348
   63SAPC  H15Y 5114   4.737   0.352   8.377  1.1661 -1.0292  1.9761
   63SAPC  C316 5115   4.713   0.189   8.516 -0.2183 -0.1770  0.1677
   63SAPC  H16X 5116   4.812   0.227   8.552  0.7231 -0.0852 -2.3328
   63SAPC  H16Y 5117   4.721   0.079   8.512  2.6150 -0.0352 -0.7407
   63SAPC  C317 5118   4.600   0.226   8.603  0.0826 -0.5797 -0.7746
   63SAPC  H17X 5119   4.564   0.143   8.668 -0.3883  0.5849  0.5084
   63SAPC  H17Y 5120   4.518   0.246   8.531 -1.1819  0.3130  0.8374
   63SAPC  C318 5121   4.626   0.351   8.689 -0.1995  0.3492 -0.3272
   63SAPC  H18X 5122   4.706   0.335   8.764  1.1652  0.1265 -1.7941
   63SAPC  H18Y 5123   4.543   0.413   8.730 -0.1040 -0.4999  1.2553
   63SAPC  H18Z 5124   4.681   0.425   8.627  0.9321 -0.8720 -0.8307
   64SAPC     N 5125   0.451   6.643   6.049 -0.1145  0.2859  0.4936
   64SAPC   C12 5126   0.351   6.571   6.136 -0.4117  0.3625  0.0825
   64SAPC  H12A 5127   0.302   6.647   6.195  0.9033  1.5378 -0.2932
   64SAPC  H12B 5128   0.403   6.510   6.209  1.1264  2.3673  0.7441
   64SAPC   C13 5129   0.395   6.735   5.954 -0.3877 -0.1741  0.4763
   64SAPC  H13A 5130   0.382   6.825   6.011 -1.1094 -0.0576  0.1359
   64SAPC  H13B 5131   0.463   6.746   5.870 -0.9356 -1.4819 -0.1775
   64SAPC  H13C 5132   0.304   6.704   5.904 -0.4610 -0.2000  0.6248
   64SAPC   C14 5133   0.543   6.714   6.141  0.4746  0.7226  0.7439
   64SAPC  H14A 5134   0.490   6.796   6.187 -0.2364  1.0783 -0.6397
   64SAPC  H14B 5135   0.578   6.651   6.221  0.8151 -0.8078 -0.5654
   64SAPC  H14C 5136   0.636   6.742   6.095 -0.2149  0.0088 -1.2272
   64SAPC   C15 5137   0.516   6.533   5.967  0.1474 -0.6690 -0.1098
   64SAPC  H15A 5138   0.530   6.445   6.027 -0.1551 -1.3170 -0.9664
   64SAPC  H15B 5139   0.450   6.494   5.890 -0.9852  1.9424 -0.5897
   64SAPC  H15C 5140   0.605   6.558   5.911  2.1444 -1.7005  2.4335
   64SAPC   C11 5141   0.236   6.480   6.080  0.2425  0.8025  0.5956
   64SAPC  H11A 5142   0.188   6.414   6.156  1.5167  1.0904  1.6792
   64SAPC  H11B 5143   0.276   6.410   6.004  1.4633  0.0092  1.9159
   64SAPC     P 5144   0.046   6.652   6.109 -0.1500 -0.2869 -0.1789
   64SAPC   O13 5145  -0.009   6.766   6.031  0.0210  0.3170 -0.3904
   64SAPC   O14 5146  -0.065   6.562   6.160  0.4134  0.5930  0.1495
   64SAPC   O12 5147   0.142   6.565   6.019  0.7494  0.2846  0.1598
   64SAPC   O11 5148   0.132   6.717   6.221 -0.2192 -0.7592  0.1980
   64SAPC    C1 5149   0.141   6.665   6.358  0.4045 -0.2967 -0.2345
   64SAPC    HA 5150   0.043   6.624   6.388  0.5587 -1.0303 -0.7227
   64SAPC    HB 5151   0.221   6.589   6.363  0.8373 -0.0783 -2.6589
   64SAPC    C2 5152   0.178   6.784   6.453  0.8004 -0.4063  0.7228
   64SAPC    HS 5153   0.182   6.745   6.557 -2.4603 -2.5942  0.1864
   64SAPC   O21 5154   0.065   6.882   6.444 -0.4588  0.2156  0.3326
   64SAPC   C21 5155  -0.033   6.845   6.521  0.3881 -0.3702 -0.6919
   64SAPC   O22 5156  -0.028   6.759   6.605  0.4996  0.2819 -0.2726
   64SAPC   C22 5157  -0.161   6.924   6.487 -0.7563 -0.0098  0.0949
   64SAPC   H2R 5158  -0.196   6.909   6.382 -0.2466 -0.8361  0.0320
   64SAPC   H2S 5159  -0.239   6.879   6.551 -0.0636  0.4053  1.2602
   64SAPC    C3 5160   0.311   6.851   6.411 -0.0827  0.4113 -0.2275
   64SAPC    HX 5161   0.322   6.941   6.474 -2.0010 -0.4559  1.4561
   64SAPC    HY 5162   0.308   6.887   6.306 -0.9512  1.7322  0.2203
   64SAPC   O31 5163   0.421   6.760   6.423 -0.1118  0.6203  1.0580
   64SAPC   C31 5164   0.472   6.755   6.541 -0.2545 -0.3046  0.5147
   64SAPC   O32 5165   0.421   6.805   6.641  0.3639  0.8572 -0.1884
   64SAPC   C32 5166   0.604   6.683   6.532 -0.2089  0.2559  0.1668
   64SAPC   H2X 5167   0.666   6.708   6.443 -0.0318 -0.0408  0.2038
   64SAPC   H2Y 5168   0.586   6.574   6.537 -1.6620  0.3151 -2.1109
   64SAPC   C23 5169  -0.146   7.078   6.508 -0.3604  0.2777  0.0522
   64SAPC   H3R 5170  -0.245   7.119   6.479 -1.1864 -2.2531 -1.0246
   64SAPC   H3S 5171  -0.061   7.116   6.448  0.6294  0.0339  1.2701
   64SAPC   C24 5172  -0.119   7.112   6.657  0.1809 -0.3913 -0.6199
   64SAPC   H4R 5173  -0.117   7.223   6.668  1.8632 -0.2397 -2.0177
   64SAPC   H4S 5174  -0.020   7.070   6.683  1.3174  2.8182  0.7720
   64SAPC   C25 5175  -0.217   7.058   6.756 -0.5097  0.0078  0.6053
   64SAPC   H5R 5176  -0.322   7.086   6.735 -0.0622 -0.1306 -2.3155
   64SAPC   C26 5177  -0.185   6.989   6.867 -0.1455  0.1038 -0.0278
   64SAPC   H6R 5178  -0.271   6.955   6.927  1.5406 -0.3920  2.2674
   64SAPC   C27 5179  -0.050   6.944   6.915 -0.0216 -0.4086 -0.1940
   64SAPC   H7R 5180   0.018   7.032   6.913  1.0607 -1.1857  0.8254
   64SAPC   H7S 5181   0.001   6.896   6.829 -0.0946  1.8422 -1.5611
   64SAPC   C28 5182  -0.039   6.865   7.039 -0.5770  0.2677 -0.0500
   64SAPC   H8R 5183   0.013   6.770   7.021  2.1696  1.9552 -1.5837
   64SAPC   C29 5184  -0.059   6.903   7.164 -0.1570 -0.5600 -0.0247
   64SAPC   H9R 5185  -0.056   6.823   7.240 -0.8741 -1.2868 -0.7394
   64SAPC  C210 5186  -0.112   7.041   7.205  0.2165  0.0269  0.2408
   64SAPC  H10R 5187  -0.099   7.121   7.128  0.5310  0.7715  1.0499
   64SAPC  H10S 5188  -0.058   7.084   7.292 -1.2758 -0.6634  1.5470
   64SAPC  C211 5189  -0.254   7.040   7.241 -0.2697  0.0046 -0.4123
   64SAPC  H11R 5190  -0.310   6.969   7.178  0.0262  0.6208 -1.3920
   64SAPC  C212 5191  -0.317   7.107   7.345  0.0019 -0.1367 -0.1704
   64SAPC  H12R 5192  -0.425   7.098   7.362  0.1852 -2.3365  0.0010
   64SAPC  C213 5193  -0.248   7.193   7.448  0.0850  0.1097 -0.0552
   64SAPC  H13R 5194  -0.155   7.147   7.488 -0.3427 -0.9902 -0.2939
   64SAPC  H13S 5195  -0.320   7.206   7.532 -0.1534 -0.7181 -0.1184
   64SAPC  C214 5196  -0.210   7.336   7.415  0.7012 -0.5524  0.3509
   64SAPC  H14R 5197  -0.191   7.348   7.307  1.4790 -1.2094  0.4055
   64SAPC  C215 5198  -0.207   7.448   7.499  0.2836 -0.2631 -0.1679
   64SAPC  H15R 5199  -0.177   7.543   7.453 -0.5330 -1.2599 -2.9469
   64SAPC  C216 5200  -0.212   7.436   7.649 -1.0569 -0.0428  0.1481
   64SAPC  H16R 5201  -0.251   7.336   7.676  1.4090 -1.0464  0.2909
   64SAPC  H16S 5202  -0.292   7.504   7.685 -2.4244 -1.3406 -0.3704
   64SAPC  C217 5203  -0.081   7.468   7.726  1.0007  0.4023  0.2274
   64SAPC  H17R 5204  -0.043   7.569   7.697  2.2274  0.2147  1.0875
   64SAPC  H17S 5205  -0.003   7.391   7.706  0.4564 -0.1598  0.2512
   64SAPC  C218 5206  -0.107   7.473   7.874  0.3668 -0.7930 -1.0282
   64SAPC  H18R 5207  -0.173   7.385   7.892  0.0100 -0.3580 -0.1497
   64SAPC  H18S 5208  -0.166   7.561   7.906  0.7054 -1.4138  1.5362
   64SAPC  C219 5209   0.019   7.446   7.957 -0.4517  0.3199  0.1383
   64SAPC  H19R 5210   0.079   7.537   7.937 -1.6520  1.0188 -0.4359
   64SAPC  H19S 5211   0.064   7.356   7.910 -1.7489 -0.8498  1.0599
   64SAPC  C220 5212  -0.013   7.438   8.103 -0.1546  0.4843 -0.7241
   64SAPC  H20R 5213  -0.095   7.510   8.127 -2.2337 -2.5410  2.1810
   64SAPC  H20S 5214   0.067   7.434   8.180 -1.5997 -1.9724  0.7722
   64SAPC  H20T 5215  -0.068   7.344   8.124  0.2303  0.4749  0.3075
   64SAPC   C33 5216   0.695   6.719   6.652  0.2601 -0.1489  0.6549
   64SAPC   H3X 5217   0.643   6.692   6.746 -1.0279 -1.6865 -0.4586
   64SAPC   H3Y 5218   0.731   6.824   6.654  2.5421 -0.8895  1.3135
   64SAPC   C34 5219   0.834   6.647   6.668 -0.5133  0.5288  0.1079
   64SAPC   H4X 5220   0.907   6.684   6.594  0.8359 -1.4659  0.3675
   64SAPC   H4Y 5221   0.805   6.541   6.647 -3.2808  0.6306  2.6972
   64SAPC   C35 5222   0.888   6.664   6.809  0.7053  0.2399 -0.1341
   64SAPC   H5X 5223   0.826   6.602   6.877  0.7244 -0.4649 -0.7499
   64SAPC   H5Y 5224   0.882   6.771   6.838 -0.5219 -0.6316  3.1993
   64SAPC   C36 5225   1.030   6.623   6.814  0.0826  0.2665  0.3612
   64SAPC   H6X 5226   1.084   6.664   6.726  4.2243 -1.1357  2.0268
   64SAPC   H6Y 5227   1.032   6.512   6.800 -2.2242  0.1880  0.3439
   64SAPC   C37 5228   1.102   6.665   6.943 -0.1054 -0.1044 -0.7958
   64SAPC   H7X 5229   1.104   6.776   6.945 -0.8108 -0.0587 -1.9090
   64SAPC   H7Y 5230   1.203   6.619   6.955  0.7253  1.4707 -1.3252
   64SAPC   C38 5231   1.025   6.623   7.072  0.1384 -0.0700  0.3956
   64SAPC   H8X 5232   0.997   6.516   7.061  0.0292  0.0880 -1.0726
   64SAPC   H8Y 5233   0.935   6.688   7.071 -0.9897 -1.4775 -2.8591
   64SAPC   C39 5234   1.101   6.640   7.200 -0.0472  0.0699 -0.0847
   64SAPC   H9X 5235   1.139   6.742   7.224  0.7255 -0.4666  1.0640
   64SAPC   H9Y 5236   1.194   6.579   7.195 -0.1622 -0.0477 -0.9683
   64SAPC  C310 5237   1.024   6.608   7.320  0.5691  0.2038 -0.2287
   64SAPC  H10X 5238   0.983   6.506   7.338 -2.5567  1.4706  0.6032
   64SAPC  H10Y 5239   0.930   6.667   7.322  0.3075 -0.1117 -1.8145
   64SAPC  C311 5240   1.107   6.636   7.444 -0.6502  0.5402  0.1893
   64SAPC  H11X 5241   1.122   6.745   7.459 -2.6872  0.6383  1.9599
   64SAPC  H11Y 5242   1.206   6.586   7.434 -0.9173  0.2309 -1.0892
   64SAPC  C312 5243   1.043   6.584   7.576  0.0917 -0.7880 -0.7957
   64SAPC  H12X 5244   1.032   6.474   7.568 -1.3955 -0.7639  0.4479
   64SAPC  H12Y 5245   0.940   6.625   7.588 -0.3322 -1.6322 -1.4164
   64SAPC  C313 5246   1.137   6.600   7.697 -0.7360 -0.5617 -0.2204
   64SAPC  H13X 5247   1.153   6.706   7.727  2.7991 -1.0074 -0.0477
   64SAPC  H13Y 5248   1.237   6.550   7.696 -0.7762 -0.6689  0.6119
   64SAPC  C314 5249   1.075   6.550   7.828 -0.1137 -0.1838  0.3260
   64SAPC  H14X 5250   1.047   6.443   7.816 -0.4976 -0.3428  2.3009
   64SAPC  H14Y 5251   0.979   6.601   7.853  1.0647  1.2639  2.2392
   64SAPC  C315 5252   1.157   6.552   7.955 -1.0739 -0.1447  0.2927
   64SAPC  H15X 5253   1.204   6.652   7.955  1.1125 -1.0888  1.4702
   64SAPC  H15Y 5254   1.241   6.486   7.924 -1.2153 -0.2358  0.1032
   64SAPC  C316 5255   1.086   6.512   8.086 -0.4241 -0.8611  1.1510
   64SAPC  H16X 5256   1.163   6.486   8.162 -0.0250 -1.6115  0.5056
   64SAPC  H16Y 5257   1.018   6.426   8.068 -0.0284 -0.9320 -0.0489
   64SAPC  C317 5258   0.995   6.622   8.142  0.1321  0.5554  0.3652
   64SAPC  H17X 5259   0.918   6.655   8.069  0.5755  1.3995  0.2647
   64SAPC  H17Y 5260   1.043   6.708   8.193 -1.1274  0.0597  2.5285
   64SAPC  C318 5261   0.909   6.564   8.259 -0.6457 -0.0866  1.0989
   64SAPC  H18X 5262   0.838   6.484   8.229  3.6429 -2.6474 -3.7564
   64SAPC  H18Y 5263   0.864   6.647   8.318  0.2169  0.3026  1.2272
   64SAPC  H18Z 5264   0.981   6.514   8.327  0.5850 -0.2002 -0.2532
   65SAPC     N 5265   5.686   1.704   5.571 -0.7651 -0.2130  0.2945
   65SAPC   C12 5266   5.814   1.656   5.637  0.5981 -0.7425  0.1411
   65SAPC  H12A 5267   5.868   1.587   5.573 -0.0730 -1.9598  0.8364
   65SAPC  H12B 5268   5.778   1.592   5.717  0.3059 -1.1586 -0.3168
   65SAPC   C13 5269   5.605   1.596   5.520  0.3435  0.7796  1.1389
   65SAPC  H13A 5270   5.653   1.536   5.444 -1.5820 -0.1695  0.6149
   65SAPC  H13B 5271   5.583   1.528   5.600 -1.3493 -1.9781 -1.4466
   65SAPC  H13C 5272   5.504   1.610   5.484  0.2337  0.4666  1.3257
   65SAPC   C14 5273   5.611   1.778   5.672  0.6863 -0.0959  0.6206
   65SAPC  H14A 5274   5.587   1.725   5.762 -3.0748 -0.5220 -0.4291
   65SAPC  H14B 5275   5.658   1.870   5.705  0.4880  0.5449 -0.7839
   65SAPC  H14C 5276   5.510   1.811   5.648  0.0742 -1.9298  0.5666
   65SAPC   C15 5277   5.727   1.799   5.458 -0.4482 -0.0223  0.4751
   65SAPC  H15A 5278   5.806   1.757   5.398 -0.6063  1.5688 -0.9210
   65SAPC  H15B 5279   5.638   1.823   5.402  0.3316  2.1392  0.0668
   65SAPC  H15C 5280   5.763   1.895   5.492  0.0670  0.1384 -0.4875
   65SAPC   C11 5281   5.905   1.768   5.698 -0.1846 -0.3721  0.7223
   65SAPC  H11A 5282   5.926   1.852   5.629 -0.3703 -1.2587 -0.4389
   65SAPC  H11B 5283   6.002   1.717   5.718 -0.0985 -0.7661 -0.6442
   65SAPC     P 5284   5.875   1.962   5.868 -0.1609  0.2420  0.1717
   65SAPC   O13 5285   5.939   2.050   5.768 -0.5960 -0.1886 -0.7774
   65SAPC   O14 5286   5.734   2.005   5.906  0.5344 -0.0973 -0.1501
   65SAPC   O12 5287   5.853   1.812   5.819 -0.0521 -0.1716 -0.2847
   65SAPC   O11 5288   5.962   1.940   5.994  0.0308  0.5621  0.6301
   65SAPC    C1 5289   5.929   1.826   6.081  0.2830  0.9764 -0.3302
   65SAPC    HA 5290   5.829   1.837   6.128 -0.9795  0.8672 -2.8064
   65SAPC    HB 5291   5.939   1.730   6.025  2.5795  0.1169  1.3899
   65SAPC    C2 5292   6.031   1.801   6.190 -0.0610 -0.2816 -0.8414
   65SAPC    HS 5293   6.015   1.704   6.243  0.8553 -0.5260 -1.0069
   65SAPC   O21 5294   6.009   1.902   6.289  0.0327 -0.1179  0.2562
   65SAPC   C21 5295   5.912   1.870   6.382  0.0160 -0.6763  0.2451
   65SAPC   O22 5296   5.821   1.792   6.361  0.5815 -0.1198 -0.3834
   65SAPC   C22 5297   5.941   1.941   6.512 -0.1478 -0.0800  0.6990
   65SAPC   H2R 5298   5.989   2.036   6.480 -1.1076 -0.2292 -1.3395
   65SAPC   H2S 5299   5.845   1.960   6.565 -0.2384  1.9126 -0.0986
   65SAPC    C3 5300   6.174   1.812   6.146  0.6579  0.1151 -0.7471
   65SAPC    HX 5301   6.199   1.909   6.098 -0.9347  2.0362  2.0519
   65SAPC    HY 5302   6.179   1.737   6.064 -1.2889  0.9860 -1.7078
   65SAPC   O31 5303   6.268   1.769   6.248 -0.4674 -0.0973  0.4060
   65SAPC   C31 5304   6.346   1.860   6.308 -0.3271  0.8519 -0.0065
   65SAPC   O32 5305   6.352   1.977   6.271 -0.3544 -0.4096 -0.5704
   65SAPC   C32 5306   6.413   1.804   6.428  0.6039  0.8326  0.0489
   65SAPC   H2X 5307   6.481   1.726   6.387  0.8650  0.2958  1.4480
   65SAPC   H2Y 5308   6.335   1.746   6.481  1.0845  0.8631  0.8015
   65SAPC   C23 5309   6.034   1.851   6.594  0.8722  0.0878 -1.0620
   65SAPC   H3R 5310   6.136   1.850   6.551  0.4719  0.8833 -2.0782
   65SAPC   H3S 5311   5.992   1.748   6.598 -0.1645  0.4912 -1.2790
   65SAPC   C24 5312   6.025   1.914   6.734  0.1032 -0.1659  0.2540
   65SAPC   H4R 5313   6.077   1.846   6.806  1.0359  0.8997  0.6282
   65SAPC   H4S 5314   5.919   1.916   6.766  0.6803  1.2447  2.2862
   65SAPC   C25 5315   6.097   2.050   6.748 -0.1100 -0.1141 -0.2641
   65SAPC   H5R 5316   6.190   2.063   6.690 -0.5635  0.3458 -0.9114
   65SAPC   C26 5317   6.057   2.152   6.822 -0.1094 -0.4769  0.4231
   65SAPC   H6R 5318   6.119   2.242   6.837 -1.1771 -0.1416  3.7381
   65SAPC   C27 5319   5.925   2.162   6.892  0.0993 -0.2635  0.2673
   65SAPC   H7R 5320   5.917   2.081   6.967 -1.0534 -2.2274 -1.8422
   65SAPC   H7S 5321   5.844   2.139   6.820 -0.3125  1.5091  0.1188
   65SAPC   C28 5322   5.890   2.304   6.948  0.4735  0.0921  0.6583
   65SAPC   H8R 5323   5.839   2.371   6.876  0.4672  0.4926  1.0316
   65SAPC   C29 5324   5.918   2.347   7.069  0.2847 -0.6638 -0.3746
   65SAPC   H9R 5325   5.875   2.445   7.091  0.3546 -0.3344 -1.6083
   65SAPC  C210 5326   5.983   2.253   7.168  0.0353  0.0824  0.4608
   65SAPC  H10R 5327   6.060   2.203   7.106 -2.0642 -0.4240 -1.8841
   65SAPC  H10S 5328   5.904   2.183   7.203 -1.4164  3.4341  4.9250
   65SAPC  C211 5329   6.038   2.326   7.295 -0.7274  0.4271 -0.1051
   65SAPC  H11R 5330   6.082   2.426   7.283 -1.0920  0.5095 -0.8336
   65SAPC  C212 5331   6.029   2.271   7.417 -0.5926 -0.7696 -1.4723
   65SAPC  H12R 5332   6.077   2.325   7.500 -2.4077 -2.1634  0.6142
   65SAPC  C213 5333   5.967   2.140   7.456  0.0131 -0.2158 -0.3256
   65SAPC  H13R 5334   6.051   2.083   7.502 -0.1931 -0.8594 -0.7357
   65SAPC  H13S 5335   5.944   2.081   7.365 -1.8662 -1.0930  0.6605
   65SAPC  C214 5336   5.848   2.161   7.547 -0.1558  0.1151 -0.2109
   65SAPC  H14R 5337   5.751   2.155   7.496  0.1021 -2.0381 -0.5815
   65SAPC  C215 5338   5.858   2.167   7.682 -0.9612  0.1970  0.2222
   65SAPC  H15R 5339   5.772   2.180   7.749 -1.8082 -3.4045  0.0328
   65SAPC  C216 5340   5.982   2.152   7.767  0.4856  0.2696  0.1487
   65SAPC  H16R 5341   6.080   2.164   7.716  0.2982  1.0367 -0.0392
   65SAPC  H16S 5342   5.981   2.050   7.811  0.0808  1.0738  2.0856
   65SAPC  C217 5343   5.983   2.251   7.886  0.2085  0.3883  0.5488
   65SAPC  H17R 5344   5.943   2.349   7.851  0.3740  0.2563 -0.0173
   65SAPC  H17S 5345   6.090   2.271   7.905  0.6202  0.5953 -1.6540
   65SAPC  C218 5346   5.927   2.209   8.020  0.4801  0.7558 -0.0274
   65SAPC  H18R 5347   5.982   2.117   8.047 -1.5580  0.0851  2.2110
   65SAPC  H18S 5348   5.818   2.190   8.009  0.2780 -0.1212  2.7644
   65SAPC  C219 5349   5.925   2.317   8.128  0.0441 -0.1313  0.3286
   65SAPC  H19R 5350   5.875   2.409   8.089  1.6782  0.9408  0.6455
   65SAPC  H19S 5351   6.034   2.341   8.135  0.0748 -0.4228  0.8598
   65SAPC  C220 5352   5.873   2.278   8.265  1.6857 -0.7633  0.5300
   65SAPC  H20R 5353   5.764   2.266   8.248  1.4812  0.3410  1.0225
   65SAPC  H20S 5354   5.889   2.358   8.339  0.5270  0.4656 -0.4916
   65SAPC  H20T 5355   5.913   2.181   8.303  1.2255 -0.6678  1.2810
   65SAPC   C33 5356   6.496   1.894   6.513  0.3080 -0.2962  0.5959
   65SAPC   H3X 5357   6.441   1.989   6.530 -0.1707 -0.5729  0.6210
   65SAPC   H3Y 5358   6.582   1.916   6.447 -1.7310 -0.9712 -2.4879
   65SAPC   C34 5359   6.536   1.832   6.640 -0.2123 -0.0278 -0.1914
   65SAPC   H4X 5360   6.633   1.869   6.679  0.2701 -0.9105 -0.5382
   65SAPC   H4Y 5361   6.565   1.726   6.631  1.1316  0.1199  1.8028
   65SAPC   C35 5362   6.427   1.846   6.748  0.5241 -0.2599  0.0541
   65SAPC   H5X 5363   6.340   1.777   6.737 -0.7800  1.4931 -1.0000
   65SAPC   H5Y 5364   6.367   1.939   6.753 -1.2177 -1.3113 -0.4810
   65SAPC   C36 5365   6.493   1.840   6.886 -0.0301 -0.0122  0.4493
   65SAPC   H6X 5366   6.574   1.914   6.904 -1.6767  1.5726  1.8130
   65SAPC   H6Y 5367   6.554   1.749   6.903  1.0248  0.6178  0.1440
   65SAPC   C37 5368   6.386   1.859   6.991  0.2073  0.3163 -0.4878
   65SAPC   H7X 5369   6.301   1.789   6.978  0.9106 -0.5885 -0.3230
   65SAPC   H7Y 5370   6.348   1.961   6.968 -1.8212 -0.8199 -2.5960
   65SAPC   C38 5371   6.450   1.863   7.133  0.3031 -0.2602 -0.3999
   65SAPC   H8X 5372   6.531   1.938   7.148 -0.6276  0.5457  0.6892
   65SAPC   H8Y 5373   6.493   1.764   7.162  0.3788 -0.0322  0.2772
   65SAPC   C39 5374   6.356   1.901   7.235  0.0517 -0.2049 -0.3180
   65SAPC   H9X 5375   6.263   1.848   7.204 -0.8908  1.3040 -0.1243
   65SAPC   H9Y 5376   6.332   2.009   7.244  2.0320  0.1226  2.0533
   65SAPC  C310 5377   6.404   1.859   7.373 -0.1017  0.3294  0.6783
   65SAPC  H10X 5378   6.495   1.913   7.406 -1.1245  1.2173  2.1691
   65SAPC  H10Y 5379   6.424   1.750   7.376 -0.1567  0.2436 -1.2475
   65SAPC  C311 5380   6.297   1.898   7.483 -0.0618 -0.4138  0.5548
   65SAPC  H11X 5381   6.205   1.844   7.454  0.7739 -0.7618 -1.6714
   65SAPC  H11Y 5382   6.275   2.006   7.464  4.9049  0.6584 -0.7270
   65SAPC  C312 5383   6.360   1.877   7.621 -0.5301 -0.1845  0.4019
   65SAPC  H12X 5384   6.445   1.948   7.629 -0.4557 -0.1296 -0.7055
   65SAPC  H12Y 5385   6.394   1.772   7.632  0.2500  0.1695  1.5968
   65SAPC  C313 5386   6.268   1.925   7.737  0.2869 -0.0694 -0.4061
   65SAPC  H13X 5387   6.170   1.874   7.745  0.4871 -0.3609  0.2559
   65SAPC  H13Y 5388   6.243   2.031   7.715  1.5891  0.6960  1.5364
   65SAPC  C314 5389   6.332   1.908   7.878 -0.8144  0.4553 -0.7223
   65SAPC  H14X 5390   6.411   1.987   7.872 -0.7946  0.3413 -3.2451
   65SAPC  H14Y 5391   6.375   1.810   7.907 -1.8499  0.6752  1.8417
   65SAPC  C315 5392   6.233   1.938   7.987 -0.2623  0.0049 -0.0262
   65SAPC  H15X 5393   6.136   1.889   7.967  0.3365 -0.7220 -1.2183
   65SAPC  H15Y 5394   6.207   2.045   7.976 -1.3222 -0.1074  1.1349
   65SAPC  C316 5395   6.288   1.907   8.127  0.1095 -0.5189  0.3862
   65SAPC  H16X 5396   6.391   1.949   8.131 -0.3004  0.4608  1.2153
   65SAPC  H16Y 5397   6.297   1.799   8.152  0.6091 -0.9374 -1.4224
   65SAPC  C317 5398   6.198   1.970   8.235  0.1639  0.0838 -0.6243
   65SAPC  H17X 5399   6.109   1.908   8.257  1.7441 -1.6008  1.5833
   65SAPC  H17Y 5400   6.178   2.076   8.210 -1.2989  0.0269  0.2067
   65SAPC  C318 5401   6.263   1.958   8.371 -0.9583  0.0788 -0.0686
   65SAPC  H18X 5402   6.316   1.863   8.389  1.6063  1.2502 -0.8934
   65SAPC  H18Y 5403   6.186   1.969   8.451 -1.5093  0.7858 -0.6760
   65SAPC  H18Z 5404   6.338   2.039   8.385 -1.4618  0.5666 -0.1661
   66SAPC     N 5405   4.129   2.284   5.913  0.0028 -0.6734 -0.2108
   66SAPC   C12 5406   4.256   2.309   5.834 -0.3414 -0.3899  0.5820
   66SAPC  H12A 5407   4.245   2.399   5.775  0.5332  0.4694  1.7007
   66SAPC  H12B 5408   4.270   2.230   5.761 -0.4664  0.0260  0.1066
   66SAPC   C13 5409   4.136   2.166   5.998 -0.3551 -0.8841  0.3626
   66SAPC  H13A 5410   4.225   2.170   6.059  0.1223  1.1809 -0.3926
   66SAPC  H13B 5411   4.044   2.164   6.056 -0.0644 -2.2733  0.8126
   66SAPC  H13C 5412   4.135   2.077   5.937 -0.1067 -0.8385  0.2924
   66SAPC   C14 5413   4.105   2.402   6.005 -0.1456  0.2634 -0.8320
   66SAPC  H14A 5414   4.127   2.489   5.945  0.0341  1.6800  1.1617
   66SAPC  H14B 5415   4.007   2.403   6.050  0.2467  0.9616  0.0555
   66SAPC  H14C 5416   4.182   2.403   6.081  0.1130 -1.5437 -1.0262
   66SAPC   C15 5417   4.008   2.293   5.823 -0.1968  0.5966 -0.5502
   66SAPC  H15A 5418   4.008   2.370   5.748  0.9067  0.8294 -0.3352
   66SAPC  H15B 5419   3.994   2.208   5.758 -0.3325  1.9351 -2.3729
   66SAPC  H15C 5420   3.922   2.293   5.887  1.9380 -0.8852  2.5890
   66SAPC   C11 5421   4.393   2.328   5.907  0.1514 -0.1597  0.3249
   66SAPC  H11A 5422   4.384   2.390   5.999  0.0291  2.7883 -1.5439
   66SAPC  H11B 5423   4.458   2.391   5.844  0.7597 -1.7913 -0.7358
   66SAPC     P 5424   4.604   2.215   6.015  0.2104  0.1528  0.3971
   66SAPC   O13 5425   4.657   2.072   6.019  0.3869 -0.3326 -0.2393
   66SAPC   O14 5426   4.680   2.330   5.950  0.0499  0.3756 -0.0956
   66SAPC   O12 5427   4.466   2.211   5.940  0.3094 -0.0444 -0.3325
   66SAPC   O11 5428   4.552   2.260   6.154  0.4519 -0.8306 -0.2552
   66SAPC    C1 5429   4.459   2.203   6.241  0.3224 -0.5141 -0.3604
   66SAPC    HA 5430   4.374   2.269   6.266  1.4930  0.8429  0.1618
   66SAPC    HB 5431   4.417   2.110   6.196 -0.4596 -0.3660  0.0482
   66SAPC    C2 5432   4.530   2.180   6.377  0.1121  0.0967  0.5555
   66SAPC    HS 5433   4.483   2.096   6.433  1.2966  0.5757  2.3672
   66SAPC   O21 5434   4.517   2.301   6.453 -0.3876  0.2322 -0.0585
   66SAPC   C21 5435   4.395   2.315   6.516  0.0957 -0.4741  0.0032
   66SAPC   O22 5436   4.304   2.232   6.517  0.0097  0.1028  0.5387
   66SAPC   C22 5437   4.405   2.443   6.596 -0.3361 -1.0065  0.0320
   66SAPC   H2R 5438   4.410   2.540   6.542 -1.4508  0.5639  2.5442
   66SAPC   H2S 5439   4.307   2.443   6.648  0.2671  0.5194  1.2734
   66SAPC    C3 5440   4.685   2.140   6.360 -0.0207 -0.2068 -0.0372
   66SAPC    HX 5441   4.728   2.230   6.312 -0.7139  0.2999  0.2667
   66SAPC    HY 5442   4.684   2.062   6.281  0.6096  1.1076 -1.3798
   66SAPC   O31 5443   4.743   2.092   6.487 -0.0954 -0.7326  0.4250
   66SAPC   C31 5444   4.865   2.146   6.506  0.1059 -0.4686 -0.5269
   66SAPC   O32 5445   4.924   2.221   6.427 -0.3254 -0.1301  0.6886
   66SAPC   C32 5446   4.918   2.101   6.639  0.0925 -0.2921 -0.8612
   66SAPC   H2X 5447   4.977   2.190   6.671 -1.5318  0.8051 -0.8313
   66SAPC   H2Y 5448   4.982   2.012   6.620 -1.5301 -1.0292 -3.4042
   66SAPC   C23 5449   4.514   2.449   6.704 -0.2092  0.3066  0.6171
   66SAPC   H3R 5450   4.515   2.544   6.762  2.1308  0.6846  0.0690
   66SAPC   H3S 5451   4.617   2.431   6.668  0.2688 -2.3687  2.9761
   66SAPC   C24 5452   4.484   2.347   6.812  0.7806 -0.3099 -0.5962
   66SAPC   H4R 5453   4.486   2.242   6.774 -3.8174 -1.0967  0.7368
   66SAPC   H4S 5454   4.378   2.368   6.837  0.3201  0.7742 -3.1884
   66SAPC   C25 5455   4.567   2.365   6.937  0.1211  0.7751  0.3184
   66SAPC   H5R 5456   4.674   2.361   6.912  0.0509  1.8827 -0.2277
   66SAPC   C26 5457   4.529   2.363   7.071 -0.1864 -0.4871  0.6779
   66SAPC   H6R 5458   4.605   2.360   7.150  1.3043  1.5137 -0.5872
   66SAPC   C27 5459   4.391   2.340   7.123 -0.3600 -0.1240 -0.4421
   66SAPC   H7R 5460   4.407   2.257   7.195 -0.1770  0.8277  0.6340
   66SAPC   H7S 5461   4.334   2.304   7.034 -1.0981 -0.8130  0.2931
   66SAPC   C28 5462   4.319   2.441   7.208 -0.7205 -0.5189  0.1713
   66SAPC   H8R 5463   4.305   2.539   7.160  0.9752 -0.1859  0.2659
   66SAPC   C29 5464   4.272   2.438   7.333 -0.3261 -0.1483 -0.6030
   66SAPC   H9R 5465   4.218   2.525   7.373 -0.1497 -0.6917  0.8700
   66SAPC  C210 5466   4.290   2.322   7.429 -0.4329 -0.1134 -0.0688
   66SAPC  H10R 5467   4.318   2.236   7.363 -1.7937 -0.3248 -0.4147
   66SAPC  H10S 5468   4.197   2.285   7.478 -0.6906  0.4416 -0.1345
   66SAPC  C211 5469   4.399   2.351   7.525 -0.2839  0.8419  0.0666
   66SAPC  H11R 5470   4.497   2.378   7.483 -0.3425 -3.2793 -3.4188
   66SAPC  C212 5471   4.391   2.337   7.659 -0.2780  0.3369 -0.2520
   66SAPC  H12R 5472   4.484   2.352   7.716  0.6584 -0.0609 -1.6203
   66SAPC  C213 5473   4.268   2.284   7.730 -0.0521  0.0590 -0.5128
   66SAPC  H13R 5474   4.273   2.175   7.707 -3.1672 -0.8080  2.0546
   66SAPC  H13S 5475   4.177   2.325   7.681 -0.4738  0.9492  0.9656
   66SAPC  C214 5476   4.260   2.307   7.883  0.0430  0.8564  0.4081
   66SAPC  H14R 5477   4.309   2.228   7.942 -1.3752  0.0892  0.5984
   66SAPC  C215 5478   4.210   2.414   7.943  0.3854  0.4613 -0.1561
   66SAPC  H15R 5479   4.238   2.438   8.047  1.0333  0.7699 -0.3979
   66SAPC  C216 5480   4.159   2.531   7.871  0.1358 -0.1868  0.7212
   66SAPC  H16R 5481   4.079   2.576   7.934 -0.6654  0.3229 -0.6174
   66SAPC  H16S 5482   4.104   2.505   7.778  0.0654 -1.1299  1.0179
   66SAPC  C217 5483   4.277   2.633   7.848 -0.6540 -0.2717 -0.1759
   66SAPC  H17R 5484   4.348   2.587   7.777  0.4470 -1.7364  1.7660
   66SAPC  H17S 5485   4.321   2.651   7.949 -4.5864  1.5921  1.4274
   66SAPC  C218 5486   4.221   2.765   7.798  0.1135  0.0906  0.2731
   66SAPC  H18R 5487   4.281   2.856   7.821 -0.4929  0.8809 -1.1629
   66SAPC  H18S 5488   4.117   2.776   7.837  0.0195 -0.8967  0.3141
   66SAPC  C219 5489   4.224   2.767   7.646  0.0270  0.6705  0.3489
   66SAPC  H19R 5490   4.134   2.819   7.608 -1.4133  0.2075  2.8576
   66SAPC  H19S 5491   4.193   2.666   7.611 -0.3463  0.7025  0.5747
   66SAPC  C220 5492   4.354   2.794   7.579  0.3932 -0.4279  0.2799
   66SAPC  H20R 5493   4.347   2.808   7.469  4.1692  1.2620  0.0842
   66SAPC  H20S 5494   4.432   2.716   7.592  2.2141  1.0496 -1.1851
   66SAPC  H20T 5495   4.406   2.887   7.610  1.3320 -0.5729 -0.7908
   66SAPC   C33 5496   4.802   2.082   6.750  0.2113  0.1546  0.3675
   66SAPC   H3X 5497   4.718   2.019   6.713  0.1215  0.4409  0.0859
   66SAPC   H3Y 5498   4.748   2.178   6.765 -0.6275  0.2150 -2.4770
   66SAPC   C34 5499   4.871   2.038   6.885 -0.1707  0.0889 -0.4621
   66SAPC   H4X 5500   4.970   2.088   6.895  0.8722 -2.1372  1.0361
   66SAPC   H4Y 5501   4.900   1.931   6.890  0.5298  0.3041  0.4288
   66SAPC   C35 5502   4.785   2.071   7.001  0.4281 -0.2128  0.0364
   66SAPC   H5X 5503   4.692   2.011   7.008 -0.7206  1.3360 -1.2750
   66SAPC   H5Y 5504   4.744   2.174   6.993  0.9813 -0.0384 -0.6364
   66SAPC   C36 5505   4.866   2.060   7.132  0.7071  0.3090  0.5609
   66SAPC   H6X 5506   4.953   2.126   7.111  0.5147  0.0749 -1.1013
   66SAPC   H6Y 5507   4.903   1.956   7.140  1.4498  0.3956 -1.2799
   66SAPC   C37 5508   4.777   2.093   7.256  0.0543  0.3026  0.3648
   66SAPC   H7X 5509   4.701   2.013   7.270 -0.2514  0.4970 -0.1734
   66SAPC   H7Y 5510   4.721   2.181   7.220  0.2366  0.9290  1.5448
   66SAPC   C38 5511   4.855   2.091   7.385 -0.0408  0.4001 -0.3640
   66SAPC   H8X 5512   4.933   2.169   7.375 -0.4738  0.6442 -2.1635
   66SAPC   H8Y 5513   4.898   1.990   7.404 -0.5387  0.4384  1.1118
   66SAPC   C39 5514   4.763   2.125   7.501 -0.1031 -0.5082 -0.4908
   66SAPC   H9X 5515   4.677   2.055   7.502  1.5510 -2.7194  2.5417
   66SAPC   H9Y 5516   4.730   2.230   7.484 -0.5323 -0.7740 -1.3741
   66SAPC  C310 5517   4.827   2.102   7.644 -0.0278 -0.5432  0.0781
   66SAPC  H10X 5518   4.925   2.154   7.652  1.5365 -3.4809  1.4950
   66SAPC  H10Y 5519   4.847   1.993   7.655 -1.7549 -0.7813  1.1676
   66SAPC  C311 5520   4.734   2.159   7.754  0.3094 -0.3883 -0.1369
   66SAPC  H11X 5521   4.630   2.128   7.731  0.0465 -1.1954  1.9302
   66SAPC  H11Y 5522   4.747   2.270   7.756  2.1204 -0.5684 -0.3590
   66SAPC  C312 5523   4.762   2.093   7.889  0.2214  0.0021  0.1727
   66SAPC  H12X 5524   4.868   2.112   7.918  0.1718 -1.0931  1.1427
   66SAPC  H12Y 5525   4.777   1.983   7.885  3.3072  0.2087  2.4709
   66SAPC  C313 5526   4.677   2.136   8.008  0.6376  0.0057 -0.0649
   66SAPC  H13X 5527   4.568   2.112   8.008  0.5834  0.2030  1.4673
   66SAPC  H13Y 5528   4.675   2.246   8.000  0.3533  0.0013 -0.0828
   66SAPC  C314 5529   4.730   2.080   8.140 -0.2899 -0.0035  0.8510
   66SAPC  H14X 5530   4.798   1.994   8.125  0.5623  0.8544 -0.4849
   66SAPC  H14Y 5531   4.650   2.039   8.205  0.1515 -2.8795 -0.2723
   66SAPC  C315 5532   4.791   2.192   8.222 -0.7197  0.1181  0.7087
   66SAPC  H15X 5533   4.703   2.258   8.236  0.2630  1.6862 -0.2249
   66SAPC  H15Y 5534   4.862   2.254   8.164 -0.4809  0.7489  1.6625
   66SAPC  C316 5535   4.848   2.132   8.355 -0.4981 -0.4420  0.1857
   66SAPC  H16X 5536   4.926   2.056   8.338 -0.8020 -0.5245 -0.9120
   66SAPC  H16Y 5537   4.762   2.089   8.410 -0.7384 -0.8720 -0.5091
   66SAPC  C317 5538   4.916   2.241   8.439 -0.1271  0.2126  0.2779
   66SAPC  H17X 5539   4.952   2.195   8.533  2.3636 -1.0432 -1.1885
   66SAPC  H17Y 5540   4.845   2.323   8.462  1.9390  2.3695 -0.5898
   66SAPC  C318 5541   5.032   2.315   8.373  0.1638  0.1272 -0.2810
   66SAPC  H18X 5542   5.081   2.389   8.440 -1.9183  1.5384 -0.2213
   66SAPC  H18Y 5543   4.997   2.376   8.287 -0.5176  0.6047  0.3263
   66SAPC  H18Z 5544   5.103   2.244   8.324 -0.8881 -0.1051 -1.5227
   67SAPC     N 5545   1.652   2.510   6.401 -0.0144  0.1622 -0.0980
   67SAPC   C12 5546   1.502   2.545   6.393  0.0030  0.6795  0.5416
   67SAPC  H12A 5547   1.446   2.465   6.440 -0.0077 -1.2869 -2.4936
   67SAPC  H12B 5548   1.475   2.542   6.289 -0.2108 -1.2456  0.6055
   67SAPC   C13 5549   1.666   2.365   6.371  0.3737  0.5230  0.8547
   67SAPC  H13A 5550   1.771   2.338   6.371  0.3119  0.0770 -1.3075
   67SAPC  H13B 5551   1.606   2.297   6.430  0.7180 -2.3780 -1.8595
   67SAPC  H13C 5552   1.637   2.351   6.268  1.3578 -2.4419  0.8816
   67SAPC   C14 5553   1.733   2.591   6.314 -0.3322 -0.9353 -0.4626
   67SAPC  H14A 5554   1.839   2.573   6.330 -0.4396 -1.4873 -0.3633
   67SAPC  H14B 5555   1.721   2.571   6.208  2.0698 -0.1590 -0.9525
   67SAPC  H14C 5556   1.720   2.695   6.338 -0.8691 -1.1496  0.1977
   67SAPC   C15 5557   1.699   2.528   6.544  0.2765  0.3682  0.2711
   67SAPC  H15A 5558   1.637   2.458   6.599 -0.2246  0.3177 -0.3423
   67SAPC  H15B 5559   1.801   2.491   6.548  0.8207  1.7939 -0.0653
   67SAPC  H15C 5560   1.700   2.631   6.575  0.8979  0.1778  0.9162
   67SAPC   C11 5561   1.454   2.680   6.437 -0.0089 -0.7180 -0.0179
   67SAPC  H11A 5562   1.491   2.696   6.540 -0.6120  1.3738 -0.0735
   67SAPC  H11B 5563   1.343   2.689   6.436 -0.0003 -0.5866  0.0931
   67SAPC     P 5564   1.538   2.926   6.394 -0.1258  0.3882  0.1933
   67SAPC   O13 5565   1.679   2.934   6.446  0.1001 -0.1908  0.8431
   67SAPC   O14 5566   1.510   3.006   6.273 -0.2760 -0.3096  0.1926
   67SAPC   O12 5567   1.513   2.778   6.350  0.0953  0.3866  0.2413
   67SAPC   O11 5568   1.439   2.961   6.506  0.0204  0.6252  0.4769
   67SAPC    C1 5569   1.464   2.958   6.644  0.2971  0.3704  0.1054
   67SAPC    HA 5570   1.491   2.855   6.675 -1.6938 -0.4366 -0.6496
   67SAPC    HB 5571   1.546   3.029   6.665  0.9298 -0.1379 -0.5917
   67SAPC    C2 5572   1.329   2.994   6.714  0.1838  0.1104 -0.2521
   67SAPC    HS 5573   1.290   3.093   6.680  0.3504  0.1926 -0.2014
   67SAPC   O21 5574   1.353   3.005   6.856  0.4549  0.4969 -0.3775
   67SAPC   C21 5575   1.392   3.120   6.903  0.0591  0.4103  0.5115
   67SAPC   O22 5576   1.444   3.211   6.835  0.3648 -0.3973 -0.2134
   67SAPC   C22 5577   1.340   3.127   7.042 -0.1590 -0.9040  0.6793
   67SAPC   H2R 5578   1.236   3.088   7.046 -0.6079 -0.6208 -3.8024
   67SAPC   H2S 5579   1.407   3.065   7.106  0.7609 -1.3505 -0.6634
   67SAPC    C3 5580   1.211   2.895   6.678  0.1589  0.3957 -0.6663
   67SAPC    HX 5581   1.256   2.805   6.631 -0.3428  0.1330 -0.6479
   67SAPC    HY 5582   1.146   2.926   6.593 -1.2103  2.3433  0.9971
   67SAPC   O31 5583   1.137   2.855   6.791  0.2448 -0.8981 -0.3878
   67SAPC   C31 5584   1.043   2.946   6.827  0.0190 -0.0351 -0.5126
   67SAPC   O32 5585   1.018   3.055   6.775 -0.0482  0.0507 -0.0245
   67SAPC   C32 5586   0.997   2.892   6.958  0.5131 -0.0081 -0.0592
   67SAPC   H2X 5587   1.085   2.870   7.023 -0.0986 -0.1685  0.7355
   67SAPC   H2Y 5588   0.938   2.799   6.944  0.5097 -0.0849  0.4441
   67SAPC   C23 5589   1.340   3.272   7.090  0.3134 -0.0624  0.5351
   67SAPC   H3R 5590   1.305   3.354   7.024  2.2717  0.0678 -0.4192
   67SAPC   H3S 5591   1.445   3.294   7.118  0.9003 -2.1125  0.1555
   67SAPC   C24 5592   1.268   3.284   7.225  0.3417  0.1144 -0.3548
   67SAPC   H4R 5593   1.291   3.383   7.270 -0.8034  0.9432 -1.5150
   67SAPC   H4S 5594   1.314   3.201   7.283 -0.5062  0.1643  0.4089
   67SAPC   C25 5595   1.119   3.269   7.212 -0.1251  0.2888 -0.1180
   67SAPC   H5R 5596   1.078   3.307   7.117  1.6004  1.8047 -0.3247
   67SAPC   C26 5597   1.031   3.218   7.298  0.3353 -0.4510 -0.0711
   67SAPC   H6R 5598   0.927   3.212   7.261  0.6862  1.2066 -1.4791
   67SAPC   C27 5599   1.073   3.151   7.426  0.5177 -0.9136  0.0169
   67SAPC   H7R 5600   1.014   3.191   7.511  0.8430 -0.2991 -0.0405
   67SAPC   H7S 5601   1.179   3.167   7.455  0.2286  3.9482 -0.7315
   67SAPC   C28 5602   1.055   3.006   7.422 -0.2356  0.0321 -0.3159
   67SAPC   H8R 5603   1.132   2.959   7.359  1.0076  2.3663 -0.6360
   67SAPC   C29 5604   0.973   2.928   7.496  0.3049  0.4187 -0.0141
   67SAPC   H9R 5605   0.966   2.819   7.491  1.9686  0.2356  0.7514
   67SAPC  C210 5606   0.867   2.983   7.592 -0.2027  0.0017 -0.1846
   67SAPC  H10R 5607   0.801   3.051   7.535  2.0543  0.6663 -2.1660
   67SAPC  H10S 5608   0.920   3.052   7.661  2.8382 -2.2273 -0.0698
   67SAPC  C211 5609   0.792   2.880   7.672 -0.3820  0.5863  0.6899
   67SAPC  H11R 5610   0.704   2.844   7.616  0.9386  0.2751 -1.2916
   67SAPC  C212 5611   0.831   2.825   7.788  0.8133 -0.3077  0.2394
   67SAPC  H12R 5612   0.769   2.746   7.832  1.5919 -1.3052 -0.4168
   67SAPC  C213 5613   0.947   2.861   7.875  0.0307 -0.0368  0.4034
   67SAPC  H13R 5614   1.024   2.904   7.808 -2.1246  0.9407 -1.6174
   67SAPC  H13S 5615   0.979   2.769   7.929 -1.1439  0.6031  2.3040
   67SAPC  C214 5616   0.910   2.953   7.996 -0.3615 -0.3635  0.4492
   67SAPC  H14R 5617   0.910   3.063   7.986 -0.8803 -0.4697 -0.9458
   67SAPC  C215 5618   0.860   2.916   8.114 -0.6378 -0.1360 -0.6835
   67SAPC  H15R 5619   0.825   2.989   8.188  0.7063 -2.9421  3.0541
   67SAPC  C216 5620   0.837   2.778   8.162  0.6218 -0.4899 -0.3421
   67SAPC  H16R 5621   0.903   2.699   8.121  1.7517 -1.0883  2.4422
   67SAPC  H16S 5622   0.733   2.747   8.139  0.9293 -0.0943 -2.4552
   67SAPC  C217 5623   0.857   2.775   8.323  0.3151  0.2347 -0.3876
   67SAPC  H17R 5624   0.835   2.675   8.367  0.9091  0.0218 -0.5717
   67SAPC  H17S 5625   0.773   2.835   8.367 -0.2187 -0.1022 -0.9352
   67SAPC  C218 5626   1.000   2.805   8.375 -0.0500  0.0184  0.2850
   67SAPC  H18R 5627   1.036   2.896   8.324  1.1415  0.6711  2.1893
   67SAPC  H18S 5628   1.066   2.724   8.339  0.1711  0.6766 -0.8252
   67SAPC  C219 5629   1.012   2.817   8.526  0.6585 -0.0180  0.7530
   67SAPC  H19R 5630   1.117   2.790   8.550  0.8393 -0.2327 -0.2689
   67SAPC  H19S 5631   0.938   2.748   8.571  0.9989  0.3210  1.8749
   67SAPC  C220 5632   0.984   2.962   8.582  0.3165 -0.0740  0.0696
   67SAPC  H20R 5633   0.880   2.994   8.562  0.7514  1.5640  0.2485
   67SAPC  H20S 5634   1.049   3.034   8.527  0.0610 -0.1847 -0.3817
   67SAPC  H20T 5635   0.993   2.971   8.692 -2.8214  0.3387  0.3764
   67SAPC   C33 5636   0.911   2.997   7.028  0.6499  0.0435 -0.1742
   67SAPC   H3X 5637   0.843   3.057   6.964  0.5448  0.3231  0.1984
   67SAPC   H3Y 5638   0.970   3.080   7.073 -1.4689  0.5806  1.7794
   67SAPC   C34 5639   0.827   2.934   7.143  0.3144  0.4701  0.8351
   67SAPC   H4X 5640   0.792   3.023   7.199 -1.4280  0.6165 -0.4028
   67SAPC   H4Y 5641   0.893   2.878   7.213  0.4044 -1.2722 -0.5540
   67SAPC   C35 5642   0.693   2.862   7.104 -0.5700  0.1529  0.0758
   67SAPC   H5X 5643   0.710   2.781   7.030  0.6531  0.2011  0.2922
   67SAPC   H5Y 5644   0.618   2.936   7.068 -1.2322 -0.8037 -0.5644
   67SAPC   C36 5645   0.623   2.790   7.225 -0.9332  0.1518 -0.2296
   67SAPC   H6X 5646   0.693   2.723   7.278 -1.0490  1.2974  1.4313
   67SAPC   H6Y 5647   0.546   2.727   7.175 -1.5771 -0.3943  1.3874
   67SAPC   C37 5648   0.555   2.888   7.325  0.0383 -0.4930  0.3537
   67SAPC   H7X 5649   0.478   2.935   7.262 -0.2875 -1.4897 -0.0158
   67SAPC   H7Y 5650   0.632   2.962   7.356  0.1965 -0.1531 -0.8183
   67SAPC   C38 5651   0.486   2.821   7.444  0.3330  0.2473  0.3169
   67SAPC   H8X 5652   0.562   2.754   7.489  1.0894  1.3426  0.7119
   67SAPC   H8Y 5653   0.405   2.755   7.407 -0.4554  1.5211 -0.2916
   67SAPC   C39 5654   0.442   2.920   7.554  0.0233 -0.7225  0.0463
   67SAPC   H9X 5655   0.361   2.985   7.514  0.8726  0.3631  0.0356
   67SAPC   H9Y 5656   0.524   2.977   7.603 -0.1006  0.2506 -0.8484
   67SAPC  C310 5657   0.389   2.837   7.673 -0.0311  0.3481 -0.2376
   67SAPC  H10X 5658   0.466   2.763   7.701 -1.5480 -0.1321  3.2913
   67SAPC  H10Y 5659   0.296   2.788   7.638 -0.1467  0.3557  0.0566
   67SAPC  C311 5660   0.361   2.921   7.801  0.1960 -0.6488  0.7254
   67SAPC  H11X 5661   0.310   3.014   7.768  1.4984 -0.0877  0.2239
   67SAPC  H11Y 5662   0.456   2.940   7.856 -1.5852 -1.0844  4.2668
   67SAPC  C312 5663   0.271   2.840   7.894 -0.1368 -0.2196 -0.6347
   67SAPC  H12X 5664   0.178   2.815   7.838  0.3797  0.7995 -1.9880
   67SAPC  H12Y 5665   0.229   2.896   7.980 -4.0864 -4.4613  0.5742
   67SAPC  C313 5666   0.343   2.722   7.961  0.4197  0.5758 -0.2536
   67SAPC  H13X 5667   0.374   2.646   7.887 -0.8018 -1.4964  1.2437
   67SAPC  H13Y 5668   0.273   2.670   8.030 -0.5324  0.1224 -1.5170
   67SAPC  C314 5669   0.456   2.761   8.066 -0.6868 -0.3608 -0.2226
   67SAPC  H14X 5670   0.542   2.815   8.022 -1.3883  3.9298  3.0343
   67SAPC  H14Y 5671   0.491   2.666   8.111 -2.8130 -0.4487  1.4552
   67SAPC  C315 5672   0.405   2.852   8.180 -0.1487 -0.8740  0.2115
   67SAPC  H15X 5673   0.396   2.955   8.137 -1.6989 -1.6899 -1.5941
   67SAPC  H15Y 5674   0.497   2.860   8.241 -0.2448  2.0887  0.1065
   67SAPC  C316 5675   0.281   2.804   8.251 -1.1673 -0.0727 -0.3518
   67SAPC  H16X 5676   0.268   2.695   8.238  1.7709 -0.2283 -3.2101
   67SAPC  H16Y 5677   0.198   2.862   8.205 -0.3610  1.4336  0.0078
   67SAPC  C317 5678   0.279   2.840   8.398 -0.0234  0.1191  1.1125
   67SAPC  H17X 5679   0.371   2.791   8.438  0.0993 -2.3363 -1.8490
   67SAPC  H17Y 5680   0.185   2.802   8.443  0.2885  0.8293  2.4088
   67SAPC  C318 5681   0.293   2.994   8.420 -0.1248  0.5342  0.2922
   67SAPC  H18X 5682   0.395   3.032   8.396  0.4842 -1.8329 -1.2080
   67SAPC  H18Y 5683   0.274   3.008   8.529  2.3503  0.3117  0.8330
   67SAPC  H18Z 5684   0.212   3.046   8.365  0.2619  0.0622 -0.7440
   68SAPC     N 5685   5.682   3.413   6.112  0.5220  0.1846 -0.2362
   68SAPC   C12 5686   5.780   3.412   5.999 -0.2313  0.7201 -0.8202
   68SAPC  H12A 5687   5.867   3.465   6.035 -0.2098  2.0362 -2.6234
   68SAPC  H12B 5688   5.739   3.474   5.920  1.1623  1.2758 -1.1547
   68SAPC   C13 5689   5.644   3.555   6.128  0.7697  0.3909 -0.0036
   68SAPC  H13A 5690   5.586   3.560   6.219 -1.1628  0.9562 -1.2122
   68SAPC  H13B 5691   5.731   3.619   6.135  2.2863 -0.4502 -6.0642
   68SAPC  H13C 5692   5.604   3.596   6.037  1.9185  0.2413 -0.6062
   68SAPC   C14 5693   5.565   3.333   6.094  0.2054  0.2776  0.3708
   68SAPC  H14A 5694   5.511   3.360   6.004  0.6470 -1.5915 -0.4974
   68SAPC  H14B 5695   5.573   3.227   6.076 -1.9539  0.0367  0.6228
   68SAPC  H14C 5696   5.493   3.336   6.175  1.3619  2.0190  1.3946
   68SAPC   C15 5697   5.750   3.378   6.239  0.5899  0.0352  0.2471
   68SAPC  H15A 5698   5.803   3.284   6.231  0.7238 -0.1067  2.4513
   68SAPC  H15B 5699   5.820   3.456   6.266  2.6589 -2.1061  1.3911
   68SAPC  H15C 5700   5.684   3.377   6.324  0.2194  0.6350 -0.0257
   68SAPC   C11 5701   5.827   3.278   5.940 -0.1691 -0.2967 -0.2265
   68SAPC  H11A 5702   5.881   3.305   5.846  0.7385 -2.8510 -0.5404
   68SAPC  H11B 5703   5.738   3.217   5.914 -1.5150  1.1461  0.8696
   68SAPC     P 5704   6.056   3.215   6.047 -0.0872 -0.0568 -0.0287
   68SAPC   O13 5705   6.120   3.112   5.956 -0.5073 -0.0849 -0.1771
   68SAPC   O14 5706   6.096   3.360   6.032 -0.1398  0.2209 -0.0944
   68SAPC   O12 5707   5.901   3.201   6.037 -0.1682  0.4423  0.0126
   68SAPC   O11 5708   6.073   3.162   6.195  0.3734 -0.0886 -0.6946
   68SAPC    C1 5709   6.041   3.024   6.227  0.7460  0.6441  0.5130
   68SAPC    HA 5710   5.931   3.008   6.224  0.8532 -0.0518 -1.9077
   68SAPC    HB 5711   6.084   2.953   6.153  1.0780  1.5429 -0.1762
   68SAPC    C2 5712   6.084   2.973   6.377 -0.6132  0.3211  0.0303
   68SAPC    HS 5713   6.103   2.864   6.377 -0.7136  0.2878  1.4152
   68SAPC   O21 5714   5.984   3.009   6.469  0.6430  0.2157 -0.5505
   68SAPC   C21 5715   5.877   2.940   6.458 -0.3204  0.2658  0.0534
   68SAPC   O22 5716   5.853   2.847   6.380 -0.4286  0.4136  0.3632
   68SAPC   C22 5717   5.783   2.978   6.575 -0.2512 -0.1971 -0.2991
   68SAPC   H2R 5718   5.848   3.006   6.661  0.6818 -1.9128 -0.3898
   68SAPC   H2S 5719   5.739   3.078   6.558 -1.1734 -1.0626 -3.7297
   68SAPC    C3 5720   6.222   3.042   6.419  0.4067 -0.4127 -0.6125
   68SAPC    HX 5721   6.222   3.150   6.394 -0.7948  0.2295  1.8932
   68SAPC    HY 5722   6.300   2.997   6.353 -0.4855 -4.0093  0.5625
   68SAPC   O31 5723   6.259   3.012   6.563 -0.0381  0.1245 -0.3854
   68SAPC   C31 5724   6.210   3.098   6.645  0.3119  0.5623  0.4264
   68SAPC   O32 5725   6.161   3.207   6.619 -0.6119  0.0200  0.5180
   68SAPC   C32 5726   6.216   3.026   6.779  0.3858  0.3610 -0.8952
   68SAPC   H2X 5727   6.321   2.996   6.794 -0.5690 -2.5099  0.9266
   68SAPC   H2Y 5728   6.154   2.936   6.759 -0.6423  0.5893  0.9229
   68SAPC   C23 5729   5.690   2.864   6.616  0.0534 -0.8207 -0.2257
   68SAPC   H3R 5730   5.756   2.775   6.626  2.7998  1.2433  1.4487
   68SAPC   H3S 5731   5.632   2.845   6.523  0.5739  0.8625 -0.9295
   68SAPC   C24 5732   5.616   2.885   6.748 -0.4611 -0.0285  0.0249
   68SAPC   H4R 5733   5.553   2.977   6.749  0.1872  0.4482  1.8987
   68SAPC   H4S 5734   5.693   2.911   6.824  0.9210  0.2338 -1.3986
   68SAPC   C25 5735   5.535   2.769   6.795 -0.2956 -0.1477  0.1964
   68SAPC   H5R 5736   5.431   2.774   6.760 -0.2171  1.2847  0.1037
   68SAPC   C26 5737   5.580   2.662   6.871  0.5511 -0.1175 -0.1967
   68SAPC   H6R 5738   5.504   2.587   6.900  0.1254  0.5985  0.5638
   68SAPC   C27 5739   5.720   2.642   6.923  0.2837  0.6248 -0.4191
   68SAPC   H7R 5740   5.788   2.667   6.839  1.1227 -0.1738  0.0067
   68SAPC   H7S 5741   5.719   2.535   6.954  0.5377  0.8519  0.4084
   68SAPC   C28 5742   5.763   2.738   7.032 -0.5007  0.1116  0.0691
   68SAPC   H8R 5743   5.826   2.821   6.996  0.7657 -0.1529  1.5911
   68SAPC   C29 5744   5.749   2.720   7.167  0.3129  0.8451 -0.3044
   68SAPC   H9R 5745   5.787   2.799   7.234  2.0329 -0.7148  0.6680
   68SAPC  C210 5746   5.682   2.601   7.234 -0.2976  0.0182 -0.0118
   68SAPC  H10R 5747   5.649   2.531   7.155  0.1485 -0.1903 -0.0158
   68SAPC  H10S 5748   5.592   2.648   7.279  0.0433 -0.1071  0.8320
   68SAPC  C211 5749   5.754   2.532   7.345  0.1180  0.5193 -0.5976
   68SAPC  H11R 5750   5.834   2.478   7.292 -0.4846 -0.6862 -0.3342
   68SAPC  C212 5751   5.754   2.542   7.478  0.3419 -0.6660 -0.5663
   68SAPC  H12R 5752   5.826   2.481   7.535  1.0076 -1.0425 -1.7756
   68SAPC  C213 5753   5.668   2.642   7.549 -0.2270 -1.1398 -0.2968
   68SAPC  H13R 5754   5.590   2.597   7.614  0.7040  0.3235  1.9341
   68SAPC  H13S 5755   5.618   2.707   7.475  1.5151  1.4624  0.6762
   68SAPC  C214 5756   5.748   2.749   7.623 -0.2173  0.5376 -0.1855
   68SAPC  H14R 5757   5.839   2.787   7.573  1.0045 -0.4034  1.2384
   68SAPC  C215 5758   5.731   2.793   7.753  0.0108  0.1162 -0.0969
   68SAPC  H15R 5759   5.790   2.880   7.784  1.0831  0.4804 -2.9011
   68SAPC  C216 5760   5.629   2.732   7.850  0.4062  0.2559  0.3762
   68SAPC  H16R 5761   5.590   2.636   7.810  0.6764 -0.4218  1.6702
   68SAPC  H16S 5762   5.545   2.803   7.859  1.2596  1.2194  1.0459
   68SAPC  C217 5763   5.682   2.701   7.993  0.3480 -0.2889  0.5027
   68SAPC  H17R 5764   5.776   2.644   7.976  1.4305  1.9929 -1.8275
   68SAPC  H17S 5765   5.608   2.638   8.047  0.1682 -1.5046 -1.0779
   68SAPC  C218 5766   5.717   2.827   8.071  0.4755 -0.3393 -0.1775
   68SAPC  H18R 5767   5.630   2.883   8.110 -0.0751 -1.0703 -0.3371
   68SAPC  H18S 5768   5.761   2.897   7.996 -1.1959  1.8634  0.7782
   68SAPC  C219 5769   5.820   2.805   8.188  0.7351 -0.6864  0.1517
   68SAPC  H19R 5770   5.876   2.899   8.211 -0.9768  0.4229 -0.0194
   68SAPC  H19S 5771   5.889   2.723   8.159  0.7149  0.1942 -2.7395
   68SAPC  C220 5772   5.742   2.767   8.313 -0.1877  0.3679  0.1128
   68SAPC  H20R 5773   5.711   2.661   8.300  2.1427 -0.4229  0.4437
   68SAPC  H20S 5774   5.653   2.833   8.321  1.3955  2.6431 -0.0056
   68SAPC  H20T 5775   5.801   2.777   8.406 -1.1141  2.7620  0.5100
   68SAPC   C33 5776   6.158   3.126   6.888  0.0591  0.0761  0.2253
   68SAPC   H3X 5777   6.188   3.233   6.884  1.1337 -0.2480 -1.5252
   68SAPC   H3Y 5778   6.207   3.096   6.983  0.2169  0.0735  0.1430
   68SAPC   C34 5779   6.007   3.113   6.888 -0.2841  0.5144 -0.5994
   68SAPC   H4X 5780   5.978   3.008   6.868 -0.4131  0.9973 -3.3270
   68SAPC   H4Y 5781   5.967   3.170   6.801 -0.7940 -1.5682 -1.7771
   68SAPC   C35 5782   5.949   3.161   7.023  0.1654  0.5760  0.0577
   68SAPC   H5X 5783   5.839   3.147   7.020 -0.0907  2.2428  0.3438
   68SAPC   H5Y 5784   5.971   3.268   7.044 -1.2324  0.8687  0.1417
   68SAPC   C36 5785   5.991   3.071   7.140 -0.1266 -0.0481 -1.2118
   68SAPC   H6X 5786   6.098   3.081   7.166 -0.0155 -1.4872 -1.0406
   68SAPC   H6Y 5787   5.967   2.966   7.111  0.1800 -0.4193 -0.1717
   68SAPC   C37 5788   5.927   3.110   7.274  0.0408 -0.1775  0.7072
   68SAPC   H7X 5789   5.824   3.069   7.274  0.4058 -1.1694 -0.5714
   68SAPC   H7Y 5790   5.927   3.221   7.277 -0.9586 -0.1931  2.4740
   68SAPC   C38 5791   5.994   3.059   7.399  0.4289  0.8107  0.0674
   68SAPC   H8X 5792   6.103   3.067   7.382  0.5029  1.7236  0.8879
   68SAPC   H8Y 5793   5.964   2.953   7.416  2.3035  0.1745 -0.3808
   68SAPC   C39 5794   5.948   3.136   7.521 -0.0704 -0.3006 -0.0016
   68SAPC   H9X 5795   5.839   3.115   7.527 -0.5100  2.0774  1.9857
   68SAPC   H9Y 5796   5.974   3.243   7.508 -0.5847 -0.2506 -0.6459
   68SAPC  C310 5797   6.017   3.098   7.653  0.0132 -0.3626 -0.1175
   68SAPC  H10X 5798   6.127   3.110   7.642 -0.2297  2.1120 -0.3706
   68SAPC  H10Y 5799   6.001   2.994   7.690 -2.0045  0.5052  1.6692
   68SAPC  C311 5800   5.959   3.187   7.761 -0.8402  0.0413  0.6519
   68SAPC  H11X 5801   5.852   3.167   7.782 -1.8564  5.0318  1.4931
   68SAPC  H11Y 5802   5.949   3.292   7.727 -2.6805 -0.4574 -0.5217
   68SAPC  C312 5803   6.040   3.182   7.892  0.0476  0.8956 -0.3225
   68SAPC  H12X 5804   6.007   3.267   7.956 -1.5961 -1.4722  2.1900
   68SAPC  H12Y 5805   6.146   3.202   7.863  0.4314 -0.3444  0.1522
   68SAPC  C313 5806   6.033   3.051   7.971  0.2243  0.4647  0.5248
   68SAPC  H13X 5807   6.066   2.964   7.909 -0.2749  2.0572 -2.1408
   68SAPC  H13Y 5808   5.932   3.031   8.012  0.3275 -0.1752  0.4839
   68SAPC  C314 5809   6.128   3.048   8.088 -0.6449  0.3517 -0.6522
   68SAPC  H14X 5810   6.225   3.038   8.035 -1.3070 -0.9037 -1.6622
   68SAPC  H14Y 5811   6.111   2.955   8.147 -2.6176  0.5614 -0.8130
   68SAPC  C315 5812   6.113   3.162   8.191 -0.2750 -0.4544  0.6657
   68SAPC  H15X 5813   6.116   3.250   8.124  0.7280  1.7696  3.4294
   68SAPC  H15Y 5814   6.202   3.178   8.256 -0.5328  2.0149  0.4943
   68SAPC  C316 5815   5.983   3.164   8.278  0.3021  0.0862 -0.3384
   68SAPC  H16X 5816   6.001   3.080   8.349  0.4226  0.8191  0.5096
   68SAPC  H16Y 5817   5.904   3.138   8.203  1.0108  1.6912 -1.7087
   68SAPC  C317 5818   5.944   3.296   8.345 -0.5923 -0.9621 -0.1043
   68SAPC  H17X 5819   5.838   3.291   8.377 -0.2817  0.0658  1.1326
   68SAPC  H17Y 5820   5.960   3.382   8.276  0.5530  0.0510  1.3805
   68SAPC  C318 5821   6.020   3.337   8.473 -0.0595  0.3021  0.4739
   68SAPC  H18X 5822   6.127   3.338   8.443 -0.4172  1.0422 -0.8576
   68SAPC  H18Y 5823   5.999   3.265   8.555  2.4541  0.2732  1.1591
   68SAPC  H18Z 5824   5.986   3.435   8.514 -0.8975  0.8132 -1.3120
   69SLPC     N 5825   3.135   1.437  11.143 -0.1212 -0.7716 -0.0192
   69SLPC   C13 5826   3.082   1.456  11.006 -0.0053  0.3406 -0.1567
   69SLPC  H13A 5827   2.975   1.449  11.019 -0.3796  2.4240 -1.6916
   69SLPC  H13B 5828   3.114   1.550  10.964 -0.0884  0.2648 -0.3947
   69SLPC  H13C 5829   3.110   1.378  10.937  1.6463  0.5360  0.2562
   69SLPC   C14 5830   3.100   1.551  11.230  0.2489  0.3443 -0.2551
   69SLPC  H14A 5831   3.138   1.539  11.331 -0.3504  0.9968  0.0574
   69SLPC  H14B 5832   3.150   1.638  11.194  0.5270  1.0697  1.7380
   69SLPC  H14C 5833   2.993   1.565  11.225  0.4105  1.9780  0.2597
   69SLPC   C15 5834   3.285   1.421  11.128  0.0108 -0.4771  0.4649
   69SLPC  H15A 5835   3.318   1.510  11.076 -1.0224 -0.4973 -0.2754
   69SLPC  H15B 5836   3.321   1.395  11.226 -4.7425 -1.4885  2.2283
   69SLPC  H15C 5837   3.303   1.341  11.058  1.0944  0.7147 -0.6629
   69SLPC   C12 5838   3.086   1.305  11.198  0.4029  0.3684  0.3078
   69SLPC  H12A 5839   3.134   1.293  11.294 -1.6236 -0.8236  1.2420
   69SLPC  H12B 5840   3.124   1.221  11.142 -1.3884 -1.1480  1.2225
   69SLPC   C11 5841   2.931   1.280  11.206  0.0561 -0.2863 -0.7791
   69SLPC  H11A 5842   2.885   1.367  11.258  0.0898 -0.6720 -0.1004
   69SLPC  H11B 5843   2.910   1.188  11.264 -1.0561  0.3874 -0.0842
   69SLPC     P 5844   2.722   1.235  11.057  0.3142  0.4823  0.7446
   69SLPC   O13 5845   2.646   1.325  11.141 -0.6567  0.0638 -0.5617
   69SLPC   O14 5846   2.689   1.228  10.914  0.1998  0.1083  0.0098
   69SLPC   O12 5847   2.872   1.271  11.074  0.2945 -0.3374 -0.2911
   69SLPC   O11 5848   2.708   1.086  11.120  0.0902  0.1619  0.0904
   69SLPC    C1 5849   2.798   0.978  11.090  0.5446  0.1876 -0.4018
   69SLPC    HA 5850   2.900   1.010  11.118  0.7331  2.0834 -2.9392
   69SLPC    HB 5851   2.767   0.887  11.146 -0.0253 -1.8709 -3.7849
   69SLPC    C2 5852   2.799   0.917  10.946 -0.5059  0.1048 -0.3958
   69SLPC    HS 5853   2.845   0.817  10.958 -0.4947 -0.1527 -2.2727
   69SLPC   O21 5854   2.850   1.007  10.846 -0.4921 -0.4621  0.1014
   69SLPC   C21 5855   2.979   1.021  10.856  0.3539 -0.0880  0.3256
   69SLPC   O22 5856   3.048   0.972  10.944 -0.1209  0.1481 -0.8230
   69SLPC   C22 5857   3.024   1.124  10.760 -0.5741 -0.1560  0.0839
   69SLPC   H2R 5858   2.941   1.161  10.694 -0.6863  1.3565  1.0223
   69SLPC   H2S 5859   3.065   1.211  10.815  0.9366 -0.0926 -1.0953
   69SLPC    C3 5860   2.659   0.890  10.892 -0.0035 -0.7092  0.2140
   69SLPC    HX 5861   2.591   0.978  10.900  1.4022  0.3480  0.9607
   69SLPC    HY 5862   2.616   0.819  10.965  0.2105 -0.6204  0.4272
   69SLPC   O31 5863   2.660   0.830  10.758  0.2741  0.0855 -0.0347
   69SLPC   C31 5864   2.610   0.906  10.659  0.1485  0.3833 -0.3553
   69SLPC   O32 5865   2.584   1.024  10.669 -0.3878  0.5110  0.2933
   69SLPC   C32 5866   2.620   0.811  10.538  0.2234  0.7359  0.3912
   69SLPC   H2X 5867   2.533   0.742  10.545  0.4944  0.5220  2.2998
   69SLPC   H2Y 5868   2.704   0.739  10.546 -1.4719 -1.1897  2.5374
   69SLPC   C23 5869   3.139   1.075  10.656  0.1569 -0.0399  0.0429
   69SLPC   H3R 5870   3.230   1.066  10.719 -1.5919  1.0612  2.9342
   69SLPC   H3S 5871   3.154   1.162  10.589 -0.2131  1.1130  1.4052
   69SLPC   C24 5872   3.105   0.949  10.576 -0.1642  0.1344 -0.1065
   69SLPC   H4R 5873   3.023   0.971  10.504 -0.2984  0.1373  0.0478
   69SLPC   H4S 5874   3.080   0.868  10.648 -0.3440  0.2168 -0.0750
   69SLPC   C25 5875   3.233   0.904  10.506  0.1789  0.2583 -0.2043
   69SLPC   H5R 5876   3.315   0.885  10.578  1.3977 -1.3414 -1.9149
   69SLPC   H5S 5877   3.281   0.980  10.441  1.0893  1.3485  1.6465
   69SLPC   C26 5878   3.219   0.777  10.426  0.4272 -0.1315  0.2872
   69SLPC   H6R 5879   3.202   0.683  10.482  1.0887 -0.0968  0.5558
   69SLPC   H6S 5880   3.317   0.752  10.379  0.8492 -0.1542  1.1750
   69SLPC   C27 5881   3.122   0.795  10.300  0.3209  0.2479 -0.2205
   69SLPC   H7R 5882   3.143   0.876  10.226  1.2154 -0.3957 -0.6954
   69SLPC   H7S 5883   3.025   0.819  10.347 -0.6665 -2.3884 -0.7510
   69SLPC   C28 5884   3.117   0.667  10.216  0.1092  0.5794 -0.6230
   69SLPC   H8R 5885   3.180   0.595  10.271 -1.7452 -0.3278  0.4067
   69SLPC   H8S 5886   3.162   0.680  10.115  0.5273  1.4964 -0.3342
   69SLPC   C29 5887   2.976   0.608  10.202  1.0193 -0.8932 -0.3289
   69SLPC   H9R 5888   2.930   0.603  10.301  1.5398  1.1629  0.0561
   69SLPC  C210 5889   2.903   0.565  10.093  0.0774  0.1474 -0.1957
   69SLPC  H10R 5890   2.800   0.531  10.112 -0.2563  1.5225  0.5873
   69SLPC  C211 5891   2.945   0.578   9.949  0.1271 -0.5981 -0.0814
   69SLPC  H11R 5892   2.983   0.681   9.929 -1.5917  0.4330  1.5750
   69SLPC  H11S 5893   2.846   0.584   9.898 -0.4384  0.6360  1.0750
   69SLPC  C212 5894   3.049   0.483   9.899  0.9571 -0.1030  0.2024
   69SLPC  H12R 5895   3.127   0.443   9.965  0.2636  0.2135  1.2490
   69SLPC  C213 5896   3.061   0.433   9.776  0.8934  1.0259  0.1535
   69SLPC  H13R 5897   3.146   0.367   9.754  1.7138  0.9829  3.1093
   69SLPC  C214 5898   2.956   0.459   9.665 -0.0384  0.0707  0.2396
   69SLPC  H14R 5899   2.876   0.529   9.699 -0.0039  0.3593 -0.2661
   69SLPC  H14S 5900   2.908   0.361   9.644  1.5420 -0.9421  1.1333
   69SLPC  C215 5901   3.022   0.511   9.535  0.7900  0.6624  0.2871
   69SLPC  H15R 5902   3.100   0.440   9.501  0.4449 -0.3679  1.5938
   69SLPC  H15S 5903   3.077   0.606   9.556 -1.2174  1.9093  0.1710
   69SLPC  C216 5904   2.926   0.540   9.419  1.3472 -0.1030  0.0661
   69SLPC  H16R 5905   2.838   0.604   9.443 -0.1783 -1.5908 -1.2654
   69SLPC  H16S 5906   2.875   0.442   9.406  1.1753  0.1557 -1.3569
   69SLPC  C217 5907   2.996   0.584   9.292 -0.1233  0.2029  0.8966
   69SLPC  H17R 5908   3.081   0.513   9.283 -0.7585 -0.3322 -1.4470
   69SLPC  H17S 5909   3.034   0.688   9.305  2.7513 -0.2560 -2.2537
   69SLPC  C218 5910   2.911   0.569   9.160 -0.3469 -0.5676 -0.4369
   69SLPC  H18R 5911   2.829   0.645   9.161  0.9821  0.9284  1.5426
   69SLPC  H18S 5912   2.872   0.465   9.158  3.6725 -2.2171 -0.6049
   69SLPC  H18T 5913   2.972   0.581   9.068 -3.5002  1.5124 -2.4778
   69SLPC   C33 5914   2.616   0.882  10.406 -0.6250 -0.2134 -0.3085
   69SLPC   H3X 5915   2.711   0.940  10.406 -2.1034  2.4133  1.1341
   69SLPC   H3Y 5916   2.535   0.956  10.391 -0.6650 -0.5258 -1.7220
   69SLPC   C34 5917   2.623   0.790  10.290  0.4649  0.2238  0.1316
   69SLPC   H4X 5918   2.661   0.687  10.306 -1.7814 -1.0462 -1.9420
   69SLPC   H4Y 5919   2.684   0.830  10.206 -1.0430  1.0353 -0.6162
   69SLPC   C35 5920   2.485   0.768  10.220  0.0361 -0.6156  0.6345
   69SLPC   H5X 5921   2.444   0.864  10.181  2.0692  0.0104 -0.0892
   69SLPC   H5Y 5922   2.410   0.726  10.289  1.2128 -1.3059  1.5228
   69SLPC   C36 5923   2.488   0.680  10.099 -0.6074  0.7154  0.0398
   69SLPC   H6X 5924   2.390   0.677  10.047 -1.8777  2.9460  2.1115
   69SLPC   H6Y 5925   2.519   0.579  10.133 -0.4726  0.0790 -1.8420
   69SLPC   C37 5926   2.580   0.734   9.986 -0.1064  0.5024 -0.0303
   69SLPC   H7X 5927   2.684   0.732  10.023 -0.1983  0.5600  0.2323
   69SLPC   H7Y 5928   2.560   0.843   9.972 -2.1183  0.2811  0.7745
   69SLPC   C38 5929   2.568   0.641   9.862  0.9590  0.6138  0.2592
   69SLPC   H8X 5930   2.591   0.533   9.880 -0.7490 -0.7768 -4.3729
   69SLPC   H8Y 5931   2.647   0.679   9.793 -1.7213  2.7320 -1.8289
   69SLPC   C39 5932   2.438   0.653   9.789  0.6449  0.7962  0.4766
   69SLPC   H9X 5933   2.414   0.761   9.791 -1.6168  0.3554  0.7396
   69SLPC   H9Y 5934   2.353   0.615   9.850  1.3431  3.1351  3.1543
   69SLPC  C310 5935   2.435   0.592   9.656 -0.1631  0.0741 -0.3040
   69SLPC  H10X 5936   2.332   0.605   9.617 -0.4136 -0.6067  0.1074
   69SLPC  H10Y 5937   2.453   0.482   9.664 -1.7566 -0.2108 -0.3215
   69SLPC  C311 5938   2.553   0.641   9.563  0.4323  0.3529 -0.0755
   69SLPC  H11X 5939   2.648   0.592   9.590 -0.1121 -0.8849 -0.3417
   69SLPC  H11Y 5940   2.570   0.750   9.576 -0.3983  0.6996 -1.6410
   69SLPC  C312 5941   2.530   0.596   9.418 -0.1025  0.5894  0.7687
   69SLPC  H12X 5942   2.597   0.659   9.355 -2.0037  1.4549 -0.5082
   69SLPC  H12Y 5943   2.434   0.637   9.378  1.3042  2.4791 -0.9348
   69SLPC  C313 5944   2.528   0.444   9.394 -0.3786  0.6756  0.7327
   69SLPC  H13X 5945   2.435   0.402   9.437  0.6478  0.4533  2.9044
   69SLPC  H13Y 5946   2.613   0.397   9.448 -0.3229 -1.6185 -1.2241
   69SLPC  C314 5947   2.542   0.398   9.250  0.3280  0.0370 -0.2113
   69SLPC  H14X 5948   2.632   0.446   9.206 -0.5292  1.1477 -0.8378
   69SLPC  H14Y 5949   2.450   0.428   9.195 -0.6168  1.4583  1.9713
   69SLPC  C315 5950   2.561   0.254   9.228  0.5656  0.2228 -0.1633
   69SLPC  H15X 5951   2.476   0.188   9.254  0.4951  0.7000  0.8437
   69SLPC  H15Y 5952   2.648   0.211   9.281  0.9900  1.7816  0.4464
   69SLPC  C316 5953   2.583   0.220   9.080  0.7842  0.2198  0.3907
   69SLPC  H16X 5954   2.689   0.246   9.058  0.6833 -1.3223 -2.3324
   69SLPC  H16Y 5955   2.519   0.283   9.014  1.4340  1.3959  0.8510
   69SLPC  C317 5956   2.545   0.077   9.032 -0.4360 -0.3543  0.1039
   69SLPC  H17X 5957   2.559   0.068   8.922  0.5754 -0.0721  0.1953
   69SLPC  H17Y 5958   2.437   0.072   9.055 -0.0719  0.7548  2.3297
   69SLPC  C318 5959   2.634  -0.036   9.085  0.2879  0.1703  0.6013
   69SLPC  H18X 5960   2.618  -0.049   9.194  1.4056 -0.3146  0.7282
   69SLPC  H18Y 5961   2.742  -0.013   9.068  0.4693 -0.3636  1.0133
   69SLPC  H18Z 5962   2.606  -0.131   9.033  2.6632 -0.4099  0.2434
   70SLPC     N 5963   3.174   6.164  10.857 -0.4264 -0.2287 -0.0573
   70SLPC   C13 5964   3.042   6.217  10.831  0.1131  0.1743 -0.2691
   70SLPC  H13A 5965   2.967   6.139  10.836 -0.9294  1.1665 -0.1172
   70SLPC  H13B 5966   3.011   6.287  10.906  0.1846  2.7793 -2.5117
   70SLPC  H13C 5967   3.034   6.268  10.736  3.1544 -1.0096 -1.2643
   70SLPC   C14 5968   3.181   6.090  10.988  0.2289  0.1437  0.3353
   70SLPC  H14A 5969   3.138   6.136  11.076 -0.4380  0.7151 -0.2791
   70SLPC  H14B 5970   3.117   6.003  10.982  0.2629  0.2085 -1.3981
   70SLPC  H14C 5971   3.284   6.062  11.007  0.6476  0.1328 -1.7161
   70SLPC   C15 5972   3.267   6.287  10.849 -0.0226 -0.4363 -0.1572
   70SLPC  H15A 5973   3.254   6.323  10.748  0.5582 -2.3279 -0.9504
   70SLPC  H15B 5974   3.235   6.366  10.915 -1.2420 -1.3845  0.4430
   70SLPC  H15C 5975   3.371   6.264  10.860  0.3486  1.7233  1.6502
   70SLPC   C12 5976   3.224   6.077  10.749  0.5708  0.4130  0.5235
   70SLPC  H12A 5977   3.219   6.134  10.658 -0.3012  2.1029  1.5665
   70SLPC  H12B 5978   3.151   5.998  10.738  2.7107 -1.3922 -1.5915
   70SLPC   C11 5979   3.364   6.007  10.758 -0.0809  0.2214 -0.4910
   70SLPC  H11A 5980   3.398   5.962  10.663 -0.8834  0.0797 -0.7203
   70SLPC  H11B 5981   3.350   5.920  10.826  3.3286  1.6946  2.4500
   70SLPC     P 5982   3.594   6.038  10.878  0.1168 -0.6046  0.2747
   70SLPC   O13 5983   3.685   6.148  10.923  0.1708 -0.4030  0.0759
   70SLPC   O14 5984   3.552   5.948  10.988  0.2918  0.7832 -0.4795
   70SLPC   O12 5985   3.464   6.094  10.805  0.1573 -0.1016 -0.0191
   70SLPC   O11 5986   3.666   5.941  10.770 -0.1900 -0.1557  0.1137
   70SLPC    C1 5987   3.806   5.920  10.778 -1.0110 -0.5194 -0.2726
   70SLPC    HA 5988   3.865   6.009  10.809 -0.7472 -0.7097 -0.2247
   70SLPC    HB 5989   3.821   5.836  10.848 -1.3296  1.1323  1.8837
   70SLPC    C2 5990   3.855   5.859  10.642  0.0606 -0.0840  0.1427
   70SLPC    HS 5991   3.942   5.793  10.661 -0.8839 -0.9090  1.9657
   70SLPC   O21 5992   3.888   5.971  10.549 -0.0412  0.0067 -0.2876
   70SLPC   C21 5993   4.009   6.024  10.574 -0.1495  0.3032  0.4935
   70SLPC   O22 5994   4.090   5.991  10.663 -0.1711 -0.3890  0.5978
   70SLPC   C22 5995   4.023   6.145  10.472  0.1107 -0.1988  0.0911
   70SLPC   H2R 5996   3.925   6.191  10.446 -0.5166 -0.4191  1.9204
   70SLPC   H2S 5997   4.091   6.216  10.523  1.3701 -1.3742  0.1018
   70SLPC    C3 5998   3.749   5.777  10.570  0.0604 -0.1964  0.2142
   70SLPC    HX 5999   3.670   5.849  10.542 -0.2642 -0.8355 -0.5598
   70SLPC    HY 6000   3.700   5.706  10.641 -1.6295  0.2979 -0.4161
   70SLPC   O31 6001   3.803   5.702  10.459  0.1939  0.2001 -0.4802
   70SLPC   C31 6002   3.726   5.700  10.352 -0.3756  0.1829  0.8325
   70SLPC   O32 6003   3.622   5.753  10.330  0.7302  0.3639  0.0626
   70SLPC   C32 6004   3.788   5.590  10.258  0.0428 -0.1954  0.2389
   70SLPC   H2X 6005   3.830   5.520  10.333 -1.0008  1.4209  2.4724
   70SLPC   H2Y 6006   3.868   5.635  10.195  0.8494 -0.6915  0.8992
   70SLPC   C23 6007   4.087   6.109  10.330  0.3002 -0.2120  0.4437
   70SLPC   H3R 6008   4.178   6.046  10.346 -0.3781 -0.9388  1.5749
   70SLPC   H3S 6009   4.118   6.200  10.275 -2.7377  0.8293  0.2962
   70SLPC   C24 6010   3.988   6.038  10.238  0.1998 -0.6636 -0.0375
   70SLPC   H4R 6011   3.888   6.086  10.239 -0.4401 -1.9596 -0.3030
   70SLPC   H4S 6012   3.976   5.930  10.262  0.3533 -0.9287 -1.1230
   70SLPC   C25 6013   4.042   6.027  10.097  0.1440  0.3418  0.0396
   70SLPC   H5R 6014   4.144   5.983  10.102 -0.8782 -2.0618  1.9686
   70SLPC   H5S 6015   4.050   6.131  10.059  0.7840  0.5280  0.6752
   70SLPC   C26 6016   3.958   5.929  10.004  0.5385  0.7121 -0.2499
   70SLPC   H6R 6017   3.849   5.951   9.999  0.0173 -1.3775  0.9659
   70SLPC   H6S 6018   3.951   5.829  10.052 -1.7698  1.8948  2.1314
   70SLPC   C27 6019   4.020   5.903   9.865 -0.1155 -0.0847 -0.4644
   70SLPC   H7R 6020   3.957   5.828   9.813 -0.2594  0.7231 -1.4773
   70SLPC   H7S 6021   4.124   5.867   9.879 -1.1654 -2.8841  0.9159
   70SLPC   C28 6022   4.005   6.012   9.762 -0.4971 -0.3006  0.5270
   70SLPC   H8R 6023   4.049   6.105   9.804  0.3435 -1.9852  3.6449
   70SLPC   H8S 6024   3.897   6.035   9.749 -0.3106 -0.6082 -2.0922
   70SLPC   C29 6025   4.062   5.961   9.632  0.6106  0.4374 -0.1243
   70SLPC   H9R 6026   4.167   5.978   9.608  0.5149 -0.5302 -1.3103
   70SLPC  C210 6027   3.987   5.915   9.527  0.2601  0.2891 -0.8954
   70SLPC  H10R 6028   4.027   5.892   9.427 -0.8129 -0.1939 -1.2416
   70SLPC  C211 6029   3.833   5.892   9.527  0.6790  0.3239  0.2275
   70SLPC  H11R 6030   3.785   5.913   9.625 -2.4842  0.9597 -1.3098
   70SLPC  H11S 6031   3.808   5.785   9.506 -0.7387  0.3860  1.4378
   70SLPC  C212 6032   3.766   5.983   9.430 -0.2712 -0.9059  0.9349
   70SLPC  H12R 6033   3.773   6.090   9.456 -0.6046 -1.2692  2.6516
   70SLPC  C213 6034   3.701   5.957   9.317  0.2979 -0.0447 -0.1205
   70SLPC  H13R 6035   3.664   6.028   9.241  0.7420 -0.1504 -0.4379
   70SLPC  C214 6036   3.673   5.819   9.268 -0.1139 -0.4753 -0.1560
   70SLPC  H14R 6037   3.571   5.801   9.227  1.1011 -1.8399 -2.7808
   70SLPC  H14S 6038   3.686   5.743   9.348 -1.6665  0.4477  1.0534
   70SLPC  C215 6039   3.761   5.773   9.149  0.3363  0.3667  0.4288
   70SLPC  H15R 6040   3.751   5.664   9.129 -0.7729  0.2053  1.7253
   70SLPC  H15S 6041   3.864   5.773   9.190  0.7882 -1.6665 -0.5695
   70SLPC  C216 6042   3.733   5.862   9.024  0.0252  0.3190 -0.3891
   70SLPC  H16R 6043   3.732   5.973   9.037  0.4043  0.4580 -1.4797
   70SLPC  H16S 6044   3.626   5.843   9.003 -0.5715  1.6175  1.2442
   70SLPC  C217 6045   3.825   5.822   8.918  0.1516  0.5481  0.1274
   70SLPC  H17R 6046   3.828   5.711   8.910  1.4672  0.5279  0.6057
   70SLPC  H17S 6047   3.928   5.855   8.943  0.7210 -0.1145 -1.2532
   70SLPC  C218 6048   3.792   5.888   8.788  0.6009 -0.2224  0.8387
   70SLPC  H18R 6049   3.719   5.827   8.729  0.0365  2.0852 -1.0277
   70SLPC  H18S 6050   3.886   5.903   8.732 -0.8113  3.1091 -0.9489
   70SLPC  H18T 6051   3.742   5.982   8.820 -3.8551 -2.2109  0.5195
   70SLPC   C33 6052   3.696   5.522  10.154 -0.3032 -0.4608 -0.0446
   70SLPC   H3X 6053   3.619   5.594  10.118  1.0625  0.7453 -0.6262
   70SLPC   H3Y 6054   3.637   5.441  10.203 -3.1017  1.1234 -0.5681
   70SLPC   C34 6055   3.775   5.455  10.041 -0.2872  0.8059  0.3461
   70SLPC   H4X 6056   3.720   5.363  10.013  2.0701 -0.9480  1.1081
   70SLPC   H4Y 6057   3.871   5.407  10.071 -0.3777 -0.1149 -0.7596
   70SLPC   C35 6058   3.804   5.545   9.918  0.0212 -0.6112  0.3067
   70SLPC   H5X 6059   3.865   5.633   9.949 -0.8156 -0.9305  3.1921
   70SLPC   H5Y 6060   3.705   5.585   9.888  0.2358 -0.0774  0.2930
   70SLPC   C36 6061   3.861   5.457   9.802 -0.4207  0.9588 -0.8073
   70SLPC   H6X 6062   3.792   5.374   9.777  1.9755 -2.0142  1.6232
   70SLPC   H6Y 6063   3.952   5.405   9.837 -0.5386  2.0555  1.3347
   70SLPC   C37 6064   3.883   5.532   9.670 -0.1678 -0.0116  0.1499
   70SLPC   H7X 6065   3.945   5.620   9.699  0.7213 -1.3371  2.5516
   70SLPC   H7Y 6066   3.781   5.565   9.641 -0.4946 -1.4298 -0.3823
   70SLPC   C38 6067   3.943   5.447   9.552  0.4072 -0.3356 -0.4085
   70SLPC   H8X 6068   3.899   5.346   9.562  3.1348 -1.6226 -0.4317
   70SLPC   H8Y 6069   4.050   5.423   9.571  0.5849  1.3522  0.9021
   70SLPC   C39 6070   3.907   5.518   9.426 -0.5473 -1.0318 -0.5263
   70SLPC   H9X 6071   3.967   5.609   9.444 -0.0309 -1.4719  0.0275
   70SLPC   H9Y 6072   3.800   5.540   9.408 -0.6664 -0.7929  0.4391
   70SLPC  C310 6073   3.957   5.450   9.292  0.2551 -0.2463 -0.5818
   70SLPC  H10X 6074   3.922   5.514   9.209  0.7407  0.0168 -0.5848
   70SLPC  H10Y 6075   3.889   5.362   9.292  0.9967 -0.8364 -0.5006
   70SLPC  C311 6076   4.101   5.392   9.295  1.3058 -0.3687  0.1666
   70SLPC  H11X 6077   4.098   5.309   9.370 -2.0655  1.2112  2.0122
   70SLPC  H11Y 6078   4.173   5.465   9.335 -0.5325  1.5021  0.2177
   70SLPC  C312 6079   4.144   5.352   9.156 -0.9125  0.0111  0.1230
   70SLPC  H12X 6080   4.062   5.377   9.085  0.2933  2.1590 -0.6312
   70SLPC  H12Y 6081   4.163   5.243   9.151  1.0641  0.2659  1.0120
   70SLPC  C313 6082   4.270   5.428   9.111  0.0897 -0.0965  0.2309
   70SLPC  H13X 6083   4.346   5.408   9.189 -0.6786 -3.6575  0.2254
   70SLPC  H13Y 6084   4.251   5.536   9.092  0.3091  0.3467  2.3309
   70SLPC  C314 6085   4.323   5.370   8.977  0.1578  0.1118  0.3539
   70SLPC  H14X 6086   4.247   5.395   8.900 -1.2831 -1.9646  1.0020
   70SLPC  H14Y 6087   4.314   5.261   8.998  1.5114  0.3067  2.0658
   70SLPC  C315 6088   4.467   5.408   8.937  0.1195  0.1789  0.1513
   70SLPC  H15X 6089   4.535   5.356   9.008  0.0884 -0.0895 -0.0128
   70SLPC  H15Y 6090   4.491   5.515   8.957 -0.1216  0.5323 -1.3321
   70SLPC  C316 6091   4.496   5.367   8.793  1.2818  0.1273 -0.6278
   70SLPC  H16X 6092   4.432   5.419   8.719  1.1470  0.5007 -0.2531
   70SLPC  H16Y 6093   4.482   5.258   8.786  0.4703  0.2843 -1.6913
   70SLPC  C317 6094   4.641   5.396   8.762 -0.5175  0.5151 -0.0792
   70SLPC  H17X 6095   4.679   5.335   8.678 -1.0027  2.0332 -1.4537
   70SLPC  H17Y 6096   4.694   5.386   8.859  1.0534  0.3218 -0.9253
   70SLPC  C318 6097   4.661   5.540   8.718 -0.4398  0.1406  0.1325
   70SLPC  H18X 6098   4.599   5.614   8.773  1.1456  0.7756  1.1342
   70SLPC  H18Y 6099   4.648   5.562   8.610  0.9959 -2.4029 -0.6120
   70SLPC  H18Z 6100   4.764   5.574   8.741 -0.0616 -0.9866  0.1460
   71SLPC     N 6101   3.281   4.484  10.712  0.4594  0.0942 -0.2173
   71SLPC   C13 6102   3.375   4.385  10.783 -0.4651 -0.4865 -0.1909
   71SLPC  H13A 6103   3.476   4.424  10.777  0.1421 -2.0653 -0.5977
   71SLPC  H13B 6104   3.343   4.371  10.885 -0.7418 -2.5583 -0.5276
   71SLPC  H13C 6105   3.366   4.284  10.747 -0.1486 -0.6901  0.2942
   71SLPC   C14 6106   3.344   4.513  10.581  0.5998 -0.1241  1.0313
   71SLPC  H14A 6107   3.286   4.584  10.525 -1.3509 -1.6910  0.9897
   71SLPC  H14B 6108   3.444   4.555  10.589  0.0497  1.2523  0.9697
   71SLPC  H14C 6109   3.351   4.425  10.519  2.0040  1.4681 -1.2609
   71SLPC   C15 6110   3.279   4.607  10.790 -0.3906 -0.2667 -0.2347
   71SLPC  H15A 6111   3.378   4.649  10.802 -1.4189  2.5648 -0.8308
   71SLPC  H15B 6112   3.224   4.686  10.741  2.2120  0.1980 -2.7260
   71SLPC  H15C 6113   3.238   4.586  10.887  0.6598  3.0574  1.0542
   71SLPC   C12 6114   3.141   4.430  10.693 -0.5204 -0.3008  0.0734
   71SLPC  H12A 6115   3.093   4.515  10.647  0.1547  0.1272  0.1318
   71SLPC  H12B 6116   3.104   4.409  10.792  1.5504 -2.9934  0.3989
   71SLPC   C11 6117   3.112   4.300  10.601  0.8735 -1.0369 -0.4009
   71SLPC  H11A 6118   3.160   4.313  10.502  0.5013 -0.5433 -0.5232
   71SLPC  H11B 6119   3.003   4.311  10.584  1.1791  0.3297 -1.6715
   71SLPC     P 6120   3.247   4.069  10.597 -0.7770 -0.0225  0.1422
   71SLPC   O13 6121   3.383   4.131  10.601  0.3052 -0.1487 -0.1067
   71SLPC   O14 6122   3.229   3.948  10.674  0.2069  0.8590 -0.3314
   71SLPC   O12 6123   3.150   4.177  10.656  1.3227 -0.1086  0.1611
   71SLPC   O11 6124   3.200   4.048  10.448 -0.3628 -0.5525 -0.1792
   71SLPC    C1 6125   3.070   4.001  10.438 -0.1074 -0.0634  0.8268
   71SLPC    HA 6126   3.050   3.896  10.469 -0.6682 -0.3473 -0.4508
   71SLPC    HB 6127   2.997   4.060  10.497  0.9768  2.4414 -0.2166
   71SLPC    C2 6128   3.004   4.000  10.299  0.1164 -0.3328 -0.2846
   71SLPC    HS 6129   2.897   3.979  10.318  0.2237 -1.6322 -0.9870
   71SLPC   O21 6130   3.053   3.898  10.214 -0.4817 -0.7412  0.2656
   71SLPC   C21 6131   2.995   3.781  10.227 -0.4362 -0.3549  0.5040
   71SLPC   O22 6132   2.917   3.756  10.316 -0.5042  0.1527  0.2441
   71SLPC   C22 6133   3.006   3.704  10.095 -0.2065  0.6728  0.4102
   71SLPC   H2R 6134   3.107   3.658  10.090 -1.5947 -3.1092  2.3728
   71SLPC   H2S 6135   2.935   3.618  10.092 -2.3800  2.4114 -1.4611
   71SLPC    C3 6136   3.001   4.142  10.227 -0.4957  0.1921  0.2619
   71SLPC    HX 6137   3.105   4.173  10.200 -0.5587 -0.0972 -0.3186
   71SLPC    HY 6138   2.950   4.221  10.286 -1.7921  0.3670 -1.0483
   71SLPC   O31 6139   2.938   4.118  10.097  0.1813 -0.0223 -0.3932
   71SLPC   C31 6140   2.900   4.233  10.037  0.6018  0.1356 -0.2621
   71SLPC   O32 6141   2.901   4.344  10.084 -0.3917 -0.1354 -0.1307
   71SLPC   C32 6142   2.849   4.200   9.897  0.1935  0.0432 -0.0286
   71SLPC   H2X 6143   2.741   4.228   9.893  0.3740  0.8144  0.3281
   71SLPC   H2Y 6144   2.857   4.090   9.884 -0.3065  0.1259 -1.1531
   71SLPC   C23 6145   2.986   3.798   9.970  0.7232 -0.1880 -0.4209
   71SLPC   H3R 6146   3.047   3.891   9.965  0.9563 -0.2539  0.7536
   71SLPC   H3S 6147   2.879   3.828   9.973  0.5824 -0.7298  0.6351
   71SLPC   C24 6148   3.009   3.712   9.843  0.3609 -0.7313 -0.3939
   71SLPC   H4R 6149   2.951   3.617   9.847  0.3165 -0.6724  0.9340
   71SLPC   H4S 6150   3.113   3.673   9.846  0.9688  0.8609  0.1067
   71SLPC   C25 6151   2.962   3.781   9.718  0.1737 -0.0039  0.6982
   71SLPC   H5R 6152   3.006   3.882   9.702  1.3640 -0.4297  1.1637
   71SLPC   H5S 6153   2.852   3.797   9.711  0.1246 -1.0000 -1.2537
   71SLPC   C26 6154   2.986   3.683   9.597 -0.1181 -0.2380 -0.1121
   71SLPC   H6R 6155   2.926   3.590   9.609 -0.3215 -0.0867  0.0688
   71SLPC   H6S 6156   3.094   3.660   9.602 -0.1442 -0.3445 -0.0331
   71SLPC   C27 6157   2.957   3.748   9.463 -0.5851 -0.3034  0.9630
   71SLPC   H7R 6158   3.024   3.834   9.444  1.9017 -2.2443  0.4236
   71SLPC   H7S 6159   2.854   3.788   9.480  0.1661  2.4540 -0.3701
   71SLPC   C28 6160   2.967   3.650   9.343 -0.2578  0.4305 -0.3812
   71SLPC   H8R 6161   2.887   3.573   9.354  0.2283 -0.2450 -1.3705
   71SLPC   H8S 6162   3.061   3.592   9.353 -0.2036  0.5753 -0.0614
   71SLPC   C29 6163   2.967   3.708   9.205 -0.3171  0.5181  0.4178
   71SLPC   H9R 6164   3.055   3.770   9.184 -0.1037  0.2761  0.6044
   71SLPC  C210 6165   2.896   3.670   9.096  0.1996  0.2485 -0.8806
   71SLPC  H10R 6166   2.922   3.718   9.000  0.1854 -0.6002 -1.3117
   71SLPC  C211 6167   2.780   3.560   9.091 -0.6639 -0.6045  0.0120
   71SLPC  H11R 6168   2.684   3.612   9.111 -0.7202  0.0879 -1.8991
   71SLPC  H11S 6169   2.786   3.479   9.167 -2.1123  0.1395  0.9582
   71SLPC  C212 6170   2.779   3.490   8.955  0.4453  0.4186  0.5725
   71SLPC  H12R 6171   2.684   3.508   8.903 -0.9002  3.8435  3.7327
   71SLPC  C213 6172   2.876   3.428   8.896 -0.7518 -0.4598  0.7962
   71SLPC  H13R 6173   2.852   3.369   8.806 -1.8401  0.6557  0.3189
   71SLPC  C214 6174   3.018   3.402   8.949  0.4680  0.5083  0.3280
   71SLPC  H14R 6175   3.025   3.425   9.057 -1.0005  1.1199  0.3174
   71SLPC  H14S 6176   3.092   3.472   8.904  1.8604 -0.7398  0.6240
   71SLPC  C215 6177   3.069   3.252   8.924  0.1423  0.0497 -0.5715
   71SLPC  H15R 6178   2.987   3.177   8.919 -1.6643  1.9487 -0.8812
   71SLPC  H15S 6179   3.149   3.221   8.995 -1.0682  0.0725  0.8407
   71SLPC  C216 6180   3.138   3.247   8.782 -0.5735 -0.9267  0.8939
   71SLPC  H16R 6181   3.227   3.313   8.790 -0.9123 -0.4525  0.7534
   71SLPC  H16S 6182   3.066   3.284   8.706  2.0018 -0.1494 -1.3015
   71SLPC  C217 6183   3.173   3.109   8.734 -0.7148 -0.1606 -0.4678
   71SLPC  H17R 6184   3.216   3.115   8.632 -0.2353  1.9337 -0.1966
   71SLPC  H17S 6185   3.081   3.047   8.726 -1.8126  1.1328  1.3674
   71SLPC  C218 6186   3.266   3.024   8.824 -0.1639  0.3622 -0.3155
   71SLPC  H18R 6187   3.365   3.060   8.857 -1.3142  1.5738  2.0487
   71SLPC  H18S 6188   3.289   2.933   8.764  0.5052 -0.0230  0.4965
   71SLPC  H18T 6189   3.204   2.991   8.910 -1.5623 -1.4423 -1.9190
   71SLPC   C33 6190   2.935   4.264   9.787  0.3304 -0.7015  0.4522
   71SLPC   H3X 6191   3.028   4.204   9.776  1.3565  0.8229  0.4859
   71SLPC   H3Y 6192   2.969   4.363   9.824  0.9144 -0.7541  0.0610
   71SLPC   C34 6193   2.860   4.278   9.648  0.2372  0.0054  0.3461
   71SLPC   H4X 6194   2.928   4.324   9.573  1.1654 -0.3261  0.9609
   71SLPC   H4Y 6195   2.777   4.352   9.649  0.8999  0.7647 -0.0172
   71SLPC   C35 6196   2.818   4.147   9.581  0.7554  0.0433  0.4008
   71SLPC   H5X 6197   2.714   4.113   9.602  0.9482 -3.7669 -3.4495
   71SLPC   H5Y 6198   2.879   4.066   9.627  1.0880  0.7508  1.2299
   71SLPC   C36 6199   2.850   4.149   9.429  0.5174  0.1145  0.5814
   71SLPC   H6X 6200   2.955   4.126   9.402 -0.4247 -1.3404 -2.3033
   71SLPC   H6Y 6201   2.827   4.254   9.404  2.4703  0.6253  0.7962
   71SLPC   C37 6202   2.758   4.084   9.329 -0.0382 -0.2856  0.1145
   71SLPC   H7X 6203   2.648   4.100   9.332 -0.0134 -0.1336  2.6077
   71SLPC   H7Y 6204   2.779   3.975   9.342 -2.5638 -0.7116  1.2820
   71SLPC   C38 6205   2.805   4.120   9.186  0.1793  0.2267  0.1196
   71SLPC   H8X 6206   2.899   4.068   9.158 -0.0722  0.1621 -0.6468
   71SLPC   H8Y 6207   2.819   4.230   9.175 -1.2811  0.2521 -2.4869
   71SLPC   C39 6208   2.705   4.071   9.084 -0.1444 -0.2231 -0.6749
   71SLPC   H9X 6209   2.598   4.084   9.111  0.2101  0.0023  0.7132
   71SLPC   H9Y 6210   2.724   3.961   9.082  2.9662  0.2099 -0.6202
   71SLPC  C310 6211   2.736   4.126   8.943  0.5815  0.4842 -0.6404
   71SLPC  H10X 6212   2.846   4.125   8.924  0.6938 -0.3398 -0.0237
   71SLPC  H10Y 6213   2.688   4.226   8.940 -1.1541 -0.3059 -0.3376
   71SLPC  C311 6214   2.675   4.039   8.827  0.1226 -0.4378  0.5849
   71SLPC  H11X 6215   2.676   4.105   8.737 -0.2880 -0.2437  0.7188
   71SLPC  H11Y 6216   2.571   4.027   8.864 -0.1301 -0.6293 -0.1745
   71SLPC  C312 6217   2.740   3.900   8.825  0.4785 -0.5443  0.4316
   71SLPC  H12X 6218   2.727   3.853   8.925  2.2619  0.5564  1.2262
   71SLPC  H12Y 6219   2.847   3.915   8.798  0.7266  0.7032  1.9596
   71SLPC  C313 6220   2.663   3.804   8.731  0.6481 -0.1777  0.4246
   71SLPC  H13X 6221   2.555   3.812   8.754  0.3758  0.4835 -0.9676
   71SLPC  H13Y 6222   2.696   3.704   8.765  3.2540 -0.3499 -2.1701
   71SLPC  C314 6223   2.674   3.835   8.590 -0.1289  0.0572  0.5099
   71SLPC  H14X 6224   2.683   3.737   8.537 -2.9960  0.4934 -0.9550
   71SLPC  H14Y 6225   2.750   3.912   8.565 -2.7009  2.0332 -1.8518
   71SLPC  C315 6226   2.543   3.892   8.528  0.6470 -0.0111 -1.0830
   71SLPC  H15X 6227   2.531   3.988   8.583  1.9320 -0.2305 -0.3677
   71SLPC  H15Y 6228   2.456   3.828   8.555  0.3380  1.6771  2.5060
   71SLPC  C316 6229   2.562   3.921   8.383  0.0038  0.9965 -0.0738
   71SLPC  H16X 6230   2.574   3.830   8.320 -1.3622  0.5383  0.2934
   71SLPC  H16Y 6231   2.654   3.980   8.364  0.8962 -0.6011 -0.9083
   71SLPC  C317 6232   2.442   3.994   8.320  0.1892  0.3951 -0.7160
   71SLPC  H17X 6233   2.469   4.040   8.222 -0.5556  2.8104  0.1437
   71SLPC  H17Y 6234   2.430   4.085   8.382 -0.3248  0.6728 -1.2193
   71SLPC  C318 6235   2.313   3.906   8.313  0.2568 -0.1432 -0.8831
   71SLPC  H18X 6236   2.321   3.837   8.227  1.4155 -0.8141 -0.2683
   71SLPC  H18Y 6237   2.228   3.972   8.288 -0.7415 -1.4080 -0.9400
   71SLPC  H18Z 6238   2.292   3.855   8.410  1.9459 -1.0336 -0.9420
   72SLPC     N 6239   4.451   2.374  10.773  0.2947 -0.2220  0.2396
   72SLPC   C13 6240   4.322   2.357  10.856  0.4247  0.1497 -0.3770
   72SLPC  H13A 6241   4.345   2.340  10.960 -0.5230 -1.0156 -0.3396
   72SLPC  H13B 6242   4.251   2.437  10.836 -1.6229 -1.3324  0.6253
   72SLPC  H13C 6243   4.275   2.265  10.825 -1.5287  1.1311 -0.4574
   72SLPC   C14 6244   4.546   2.269  10.819  0.2924 -0.5036  0.7681
   72SLPC  H14A 6245   4.496   2.175  10.798 -0.2711  0.3396 -1.9748
   72SLPC  H14B 6246   4.639   2.262  10.766 -0.0367 -2.6014  0.3811
   72SLPC  H14C 6247   4.569   2.273  10.925 -1.1133 -1.8213  1.1623
   72SLPC   C15 6248   4.513   2.503  10.802 -0.1054 -0.4591  0.7831
   72SLPC  H15A 6249   4.601   2.517  10.742  0.3271 -0.2253  1.4584
   72SLPC  H15B 6250   4.444   2.583  10.780 -0.2834 -0.4102  1.4993
   72SLPC  H15C 6251   4.542   2.517  10.905  0.8242  0.1741  0.4495
   72SLPC   C12 6252   4.415   2.366  10.628 -0.4676  0.0707  0.6843
   72SLPC  H12A 6253   4.500   2.399  10.570  0.8903  0.2063  2.6636
   72SLPC  H12B 6254   4.350   2.450  10.605  1.8270  1.5702 -0.8425
   72SLPC   C11 6255   4.363   2.229  10.571 -0.3703 -0.6399 -0.4767
   72SLPC  H11A 6256   4.453   2.165  10.577  0.4929  0.6183  0.6203
   72SLPC  H11B 6257   4.326   2.245  10.468 -0.8292  2.3406  0.0500
   72SLPC     P 6258   4.230   2.024  10.660 -0.1855 -0.0073  0.2984
   72SLPC   O13 6259   4.309   1.960  10.765 -1.0990  0.2525 -0.3232
   72SLPC   O14 6260   4.086   1.995  10.656 -0.0110  0.5610 -0.6656
   72SLPC   O12 6261   4.255   2.180  10.648  0.3741  0.1551  0.4371
   72SLPC   O11 6262   4.280   1.976  10.523  0.1146  0.1891  0.1922
   72SLPC    C1 6263   4.197   1.976  10.402  0.0193  0.0424  0.0695
   72SLPC    HA 6264   4.140   2.071  10.406  1.3645  0.8572  0.6132
   72SLPC    HB 6265   4.264   1.971  10.313  0.0030 -2.8190  0.1102
   72SLPC    C2 6266   4.102   1.853  10.387 -0.0883 -0.8983  0.9203
   72SLPC    HS 6267   4.055   1.840  10.487 -0.0873  1.2964  1.2693
   72SLPC   O21 6268   4.185   1.740  10.358 -0.5339  0.0538  0.4770
   72SLPC   C21 6269   4.126   1.628  10.383  0.3504 -0.0827  0.1086
   72SLPC   O22 6270   4.028   1.613  10.453  0.1254  0.3195  0.1646
   72SLPC   C22 6271   4.204   1.520  10.314 -0.4301 -0.4711 -0.6128
   72SLPC   H2R 6272   4.234   1.545  10.210  2.3157 -0.8533  0.0140
   72SLPC   H2S 6273   4.299   1.496  10.367 -0.6528  0.8173  0.4104
   72SLPC    C3 6274   3.982   1.864  10.292 -0.6648 -0.2113 -0.5683
   72SLPC    HX 6275   3.916   1.941  10.339 -1.5544 -1.4626  0.2864
   72SLPC    HY 6276   3.928   1.767  10.294 -0.9502 -0.0512  1.7612
   72SLPC   O31 6277   4.020   1.891  10.151  0.2813 -0.3379 -0.3224
   72SLPC   C31 6278   3.997   2.021  10.107  0.1266  0.4035  0.6323
   72SLPC   O32 6279   3.948   2.115  10.171 -0.5990  0.2524 -0.0498
   72SLPC   C32 6280   4.067   2.028   9.969  0.1246  0.1433  0.4495
   72SLPC   H2X 6281   4.022   1.944   9.911 -3.2275  2.3353 -0.3939
   72SLPC   H2Y 6282   4.177   2.017   9.979  0.4232 -1.8211 -3.2593
   72SLPC   C23 6283   4.113   1.401  10.310  0.4890  0.5419  0.2265
   72SLPC   H3R 6284   4.083   1.367  10.411 -0.2154 -1.2077 -0.5325
   72SLPC   H3S 6285   4.177   1.314  10.284 -1.1078 -0.7097  0.3242
   72SLPC   C24 6286   4.002   1.427  10.200 -0.3019  0.7096 -0.3636
   72SLPC   H4R 6287   4.031   1.465  10.099  1.1418 -0.2882 -0.3534
   72SLPC   H4S 6288   3.928   1.500  10.239  0.8965  2.6534 -1.5109
   72SLPC   C25 6289   3.926   1.295  10.166  0.1241  0.1241  0.4126
   72SLPC   H5R 6290   3.822   1.331  10.149 -0.0077  0.4595  1.7811
   72SLPC   H5S 6291   3.919   1.227  10.254 -1.9739 -0.6233 -0.2614
   72SLPC   C26 6292   3.986   1.222  10.045 -0.1665  0.5149  0.0872
   72SLPC   H6R 6293   4.085   1.188  10.084 -0.2749  1.4646  1.2588
   72SLPC   H6S 6294   4.009   1.294   9.963 -0.2014  1.4744  0.8928
   72SLPC   C27 6295   3.901   1.104   9.991 -0.8275  0.1801 -0.5807
   72SLPC   H7R 6296   3.803   1.146   9.960 -1.5294 -0.4748  0.6801
   72SLPC   H7S 6297   3.881   1.016  10.055  1.2824 -1.5219 -2.1118
   72SLPC   C28 6298   3.962   1.052   9.857  0.4831 -0.7619  0.2018
   72SLPC   H8R 6299   4.051   0.995   9.893 -0.0224 -1.4215  0.4438
   72SLPC   H8S 6300   4.007   1.137   9.803  0.7195 -1.4977 -0.7787
   72SLPC   C29 6301   3.870   0.964   9.770  0.2313 -0.5026  0.3941
   72SLPC   H9R 6302   3.763   0.978   9.790 -0.3389 -1.3482 -1.8020
   72SLPC  C210 6303   3.893   0.874   9.675 -0.3678  0.1470 -0.4157
   72SLPC  H10R 6304   3.814   0.834   9.609  1.4439 -1.5921 -1.6348
   72SLPC  C211 6305   4.038   0.844   9.631 -0.4747 -0.2931 -0.6962
   72SLPC  H11R 6306   4.108   0.819   9.713  1.6981 -0.4422 -2.4916
   72SLPC  H11S 6307   4.070   0.939   9.583  1.1737  0.8415  2.3606
   72SLPC  C212 6308   4.058   0.731   9.539 -0.0373  0.2647 -0.3392
   72SLPC  H12R 6309   4.120   0.647   9.575  0.4314  0.7496 -0.0019
   72SLPC  C213 6310   4.030   0.723   9.409 -0.1914 -0.4040  0.8793
   72SLPC  H13R 6311   4.029   0.626   9.358  3.6054 -0.0325 -0.1862
   72SLPC  C214 6312   3.965   0.830   9.332  0.2535  0.3163 -0.6069
   72SLPC  H14R 6313   3.951   0.924   9.390 -1.3968  0.7709 -1.6784
   72SLPC  H14S 6314   3.867   0.785   9.303  0.0617 -0.6589  1.3222
   72SLPC  C215 6315   4.039   0.864   9.194  0.1909 -0.1782  0.3848
   72SLPC  H15R 6316   4.143   0.890   9.222  0.9361 -1.8794 -0.6000
   72SLPC  H15S 6317   3.970   0.936   9.146 -0.7916 -2.2263 -1.4873
   72SLPC  C216 6318   4.048   0.749   9.090  0.0053  0.1641 -0.2034
   72SLPC  H16R 6319   4.098   0.659   9.132  0.6398 -0.2216 -1.7193
   72SLPC  H16S 6320   4.095   0.792   9.000 -2.1643  2.5621 -0.3060
   72SLPC  C217 6321   3.914   0.699   9.036 -0.2976 -1.0120 -0.1718
   72SLPC  H17R 6322   3.934   0.655   8.936  1.0028  0.2419 -0.5085
   72SLPC  H17S 6323   3.845   0.785   9.019  1.9455  0.5833 -2.0401
   72SLPC  C218 6324   3.861   0.576   9.107  0.1829 -0.2083 -0.6301
   72SLPC  H18R 6325   3.776   0.521   9.061  0.3226 -1.0265  0.0755
   72SLPC  H18S 6326   3.822   0.607   9.207  1.7063  1.8805 -0.6193
   72SLPC  H18T 6327   3.937   0.496   9.116  2.4113  1.6090 -2.3024
   72SLPC   C33 6328   4.042   2.164   9.902  1.2012 -0.1049  0.2019
   72SLPC   H3X 6329   4.065   2.252   9.966  0.1971  1.2059 -1.1775
   72SLPC   H3Y 6330   3.933   2.167   9.884  1.4918  1.1953 -1.6376
   72SLPC   C34 6331   4.120   2.179   9.768 -0.3372 -0.1550  0.0949
   72SLPC   H4X 6332   4.225   2.186   9.806 -1.2539  1.6536  2.5724
   72SLPC   H4Y 6333   4.092   2.275   9.720 -0.8142 -0.2393  0.2026
   72SLPC   C35 6334   4.099   2.069   9.670 -0.0731  0.1202  0.4815
   72SLPC   H5X 6335   3.996   2.062   9.629  1.1201  0.4687 -2.8755
   72SLPC   H5Y 6336   4.134   1.971   9.709  1.6366  0.2380 -0.6805
   72SLPC   C36 6337   4.181   2.088   9.535  0.1015 -0.3570  0.0436
   72SLPC   H6X 6338   4.291   2.089   9.551 -0.0238 -2.5465  1.5154
   72SLPC   H6Y 6339   4.159   2.180   9.477 -0.7559 -0.9709 -0.6215
   72SLPC   C37 6340   4.148   1.977   9.432 -0.1932  0.3751 -0.9477
   72SLPC   H7X 6341   4.043   1.994   9.400  0.0471  4.4934 -0.0034
   72SLPC   H7Y 6342   4.148   1.878   9.483  0.7326  0.1186 -1.4301
   72SLPC   C38 6343   4.247   1.986   9.320 -0.0105 -0.6348  0.4206
   72SLPC   H8X 6344   4.342   1.952   9.368  0.0767  0.1946  0.8446
   72SLPC   H8Y 6345   4.254   2.086   9.272 -2.3894 -1.0120 -0.8785
   72SLPC   C39 6346   4.207   1.888   9.213  0.2926  0.0449 -0.0184
   72SLPC   H9X 6347   4.110   1.925   9.172  1.0573 -0.1250 -2.0957
   72SLPC   H9Y 6348   4.188   1.784   9.247 -1.2225  0.3185  0.0765
   72SLPC  C310 6349   4.312   1.868   9.099 -0.0532  0.4078  0.0455
   72SLPC  H10X 6350   4.252   1.821   9.018  1.2697  0.6382 -1.1119
   72SLPC  H10Y 6351   4.400   1.809   9.131 -0.0311  0.2597 -0.2916
   72SLPC  C311 6352   4.368   2.001   9.054  0.2078 -0.7950 -0.2201
   72SLPC  H11X 6353   4.458   1.978   8.994 -0.0716  0.0366 -0.9813
   72SLPC  H11Y 6354   4.413   2.066   9.132  0.6425 -1.8235  0.3952
   72SLPC  C312 6355   4.267   2.088   8.981 -0.0519 -0.0683 -0.4207
   72SLPC  H12X 6356   4.307   2.192   8.973 -0.9307  0.5184  1.9545
   72SLPC  H12Y 6357   4.177   2.108   9.042 -0.9640  0.1198 -1.7693
   72SLPC  C313 6358   4.228   2.031   8.845 -0.2853 -0.1412  0.3612
   72SLPC  H13X 6359   4.175   1.936   8.865  1.2756 -1.1153 -0.0200
   72SLPC  H13Y 6360   4.317   2.009   8.783  0.8628  1.9614  1.1396
   72SLPC  C314 6361   4.128   2.115   8.761 -0.1405  1.0208  0.0525
   72SLPC  H14X 6362   4.188   2.199   8.718  1.4253  0.4677  1.0656
   72SLPC  H14Y 6363   4.065   2.173   8.831 -0.2461 -0.5134  1.2823
   72SLPC  C315 6364   4.065   2.026   8.649  0.1745  0.2371  0.2389
   72SLPC  H15X 6365   3.985   1.962   8.692 -2.8020  3.9800  0.8664
   72SLPC  H15Y 6366   4.137   1.963   8.594  1.3313 -0.3792  2.3399
   72SLPC  C316 6367   3.987   2.105   8.545  0.4043 -0.2375  0.0613
   72SLPC  H16X 6368   3.947   2.043   8.462  0.0596 -0.2655  0.2458
   72SLPC  H16Y 6369   4.041   2.186   8.491 -0.2842 -0.1049 -0.4508
   72SLPC  C317 6370   3.853   2.167   8.603 -0.2631  0.4951 -0.1151
   72SLPC  H17X 6371   3.885   2.224   8.692  2.2226 -0.9909  0.0331
   72SLPC  H17Y 6372   3.796   2.084   8.650  1.7226 -1.6929 -1.3446
   72SLPC  C318 6373   3.770   2.257   8.506 -0.1779  0.3594 -0.1092
   72SLPC  H18X 6374   3.822   2.354   8.487  1.4137 -0.5683 -0.7230
   72SLPC  H18Y 6375   3.673   2.277   8.555 -1.3418 -0.2803 -2.0436
   72SLPC  H18Z 6376   3.738   2.202   8.415 -0.9474 -0.8865  0.8818
   73SLPC     N 6377   4.661   6.567  11.227  0.3963  0.1876 -0.6881
   73SLPC   C13 6378   4.519   6.561  11.274  0.8496  0.0846  0.6974
   73SLPC  H13A 6379   4.461   6.490  11.217 -0.5572 -0.8787  3.1816
   73SLPC  H13B 6380   4.510   6.533  11.378  0.5629 -1.1777  0.3563
   73SLPC  H13C 6381   4.483   6.661  11.262 -0.7849 -0.3072  2.0167
   73SLPC   C14 6382   4.722   6.434  11.263 -0.4431  0.2974 -0.5963
   73SLPC  H14A 6383   4.715   6.410  11.368  0.6078  0.1094 -0.5586
   73SLPC  H14B 6384   4.678   6.348  11.216 -1.0121 -0.1532  0.7234
   73SLPC  H14C 6385   4.825   6.435  11.231 -0.0924  1.9669  0.4455
   73SLPC   C15 6386   4.733   6.679  11.305  0.3441 -0.0087 -0.4223
   73SLPC  H15A 6387   4.708   6.660  11.408  1.5790  1.7966  0.2675
   73SLPC  H15B 6388   4.839   6.696  11.286  1.2740 -1.8198  2.4933
   73SLPC  H15C 6389   4.686   6.772  11.276 -2.5762 -1.3526 -0.3024
   73SLPC   C12 6390   4.668   6.585  11.077 -0.0346 -0.1413  0.5160
   73SLPC  H12A 6391   4.624   6.496  11.034  1.5632 -0.7893  0.1548
   73SLPC  H12B 6392   4.769   6.586  11.040 -0.5504 -1.7144 -1.0306
   73SLPC   C11 6393   4.602   6.715  11.015 -0.6898  0.1835 -0.1987
   73SLPC  H11A 6394   4.507   6.735  11.069 -0.9369 -1.8379  0.1890
   73SLPC  H11B 6395   4.582   6.692  10.908 -0.1983 -0.6616 -0.1164
   73SLPC     P 6396   4.746   6.916  10.933 -0.0488 -0.3432 -0.1481
   73SLPC   O13 6397   4.666   7.032  10.893 -0.1388  0.2868  0.4265
   73SLPC   O14 6398   4.884   6.944  10.983  0.0611  0.5766 -0.3705
   73SLPC   O12 6399   4.679   6.828  11.041  0.8640  0.9165 -0.3405
   73SLPC   O11 6400   4.759   6.816  10.813 -0.6745  0.0591 -0.3169
   73SLPC    C1 6401   4.741   6.883  10.688  0.7380 -0.5286 -0.6031
   73SLPC    HA 6402   4.791   6.982  10.674 -2.0277  1.1725  0.5496
   73SLPC    HB 6403   4.796   6.819  10.616  3.2232 -0.3574  0.9945
   73SLPC    C2 6404   4.587   6.886  10.646  0.4601  0.2178 -0.9201
   73SLPC    HS 6405   4.532   6.942  10.725  0.0303 -0.9109 -0.3927
   73SLPC   O21 6406   4.540   6.748  10.643  0.1001 -0.5263  0.1510
   73SLPC   C21 6407   4.414   6.732  10.659  0.7381  0.2270 -0.1104
   73SLPC   O22 6408   4.339   6.811  10.719 -0.0831 -0.1640  0.4864
   73SLPC   C22 6409   4.361   6.605  10.592 -0.5178  0.1326 -0.1478
   73SLPC   H2R 6410   4.445   6.533  10.605 -0.5290  0.2047  0.3407
   73SLPC   H2S 6411   4.274   6.566  10.649 -1.7609 -1.1515 -2.7318
   73SLPC    C3 6412   4.579   6.954  10.508 -0.0729 -0.2695 -0.2875
   73SLPC    HX 6413   4.622   6.888  10.430 -0.8137 -1.1563  0.0313
   73SLPC    HY 6414   4.639   7.048  10.508  0.0137 -0.3248 -0.1877
   73SLPC   O31 6415   4.447   6.975  10.465  0.0483 -0.2334  0.1612
   73SLPC   C31 6416   4.371   7.071  10.525  0.7316  0.2416  0.4811
   73SLPC   O32 6417   4.400   7.122  10.630 -0.1367  0.7163 -0.1608
   73SLPC   C32 6418   4.239   7.095  10.451 -0.2984 -0.2919  0.7996
   73SLPC   H2X 6419   4.244   7.201  10.417 -1.2550 -0.6233 -0.4158
   73SLPC   H2Y 6420   4.157   7.102  10.526 -0.7499 -0.4209  0.3227
   73SLPC   C23 6421   4.315   6.618  10.437  0.2021  0.1422  0.2012
   73SLPC   H3R 6422   4.395   6.674  10.382 -1.1654  0.3160 -1.7129
   73SLPC   H3S 6423   4.219   6.674  10.431 -2.6279 -4.3635 -1.3405
   73SLPC   C24 6424   4.282   6.485  10.367  0.0570 -0.1502  0.1165
   73SLPC   H4R 6425   4.210   6.489  10.283 -0.7158 -0.5368  0.7471
   73SLPC   H4S 6426   4.221   6.424  10.438  0.3798 -2.4616 -1.4702
   73SLPC   C25 6427   4.410   6.404  10.335 -0.2693  0.5993  0.0070
   73SLPC   H5R 6428   4.388   6.296  10.326 -1.9864  0.9700 -0.5732
   73SLPC   H5S 6429   4.472   6.407  10.427 -2.6121 -1.0455  1.7481
   73SLPC   C26 6430   4.487   6.439  10.206  0.2788 -0.0544 -0.3008
   73SLPC   H6R 6431   4.591   6.400  10.205  0.0461 -0.7252 -2.2479
   73SLPC   H6S 6432   4.490   6.550  10.201 -4.2495  0.2300 -0.8250
   73SLPC   C27 6433   4.412   6.381  10.086  0.6699  0.6908 -0.1939
   73SLPC   H7R 6434   4.310   6.422  10.102  2.1522  3.4523  3.6492
   73SLPC   H7S 6435   4.402   6.271  10.098  1.8590  0.3281 -2.0384
   73SLPC   C28 6436   4.467   6.401   9.943  0.6216 -0.1110  0.3849
   73SLPC   H8R 6437   4.449   6.310   9.882  0.1287  0.0548  0.2759
   73SLPC   H8S 6438   4.578   6.406   9.940  0.6292  0.3787  0.9975
   73SLPC   C29 6439   4.400   6.529   9.886 -0.2907 -0.1545  0.5603
   73SLPC   H9R 6440   4.415   6.621   9.945 -0.7881 -0.0713  0.5633
   73SLPC  C210 6441   4.341   6.537   9.764  0.6553  0.0315 -1.1609
   73SLPC  H10R 6442   4.299   6.631   9.725 -1.1338 -0.5942 -0.8288
   73SLPC  C211 6443   4.318   6.429   9.661 -0.3666  0.8024 -0.3664
   73SLPC  H11R 6444   4.382   6.340   9.675 -2.3714 -0.6352  0.0715
   73SLPC  H11S 6445   4.332   6.476   9.561 -0.1136 -0.0170 -0.7267
   73SLPC  C212 6446   4.184   6.374   9.681  0.3759 -0.0032  0.5230
   73SLPC  H12R 6447   4.147   6.347   9.781 -0.2566 -2.5468 -0.3134
   73SLPC  C213 6448   4.105   6.344   9.579 -0.3454  0.3252  0.2325
   73SLPC  H13R 6449   4.005   6.302   9.593  0.6906 -2.4684 -0.1396
   73SLPC  C214 6450   4.137   6.342   9.429  0.6138 -0.0969  0.2670
   73SLPC  H14R 6451   4.242   6.307   9.424  0.2964 -1.2339  1.1730
   73SLPC  H14S 6452   4.138   6.441   9.379 -1.5481  0.2475  0.7910
   73SLPC  C215 6453   4.060   6.229   9.350  0.1891 -0.0512  0.2384
   73SLPC  H15R 6454   3.951   6.243   9.365  0.0286 -1.7339  0.9430
   73SLPC  H15S 6455   4.084   6.136   9.407 -0.5453 -0.3713  0.0422
   73SLPC  C216 6456   4.099   6.220   9.200  0.0234  0.1341  0.9915
   73SLPC  H16R 6457   4.208   6.220   9.179 -0.4392 -0.1748 -1.7700
   73SLPC  H16S 6458   4.048   6.310   9.159 -1.4710 -0.2777  1.8726
   73SLPC  C217 6459   4.040   6.096   9.121 -0.1812 -0.1178  0.2007
   73SLPC  H17R 6460   3.930   6.091   9.141 -0.3003 -3.1102 -0.7346
   73SLPC  H17S 6461   4.081   6.000   9.158 -2.2558 -1.1803 -0.1164
   73SLPC  C218 6462   4.069   6.109   8.970  0.7012 -0.5394 -0.2602
   73SLPC  H18R 6463   4.174   6.083   8.945  0.3818 -1.6478 -0.5437
   73SLPC  H18S 6464   4.055   6.212   8.932  2.6455 -0.0498  0.2407
   73SLPC  H18T 6465   4.000   6.044   8.911 -1.0093 -0.0683  1.1276
   73SLPC   C33 6466   4.198   7.000  10.340  0.0650  1.1001  0.0191
   73SLPC   H3X 6467   4.167   6.909  10.396  0.1172  1.2938  0.3692
   73SLPC   H3Y 6468   4.282   6.975  10.272 -0.3300 -0.3557  0.0362
   73SLPC   C34 6469   4.089   7.057  10.261 -0.4660  0.7361 -0.5966
   73SLPC   H4X 6470   4.123   7.141  10.197  2.1918  0.1511 -0.0467
   73SLPC   H4Y 6471   4.009   7.100  10.325 -1.7303  0.1959 -1.7428
   73SLPC   C35 6472   4.018   6.958  10.180 -0.5482  0.3785 -0.4177
   73SLPC   H5X 6473   3.913   6.995  10.180 -0.9721 -0.7922 -0.3301
   73SLPC   H5Y 6474   4.017   6.856  10.223 -1.0474 -0.5347 -2.4574
   73SLPC   C36 6475   4.047   6.952  10.033  0.0174  0.1868  0.4099
   73SLPC   H6X 6476   4.157   6.943  10.020  0.3035  1.0369  2.0000
   73SLPC   H6Y 6477   4.031   7.054   9.992 -0.2881  0.9033  2.2043
   73SLPC   C37 6478   3.967   6.852   9.954 -0.0947  0.3941 -0.1652
   73SLPC   H7X 6479   3.865   6.894   9.938  0.1655  0.7514 -0.9154
   73SLPC   H7Y 6480   3.947   6.757  10.007 -2.9944  2.4077  2.7717
   73SLPC   C38 6481   4.027   6.833   9.815  0.6077  0.4144  0.0351
   73SLPC   H8X 6482   4.126   6.786   9.833 -0.3308 -0.9994  2.0667
   73SLPC   H8Y 6483   4.054   6.934   9.779 -0.6348  0.5457 -0.5624
   73SLPC   C39 6484   3.946   6.753   9.705  0.0545 -0.7185 -0.0480
   73SLPC   H9X 6485   3.842   6.787   9.689  0.1697 -0.5088 -0.3514
   73SLPC   H9Y 6486   3.934   6.649   9.743  3.4513 -1.5823 -0.9292
   73SLPC  C310 6487   4.031   6.747   9.576 -0.5420 -0.0748 -0.4602
   73SLPC  H10X 6488   4.125   6.697   9.606  0.3999  1.0259 -1.4572
   73SLPC  H10Y 6489   4.047   6.854   9.549 -1.7858  0.3330  0.3217
   73SLPC  C311 6490   3.955   6.679   9.456 -0.8881 -0.5477  0.0412
   73SLPC  H11X 6491   3.860   6.733   9.436 -0.8975  0.0732  1.6096
   73SLPC  H11Y 6492   3.938   6.570   9.473 -0.1205 -0.6350  0.3051
   73SLPC  C312 6493   4.037   6.686   9.320  0.0827  0.2849 -0.7790
   73SLPC  H12X 6494   4.141   6.656   9.348  0.6254  1.7630 -1.1249
   73SLPC  H12Y 6495   4.038   6.791   9.282  2.1896  0.7782  0.4550
   73SLPC  C313 6496   3.976   6.604   9.207  0.5359  0.8097 -0.3679
   73SLPC  H13X 6497   3.865   6.604   9.203  0.2413 -5.0502 -1.0225
   73SLPC  H13Y 6498   3.985   6.502   9.251  1.0476  1.3326  0.7724
   73SLPC  C314 6499   4.037   6.620   9.073  0.1245  0.6138  0.2340
   73SLPC  H14X 6500   4.143   6.587   9.078  0.3865  1.3149 -0.5544
   73SLPC  H14Y 6501   4.033   6.727   9.045 -2.5981  1.4242  3.1394
   73SLPC  C315 6502   3.988   6.548   8.953 -0.3712 -0.6702 -0.5559
   73SLPC  H15X 6503   3.897   6.602   8.919 -0.2502  0.6757  1.1081
   73SLPC  H15Y 6504   3.975   6.440   8.975  0.9352 -0.5448  0.9745
   73SLPC  C316 6505   4.081   6.548   8.834  0.0457 -0.5221 -0.0328
   73SLPC  H16X 6506   4.175   6.498   8.864  0.2899  0.2552  0.5156
   73SLPC  H16Y 6507   4.112   6.654   8.824 -1.1152 -0.2704 -1.3131
   73SLPC  C317 6508   4.032   6.468   8.709  0.2460 -0.0480  0.2478
   73SLPC  H17X 6509   3.993   6.374   8.753  1.0313 -0.8539 -0.7003
   73SLPC  H17Y 6510   4.116   6.440   8.641 -0.4685 -0.5303 -0.4584
   73SLPC  C318 6511   3.932   6.531   8.615 -0.3930 -0.1678  0.1338
   73SLPC  H18X 6512   3.824   6.527   8.640 -1.6622  0.7066 -4.3785
   73SLPC  H18Y 6513   3.925   6.488   8.513 -3.0457  4.0347 -1.7426
   73SLPC  H18Z 6514   3.961   6.635   8.590 -0.1359 -0.2281  0.1790
   74SLPC     N 6515   5.408   1.597  10.804 -0.6810  0.8276  0.8953
   74SLPC   C13 6516   5.464   1.510  10.916  0.1178 -0.3527  0.0872
   74SLPC  H13A 6517   5.392   1.512  10.996  0.0459  1.2439  0.0160
   74SLPC  H13B 6518   5.471   1.405  10.894 -2.4476 -0.7544  0.8748
   74SLPC  H13C 6519   5.560   1.547  10.949  0.4698  0.9136 -2.1431
   74SLPC   C14 6520   5.266   1.554  10.786 -0.0145 -0.5238 -0.6881
   74SLPC  H14A 6521   5.196   1.566  10.868  1.8986  0.7769  0.8476
   74SLPC  H14B 6522   5.226   1.622  10.712  0.6039  0.5954 -0.0190
   74SLPC  H14C 6523   5.262   1.455  10.741  0.2119 -1.3164  0.9512
   74SLPC   C15 6524   5.490   1.569  10.685  0.4727 -0.7264 -0.1930
   74SLPC  H15A 6525   5.452   1.626  10.601  1.9379  0.1853 -0.2754
   74SLPC  H15B 6526   5.582   1.623  10.703 -0.6761  0.9707  0.9609
   74SLPC  H15C 6527   5.497   1.463  10.666 -0.9790 -0.9706  0.4880
   74SLPC   C12 6528   5.406   1.744  10.826  0.2487 -0.4618  0.1673
   74SLPC  H12A 6529   5.503   1.779  10.861 -0.1137 -0.8738  1.6709
   74SLPC  H12B 6530   5.343   1.765  10.911 -0.9490 -4.7478  0.5479
   74SLPC   C11 6531   5.350   1.835  10.715  0.3148 -0.4930  0.3955
   74SLPC  H11A 6532   5.337   1.937  10.757 -1.1206 -1.1718  1.7045
   74SLPC  H11B 6533   5.243   1.810  10.703 -0.0062  1.0559 -0.2170
   74SLPC     P 6534   5.564   1.905  10.574  0.0056  0.0485  0.2885
   74SLPC   O13 6535   5.558   2.049  10.594 -0.3651  0.6180 -0.0215
   74SLPC   O14 6536   5.648   1.834  10.669 -0.4394  0.1960 -0.4836
   74SLPC   O12 6537   5.417   1.837  10.586 -0.2074 -0.2158 -0.3454
   74SLPC   O11 6538   5.602   1.868  10.424  0.5952 -0.2746 -0.3504
   74SLPC    C1 6539   5.505   1.890  10.321 -0.3721 -0.3618 -0.1516
   74SLPC    HA 6540   5.442   1.800  10.303  1.7776 -1.4927 -2.7430
   74SLPC    HB 6541   5.449   1.982  10.347  0.4849 -0.1990  1.2525
   74SLPC    C2 6542   5.561   1.919  10.179  0.0939  0.0701 -0.7280
   74SLPC    HS 6543   5.482   1.976  10.125 -0.9539  0.6069  1.2824
   74SLPC   O21 6544   5.604   1.786  10.130 -0.2688 -0.0979  0.3425
   74SLPC   C21 6545   5.592   1.770   9.994 -0.0057 -0.8669 -0.5188
   74SLPC   O22 6546   5.553   1.859   9.926 -0.0014  0.3998 -0.5861
   74SLPC   C22 6547   5.626   1.629   9.954  0.0154 -0.1027  0.5303
   74SLPC   H2R 6548   5.617   1.556  10.037  2.1528 -3.7417 -2.1434
   74SLPC   H2S 6549   5.565   1.600   9.866 -0.2524 -0.1354  0.7259
   74SLPC    C3 6550   5.674   2.022  10.200 -0.5010 -0.1784  0.1877
   74SLPC    HX 6551   5.755   1.966  10.251  1.4942  1.3032 -1.1686
   74SLPC    HY 6552   5.642   2.107  10.264 -1.7786  1.1181 -2.0398
   74SLPC   O31 6553   5.718   2.073  10.079  0.1289  0.0125 -0.1985
   74SLPC   C31 6554   5.828   2.019  10.020 -0.2247 -0.1548  0.3361
   74SLPC   O32 6555   5.881   1.914  10.060 -0.1050  0.3185  0.4763
   74SLPC   C32 6556   5.879   2.104   9.910 -0.2541 -0.2957 -0.1825
   74SLPC   H2X 6557   5.962   2.162   9.958 -1.8750  1.9301  0.0846
   74SLPC   H2Y 6558   5.800   2.177   9.882 -0.2230 -0.1534  0.0976
   74SLPC   C23 6559   5.775   1.607   9.919 -0.3920 -0.1432 -0.6416
   74SLPC   H3R 6560   5.843   1.651   9.996 -2.3334  0.0530  1.0374
   74SLPC   H3S 6561   5.784   1.661   9.822 -0.4298  0.9008 -0.0768
   74SLPC   C24 6562   5.816   1.467   9.905  1.2776  0.0780  0.3320
   74SLPC   H4R 6563   5.802   1.393   9.988 -4.2568 -2.6928 -2.5691
   74SLPC   H4S 6564   5.922   1.465   9.873  0.2614  1.2249 -3.5595
   74SLPC   C25 6565   5.755   1.386   9.785 -0.7984 -0.1130 -0.3710
   74SLPC   H5R 6566   5.647   1.410   9.781 -0.5511  0.8652 -3.1926
   74SLPC   H5S 6567   5.769   1.276   9.780 -0.1307 -0.0591  0.1434
   74SLPC   C26 6568   5.819   1.453   9.660 -0.1136  0.6803 -0.5014
   74SLPC   H6R 6569   5.927   1.433   9.644 -0.5369 -0.5780 -2.0212
   74SLPC   H6S 6570   5.809   1.564   9.661 -0.1827  0.6739 -0.4293
   74SLPC   C27 6571   5.749   1.396   9.533  0.2130  0.5047  0.4225
   74SLPC   H7R 6572   5.641   1.422   9.536  0.1166  0.6308 -1.9456
   74SLPC   H7S 6573   5.754   1.286   9.547  0.9681  0.6604  1.4939
   74SLPC   C28 6574   5.810   1.437   9.395 -0.0955  0.6598  0.1759
   74SLPC   H8R 6575   5.921   1.434   9.400 -0.0734 -1.5441 -0.5584
   74SLPC   H8S 6576   5.783   1.545   9.396 -0.5450  0.5956  2.6393
   74SLPC   C29 6577   5.765   1.368   9.269 -0.2148  0.2466  0.6456
   74SLPC   H9R 6578   5.774   1.258   9.273 -3.3048 -0.0749  1.0424
   74SLPC  C210 6579   5.721   1.434   9.156 -0.5967 -0.3368 -0.6520
   74SLPC  H10R 6580   5.691   1.379   9.065 -1.4133 -3.3194  1.2944
   74SLPC  C211 6581   5.707   1.585   9.142 -0.4001  0.2469 -0.0911
   74SLPC  H11R 6582   5.805   1.630   9.116  0.1410 -0.1686  1.1510
   74SLPC  H11S 6583   5.684   1.642   9.234  0.5927  1.3417 -0.4990
   74SLPC  C212 6584   5.604   1.618   9.034 -0.0941 -0.3656  0.0597
   74SLPC  H12R 6585   5.558   1.530   8.986 -0.9693 -1.6044  2.9657
   74SLPC  C213 6586   5.562   1.748   8.999 -1.1578  0.0627 -0.2873
   74SLPC  H13R 6587   5.499   1.750   8.910 -1.4300 -0.7486 -0.1183
   74SLPC  C214 6588   5.614   1.872   9.066 -0.5596 -0.1975 -0.8247
   74SLPC  H14R 6589   5.688   1.845   9.144 -1.7247  1.3331  0.8810
   74SLPC  H14S 6590   5.538   1.935   9.116  0.7858 -0.0958  1.1782
   74SLPC  C215 6591   5.685   1.977   8.969 -0.2827  0.1344  0.5273
   74SLPC  H15R 6592   5.700   2.079   9.008 -0.6275  0.6325 -0.5951
   74SLPC  H15S 6593   5.620   1.999   8.882 -0.5993  0.2251  0.7861
   74SLPC  C216 6594   5.816   1.921   8.912 -0.8047  0.3237  0.1621
   74SLPC  H16R 6595   5.826   1.963   8.810 -1.7324  0.6281  0.1815
   74SLPC  H16S 6596   5.809   1.812   8.896 -0.6997  0.4805 -0.9992
   74SLPC  C217 6597   5.947   1.964   8.985 -0.3987  0.5649  0.5864
   74SLPC  H17R 6598   5.969   1.903   9.076  3.3243  0.4170 -0.2509
   74SLPC  H17S 6599   5.943   2.070   9.018 -0.4022  0.6009  0.4698
   74SLPC  C218 6600   6.073   1.941   8.898  0.4262 -0.7119 -0.2928
   74SLPC  H18R 6601   6.163   1.956   8.962 -0.0272  2.0674 -0.1750
   74SLPC  H18S 6602   6.084   2.019   8.820  0.5004 -0.6794 -0.2499
   74SLPC  H18T 6603   6.064   1.842   8.849 -0.3946 -0.5371 -0.4960
   74SLPC   C33 6604   5.924   2.035   9.791  0.5070 -0.0252  0.2970
   74SLPC   H3X 6605   6.003   1.961   9.813  1.4547  0.3942 -1.4958
   74SLPC   H3Y 6606   5.968   2.110   9.722  1.3494 -0.5939  0.1998
   74SLPC   C34 6607   5.808   1.972   9.719  0.6089 -0.2499  0.4705
   74SLPC   H4X 6608   5.721   2.041   9.723 -0.5270 -1.6597  1.2325
   74SLPC   H4Y 6609   5.764   1.885   9.772 -1.0175 -0.7408 -1.5777
   74SLPC   C35 6610   5.850   1.911   9.578  0.9189  0.4617 -0.6570
   74SLPC   H5X 6611   5.872   1.996   9.511  2.1220 -0.4368 -1.4231
   74SLPC   H5Y 6612   5.764   1.846   9.551  1.2115 -0.2693  0.1076
   74SLPC   C36 6613   5.972   1.812   9.580 -0.2154 -0.1096  0.4739
   74SLPC   H6X 6614   5.949   1.728   9.649 -1.7520 -1.1627 -1.2378
   74SLPC   H6Y 6615   6.053   1.858   9.641 -1.3636  0.4831  1.5961
   74SLPC   C37 6616   6.028   1.780   9.444  0.0498 -0.4107  0.5723
   74SLPC   H7X 6617   6.074   1.865   9.389 -1.9927 -0.8702 -2.1018
   74SLPC   H7Y 6618   5.947   1.747   9.375  0.9492 -0.3482 -0.5460
   74SLPC   C38 6619   6.129   1.668   9.437 -0.1107  0.4592  0.1018
   74SLPC   H8X 6620   6.078   1.571   9.459  2.0068 -0.1487  2.8750
   74SLPC   H8Y 6621   6.211   1.686   9.510 -0.1891 -0.6129  0.4735
   74SLPC   C39 6622   6.198   1.655   9.295  0.5099 -0.7470 -0.0233
   74SLPC   H9X 6623   6.278   1.579   9.302  0.0298 -1.2211  0.3478
   74SLPC   H9Y 6624   6.259   1.745   9.272  0.6838 -0.8925 -0.1259
   74SLPC  C310 6625   6.102   1.631   9.176  0.0659 -0.2458 -0.2492
   74SLPC  H10X 6626   6.035   1.719   9.163  1.2071  0.9708  1.6756
   74SLPC  H10Y 6627   6.034   1.549   9.206 -0.4408 -0.0847 -0.9393
   74SLPC  C311 6628   6.174   1.582   9.053 -0.3938  0.3439  0.4078
   74SLPC  H11X 6629   6.229   1.492   9.088  2.5990  2.1832  0.7593
   74SLPC  H11Y 6630   6.251   1.651   9.014  0.3528 -0.9200 -0.4542
   74SLPC  C312 6631   6.076   1.540   8.948 -0.5439  0.3738  0.8052
   74SLPC  H12X 6632   6.016   1.625   8.911 -1.0140  0.2239  1.2157
   74SLPC  H12Y 6633   5.998   1.469   8.983 -0.2768 -0.0805  0.4952
   74SLPC  C313 6634   6.148   1.474   8.826 -0.8399  0.3144  0.1129
   74SLPC  H13X 6635   6.150   1.363   8.836 -0.7286  0.3907  1.1214
   74SLPC  H13Y 6636   6.247   1.523   8.813  0.3136 -1.9743 -0.2332
   74SLPC  C314 6637   6.069   1.508   8.694 -0.5648  0.0311 -0.8769
   74SLPC  H14X 6638   6.125   1.451   8.616 -2.8490 -2.1237 -1.0488
   74SLPC  H14Y 6639   6.071   1.618   8.678 -1.0334  0.0879 -0.5541
   74SLPC  C315 6640   5.919   1.471   8.697 -0.5314 -0.0397 -0.6027
   74SLPC  H15X 6641   5.877   1.507   8.794 -1.6048 -2.1816 -0.2006
   74SLPC  H15Y 6642   5.910   1.360   8.690  0.2414 -0.0706 -1.1784
   74SLPC  C316 6643   5.829   1.532   8.589 -0.0451 -0.1828 -0.0935
   74SLPC  H16X 6644   5.877   1.507   8.493  0.9048 -2.5791  0.9287
   74SLPC  H16Y 6645   5.826   1.643   8.601  1.3394 -0.2302  1.0805
   74SLPC  C317 6646   5.684   1.484   8.596  0.7547 -0.1512 -0.4305
   74SLPC  H17X 6647   5.624   1.558   8.539 -0.1754  0.3346  1.1096
   74SLPC  H17Y 6648   5.654   1.471   8.702 -1.0078  3.2656 -0.3667
   74SLPC  C318 6649   5.677   1.341   8.522 -0.4785 -0.2460  0.4385
   74SLPC  H18X 6650   5.751   1.271   8.569 -1.1289  0.1119  2.0873
   74SLPC  H18Y 6651   5.684   1.357   8.413  0.5271  1.5310  0.7306
   74SLPC  H18Z 6652   5.579   1.297   8.550 -1.1074  1.5363  1.1670
   75SLPC     N 6653   3.547   5.336   6.290  0.5808 -0.0126 -0.2470
   75SLPC   C13 6654   3.445   5.408   6.201 -0.3170 -0.0865  0.4491
   75SLPC  H13A 6655   3.467   5.387   6.097 -0.8622 -1.3676  0.5792
   75SLPC  H13B 6656   3.347   5.373   6.229  0.0166 -0.6094  0.9786
   75SLPC  H13C 6657   3.461   5.514   6.215 -1.8670  0.0821  1.1055
   75SLPC   C14 6658   3.683   5.394   6.257  1.0443 -0.2469  0.0530
   75SLPC  H14A 6659   3.757   5.329   6.302  1.2025 -1.1317 -1.3973
   75SLPC  H14B 6660   3.691   5.412   6.150 -1.0247 -0.2977 -0.1370
   75SLPC  H14C 6661   3.694   5.492   6.303  1.0479 -0.4883  0.5701
   75SLPC   C15 6662   3.532   5.193   6.262  0.5082 -0.0495 -0.0660
   75SLPC  H15A 6663   3.540   5.178   6.155 -0.2140  3.2824 -0.6859
   75SLPC  H15B 6664   3.606   5.137   6.317 -0.4395 -0.7797  0.5056
   75SLPC  H15C 6665   3.435   5.159   6.295 -0.5592 -0.0852 -2.9328
   75SLPC   C12 6666   3.510   5.358   6.442 -0.8324  0.4267 -0.3388
   75SLPC  H12A 6667   3.514   5.464   6.461 -0.3764  0.2999  0.3122
   75SLPC  H12B 6668   3.583   5.304   6.502 -2.0022 -1.3278 -0.4046
   75SLPC   C11 6669   3.372   5.308   6.502 -0.4735 -0.2077 -0.1233
   75SLPC  H11A 6670   3.282   5.331   6.440  0.0553 -2.1786 -1.7316
   75SLPC  H11B 6671   3.350   5.356   6.599  0.3788 -0.9980  0.4689
   75SLPC     P 6672   3.469   5.080   6.606  0.0536 -0.2886  0.4927
   75SLPC   O13 6673   3.422   4.941   6.579  0.5464 -0.2339 -0.2005
   75SLPC   O14 6674   3.610   5.107   6.566  0.7246  0.4950  0.1090
   75SLPC   O12 6675   3.377   5.172   6.521  0.2387 -0.3699  0.5948
   75SLPC   O11 6676   3.443   5.106   6.760  0.1146 -0.1406 -0.4423
   75SLPC    C1 6677   3.323   5.159   6.813  0.8556 -0.0747 -0.4164
   75SLPC    HA 6678   3.353   5.258   6.851  0.4875  1.2217 -3.2586
   75SLPC    HB 6679   3.250   5.183   6.732  1.3183  1.0291 -0.5112
   75SLPC    C2 6680   3.256   5.062   6.916 -0.2177  0.4386  0.4874
   75SLPC    HS 6681   3.178   5.121   6.969 -0.9095 -0.2060  0.2082
   75SLPC   O21 6682   3.343   5.010   7.019 -0.3288  0.5121  0.4770
   75SLPC   C21 6683   3.416   5.106   7.081  0.5167 -0.1011 -0.5949
   75SLPC   O22 6684   3.384   5.224   7.083  0.1404 -0.1238 -0.1603
   75SLPC   C22 6685   3.539   5.032   7.152 -0.3097 -0.1257  0.6571
   75SLPC   H2R 6686   3.515   4.924   7.145  1.8185 -0.5800 -0.6901
   75SLPC   H2S 6687   3.630   5.052   7.090 -0.0530 -0.7709  0.8119
   75SLPC    C3 6688   3.195   4.933   6.860 -1.6982  0.1144  0.9521
   75SLPC    HX 6689   3.277   4.872   6.817 -1.9339 -0.3042  1.0848
   75SLPC    HY 6690   3.139   4.951   6.766 -0.3104 -1.1532 -0.1573
   75SLPC   O31 6691   3.102   4.877   6.951 -0.3017 -0.8526 -0.4058
   75SLPC   C31 6692   3.135   4.767   6.999 -0.1922  0.6669  0.3088
   75SLPC   O32 6693   3.246   4.715   7.002 -0.1219  0.0064  0.3444
   75SLPC   C32 6694   3.013   4.705   7.072  0.1716  0.5241 -1.1078
   75SLPC   H2X 6695   2.990   4.604   7.030 -0.5162 -1.1610  2.8312
   75SLPC   H2Y 6696   2.924   4.772   7.065 -0.6128 -0.1740  1.3165
   75SLPC   C23 6697   3.545   5.072   7.299  0.1145  0.4377  0.1235
   75SLPC   H3R 6698   3.461   5.029   7.358 -3.0551  0.3828 -3.9361
   75SLPC   H3S 6699   3.541   5.183   7.299  1.0780  0.4746  0.0042
   75SLPC   C24 6700   3.686   5.057   7.365  0.5658 -0.0256 -0.4401
   75SLPC   H4R 6701   3.748   5.140   7.325  1.3286 -0.2435  0.2770
   75SLPC   H4S 6702   3.724   4.958   7.336  0.0173 -1.8958  4.3234
   75SLPC   C25 6703   3.673   5.065   7.522  0.2230 -0.1897  0.3224
   75SLPC   H5R 6704   3.635   4.973   7.569  0.7544 -0.3590  0.4336
   75SLPC   H5S 6705   3.594   5.140   7.543 -1.4563 -1.7777 -0.1224
   75SLPC   C26 6706   3.812   5.105   7.578 -0.3951 -0.5021  0.8454
   75SLPC   H6R 6707   3.831   5.208   7.542  2.0581 -0.9362  0.7842
   75SLPC   H6S 6708   3.891   5.041   7.534  0.0148  2.4516 -3.3007
   75SLPC   C27 6709   3.822   5.090   7.733 -0.5682  0.4024  0.0795
   75SLPC   H7R 6710   3.926   5.107   7.766 -0.4533  1.1008 -0.6222
   75SLPC   H7S 6711   3.792   4.986   7.759 -0.8628  0.3674 -0.3791
   75SLPC   C28 6712   3.727   5.194   7.798 -1.0549 -0.4006  0.0467
   75SLPC   H8R 6713   3.722   5.176   7.908 -1.4975  1.6949  0.3984
   75SLPC   H8S 6714   3.619   5.178   7.782 -0.6873 -2.4615 -0.7167
   75SLPC   C29 6715   3.780   5.327   7.779  0.1683  0.0827 -0.2249
   75SLPC   H9R 6716   3.752   5.392   7.694  1.2900  1.9681  0.7656
   75SLPC  C210 6717   3.847   5.405   7.876 -0.1605  0.4550  0.0232
   75SLPC  H10R 6718   3.882   5.507   7.855  0.3773  0.8419  2.4490
   75SLPC  C211 6719   3.892   5.369   8.020  0.6701  0.1342  0.1456
   75SLPC  H11R 6720   3.833   5.287   8.065  1.1915 -0.4209 -0.1598
   75SLPC  H11S 6721   3.865   5.454   8.087  2.6258 -0.5769  1.9386
   75SLPC  C212 6722   4.041   5.332   8.051 -0.7076  0.0956 -0.0780
   75SLPC  H12R 6723   4.110   5.318   7.967  4.4504 -2.1957  3.9573
   75SLPC  C213 6724   4.097   5.303   8.170 -0.4184 -0.2601  0.5592
   75SLPC  H13R 6725   4.201   5.265   8.169 -0.5036 -0.5654  1.6896
   75SLPC  C214 6726   4.035   5.301   8.307  0.1348 -0.4799  1.2861
   75SLPC  H14R 6727   4.030   5.195   8.341 -0.7260 -0.9019 -0.0765
   75SLPC  H14S 6728   3.932   5.342   8.301  0.4083  0.0900  0.2322
   75SLPC  C215 6729   4.099   5.389   8.411  0.5590  0.4100 -0.9332
   75SLPC  H15R 6730   4.086   5.496   8.384 -0.7649  0.6207  0.3442
   75SLPC  H15S 6731   4.209   5.373   8.414  0.3726 -1.2165 -1.9653
   75SLPC  C216 6732   4.055   5.367   8.552  0.1079  0.0291 -0.0569
   75SLPC  H16R 6733   4.125   5.418   8.622 -1.1936  3.3920 -0.9852
   75SLPC  H16S 6734   4.058   5.260   8.580  0.0702 -0.3531 -1.4681
   75SLPC  C217 6735   3.915   5.419   8.583 -0.4380 -0.3366  0.3031
   75SLPC  H17R 6736   3.852   5.354   8.518 -0.8213  1.1810 -0.9073
   75SLPC  H17S 6737   3.905   5.520   8.538 -0.7262 -1.0555 -1.3529
   75SLPC  C218 6738   3.868   5.416   8.726  0.0071 -0.4288  0.0575
   75SLPC  H18R 6739   3.775   5.475   8.734  1.6538  2.2224  1.1633
   75SLPC  H18S 6740   3.945   5.449   8.799  1.5128 -2.8297 -0.3078
   75SLPC  H18T 6741   3.853   5.313   8.766 -1.6389 -0.7565 -1.3303
   75SLPC   C33 6742   3.065   4.689   7.216  0.4354 -1.1076  0.8922
   75SLPC   H3X 6743   2.988   4.639   7.278 -0.9290  0.4178  0.5063
   75SLPC   H3Y 6744   3.149   4.617   7.222  2.2944  0.7823 -0.7131
   75SLPC   C34 6745   3.112   4.820   7.281 -0.0602 -0.3771  0.1217
   75SLPC   H4X 6746   3.051   4.901   7.237  1.2268  0.4429 -0.2121
   75SLPC   H4Y 6747   3.219   4.844   7.263 -0.0521  0.6195  1.3242
   75SLPC   C35 6748   3.088   4.823   7.432 -0.1064 -0.1889  0.2829
   75SLPC   H5X 6749   3.157   4.743   7.465  0.6375  0.3540  0.0773
   75SLPC   H5Y 6750   2.988   4.793   7.470  0.1055  1.3418  2.2347
   75SLPC   C36 6751   3.127   4.961   7.491  0.5007 -0.0183 -0.6538
   75SLPC   H6X 6752   3.054   5.044   7.477  2.0690  1.8725  1.5612
   75SLPC   H6Y 6753   3.227   4.999   7.463  0.8094 -1.2116 -1.2296
   75SLPC   C37 6754   3.121   4.943   7.648  0.1323 -0.4801  1.1919
   75SLPC   H7X 6755   3.161   5.031   7.703  0.4917  1.8359 -2.4282
   75SLPC   H7Y 6756   3.178   4.851   7.674  1.7266  0.1990  0.2542
   75SLPC   C38 6757   2.976   4.928   7.698 -0.1472 -0.2099 -0.4593
   75SLPC   H8X 6758   2.942   4.829   7.662 -1.1686  0.3495 -1.0970
   75SLPC   H8Y 6759   2.901   5.004   7.667 -0.1168 -0.3914 -0.9740
   75SLPC   C39 6760   2.973   4.909   7.850 -0.4582 -0.2652 -0.1569
   75SLPC   H9X 6761   3.001   4.999   7.908 -1.7332  0.4472 -0.6092
   75SLPC   H9Y 6762   3.031   4.819   7.881  1.0308  0.5767 -0.4145
   75SLPC  C310 6763   2.829   4.865   7.901  0.4306 -0.6836  0.7005
   75SLPC  H10X 6764   2.844   4.836   8.007  2.8229  0.4510  0.7496
   75SLPC  H10Y 6765   2.795   4.789   7.827 -1.1109 -0.4913  1.1841
   75SLPC  C311 6766   2.725   4.977   7.906 -0.1160 -0.5762  0.0334
   75SLPC  H11X 6767   2.698   5.007   7.803 -1.3902  1.9410  1.0202
   75SLPC  H11Y 6768   2.760   5.073   7.949  1.4041 -1.2467  0.3771
   75SLPC  C312 6769   2.596   4.931   7.979 -0.7544  0.3067 -0.7693
   75SLPC  H12X 6770   2.614   4.925   8.088 -1.1602  1.0884 -0.6495
   75SLPC  H12Y 6771   2.572   4.829   7.943  1.3904 -1.0368  1.2679
   75SLPC  C313 6772   2.476   5.020   7.954 -0.6418 -0.1176  0.2458
   75SLPC  H13X 6773   2.460   5.029   7.844 -0.8215  1.0112  0.3603
   75SLPC  H13Y 6774   2.496   5.121   7.993 -0.5698 -0.5917  1.4692
   75SLPC  C314 6775   2.342   4.984   8.022  0.0640 -0.1328 -0.4547
   75SLPC  H14X 6776   2.323   4.890   7.966  1.2444  0.3905 -1.7848
   75SLPC  H14Y 6777   2.263   5.058   7.995  0.0463  0.1494  0.3558
   75SLPC  C315 6778   2.357   4.966   8.177 -0.2469  0.1232 -0.0828
   75SLPC  H15X 6779   2.411   5.053   8.220 -2.7412  0.7656  1.9160
   75SLPC  H15Y 6780   2.414   4.871   8.187  0.3524  0.7170  3.0562
   75SLPC  C316 6781   2.222   4.955   8.249 -0.1907  0.1279 -0.2572
   75SLPC  H16X 6782   2.158   4.872   8.212  0.2726 -0.7812  0.9192
   75SLPC  H16Y 6783   2.165   5.049   8.235 -0.7470 -0.0411  0.7703
   75SLPC  C317 6784   2.231   4.930   8.400 -0.1452  0.2497 -0.1390
   75SLPC  H17X 6785   2.285   5.010   8.454  1.2998 -1.1989  0.6385
   75SLPC  H17Y 6786   2.281   4.833   8.419 -0.0771  0.2833 -0.1450
   75SLPC  C318 6787   2.096   4.914   8.469  0.9866  0.3003  0.5604
   75SLPC  H18X 6788   2.019   4.886   8.394  0.8418 -1.5749  1.3435
   75SLPC  H18Y 6789   2.059   5.013   8.505  0.8972  1.0669 -1.4708
   75SLPC  H18Z 6790   2.093   4.850   8.560 -4.5983  0.0440  0.5594
   76SLPC     N 6791   5.675   2.577   6.202 -0.3496  0.1401 -0.1609
   76SLPC   C13 6792   5.577   2.461   6.195 -0.6409  0.5344  0.1728
   76SLPC  H13A 6793   5.506   2.477   6.275 -1.9473 -1.8324 -0.4173
   76SLPC  H13B 6794   5.519   2.460   6.104  0.4414 -1.0549 -0.5383
   76SLPC  H13C 6795   5.623   2.364   6.203 -1.4510 -0.0772 -1.9761
   76SLPC   C14 6796   5.751   2.575   6.078  0.6033  0.2381 -0.2153
   76SLPC  H14A 6797   5.688   2.605   5.996 -0.0936 -0.4092  0.0697
   76SLPC  H14B 6798   5.833   2.645   6.090  0.7094  0.1647 -0.5000
   76SLPC  H14C 6799   5.801   2.484   6.049  2.6833  0.6496  1.7183
   76SLPC   C15 6800   5.767   2.539   6.312 -0.3588  0.3368 -0.2084
   76SLPC  H15A 6801   5.815   2.444   6.295  2.6423  1.6542  0.3709
   76SLPC  H15B 6802   5.845   2.613   6.300 -0.5000  0.6412  0.7067
   76SLPC  H15C 6803   5.726   2.543   6.412  0.1199  0.2825 -0.0095
   76SLPC   C12 6804   5.615   2.713   6.236  0.2641 -0.9138 -0.4127
   76SLPC  H12A 6805   5.578   2.762   6.148  1.5327  1.0412  0.0891
   76SLPC  H12B 6806   5.685   2.786   6.274 -1.3099 -0.2419  1.3548
   76SLPC   C11 6807   5.492   2.707   6.335 -0.1089  0.3830 -0.2362
   76SLPC  H11A 6808   5.481   2.805   6.385  0.6989  0.6540 -0.5666
   76SLPC  H11B 6809   5.521   2.639   6.418  3.1767 -0.1423 -1.6254
   76SLPC     P 6810   5.277   2.790   6.211 -0.1687  0.0979  0.8452
   76SLPC   O13 6811   5.344   2.842   6.093  0.1591  0.3025  0.0017
   76SLPC   O14 6812   5.141   2.727   6.198 -0.2347  0.8067 -0.3280
   76SLPC   O12 6813   5.372   2.674   6.266  0.3487 -0.3181  0.3611
   76SLPC   O11 6814   5.260   2.905   6.319 -0.3678 -0.1741 -0.0203
   76SLPC    C1 6815   5.164   3.013   6.303 -0.0095 -0.2974  0.1438
   76SLPC    HA 6816   5.186   3.068   6.209 -0.0497  0.9044  0.8105
   76SLPC    HB 6817   5.065   2.962   6.303 -0.1388 -0.0494  0.3214
   76SLPC    C2 6818   5.163   3.103   6.428 -0.4923 -0.5319  0.1668
   76SLPC    HS 6819   5.259   3.158   6.416 -0.4300 -1.0028 -1.8377
   76SLPC   O21 6820   5.151   3.021   6.549  0.1516 -0.0786  0.0919
   76SLPC   C21 6821   5.222   3.068   6.652 -0.0604  1.0105 -0.0958
   76SLPC   O22 6822   5.291   3.164   6.660 -0.0053 -0.1175  0.0419
   76SLPC   C22 6823   5.198   2.969   6.772  0.5521 -0.4774 -0.1870
   76SLPC   H2R 6824   5.093   2.980   6.806  1.0480  1.0143  0.9836
   76SLPC   H2S 6825   5.204   2.865   6.734 -1.2237 -1.0741  1.0447
   76SLPC    C3 6826   5.047   3.200   6.416  0.3150 -0.5141 -0.4629
   76SLPC    HX 6827   4.955   3.140   6.434  0.4389 -0.7215 -0.5130
   76SLPC    HY 6828   5.033   3.244   6.314 -1.1448  2.1278  0.7720
   76SLPC   O31 6829   5.046   3.299   6.522 -0.2624  0.3516  0.8024
   76SLPC   C31 6830   5.127   3.401   6.499  0.8092  0.5650  0.2582
   76SLPC   O32 6831   5.171   3.430   6.388 -0.5361  0.8448  0.3411
   76SLPC   C32 6832   5.161   3.483   6.623  0.1700  0.1148 -0.0781
   76SLPC   H2X 6833   5.155   3.590   6.595 -2.8068  0.3991  1.2468
   76SLPC   H2Y 6834   5.268   3.457   6.632 -0.0381 -1.4198 -1.5096
   76SLPC   C23 6835   5.294   3.001   6.887 -0.0129  0.2395  0.6471
   76SLPC   H3R 6836   5.394   3.029   6.847 -0.3251  1.9536  0.9522
   76SLPC   H3S 6837   5.312   2.905   6.939  1.0671 -0.4484 -0.9509
   76SLPC   C24 6838   5.249   3.119   6.974  0.3580  0.0832  0.1740
   76SLPC   H4R 6839   5.159   3.104   7.037  1.1739  0.6776  1.5320
   76SLPC   H4S 6840   5.237   3.210   6.913  0.2373  0.5133  0.8284
   76SLPC   C25 6841   5.352   3.150   7.092  0.6314 -0.3524  0.0879
   76SLPC   H5R 6842   5.313   3.242   7.141 -1.0862 -1.8049  1.5861
   76SLPC   H5S 6843   5.448   3.179   7.044  0.5467  0.8823  0.6331
   76SLPC   C26 6844   5.370   3.031   7.193 -0.4101  0.2451 -0.8283
   76SLPC   H6R 6845   5.438   2.955   7.149 -0.9499 -0.6237 -0.2003
   76SLPC   H6S 6846   5.274   2.980   7.216 -0.6703  1.3386  0.6241
   76SLPC   C27 6847   5.432   3.078   7.325  0.9722 -0.6968  0.2255
   76SLPC   H7R 6848   5.361   3.155   7.361  1.1677  0.1125 -1.0514
   76SLPC   H7S 6849   5.526   3.137   7.318  0.6280 -0.2627 -1.0598
   76SLPC   C28 6850   5.434   2.965   7.430  0.4584  0.5449  0.0124
   76SLPC   H8R 6851   5.333   2.918   7.429 -1.4529  4.2645 -2.3864
   76SLPC   H8S 6852   5.500   2.886   7.387  0.0301  0.2405 -0.0932
   76SLPC   C29 6853   5.489   3.002   7.566 -0.0365  0.5722  0.3293
   76SLPC   H9R 6854   5.583   3.057   7.559 -1.0670  2.2136 -1.8076
   76SLPC  C210 6855   5.420   3.003   7.686 -0.1011  0.4508  0.5476
   76SLPC  H10R 6856   5.471   3.016   7.783  1.8944  1.9536 -0.6028
   76SLPC  C211 6857   5.284   2.954   7.699 -0.6156 -0.0451 -0.4402
   76SLPC  H11R 6858   5.297   2.844   7.696 -1.3363 -0.2088  1.0520
   76SLPC  H11S 6859   5.225   2.990   7.612 -1.3212 -2.7239 -1.1657
   76SLPC  C212 6860   5.194   2.986   7.818 -0.3842 -0.5447  0.3234
   76SLPC  H12R 6861   5.129   3.074   7.805 -1.0440 -1.0016  0.4715
   76SLPC  C213 6862   5.178   2.918   7.931  1.2379  0.2500  0.3928
   76SLPC  H13R 6863   5.098   2.947   8.000  1.3279  3.0342 -0.5431
   76SLPC  C214 6864   5.241   2.789   7.965 -0.1514  0.2193  0.0147
   76SLPC  H14R 6865   5.291   2.733   7.883 -1.0597 -3.7721  1.9506
   76SLPC  H14S 6866   5.162   2.719   8.001 -0.5369  1.3080  1.3582
   76SLPC  C215 6867   5.333   2.779   8.090 -0.0393  0.0936 -0.8127
   76SLPC  H15R 6868   5.412   2.856   8.078 -0.8381  1.0458 -0.2063
   76SLPC  H15S 6869   5.384   2.682   8.109 -0.6365  0.0802  0.8533
   76SLPC  C216 6870   5.265   2.819   8.226  0.6390 -0.6952 -0.3329
   76SLPC  H16R 6871   5.189   2.895   8.199  2.1602  0.9861 -0.1039
   76SLPC  H16S 6872   5.338   2.874   8.289  0.3383 -1.4868  0.7314
   76SLPC  C217 6873   5.189   2.709   8.307  0.2781 -0.5129 -0.0969
   76SLPC  H17R 6874   5.261   2.632   8.343 -0.5265 -0.1360  2.5112
   76SLPC  H17S 6875   5.117   2.645   8.252  0.1607 -1.6268  1.2962
   76SLPC  C218 6876   5.126   2.767   8.429  0.0195  0.2277  0.0072
   76SLPC  H18R 6877   5.028   2.816   8.410 -0.2065 -0.4865 -0.7522
   76SLPC  H18S 6878   5.203   2.837   8.468  0.3353 -1.3913  2.5483
   76SLPC  H18T 6879   5.106   2.696   8.512 -0.4430 -0.5808 -0.7703
   76SLPC   C33 6880   5.087   3.451   6.760  0.1091  0.2357 -0.4817
   76SLPC   H3X 6881   5.098   3.351   6.806  0.7968  0.7418  0.5123
   76SLPC   H3Y 6882   4.978   3.456   6.743 -0.3029 -3.7099  0.0954
   76SLPC   C34 6883   5.124   3.556   6.863  0.5879 -0.7886 -0.5649
   76SLPC   H4X 6884   5.056   3.550   6.950  1.0601  0.7063 -0.0656
   76SLPC   H4Y 6885   5.125   3.658   6.820 -0.2533 -0.4854  0.0943
   76SLPC   C35 6886   5.261   3.520   6.929 -0.7854 -0.2515 -0.0688
   76SLPC   H5X 6887   5.340   3.536   6.853  0.5814 -0.3743  1.2779
   76SLPC   H5Y 6888   5.265   3.417   6.971  1.4710  0.0937  0.7277
   76SLPC   C36 6889   5.309   3.625   7.033  0.1784 -0.0943  0.5774
   76SLPC   H6X 6890   5.287   3.724   6.988  0.3234 -0.1389  0.4081
   76SLPC   H6Y 6891   5.419   3.613   7.032 -0.0087 -2.3185 -0.8321
   76SLPC   C37 6892   5.249   3.610   7.169  0.1773 -0.5534 -0.1391
   76SLPC   H7X 6893   5.275   3.508   7.204 -1.3488 -1.8749 -2.6102
   76SLPC   H7Y 6894   5.140   3.631   7.165  0.6770  2.2083 -1.7817
   76SLPC   C38 6895   5.305   3.713   7.272 -0.3229  0.1666 -0.6627
   76SLPC   H8X 6896   5.277   3.815   7.239 -3.7710 -0.4636 -0.0810
   76SLPC   H8Y 6897   5.415   3.704   7.283 -0.4703 -3.2148 -0.9782
   76SLPC   C39 6898   5.251   3.683   7.410  0.3516  0.0433 -0.1698
   76SLPC   H9X 6899   5.256   3.575   7.434 -1.0092  0.1970  0.9586
   76SLPC   H9Y 6900   5.142   3.703   7.415  0.2323 -0.3587 -0.9406
   76SLPC  C310 6901   5.319   3.754   7.530 -0.1204 -0.5852  0.4088
   76SLPC  H10X 6902   5.380   3.830   7.477 -0.4152 -0.2385  0.5644
   76SLPC  H10Y 6903   5.396   3.687   7.575  1.5704  0.9720 -0.0663
   76SLPC  C311 6904   5.218   3.798   7.634 -0.5923 -0.9148 -0.0765
   76SLPC  H11X 6905   5.190   3.702   7.681  3.9037 -2.4082  0.0163
   76SLPC  H11Y 6906   5.128   3.852   7.596 -0.1558 -0.7262 -0.8879
   76SLPC  C312 6907   5.278   3.889   7.748  0.2351 -0.0326 -0.3003
   76SLPC  H12X 6908   5.188   3.901   7.812  1.7291  4.0011  1.3933
   76SLPC  H12Y 6909   5.314   3.988   7.712  2.1654 -1.0312 -1.3386
   76SLPC  C313 6910   5.392   3.827   7.822 -0.6874  0.6919  0.1853
   76SLPC  H13X 6911   5.477   3.800   7.755 -1.8527 -2.3716 -0.2562
   76SLPC  H13Y 6912   5.361   3.732   7.871  2.6100  0.6776  2.5124
   76SLPC  C314 6913   5.447   3.912   7.934 -0.0060 -0.8579  0.4294
   76SLPC  H14X 6914   5.497   4.008   7.909 -0.5335 -0.4403  0.9322
   76SLPC  H14Y 6915   5.523   3.854   7.990 -1.7986 -0.4562  3.4988
   76SLPC  C315 6916   5.354   3.921   8.051 -0.3059 -0.1543  0.5056
   76SLPC  H15X 6917   5.261   3.970   8.016  0.3607 -1.3043 -3.2936
   76SLPC  H15Y 6918   5.400   3.974   8.137 -0.3448  0.7084  0.0030
   76SLPC  C316 6919   5.331   3.790   8.126 -0.7766  0.5543  0.3956
   76SLPC  H16X 6920   5.432   3.762   8.163 -1.2153  0.7298  1.7976
   76SLPC  H16Y 6921   5.303   3.702   8.064  0.3674 -0.2963  1.0374
   76SLPC  C317 6922   5.230   3.809   8.228  0.3492 -0.6583 -0.8513
   76SLPC  H17X 6923   5.139   3.750   8.202 -1.5862  1.5913  0.4405
   76SLPC  H17Y 6924   5.200   3.915   8.239  1.8019 -0.0766 -2.1755
   76SLPC  C318 6925   5.280   3.749   8.361 -0.3242  0.4059 -0.0615
   76SLPC  H18X 6926   5.298   3.640   8.358 -2.1009  0.0989 -0.8849
   76SLPC  H18Y 6927   5.202   3.760   8.440  0.0746 -0.3862  0.4578
   76SLPC  H18Z 6928   5.376   3.793   8.397  1.2133 -1.8615 -1.1611
   77SLPC     N 6929   0.724   2.627   6.190  0.0671 -0.7479 -0.4999
   77SLPC   C13 6930   0.746   2.691   6.060 -0.7086  0.0889  0.3303
   77SLPC  H13A 6931   0.748   2.613   5.986  0.4721  0.1186  0.3187
   77SLPC  H13B 6932   0.660   2.753   6.038 -0.5223  0.2033 -0.0860
   77SLPC  H13C 6933   0.828   2.759   6.047 -1.1978  0.4619 -0.9606
   77SLPC   C14 6934   0.592   2.548   6.182  0.1625 -0.1175 -0.0112
   77SLPC  H14A 6935   0.508   2.615   6.191  0.1099 -0.2444  0.5200
   77SLPC  H14B 6936   0.589   2.487   6.093  0.0169 -0.1364  0.0058
   77SLPC  H14C 6937   0.599   2.482   6.268  1.0664 -1.7197 -1.2744
   77SLPC   C15 6938   0.710   2.743   6.293 -0.0275  0.5565  1.0121
   77SLPC  H15A 6939   0.798   2.807   6.295 -0.3955  1.0932  0.4490
   77SLPC  H15B 6940   0.629   2.804   6.257 -0.6322 -1.6187 -1.6281
   77SLPC  H15C 6941   0.685   2.700   6.388 -0.5150  1.4617  1.2944
   77SLPC   C12 6942   0.849   2.544   6.219  0.5539 -0.3755  0.6309
   77SLPC  H12A 6943   0.933   2.602   6.186  0.0715  0.3826  0.7030
   77SLPC  H12B 6944   0.838   2.467   6.144  1.6348 -0.4485  0.5327
   77SLPC   C11 6945   0.863   2.485   6.361  0.1966 -0.5226  0.4565
   77SLPC  H11A 6946   0.893   2.559   6.438 -1.8341 -0.3261  1.1254
   77SLPC  H11B 6947   0.955   2.423   6.351  1.7203  1.8889 -1.7145
   77SLPC     P 6948   0.747   2.267   6.474 -0.0070  0.2992 -0.0523
   77SLPC   O13 6949   0.722   2.165   6.369 -0.0058  0.0267  0.1378
   77SLPC   O14 6950   0.863   2.254   6.565 -0.2776 -0.4295  1.1736
   77SLPC   O12 6951   0.746   2.411   6.405 -0.3061 -0.0086 -0.8266
   77SLPC   O11 6952   0.615   2.265   6.565 -0.4123  0.8950  0.1134
   77SLPC    C1 6953   0.564   2.394   6.599 -0.1262 -0.0014 -0.7013
   77SLPC    HA 6954   0.644   2.455   6.646  0.8890 -1.9307  0.2164
   77SLPC    HB 6955   0.526   2.449   6.511  0.9473 -1.8166 -2.3772
   77SLPC    C2 6956   0.455   2.378   6.713  0.1286  0.5907 -0.1775
   77SLPC    HS 6957   0.414   2.476   6.743 -2.6305  0.4834 -3.0475
   77SLPC   O21 6958   0.511   2.316   6.823  0.3260 -0.0659 -0.4207
   77SLPC   C21 6959   0.616   2.371   6.887  0.2207 -1.2204  0.9284
   77SLPC   O22 6960   0.664   2.480   6.862  0.5274  0.0370 -0.5511
   77SLPC   C22 6961   0.654   2.279   6.991  0.1552  0.2194  0.4197
   77SLPC   H2R 6962   0.561   2.230   7.028 -1.0338  2.5690  0.7460
   77SLPC   H2S 6963   0.724   2.214   6.935 -0.3791  2.2528 -2.8666
   77SLPC    C3 6964   0.340   2.287   6.662 -0.9738  0.2250  0.0280
   77SLPC    HX 6965   0.372   2.189   6.623  1.0445 -0.0530  2.1647
   77SLPC    HY 6966   0.294   2.340   6.576 -0.2409  1.4949  0.3835
   77SLPC   O31 6967   0.247   2.269   6.769 -0.2973 -0.4688 -0.3944
   77SLPC   C31 6968   0.262   2.154   6.832 -0.8916  0.2464 -0.0512
   77SLPC   O32 6969   0.355   2.075   6.821 -0.2978 -0.0027  0.4469
   77SLPC   C32 6970   0.146   2.139   6.929 -0.4166 -0.3933  0.7924
   77SLPC   H2X 6971   0.060   2.104   6.869  0.3866 -1.7981  0.4359
   77SLPC   H2Y 6972   0.119   2.240   6.968  0.6444  1.0819 -1.9725
   77SLPC   C23 6973   0.725   2.350   7.111  0.5840  0.7046  0.4382
   77SLPC   H3R 6974   0.787   2.435   7.076 -0.0488  0.3422 -1.7728
   77SLPC   H3S 6975   0.795   2.271   7.146 -2.5794 -3.2063 -1.3053
   77SLPC   C24 6976   0.639   2.389   7.231  0.0937 -0.0727 -0.6449
   77SLPC   H4R 6977   0.578   2.303   7.269  0.1687  1.2159  2.7600
   77SLPC   H4S 6978   0.563   2.463   7.199  0.3807  1.1845  1.3770
   77SLPC   C25 6979   0.712   2.447   7.348  0.4503  0.5122  0.2840
   77SLPC   H5R 6980   0.743   2.552   7.329 -2.5681  1.0656 -2.3259
   77SLPC   H5S 6981   0.803   2.388   7.369 -0.4039 -0.2318  2.2316
   77SLPC   C26 6982   0.626   2.446   7.482  0.2413 -0.2271  0.1873
   77SLPC   H6R 6983   0.583   2.344   7.485  0.4160 -0.3919 -1.5227
   77SLPC   H6S 6984   0.552   2.529   7.479  0.2957 -0.1848 -0.0193
   77SLPC   C27 6985   0.728   2.464   7.598  0.2146 -0.3820 -0.8020
   77SLPC   H7R 6986   0.797   2.547   7.573 -1.6225  0.7771 -2.3428
   77SLPC   H7S 6987   0.792   2.374   7.588  1.7745  0.6466 -0.3538
   77SLPC   C28 6988   0.662   2.505   7.730 -0.5936 -0.2584 -0.3330
   77SLPC   H8R 6989   0.608   2.601   7.724  1.5288  1.1534  1.4535
   77SLPC   H8S 6990   0.746   2.518   7.801 -1.2504 -0.2017  0.4439
   77SLPC   C29 6991   0.562   2.407   7.788  0.0588 -0.6112  0.2765
   77SLPC   H9R 6992   0.472   2.378   7.731  0.5874  0.8605 -1.4045
   77SLPC  C210 6993   0.585   2.351   7.911  0.1946 -1.0398  0.5779
   77SLPC  H10R 6994   0.506   2.296   7.965  0.0232 -0.0834  1.3171
   77SLPC  C211 6995   0.703   2.381   8.003 -0.0069 -0.3862  0.6526
   77SLPC  H11R 6996   0.675   2.471   8.061 -2.6330 -0.8155  0.1455
   77SLPC  H11S 6997   0.792   2.408   7.941 -1.2237 -0.0126 -1.0036
   77SLPC  C212 6998   0.743   2.279   8.103 -0.0800  0.2090  0.4866
   77SLPC  H12R 6999   0.776   2.182   8.062 -0.9988 -0.1795  0.6336
   77SLPC  C213 7000   0.747   2.302   8.240  1.0881 -0.1490 -0.7664
   77SLPC  H13R 7001   0.780   2.218   8.302  2.0616  1.9129  1.6619
   77SLPC  C214 7002   0.701   2.424   8.320 -0.2793 -0.6641  0.1079
   77SLPC  H14R 7003   0.678   2.505   8.247  0.2744 -0.9682 -0.4078
   77SLPC  H14S 7004   0.783   2.461   8.385  0.5624 -1.3878 -0.5174
   77SLPC  C215 7005   0.581   2.399   8.411  0.3001  0.0891  0.1335
   77SLPC  H15R 7006   0.609   2.321   8.485 -0.8355 -1.6874 -1.2474
   77SLPC  H15S 7007   0.498   2.356   8.352 -0.0504  0.9149  0.0128
   77SLPC  C216 7008   0.545   2.526   8.488  0.0231 -0.0325 -0.3343
   77SLPC  H16R 7009   0.504   2.609   8.427  0.3465 -0.9084 -1.7899
   77SLPC  H16S 7010   0.645   2.564   8.520 -0.4254  0.0963  0.9825
   77SLPC  C217 7011   0.445   2.498   8.608 -0.4256 -0.4933  0.6143
   77SLPC  H17R 7012   0.478   2.405   8.659  0.3533 -0.2078  0.6437
   77SLPC  H17S 7013   0.357   2.473   8.545 -0.0281  2.4591 -1.3013
   77SLPC  C218 7014   0.423   2.614   8.706 -0.4296  0.1105 -0.4268
   77SLPC  H18R 7015   0.374   2.578   8.799  2.8215  0.3889  1.5559
   77SLPC  H18S 7016   0.371   2.698   8.654 -0.0452  0.3305 -0.4612
   77SLPC  H18T 7017   0.516   2.667   8.735 -1.1137  0.6196  0.9581
   77SLPC   C33 7018   0.178   2.043   7.051  0.4575  0.0580 -0.2714
   77SLPC   H3X 7019   0.264   2.076   7.114  1.4805 -1.9152 -0.5606
   77SLPC   H3Y 7020   0.197   1.939   7.017 -0.7454 -0.4059  0.3936
   77SLPC   C34 7021   0.064   2.036   7.160 -0.2121  0.7706 -0.2676
   77SLPC   H4X 7022  -0.020   1.970   7.133  0.9597 -1.1520  0.5668
   77SLPC   H4Y 7023   0.036   2.142   7.175  2.0893  1.4030  0.0449
   77SLPC   C35 7024   0.124   1.975   7.293 -0.4272 -0.0234 -0.6064
   77SLPC   H5X 7025   0.181   2.057   7.341  1.1059 -2.4034  1.9849
   77SLPC   H5Y 7026   0.183   1.886   7.265 -1.3455 -0.9672  0.3410
   77SLPC   C36 7027   0.015   1.942   7.400 -0.1139 -0.2020  0.3394
   77SLPC   H6X 7028  -0.062   1.879   7.351 -0.6428  0.4384  0.3365
   77SLPC   H6Y 7029  -0.038   2.035   7.430  0.0993  0.1385 -0.3264
   77SLPC   C37 7030   0.073   1.885   7.523  1.1149 -0.0093  0.4149
   77SLPC   H7X 7031   0.174   1.926   7.545  0.7632  0.5554  0.9986
   77SLPC   H7Y 7032   0.090   1.776   7.508  0.1338 -0.0467 -0.5826
   77SLPC   C38 7033  -0.022   1.911   7.649  0.0254  0.1065 -0.2570
   77SLPC   H8X 7034  -0.123   1.872   7.626  0.0406  0.1063 -0.3247
   77SLPC   H8Y 7035  -0.024   2.022   7.662  1.4384  0.2575 -1.0258
   77SLPC   C39 7036   0.048   1.854   7.779  0.4207 -0.1628  0.3444
   77SLPC   H9X 7037   0.153   1.889   7.784  0.9859 -1.9161  3.1086
   77SLPC   H9Y 7038   0.047   1.743   7.790 -0.3151 -0.1117  0.9125
   77SLPC  C310 7039  -0.023   1.908   7.904 -0.2393  0.0245 -0.3667
   77SLPC  H10X 7040  -0.121   1.857   7.904 -0.2418  0.0295 -0.4681
   77SLPC  H10Y 7041  -0.045   2.016   7.904 -0.5840 -0.0163  1.0764
   77SLPC  C311 7042   0.060   1.885   8.028 -0.2060  0.3120  0.3166
   77SLPC  H11X 7043   0.153   1.939   8.002  1.4672 -1.1938  2.8228
   77SLPC  H11Y 7044   0.077   1.776   8.031  0.6060  0.4597  2.0466
   77SLPC  C312 7045   0.003   1.950   8.148 -0.2638  0.4132  0.4406
   77SLPC  H12X 7046  -0.035   2.053   8.127 -1.8137  0.0326  1.2285
   77SLPC  H12Y 7047   0.079   1.951   8.229  0.2936  0.4033 -0.0789
   77SLPC  C313 7048  -0.122   1.875   8.198  0.3312  1.2188 -0.5590
   77SLPC  H13X 7049  -0.209   1.900   8.132 -0.0559 -1.4418 -1.1855
   77SLPC  H13Y 7050  -0.143   1.920   8.297 -0.2160  0.2344 -0.2117
   77SLPC  C314 7051  -0.119   1.721   8.208  0.1900 -0.6885 -0.0849
   77SLPC  H14X 7052  -0.033   1.682   8.268  0.2480  0.4048  0.5777
   77SLPC  H14Y 7053  -0.110   1.675   8.108  2.5004 -0.5614 -0.0033
   77SLPC  C315 7054  -0.253   1.676   8.267 -0.4722 -0.2691  0.7018
   77SLPC  H15X 7055  -0.333   1.715   8.200 -0.8184 -3.5878 -1.0325
   77SLPC  H15Y 7056  -0.246   1.718   8.369  1.9947  0.2466  0.3845
   77SLPC  C316 7057  -0.271   1.528   8.277 -0.0332 -0.2246  0.5606
   77SLPC  H16X 7058  -0.180   1.492   8.328  0.3453 -0.8338 -0.5080
   77SLPC  H16Y 7059  -0.284   1.488   8.174 -0.0032 -1.1396  0.9002
   77SLPC  C317 7060  -0.390   1.481   8.358 -0.3365 -0.9494 -0.6493
   77SLPC  H17X 7061  -0.479   1.529   8.311  1.1060  1.7042 -0.8915
   77SLPC  H17Y 7062  -0.384   1.511   8.465  1.8004 -1.6866 -0.5136
   77SLPC  C318 7063  -0.412   1.329   8.352 -0.4981 -0.3535 -0.1066
   77SLPC  H18X 7064  -0.509   1.303   8.400  0.5888  0.2728  2.5908
   77SLPC  H18Y 7065  -0.326   1.267   8.386  0.1137  1.4407  1.8682
   77SLPC  H18Z 7066  -0.429   1.304   8.245 -2.5846 -0.7321  0.2583
   78SLPC     N 7067   4.863   4.724   6.366 -0.0166  0.2323  0.4714
   78SLPC   C13 7068   4.894   4.848   6.298  0.0964 -0.2633 -0.1899
   78SLPC  H13A 7069   4.836   4.924   6.348 -2.2350 -1.8006 -0.4245
   78SLPC  H13B 7070   4.995   4.876   6.325  1.0370 -3.3629 -0.1994
   78SLPC  H13C 7071   4.873   4.854   6.192 -0.0741 -1.7141 -0.2550
   78SLPC   C14 7072   4.845   4.737   6.509 -0.7458  0.0101 -0.6348
   78SLPC  H14A 7073   4.794   4.653   6.552 -0.7393  0.2677 -0.1247
   78SLPC  H14B 7074   4.937   4.764   6.559 -1.3568 -2.9379  2.4132
   78SLPC  H14C 7075   4.775   4.816   6.531  0.5816  0.6829  1.3805
   78SLPC   C15 7076   4.977   4.628   6.334  0.7534  0.4961 -0.4368
   78SLPC  H15A 7077   4.944   4.532   6.370 -0.6216  0.9834 -0.3663
   78SLPC  H15B 7078   4.985   4.614   6.227 -0.8795 -0.3963 -0.4646
   78SLPC  H15C 7079   5.068   4.660   6.384  0.9543  0.2531 -0.6436
   78SLPC   C12 7080   4.734   4.669   6.305  0.0493 -0.0520 -0.3602
   78SLPC  H12A 7081   4.757   4.647   6.202  0.8861 -0.0806 -0.1741
   78SLPC  H12B 7082   4.658   4.745   6.312 -0.3636 -0.1348 -3.0175
   78SLPC   C11 7083   4.681   4.534   6.352  0.1409  0.7659 -0.3494
   78SLPC  H11A 7084   4.761   4.460   6.331  0.2006  0.8613 -0.4582
   78SLPC  H11B 7085   4.595   4.508   6.287 -0.4896 -1.5574  1.2684
   78SLPC     P 7086   4.503   4.587   6.546 -0.0446  0.2001  0.3422
   78SLPC   O13 7087   4.445   4.693   6.462  0.1507  0.7492  0.4999
   78SLPC   O14 7088   4.415   4.473   6.577  0.0589  0.6681 -0.3787
   78SLPC   O12 7089   4.644   4.535   6.489  0.4138 -0.4642  0.7067
   78SLPC   O11 7090   4.538   4.650   6.686  0.6476  0.2081  0.5244
   78SLPC    C1 7091   4.627   4.575   6.776  0.2221  0.2137 -0.0077
   78SLPC    HA 7092   4.698   4.510   6.721  2.1836  1.4492  0.9591
   78SLPC    HB 7093   4.697   4.646   6.825  1.6707 -0.4337 -1.0854
   78SLPC    C2 7094   4.551   4.488   6.887 -0.3650 -0.0390 -0.4920
   78SLPC    HS 7095   4.477   4.419   6.840 -0.7362 -0.5801  0.8392
   78SLPC   O21 7096   4.475   4.581   6.966  0.1414 -0.1589  0.0895
   78SLPC   C21 7097   4.387   4.522   7.038  0.6144  0.1445  1.0971
   78SLPC   O22 7098   4.363   4.404   7.031 -0.3827 -0.1514  0.5402
   78SLPC   C22 7099   4.310   4.614   7.134 -0.3252  0.1518  0.4349
   78SLPC   H2R 7100   4.324   4.711   7.081 -2.2985 -0.0496 -0.5520
   78SLPC   H2S 7101   4.206   4.579   7.118 -0.4823 -1.0172  3.4783
   78SLPC    C3 7102   4.649   4.405   6.966 -0.0849  0.1216 -0.3661
   78SLPC    HX 7103   4.707   4.343   6.894 -1.7612 -2.9220  0.6913
   78SLPC    HY 7104   4.593   4.332   7.028 -0.1902 -0.7309 -1.4242
   78SLPC   O31 7105   4.732   4.489   7.055  0.3645  0.8144  0.0130
   78SLPC   C31 7106   4.863   4.508   7.024  0.0599 -0.9612 -0.0282
   78SLPC   O32 7107   4.904   4.492   6.907 -0.0949 -1.0586 -0.1257
   78SLPC   C32 7108   4.942   4.557   7.141 -0.2540  0.2058 -0.2759
   78SLPC   H2X 7109   4.936   4.667   7.157  3.3152  0.6682 -1.1370
   78SLPC   H2Y 7110   5.050   4.537   7.125 -0.0986  1.4263 -0.8704
   78SLPC   C23 7111   4.372   4.613   7.274  0.8383 -0.2763  0.9039
   78SLPC   H3R 7112   4.483   4.616   7.273  0.8806 -0.5884 -1.4252
   78SLPC   H3S 7113   4.346   4.523   7.334  1.8369  0.2459  2.1515
   78SLPC   C24 7114   4.325   4.741   7.344  0.2288 -0.2545  0.2654
   78SLPC   H4R 7115   4.358   4.832   7.290  3.0172 -1.0926  0.3917
   78SLPC   H4S 7116   4.380   4.753   7.440  2.2566 -0.7510 -0.7747
   78SLPC   C25 7117   4.169   4.753   7.367  0.1129 -0.4233 -1.1037
   78SLPC   H5R 7118   4.109   4.733   7.276  1.0853  0.9110 -2.0632
   78SLPC   H5S 7119   4.142   4.856   7.401  0.7022 -0.6800  0.2031
   78SLPC   C26 7120   4.104   4.664   7.479  0.7958 -0.2546  0.3117
   78SLPC   H6R 7121   4.110   4.556   7.457 -2.9907 -0.1747 -1.9830
   78SLPC   H6S 7122   3.995   4.685   7.476  0.9827  1.2410  2.1293
   78SLPC   C27 7123   4.148   4.703   7.622 -0.2046  0.6629 -0.2382
   78SLPC   H7R 7124   4.175   4.811   7.614  2.5271  0.0965  0.4933
   78SLPC   H7S 7125   4.246   4.655   7.638 -0.9719 -0.7397  0.4010
   78SLPC   C28 7126   4.047   4.683   7.728  0.0707 -0.2655 -1.1168
   78SLPC   H8R 7127   4.031   4.576   7.753  0.1663  0.0331  0.2801
   78SLPC   H8S 7128   3.948   4.721   7.694 -0.7140 -0.7992  0.4625
   78SLPC   C29 7129   4.099   4.739   7.861 -0.3930 -0.0290  0.1240
   78SLPC   H9R 7130   4.208   4.748   7.874 -0.2638  0.7486 -1.3260
   78SLPC  C210 7131   4.021   4.759   7.967 -0.1937 -0.0790  0.2690
   78SLPC  H10R 7132   4.072   4.808   8.051 -0.9031  0.7264  0.2544
   78SLPC  C211 7133   3.873   4.732   7.982 -0.7921 -0.7440  0.2942
   78SLPC  H11R 7134   3.821   4.784   7.899 -3.4804 -3.3422  0.1876
   78SLPC  H11S 7135   3.839   4.798   8.065 -1.1123 -0.6237  0.0668
   78SLPC  C212 7136   3.805   4.598   7.984 -0.1960  0.2756 -0.5553
   78SLPC  H12R 7137   3.720   4.593   7.914 -0.2503 -0.9757 -0.4338
   78SLPC  C213 7138   3.832   4.483   8.046  0.4997  0.4292  0.4297
   78SLPC  H13R 7139   3.773   4.392   8.025  1.1961  0.0055  0.2535
   78SLPC  C214 7140   3.949   4.472   8.141 -0.4789 -0.2181  0.1471
   78SLPC  H14R 7141   3.990   4.572   8.165 -1.7755  0.7209 -1.3077
   78SLPC  H14S 7142   4.030   4.419   8.087  0.0987  1.6556 -0.8924
   78SLPC  C215 7143   3.926   4.397   8.272  0.2806 -0.1582  0.2916
   78SLPC  H15R 7144   3.873   4.300   8.256  0.5113 -0.1915 -0.2806
   78SLPC  H15S 7145   3.862   4.466   8.331  2.2007  0.8273  1.3255
   78SLPC  C216 7146   4.062   4.393   8.342 -0.3353 -0.1179  0.5130
   78SLPC  H16R 7147   4.100   4.497   8.343  1.5751 -0.7711 -0.5023
   78SLPC  H16S 7148   4.131   4.327   8.286  0.5124  0.8971  0.3384
   78SLPC  C217 7149   4.068   4.353   8.490 -0.4953  0.0281  0.7085
   78SLPC  H17R 7150   4.013   4.439   8.535  1.1076  1.8811 -0.6931
   78SLPC  H17S 7151   4.174   4.359   8.521 -0.7642  0.6097  1.5659
   78SLPC  C218 7152   3.999   4.221   8.522  0.1346  0.1788  0.1665
   78SLPC  H18R 7153   4.052   4.139   8.469  0.1411  0.7406 -0.7189
   78SLPC  H18S 7154   3.900   4.210   8.473  2.0579 -5.9942 -3.6275
   78SLPC  H18T 7155   3.994   4.201   8.631  1.6919  2.4045  0.7102
   78SLPC   C33 7156   4.916   4.486   7.277  0.4054 -0.1092 -0.5155
   78SLPC   H3X 7157   4.991   4.411   7.310  0.0744  0.5086  1.8356
   78SLPC   H3Y 7158   4.811   4.451   7.265 -0.1292  0.8969  0.9347
   78SLPC   C34 7159   4.913   4.594   7.396 -0.1337 -0.2577 -0.2566
   78SLPC   H4X 7160   4.873   4.691   7.360 -1.5668 -0.0070  1.8435
   78SLPC   H4Y 7161   5.015   4.603   7.438 -0.0883 -0.4268 -0.3299
   78SLPC   C35 7162   4.821   4.543   7.507  0.5127  0.3110  0.3160
   78SLPC   H5X 7163   4.871   4.467   7.571  0.9316 -0.3697 -0.7900
   78SLPC   H5Y 7164   4.728   4.495   7.470  1.3655 -1.1929  0.0402
   78SLPC   C36 7165   4.787   4.658   7.603 -0.3350 -0.2556 -0.3713
   78SLPC   H6X 7166   4.717   4.613   7.677  1.6805 -0.8563  1.2559
   78SLPC   H6Y 7167   4.742   4.741   7.545  0.1304 -0.1988 -0.6588
   78SLPC   C37 7168   4.909   4.713   7.681 -0.7432  0.1372  0.4103
   78SLPC   H7X 7169   4.982   4.748   7.605 -0.4397  0.1823  0.7235
   78SLPC   H7Y 7170   4.955   4.631   7.740  0.1604  0.4940  0.2097
   78SLPC   C38 7171   4.870   4.832   7.767 -0.3793  0.1432  0.3513
   78SLPC   H8X 7172   4.821   4.788   7.857  0.3697 -0.3100  0.5394
   78SLPC   H8Y 7173   4.792   4.888   7.711  0.7920 -0.0641 -1.5819
   78SLPC   C39 7174   4.991   4.918   7.803  0.0063  0.2471  0.4275
   78SLPC   H9X 7175   5.054   4.921   7.711 -1.1774 -0.2649 -0.4241
   78SLPC   H9Y 7176   5.055   4.865   7.877 -0.3704 -0.1804  0.4534
   78SLPC  C310 7177   4.949   5.051   7.870  0.1166 -0.3629 -0.6423
   78SLPC  H10X 7178   5.035   5.099   7.922 -0.3531  0.6566 -0.7825
   78SLPC  H10Y 7179   4.883   5.017   7.952  2.8319  1.5521  2.5912
   78SLPC  C311 7180   4.873   5.147   7.778  0.2063 -1.0495 -0.2719
   78SLPC  H11X 7181   4.791   5.083   7.738 -0.2754 -1.5447  1.4202
   78SLPC  H11Y 7182   4.941   5.184   7.698 -0.6797 -0.7292 -0.8978
   78SLPC  C312 7183   4.813   5.267   7.856  0.2907  1.1014  0.0869
   78SLPC  H12X 7184   4.879   5.287   7.943 -2.4151  0.7439  2.3519
   78SLPC  H12Y 7185   4.721   5.231   7.906  0.0024  0.2741 -0.9885
   78SLPC  C313 7186   4.812   5.399   7.771 -0.5615 -0.0376  0.1189
   78SLPC  H13X 7187   4.920   5.424   7.773 -0.3093 -1.0402 -0.3014
   78SLPC  H13Y 7188   4.747   5.473   7.823 -3.2015 -1.4309 -0.9942
   78SLPC  C314 7189   4.756   5.379   7.627  0.3152 -0.5134  0.4643
   78SLPC  H14X 7190   4.675   5.304   7.608  0.7803 -0.2235 -3.3600
   78SLPC  H14Y 7191   4.845   5.333   7.579  0.5225  1.6115 -1.3300
   78SLPC  C315 7192   4.698   5.503   7.562 -0.8340  0.0729  0.3134
   78SLPC  H15X 7193   4.788   5.564   7.537 -0.3274 -0.9979 -0.5959
   78SLPC  H15Y 7194   4.630   5.566   7.622 -1.7586  0.8660 -1.5084
   78SLPC  C316 7195   4.621   5.478   7.428 -0.0266 -0.7414  0.4907
   78SLPC  H16X 7196   4.527   5.426   7.455  0.6843 -1.6457  1.3162
   78SLPC  H16Y 7197   4.669   5.411   7.354 -0.0173  2.3367 -2.5175
   78SLPC  C317 7198   4.589   5.611   7.352 -0.2509  0.2217 -0.0158
   78SLPC  H17X 7199   4.683   5.648   7.306 -1.2287  1.1128 -1.3924
   78SLPC  H17Y 7200   4.546   5.680   7.428 -3.0684 -1.4507  0.0594
   78SLPC  C318 7201   4.487   5.590   7.246 -0.0070 -0.0457 -0.2938
   78SLPC  H18X 7202   4.530   5.557   7.149  0.3674 -0.1937 -0.0821
   78SLPC  H18Y 7203   4.425   5.681   7.231 -1.6697 -0.8124  1.4565
   78SLPC  H18Z 7204   4.425   5.501   7.272  0.7148 -0.2090  0.9250
   79SLPC     N 7205   0.522   4.634   6.082 -0.1601 -0.1192  0.1225
   79SLPC   C13 7206   0.513   4.482   6.093 -0.9294  0.1466  0.3281
   79SLPC  H13A 7207   0.417   4.452   6.132  0.2963  0.3527  3.9104
   79SLPC  H13B 7208   0.531   4.437   5.997 -0.4998 -0.2524  0.5877
   79SLPC  H13C 7209   0.589   4.448   6.162 -1.8574  2.6073  2.7756
   79SLPC   C14 7210   0.402   4.679   6.020  0.1840 -0.0477 -0.0691
   79SLPC  H14A 7211   0.381   4.630   5.927 -0.5569 -0.5297  0.3378
   79SLPC  H14B 7212   0.313   4.679   6.082  0.6302 -0.5652  0.5957
   79SLPC  H14C 7213   0.414   4.781   5.987 -2.4659  0.5625  0.6433
   79SLPC   C15 7214   0.631   4.677   5.992  0.4880  0.2363 -0.9896
   79SLPC  H15A 7215   0.653   4.782   5.989  1.4317  0.0960  0.3013
   79SLPC  H15B 7216   0.726   4.630   6.014  0.6722 -0.1661 -2.4840
   79SLPC  H15C 7217   0.612   4.646   5.890  0.2603 -1.2137 -0.5284
   79SLPC   C12 7218   0.535   4.692   6.224  0.4797 -0.1989 -0.2295
   79SLPC  H12A 7219   0.443   4.672   6.278 -1.5672  1.9240 -2.6272
   79SLPC  H12B 7220   0.556   4.797   6.220  0.2978 -0.1834 -1.3050
   79SLPC   C11 7221   0.650   4.645   6.313  0.2819  0.7665  0.6213
   79SLPC  H11A 7222   0.677   4.539   6.294  3.2828  1.3586  1.0799
   79SLPC  H11B 7223   0.623   4.653   6.421  0.1266  1.3786  0.5414
   79SLPC     P 7224   0.781   4.864   6.335 -0.3276 -0.1160  0.3229
   79SLPC   O13 7225   0.868   4.941   6.244 -0.2966  0.1646 -0.1671
   79SLPC   O14 7226   0.648   4.920   6.354 -0.2497 -0.6733 -0.0694
   79SLPC   O12 7227   0.768   4.719   6.282 -0.0937  0.1021 -0.9941
   79SLPC   O11 7228   0.865   4.855   6.471 -0.1954 -0.1364  0.0661
   79SLPC    C1 7229   0.948   4.736   6.501  0.0962 -0.2005 -0.5542
   79SLPC    HA 7230   0.901   4.688   6.589 -1.7615 -1.1297 -1.9863
   79SLPC    HB 7231   0.955   4.665   6.417 -1.9621 -1.2074  0.0545
   79SLPC    C2 7232   1.092   4.775   6.545  0.3496  0.2011 -0.3503
   79SLPC    HS 7233   1.160   4.690   6.566 -0.6243 -0.5572 -0.1876
   79SLPC   O21 7234   1.081   4.859   6.663  0.4515 -0.1624 -0.7496
   79SLPC   C21 7235   1.073   4.785   6.781  1.2663 -0.1336 -0.1280
   79SLPC   O22 7236   1.075   4.667   6.791  0.6789  0.6411  0.4207
   79SLPC   C22 7237   1.069   4.891   6.894 -0.0435  0.5999  0.2045
   79SLPC   H2R 7238   1.161   4.954   6.891  0.8210 -0.6499 -0.7859
   79SLPC   H2S 7239   0.972   4.943   6.883 -0.7936 -0.5582  1.0890
   79SLPC    C3 7240   1.151   4.864   6.430  0.0387 -0.8244 -0.2466
   79SLPC    HX 7241   1.076   4.932   6.385 -0.4103 -1.5366 -0.6033
   79SLPC    HY 7242   1.180   4.788   6.353 -0.7406 -1.1331 -0.2416
   79SLPC   O31 7243   1.276   4.924   6.460 -0.0714  0.5094 -0.3254
   79SLPC   C31 7244   1.280   5.052   6.468 -0.9008  0.3253 -0.1240
   79SLPC   O32 7245   1.193   5.135   6.446 -0.4165  0.0325  0.3457
   79SLPC   C32 7246   1.429   5.087   6.504  0.2589  0.0720  0.4240
   79SLPC   H2X 7247   1.427   5.196   6.526  1.8228  0.0684  0.6779
   79SLPC   H2Y 7248   1.494   5.058   6.419 -0.5871  0.5815 -0.4226
   79SLPC   C23 7249   1.072   4.827   7.034 -0.1300 -0.2509 -0.4988
   79SLPC   H3R 7250   1.163   4.767   7.054  0.2851  0.8580  1.1678
   79SLPC   H3S 7251   0.982   4.764   7.048  0.5526 -1.0304  0.4683
   79SLPC   C24 7252   1.069   4.938   7.139 -0.8775 -0.7215  0.4787
   79SLPC   H4R 7253   0.989   5.014   7.126  0.0477  0.2364  0.2760
   79SLPC   H4S 7254   1.158   5.003   7.122 -0.7801 -0.9831 -0.0298
   79SLPC   C25 7255   1.068   4.885   7.288 -0.6960 -0.0482  0.9090
   79SLPC   H5R 7256   1.158   4.824   7.310  0.3138  1.8253  2.2643
   79SLPC   H5S 7257   0.979   4.820   7.306  0.6886 -1.7665  1.8939
   79SLPC   C26 7258   1.040   4.997   7.389  0.1983 -0.8769 -0.4806
   79SLPC   H6R 7259   0.941   5.040   7.361  0.2664  0.0822  0.6410
   79SLPC   H6S 7260   1.114   5.080   7.394 -2.8751  1.9915  1.0654
   79SLPC   C27 7261   1.031   4.940   7.529  0.1137  0.2760 -0.1694
   79SLPC   H7R 7262   1.128   4.895   7.560 -0.6097 -0.9485  0.4161
   79SLPC   H7S 7263   0.947   4.867   7.531 -0.5480  0.9173 -2.3533
   79SLPC   C28 7264   0.992   5.037   7.642  0.6805 -0.3478  0.3481
   79SLPC   H8R 7265   1.069   5.117   7.644  1.7368 -1.2586 -1.5560
   79SLPC   H8S 7266   0.999   4.986   7.740  0.5395  1.0332  1.1045
   79SLPC   C29 7267   0.847   5.080   7.620  0.5109  1.1112  0.4300
   79SLPC   H9R 7268   0.816   5.094   7.516 -0.8043  1.3196  0.8304
   79SLPC  C210 7269   0.744   5.056   7.704 -0.6009 -0.0386  0.6545
   79SLPC  H10R 7270   0.642   5.077   7.669 -0.9411  0.0083  1.6491
   79SLPC  C211 7271   0.754   4.998   7.841  0.1904  1.0452  0.9196
   79SLPC  H11R 7272   0.834   5.059   7.890  2.7682 -0.4048 -1.2253
   79SLPC  H11S 7273   0.788   4.893   7.824  0.6273  1.3007  0.1560
   79SLPC  C212 7274   0.630   5.009   7.924  0.1532 -0.4260 -0.2172
   79SLPC  H12R 7275   0.567   5.097   7.902  3.6469  2.3126 -0.2480
   79SLPC  C213 7276   0.616   4.927   8.030  0.6264  1.3328 -0.0783
   79SLPC  H13R 7277   0.525   4.930   8.090 -0.4095 -0.3988 -1.4546
   79SLPC  C214 7278   0.707   4.815   8.066 -0.2953 -0.9024 -0.6470
   79SLPC  H14R 7279   0.806   4.810   8.016 -0.3445  0.6811 -0.9420
   79SLPC  H14S 7280   0.652   4.723   8.036 -0.6981 -1.0117  0.3796
   79SLPC  C215 7281   0.721   4.797   8.220 -0.0192  0.3071 -0.5434
   79SLPC  H15R 7282   0.767   4.893   8.250  2.4699 -0.5688 -1.3065
   79SLPC  H15S 7283   0.784   4.707   8.238  0.5329  0.6417 -0.7909
   79SLPC  C216 7284   0.598   4.772   8.308 -0.0299 -0.5076 -0.4062
   79SLPC  H16R 7285   0.548   4.677   8.282 -1.2443  0.4858 -1.8381
   79SLPC  H16S 7286   0.521   4.850   8.292  0.9784  0.4165 -0.8529
   79SLPC  C217 7287   0.631   4.756   8.459  0.3766 -0.3805  0.3497
   79SLPC  H17R 7288   0.704   4.672   8.466  0.0530 -0.7917 -0.9333
   79SLPC  H17S 7289   0.542   4.713   8.511 -0.7436 -1.0924 -2.0038
   79SLPC  C218 7290   0.675   4.882   8.526 -0.4902 -0.9550  0.7790
   79SLPC  H18R 7291   0.732   4.944   8.453 -2.4477  0.8113  0.6574
   79SLPC  H18S 7292   0.736   4.871   8.619  2.4014  1.4813 -0.6572
   79SLPC  H18T 7293   0.582   4.936   8.555 -1.1294 -0.4442 -2.0058
   79SLPC   C33 7294   1.491   5.001   6.618  0.1922 -1.0219 -0.0512
   79SLPC   H3X 7295   1.601   5.017   6.611 -0.1069  0.9514 -0.9092
   79SLPC   H3Y 7296   1.469   4.892   6.612 -0.0742 -1.0693  1.3190
   79SLPC   C34 7297   1.436   5.047   6.751 -0.4109  0.1542 -0.7876
   79SLPC   H4X 7298   1.325   5.037   6.754 -0.3120 -0.7200  0.3730
   79SLPC   H4Y 7299   1.455   5.157   6.753 -0.1807  0.1027  0.2259
   79SLPC   C35 7300   1.484   4.973   6.878  0.2073  0.6317 -0.0352
   79SLPC   H5X 7301   1.595   4.977   6.882  0.3213 -1.8736  0.6555
   79SLPC   H5Y 7302   1.454   4.867   6.864  0.5236  0.4083  0.9391
   79SLPC   C36 7303   1.431   5.021   7.012  0.4025  0.0913 -0.5354
   79SLPC   H6X 7304   1.322   5.040   7.006  0.5761  1.0050 -1.0172
   79SLPC   H6Y 7305   1.488   5.115   7.029 -1.2799  0.8262  1.4744
   79SLPC   C37 7306   1.482   4.929   7.127 -0.3375 -0.5498  0.1484
   79SLPC   H7X 7307   1.587   4.906   7.099 -0.9069 -0.8569 -1.8945
   79SLPC   H7Y 7308   1.417   4.839   7.135 -0.4306 -0.5707 -0.7773
   79SLPC   C38 7309   1.478   4.996   7.264  0.1602 -0.1822  0.5382
   79SLPC   H8X 7310   1.376   5.038   7.276 -0.7724 -1.3888 -2.1942
   79SLPC   H8Y 7311   1.540   5.088   7.258 -0.8640  0.5143  0.5642
   79SLPC   C39 7312   1.503   4.899   7.377 -0.1599 -0.4857 -0.3934
   79SLPC   H9X 7313   1.603   4.850   7.374  0.2219  0.0267  1.7495
   79SLPC   H9Y 7314   1.432   4.815   7.365  0.4478 -0.7616 -2.3466
   79SLPC  C310 7315   1.466   4.963   7.511  0.5302 -0.3994  0.6684
   79SLPC  H10X 7316   1.358   4.980   7.490  1.0478 -0.2953 -2.3816
   79SLPC  H10Y 7317   1.510   5.065   7.512 -1.1289  0.3976 -0.7076
   79SLPC  C311 7318   1.508   4.890   7.630  0.2517 -0.5953 -0.0184
   79SLPC  H11X 7319   1.615   4.860   7.624  0.2220 -1.4907  2.5786
   79SLPC  H11Y 7320   1.445   4.799   7.637  0.9645 -1.0861  0.1054
   79SLPC  C312 7321   1.485   4.966   7.759 -0.1658  0.4600 -0.2556
   79SLPC  H12X 7322   1.559   5.049   7.758  2.0328 -1.4263 -1.7713
   79SLPC  H12Y 7323   1.514   4.899   7.842 -1.1573 -0.0490 -0.3011
   79SLPC  C313 7324   1.347   5.024   7.789  0.2204 -0.0433 -0.3151
   79SLPC  H13X 7325   1.279   4.937   7.773 -1.8014  0.9624  2.1145
   79SLPC  H13Y 7326   1.312   5.101   7.718 -0.7698 -0.3961 -0.2291
   79SLPC  C314 7327   1.327   5.081   7.938  0.3058  0.4560  0.1974
   79SLPC  H14X 7328   1.391   5.171   7.956  1.5110  0.5046 -3.4323
   79SLPC  H14Y 7329   1.356   5.006   8.014  0.7987 -0.5850 -0.9842
   79SLPC  C315 7330   1.189   5.135   7.974 -0.2061 -0.1015  0.0094
   79SLPC  H15X 7331   1.118   5.051   7.956 -1.0934  0.6626 -0.1565
   79SLPC  H15Y 7332   1.157   5.217   7.906  1.4787  0.7672  0.2189
   79SLPC  C316 7333   1.171   5.179   8.119 -0.2847 -0.2786  0.2997
   79SLPC  H16X 7334   1.243   5.257   8.151 -1.1505  0.2001  1.1241
   79SLPC  H16Y 7335   1.179   5.089   8.183 -1.4678  0.4876  1.5909
   79SLPC  C317 7336   1.034   5.254   8.142 -0.2750  0.3904 -0.1328
   79SLPC  H17X 7337   0.963   5.200   8.077 -0.1549  0.9151 -0.7026
   79SLPC  H17Y 7338   1.038   5.363   8.118  1.4044  0.1812 -0.9255
   79SLPC  C318 7339   0.986   5.251   8.287  0.5342 -0.1556  0.7410
   79SLPC  H18X 7340   1.001   5.151   8.333 -2.2327 -0.2625  1.5945
   79SLPC  H18Y 7341   0.880   5.284   8.291  0.8020  1.0943 -0.9809
   79SLPC  H18Z 7342   1.047   5.331   8.335  2.4432 -1.2360  0.2191
   80SLPC     N 7343   2.683   4.097   6.355 -0.0804  0.3664 -0.8823
   80SLPC   C13 7344   2.806   4.194   6.369  0.2962  0.2395  0.6954
   80SLPC  H13A 7345   2.776   4.262   6.448 -1.1468 -1.8886  2.0933
   80SLPC  H13B 7346   2.896   4.146   6.407  0.0958  0.0774  0.9681
   80SLPC  H13C 7347   2.822   4.258   6.283  0.4166 -0.9838 -0.2175
   80SLPC   C14 7348   2.722   4.002   6.247  0.1418  0.0481 -0.1111
   80SLPC  H14A 7349   2.745   4.054   6.155  0.3405 -0.4775 -0.3570
   80SLPC  H14B 7350   2.812   3.948   6.273  0.4625  1.2670  1.4596
   80SLPC  H14C 7351   2.643   3.931   6.228 -0.6636  0.8048  0.2790
   80SLPC   C15 7352   2.564   4.180   6.315 -0.0642 -0.2425  0.1604
   80SLPC  H15A 7353   2.582   4.218   6.215 -0.1999  1.1521  0.6522
   80SLPC  H15B 7354   2.476   4.118   6.307  0.2850 -0.6264 -0.9539
   80SLPC  H15C 7355   2.545   4.265   6.379 -1.7266  0.9502 -1.7702
   80SLPC   C12 7356   2.659   4.022   6.488 -0.1886 -0.8003  0.0445
   80SLPC  H12A 7357   2.589   3.948   6.452 -0.1182 -0.6655 -0.3720
   80SLPC  H12B 7358   2.607   4.079   6.564  2.3283  1.8972 -0.0546
   80SLPC   C11 7359   2.777   3.957   6.555 -0.5364  0.0178 -0.2997
   80SLPC  H11A 7360   2.743   3.921   6.654 -0.3571  1.3998  0.2794
   80SLPC  H11B 7361   2.852   4.038   6.564  0.4993 -0.8108 -1.1050
   80SLPC     P 7362   2.975   3.814   6.475 -0.2667 -0.0692  0.2267
   80SLPC   O13 7363   3.022   3.678   6.436 -0.1196 -0.2622  0.7463
   80SLPC   O14 7364   3.032   3.928   6.404  0.2053  0.0956  0.4025
   80SLPC   O12 7365   2.819   3.837   6.482 -0.6554  0.1512 -0.4841
   80SLPC   O11 7366   3.019   3.832   6.628  0.1707 -0.3676 -0.0445
   80SLPC    C1 7367   3.051   3.714   6.704  0.3338 -0.1894  0.1873
   80SLPC    HA 7368   3.116   3.645   6.645 -2.4854 -1.6078 -1.4589
   80SLPC    HB 7369   3.102   3.756   6.793 -0.6009  0.0469  0.6236
   80SLPC    C2 7370   2.930   3.632   6.763  0.0674  0.3815 -0.7577
   80SLPC    HS 7371   2.857   3.608   6.683 -1.5472 -0.1793  0.8050
   80SLPC   O21 7372   2.873   3.716   6.862 -0.1488  1.0851  0.4576
   80SLPC   C21 7373   2.752   3.692   6.891  0.4105  0.1307  1.1207
   80SLPC   O22 7374   2.686   3.599   6.845 -0.4600 -0.4793  0.1522
   80SLPC   C22 7375   2.687   3.793   6.990 -0.0869 -0.4816  0.1948
   80SLPC   H2R 7376   2.679   3.887   6.931 -0.0986  1.0419  2.4908
   80SLPC   H2S 7377   2.588   3.748   7.012  0.8826 -1.8566  2.0599
   80SLPC    C3 7378   2.987   3.499   6.821  0.2077 -0.3044 -0.5292
   80SLPC    HX 7379   3.019   3.437   6.734  2.4322  0.8014 -0.5470
   80SLPC    HY 7380   2.903   3.442   6.867  0.9853 -2.5294 -1.6885
   80SLPC   O31 7381   3.099   3.528   6.910  0.1361  0.8457  0.3501
   80SLPC   C31 7382   3.073   3.519   7.037 -0.2538 -0.2433  0.6311
   80SLPC   O32 7383   2.963   3.495   7.084  0.5343  0.1905  0.5375
   80SLPC   C32 7384   3.202   3.546   7.108  0.2533 -0.5767 -0.4824
   80SLPC   H2X 7385   3.237   3.647   7.077  0.6047 -0.1658  1.1707
   80SLPC   H2Y 7386   3.281   3.476   7.074 -0.3127 -0.6426 -1.7127
   80SLPC   C23 7387   2.752   3.794   7.128  0.0714 -0.4073  0.0506
   80SLPC   H3R 7388   2.775   3.697   7.177  0.1529 -0.1329  0.5598
   80SLPC   H3S 7389   2.683   3.845   7.198 -0.7246  0.3972 -1.2716
   80SLPC   C24 7390   2.882   3.863   7.139  0.1481  0.8154 -0.4602
   80SLPC   H4R 7391   2.888   3.948   7.068  0.7714  0.7743 -0.4592
   80SLPC   H4S 7392   2.976   3.808   7.121  0.8175  1.4095  1.0577
   80SLPC   C25 7393   2.895   3.923   7.275 -0.2195 -0.8702 -0.7064
   80SLPC   H5R 7394   2.803   3.979   7.303  0.5942  1.1005 -1.8070
   80SLPC   H5S 7395   2.984   3.989   7.270 -2.8678  3.6356  3.0065
   80SLPC   C26 7396   2.930   3.817   7.389  0.6709  0.0199  0.1427
   80SLPC   H6R 7397   3.038   3.800   7.406  0.3760 -1.6617  0.5815
   80SLPC   H6S 7398   2.872   3.726   7.362  0.9389 -0.0435 -0.2142
   80SLPC   C27 7399   2.875   3.854   7.525  0.0912 -0.9167  0.3127
   80SLPC   H7R 7400   2.897   3.768   7.593  2.0400 -1.6041 -1.0841
   80SLPC   H7S 7401   2.765   3.866   7.521  0.2334  0.3065 -0.1604
   80SLPC   C28 7402   2.937   3.988   7.573 -0.7065  0.0305 -0.4673
   80SLPC   H8R 7403   2.903   4.079   7.520  0.6020  0.1436 -1.1337
   80SLPC   H8S 7404   3.044   3.968   7.555 -1.2823 -1.1446 -2.9758
   80SLPC   C29 7405   2.901   4.013   7.719 -0.3420 -0.7794  0.5518
   80SLPC   H9R 7406   2.793   4.000   7.734 -0.4698  0.3641  0.7234
   80SLPC  C210 7407   2.993   4.039   7.817 -0.7214  0.5767 -0.2841
   80SLPC  H10R 7408   2.957   4.062   7.919 -0.4985  1.5711 -0.4233
   80SLPC  C211 7409   3.137   4.052   7.791 -0.1564 -0.0908  0.0407
   80SLPC  H11R 7410   3.184   4.133   7.851  1.7689 -1.1811  0.0851
   80SLPC  H11S 7411   3.146   4.093   7.688  1.9163 -1.9962 -0.6244
   80SLPC  C212 7412   3.212   3.926   7.812  0.6230  0.5423  0.5969
   80SLPC  H12R 7413   3.223   3.864   7.722 -0.4815  2.3094 -0.8210
   80SLPC  C213 7414   3.271   3.884   7.928  0.7861 -0.0798  0.4932
   80SLPC  H13R 7415   3.333   3.793   7.928  2.1497  0.7902 -0.6753
   80SLPC  C214 7416   3.265   3.956   8.062  0.4342  0.4744 -0.1385
   80SLPC  H14R 7417   3.195   3.890   8.118 -2.5535  1.6488 -2.2599
   80SLPC  H14S 7418   3.224   4.059   8.058  2.0840  1.1519 -0.6637
   80SLPC  C215 7419   3.401   3.976   8.130  0.3413 -0.0551  0.3850
   80SLPC  H15R 7420   3.468   4.016   8.051 -2.9872  1.1055 -2.1028
   80SLPC  H15S 7421   3.449   3.881   8.159 -1.1495 -2.4310 -4.0721
   80SLPC  C216 7422   3.389   4.082   8.243 -1.3358 -0.2567  0.6130
   80SLPC  H16R 7423   3.295   4.064   8.298 -0.8138  0.0329  1.6256
   80SLPC  H16S 7424   3.376   4.183   8.197  2.3093  0.0875  0.0492
   80SLPC  C217 7425   3.513   4.086   8.338  0.3596 -0.4766 -0.0189
   80SLPC  H17R 7426   3.510   3.991   8.396  0.0471  0.0821  0.9046
   80SLPC  H17S 7427   3.502   4.159   8.421  2.5539 -1.8912  1.6287
   80SLPC  C218 7428   3.655   4.089   8.272  0.3665  0.3527 -0.4911
   80SLPC  H18R 7429   3.730   4.041   8.338 -0.2483 -0.7470 -0.5766
   80SLPC  H18S 7430   3.684   4.194   8.246 -0.3122  0.4036 -1.0895
   80SLPC  H18T 7431   3.658   4.025   8.181  2.0953 -1.3951  0.7185
   80SLPC   C33 7432   3.187   3.546   7.261  0.0178 -0.2223 -0.1548
   80SLPC   H3X 7433   3.138   3.455   7.301  1.2088 -0.6482  0.3552
   80SLPC   H3Y 7434   3.123   3.629   7.299  0.8836  0.5827 -0.4323
   80SLPC   C34 7435   3.320   3.567   7.336  0.2108 -0.2509 -1.0646
   80SLPC   H4X 7436   3.342   3.675   7.341  0.9338 -0.4099 -0.6812
   80SLPC   H4Y 7437   3.399   3.519   7.274  1.5747  2.2001 -1.3266
   80SLPC   C35 7438   3.313   3.512   7.482  0.0879  0.4771  0.3874
   80SLPC   H5X 7439   3.309   3.401   7.475  0.7723  0.4547  0.3168
   80SLPC   H5Y 7440   3.227   3.543   7.546  0.5363 -0.1384  1.3010
   80SLPC   C36 7441   3.440   3.544   7.568 -0.3293 -0.1099  0.0384
   80SLPC   H6X 7442   3.457   3.653   7.566 -1.7021  0.1180 -0.6030
   80SLPC   H6Y 7443   3.533   3.502   7.524  0.4051  1.8726 -0.3682
   80SLPC   C37 7444   3.422   3.491   7.707  0.0368 -0.3184  0.0050
   80SLPC   H7X 7445   3.413   3.380   7.702 -0.0736 -0.2543 -2.4290
   80SLPC   H7Y 7446   3.334   3.535   7.760  1.1576  2.4770 -0.3221
   80SLPC   C38 7447   3.546   3.521   7.790 -0.1419 -0.5569  0.4616
   80SLPC   H8X 7448   3.587   3.622   7.767 -1.2950 -0.3573 -0.8305
   80SLPC   H8Y 7449   3.631   3.455   7.764  0.7968  0.9868 -0.5569
   80SLPC   C39 7450   3.554   3.519   7.942  0.3111 -0.2714  0.2457
   80SLPC   H9X 7451   3.525   3.417   7.973  1.1694 -0.3395  0.8568
   80SLPC   H9Y 7452   3.487   3.598   7.983  0.7972 -0.3070  1.1339
   80SLPC  C310 7453   3.697   3.568   7.993 -0.8093 -0.8382  0.1644
   80SLPC  H10X 7454   3.705   3.674   7.959  2.5820 -0.7739  0.8100
   80SLPC  H10Y 7455   3.773   3.503   7.945  1.0463 -0.3378  2.2103
   80SLPC  C311 7456   3.720   3.555   8.142 -0.2187 -0.6227  0.1186
   80SLPC  H11X 7457   3.828   3.577   8.155  0.8219 -0.6855 -5.6843
   80SLPC  H11Y 7458   3.712   3.444   8.154  2.4058 -0.9814 -0.7401
   80SLPC  C312 7459   3.642   3.648   8.235  0.4285 -0.0156 -0.0870
   80SLPC  H12X 7460   3.565   3.703   8.175  0.5691 -0.1358 -0.3799
   80SLPC  H12Y 7461   3.711   3.720   8.283  1.5568 -0.9437 -0.2681
   80SLPC  C313 7462   3.558   3.561   8.332 -0.4354  0.0526  0.5116
   80SLPC  H13X 7463   3.613   3.512   8.415  1.5895 -0.2798 -0.9596
   80SLPC  H13Y 7464   3.514   3.484   8.265  0.9366  0.9187 -1.4763
   80SLPC  C314 7465   3.451   3.651   8.406 -0.2243 -0.3792 -0.5237
   80SLPC  H14X 7466   3.403   3.712   8.327  2.0232  2.4842  0.1278
   80SLPC  H14Y 7467   3.493   3.720   8.483 -3.1271  3.0274 -1.6974
   80SLPC  C315 7468   3.340   3.571   8.470 -0.0805  0.3464  0.1800
   80SLPC  H15X 7469   3.378   3.514   8.557  2.2186  1.1965 -0.1994
   80SLPC  H15Y 7470   3.305   3.493   8.400  2.6173 -0.3333 -0.5395
   80SLPC  C316 7471   3.211   3.644   8.517  0.4566  0.6821  0.3608
   80SLPC  H16X 7472   3.169   3.702   8.433 -1.6055  2.1622  2.2828
   80SLPC  H16Y 7473   3.218   3.711   8.606 -0.3266  3.5695 -1.6268
   80SLPC  C317 7474   3.103   3.536   8.529  0.7666  0.3079 -0.2993
   80SLPC  H17X 7475   3.146   3.472   8.609 -0.8791  0.7698  1.0079
   80SLPC  H17Y 7476   3.088   3.481   8.434 -1.9509 -0.4663  0.4773
   80SLPC  C318 7477   2.963   3.602   8.568  0.3874  0.5721 -0.1587
   80SLPC  H18X 7478   2.939   3.681   8.494 -2.3643  1.1983  1.2645
   80SLPC  H18Y 7479   2.965   3.654   8.666 -0.7014 -0.5189  0.4705
   80SLPC  H18Z 7480   2.881   3.527   8.568  0.7427  0.1745  0.1486
   81SAPS     N 7481   2.675   5.521  10.947  0.0507 -0.3338 -0.0792
   81SAPS   HN1 7482   2.593   5.582  10.968 -1.6202 -1.9907 -1.4393
   81SAPS   HN2 7483   2.754   5.580  10.915  0.5650 -1.6801 -1.3483
   81SAPS   HN3 7484   2.642   5.471  10.862 -1.7241  0.4904  0.0583
   81SAPS   C12 7485   2.686   5.436  11.062  0.7596  0.4819  0.6562
   81SAPS  H12A 7486   2.736   5.495  11.138  0.0803  3.5604 -1.0901
   81SAPS   C13 7487   2.549   5.410  11.131  0.1986 -0.6479 -0.0004
   81SAPS  O13A 7488   2.449   5.461  11.076  0.3208 -0.2545 -0.1354
   81SAPS  O13B 7489   2.539   5.348  11.244 -0.2524 -0.0015  0.6630
   81SAPS   C11 7490   2.751   5.302  11.010  0.2050  0.1891  0.0442
   81SAPS  H11A 7491   2.696   5.266  10.921 -3.6899  1.2081  1.8352
   81SAPS  H11B 7492   2.751   5.237  11.100  0.7519  0.2156  0.0635
   81SAPS     P 7493   2.986   5.236  10.902  0.1483  0.0219 -0.2219
   81SAPS   O13 7494   3.116   5.303  10.878 -0.1176  0.1059  0.5951
   81SAPS   O14 7495   2.985   5.106  10.980 -0.3435 -0.5924  0.3733
   81SAPS   O12 7496   2.895   5.338  10.991  0.5595 -0.1851 -0.2416
   81SAPS   O11 7497   2.902   5.213  10.772  0.8366  0.8750 -0.2146
   81SAPS    C1 7498   2.916   5.315  10.671 -0.4956 -0.4873  0.1053
   81SAPS    HA 7499   2.881   5.409  10.720  0.7240 -0.8771  1.8308
   81SAPS    HB 7500   3.022   5.333  10.642 -0.3667 -0.4394  0.6029
   81SAPS    C2 7501   2.836   5.309  10.544  0.6714 -0.5558 -0.8182
   81SAPS    HS 7502   2.735   5.276  10.577  1.0977  1.5700  3.2577
   81SAPS   O21 7503   2.892   5.214  10.461 -0.0984 -0.8208  0.2784
   81SAPS   C21 7504   2.807   5.158  10.371 -0.1798  0.5168  0.5101
   81SAPS   O22 7505   2.697   5.201  10.354  0.0229 -0.4798 -0.5428
   81SAPS   C22 7506   2.867   5.036  10.311  0.2418  0.4653 -0.7850
   81SAPS   H2R 7507   2.977   5.026  10.325 -0.2320 -3.3800  1.9807
   81SAPS   H2S 7508   2.837   4.956  10.382  0.7266 -0.6612 -1.8235
   81SAPS    C3 7509   2.833   5.449  10.486 -0.2521  0.4513 -0.3511
   81SAPS    HX 7510   2.780   5.508  10.564 -0.0788 -1.8782  1.6838
   81SAPS    HY 7511   2.768   5.451  10.397  2.1813 -1.5777 -2.3211
   81SAPS   O31 7512   2.971   5.494  10.465 -0.7086  0.0725 -0.2231
   81SAPS   C31 7513   3.010   5.498  10.338  0.5110  0.0848 -0.2051
   81SAPS   O32 7514   2.940   5.469  10.242  0.2265  0.2621 -0.2059
   81SAPS   C32 7515   3.157   5.530  10.331 -0.3426  0.4545 -0.1360
   81SAPS   H2X 7516   3.200   5.491  10.426  0.6043 -0.6552 -0.9772
   81SAPS   H2Y 7517   3.168   5.640  10.331  0.6722  0.3629  0.0683
   81SAPS   C23 7518   2.823   4.986  10.169 -0.1286  0.3454 -0.5620
   81SAPS   H3R 7519   2.712   4.992  10.161 -0.2111  0.4565  0.5276
   81SAPS   H3S 7520   2.838   4.876  10.169  2.1788  0.5964 -1.3042
   81SAPS   C24 7521   2.902   5.040  10.050 -0.6276 -0.1152 -0.1749
   81SAPS   H4R 7522   2.876   4.985   9.957 -0.6744  0.8192 -0.7210
   81SAPS   H4S 7523   3.005   5.003  10.073 -0.5255 -0.3476 -0.9885
   81SAPS   C25 7524   2.884   5.186  10.032  0.5830 -0.2694  0.3377
   81SAPS   H5R 7525   2.850   5.241  10.120  0.4971 -0.7372  0.5999
   81SAPS   C26 7526   2.909   5.249   9.916 -0.4712  0.1202 -0.2361
   81SAPS   H6R 7527   2.891   5.357   9.923 -3.3215 -0.3329  0.7801
   81SAPS   C27 7528   2.947   5.174   9.787 -0.2162  0.5022  0.1316
   81SAPS   H7R 7529   3.010   5.087   9.814 -2.0394 -0.1177  2.6808
   81SAPS   H7S 7530   3.008   5.255   9.743  0.2304  1.0562  1.7131
   81SAPS   C28 7531   2.842   5.118   9.691  0.4430  0.0142 -0.2659
   81SAPS   H8R 7532   2.755   5.074   9.741  0.2046 -1.6414 -2.0341
   81SAPS   C29 7533   2.860   5.097   9.553  0.1788 -0.1151  0.1207
   81SAPS   H9R 7534   2.776   5.061   9.492  0.5700  1.5281 -1.5076
   81SAPS  C210 7535   2.983   5.135   9.470 -0.1330  0.7913 -0.6311
   81SAPS  H10R 7536   3.024   5.047   9.416  2.0061  1.9948 -1.0615
   81SAPS  H10S 7537   3.067   5.165   9.536 -0.7892  1.2066  0.0223
   81SAPS  C211 7538   2.961   5.243   9.382  0.0144  0.6229 -0.3816
   81SAPS  H11R 7539   2.919   5.329   9.436  1.4794 -1.0044  3.6761
   81SAPS  C212 7540   2.982   5.263   9.251  1.0100 -0.6377  0.0945
   81SAPS  H12R 7541   2.968   5.357   9.197  0.4876 -0.3936  0.6415
   81SAPS  C213 7542   3.047   5.158   9.159 -0.4701  0.1057  0.3524
   81SAPS  H13R 7543   3.008   5.057   9.183  2.3740 -0.7999  1.6248
   81SAPS  H13S 7544   3.155   5.153   9.183 -0.6588 -1.1357  1.0282
   81SAPS  C214 7545   3.045   5.192   9.017 -0.6960 -0.7032  0.4522
   81SAPS  H14R 7546   3.090   5.288   8.988 -1.0699 -0.7666 -0.3678
   81SAPS  C215 7547   2.979   5.123   8.921  0.1991  0.6266 -0.2801
   81SAPS  H15R 7548   2.978   5.166   8.820 -2.3337 -1.0244 -1.0531
   81SAPS  C216 7549   2.906   4.993   8.940 -0.5543 -0.2131 -0.3547
   81SAPS  H16R 7550   2.801   5.007   8.907  0.0093 -0.7586 -2.5419
   81SAPS  H16S 7551   2.907   4.964   9.047  1.1658  1.4302  0.1285
   81SAPS  C217 7552   2.966   4.877   8.855  0.1108 -0.0661  0.4872
   81SAPS  H17R 7553   2.905   4.784   8.851 -2.2847  1.3823  1.1990
   81SAPS  H17S 7554   3.054   4.842   8.914  1.4883  3.3725  0.6968
   81SAPS  C218 7555   3.006   4.919   8.704 -0.1360 -0.3926 -0.0855
   81SAPS  H18R 7556   3.088   4.993   8.707 -0.6439  0.2647 -1.5527
   81SAPS  H18S 7557   2.919   4.969   8.656 -0.8224 -1.2488  0.2299
   81SAPS  C219 7558   3.064   4.797   8.630  0.6611  0.0428  0.1263
   81SAPS  H19R 7559   2.981   4.724   8.622  3.5765 -3.5751  0.5110
   81SAPS  H19S 7560   3.140   4.756   8.700  2.1091  1.3898 -0.5820
   81SAPS  C220 7561   3.118   4.821   8.495 -0.5555 -0.3103  1.1217
   81SAPS  H20R 7562   3.185   4.911   8.499 -1.2391  0.2702 -0.1483
   81SAPS  H20S 7563   3.040   4.833   8.417  1.3030  1.3492 -0.5959
   81SAPS  H20T 7564   3.182   4.733   8.475 -1.6074 -0.6795 -0.7418
   81SAPS   C33 7565   3.232   5.463  10.215  0.2203 -0.7157 -0.0218
   81SAPS   H3X 7566   3.207   5.355  10.208  0.2795 -0.8440  1.4478
   81SAPS   H3Y 7567   3.341   5.469  10.239  0.1535  1.4997 -0.0845
   81SAPS   C34 7568   3.222   5.547  10.093  0.1078  0.4320 -0.0446
   81SAPS   H4X 7569   3.239   5.652  10.124  0.6176  0.0141  1.1589
   81SAPS   H4Y 7570   3.122   5.535  10.047  0.6976 -1.4423 -0.9395
   81SAPS   C35 7571   3.325   5.502   9.991 -0.0586 -0.2842  0.8243
   81SAPS   H5X 7572   3.319   5.391   9.990  0.6059 -0.3201 -0.3569
   81SAPS   H5Y 7573   3.429   5.528  10.017 -0.7857  2.7339  1.1017
   81SAPS   C36 7574   3.284   5.555   9.844  0.1825 -0.2652  0.0404
   81SAPS   H6X 7575   3.274   5.664   9.861 -1.0906 -0.6697  2.3841
   81SAPS   H6Y 7576   3.178   5.529   9.823  0.4559 -0.4167 -1.1944
   81SAPS   C37 7577   3.377   5.497   9.732 -0.3503 -0.1854  0.6407
   81SAPS   H7X 7578   3.484   5.510   9.757 -0.4369 -0.0305  0.9358
   81SAPS   H7Y 7579   3.354   5.566   9.647 -0.1850 -2.4142 -1.3329
   81SAPS   C38 7580   3.333   5.361   9.670 -0.4219 -0.4786  0.0710
   81SAPS   H8X 7581   3.232   5.370   9.624  0.0858 -0.2153 -1.0301
   81SAPS   H8Y 7582   3.324   5.294   9.758  1.5192 -1.3677 -0.3427
   81SAPS   C39 7583   3.430   5.312   9.563 -0.0577  0.1230  0.2073
   81SAPS   H9X 7584   3.404   5.206   9.543 -1.0058  0.6456 -1.5615
   81SAPS   H9Y 7585   3.536   5.316   9.593  0.7920 -1.8603 -2.1896
   81SAPS  C310 7586   3.413   5.380   9.431 -0.3391 -0.0394  0.0882
   81SAPS  H10X 7587   3.428   5.490   9.438  3.1507 -0.3344 -1.1013
   81SAPS  H10Y 7588   3.308   5.371   9.396  0.2632 -0.6211 -1.7035
   81SAPS  C311 7589   3.513   5.313   9.329 -0.3193 -0.8694 -0.0289
   81SAPS  H11X 7590   3.467   5.216   9.302 -1.2214  0.4456 -3.9883
   81SAPS  H11Y 7591   3.609   5.308   9.385 -0.6235  0.1471  0.6187
   81SAPS  C312 7592   3.532   5.369   9.185  0.6322  0.5756  0.4019
   81SAPS  H12X 7593   3.589   5.301   9.118  0.8926 -1.2518  2.3575
   81SAPS  H12Y 7594   3.588   5.465   9.179 -1.5117  1.7911 -1.8610
   81SAPS  C313 7595   3.398   5.412   9.124  0.6946 -0.5257 -0.6011
   81SAPS  H13X 7596   3.351   5.481   9.197  0.5637  0.6000 -1.6993
   81SAPS  H13Y 7597   3.334   5.322   9.120 -0.9368  0.6298 -1.8714
   81SAPS  C314 7598   3.406   5.482   8.994  0.0242 -0.4101  0.4468
   81SAPS  H14X 7599   3.476   5.566   9.013 -1.0519  0.6593 -0.2621
   81SAPS  H14Y 7600   3.302   5.516   8.977  0.8386  1.7526 -0.5231
   81SAPS  C315 7601   3.463   5.399   8.876 -0.0418 -0.1386  0.1392
   81SAPS  H15X 7602   3.572   5.386   8.895  0.1614 -0.1589 -1.0071
   81SAPS  H15Y 7603   3.445   5.463   8.787 -1.6974 -0.9833 -0.1792
   81SAPS  C316 7604   3.415   5.257   8.856 -0.1295 -0.2127  0.9307
   81SAPS  H16X 7605   3.313   5.264   8.813  0.4430  0.6610 -0.3463
   81SAPS  H16Y 7606   3.418   5.198   8.950  0.8042  1.2339  1.8398
   81SAPS  C317 7607   3.496   5.171   8.766 -0.5492 -0.3191  0.0046
   81SAPS  H17X 7608   3.444   5.073   8.769 -2.9681  0.8602 -0.7741
   81SAPS  H17Y 7609   3.602   5.158   8.797 -0.7304 -2.7558 -0.2231
   81SAPS  C318 7610   3.495   5.203   8.619 -0.2522 -0.1149  0.2092
   81SAPS  H18X 7611   3.543   5.302   8.603  2.8438 -1.5488 -0.0322
   81SAPS  H18Y 7612   3.389   5.195   8.585  0.1502 -3.3557 -0.6153
   81SAPS  H18Z 7613   3.556   5.132   8.560  0.5478  1.3100 -0.7415
   82SAPS     N 7614   1.264   3.690  10.887 -0.5194  0.3717 -0.7282
   82SAPS   HN1 7615   1.205   3.681  10.802  0.0247  0.6679 -1.1392
   82SAPS   HN2 7616   1.364   3.707  10.863 -0.7494  1.0821 -1.2234
   82SAPS   HN3 7617   1.266   3.599  10.937 -0.7131  0.3315 -0.7924
   82SAPS   C12 7618   1.225   3.785  10.988 -0.6897  0.1144 -0.0703
   82SAPS  H12A 7619   1.154   3.849  10.937 -0.3936 -0.2399 -0.9416
   82SAPS   C13 7620   1.149   3.721  11.106  0.1098  0.1974  0.0398
   82SAPS  O13A 7621   1.128   3.598  11.116 -0.1939 -1.1840 -0.1749
   82SAPS  O13B 7622   1.099   3.799  11.193  0.4037  0.2337 -0.5613
   82SAPS   C11 7623   1.366   3.854  11.044 -0.7792  0.2592  0.2217
   82SAPS  H11A 7624   1.416   3.798  11.126  1.8128  1.7462 -0.2398
   82SAPS  H11B 7625   1.328   3.949  11.088  0.3343  1.7029 -1.7400
   82SAPS     P 7626   1.536   4.007  10.910  0.3514 -0.1408 -0.2043
   82SAPS   O13 7627   1.523   4.098  11.023 -0.3147  0.0453 -0.1029
   82SAPS   O14 7628   1.674   3.972  10.880 -0.4518  0.0132  0.1417
   82SAPS   O12 7629   1.460   3.873  10.935 -0.0852 -0.3624  0.5414
   82SAPS   O11 7630   1.468   4.080  10.792  0.3937  0.0213 -0.1615
   82SAPS    C1 7631   1.332   4.110  10.777  0.5253  0.2380 -0.4649
   82SAPS    HA 7632   1.276   4.095  10.872  2.0146 -1.3488  0.2223
   82SAPS    HB 7633   1.333   4.221  10.765 -0.3901  0.2947 -0.0990
   82SAPS    C2 7634   1.256   4.042  10.654 -0.2638 -0.0156  0.5206
   82SAPS    HS 7635   1.213   3.943  10.682  1.2614 -0.4151  1.5495
   82SAPS   O21 7636   1.339   4.031  10.542  0.1688  0.4578  0.3131
   82SAPS   C21 7637   1.424   3.931  10.543  0.3972 -0.1587 -0.5283
   82SAPS   O22 7638   1.422   3.836  10.622  0.0869 -0.5311  0.5332
   82SAPS   C22 7639   1.521   3.943  10.428 -0.3601  0.3587 -0.2276
   82SAPS   H2R 7640   1.625   3.946  10.466 -0.0054 -0.5344 -1.0990
   82SAPS   H2S 7641   1.524   3.849  10.370  1.1543 -1.6493  2.8630
   82SAPS    C3 7642   1.140   4.135  10.610  0.3850 -0.1170  0.4196
   82SAPS    HX 7643   1.068   4.153  10.692  0.4940 -1.3193  0.7991
   82SAPS    HY 7644   1.094   4.073  10.530  1.3585 -2.3050  1.4722
   82SAPS   O31 7645   1.188   4.262  10.564 -0.7289  0.2295  0.2121
   82SAPS   C31 7646   1.213   4.273  10.430  0.5261 -0.1887 -0.2407
   82SAPS   O32 7647   1.182   4.196  10.343 -0.2453  0.4959  0.1824
   82SAPS   C32 7648   1.277   4.408  10.402 -0.7615 -0.2449  0.7248
   82SAPS   H2X 7649   1.346   4.433  10.485  1.7430  0.9379 -1.5650
   82SAPS   H2Y 7650   1.198   4.484  10.380  0.6648  1.1355  0.1582
   82SAPS   C23 7651   1.504   4.066  10.336  0.0494  0.0483  0.2404
   82SAPS   H3R 7652   1.529   4.152  10.401  3.2967  0.3107 -1.1727
   82SAPS   H3S 7653   1.399   4.068  10.300  0.1095  1.4416  0.1009
   82SAPS   C24 7654   1.612   4.072  10.232 -0.3020  0.0006 -0.1714
   82SAPS   H4R 7655   1.715   4.074  10.274  0.1798 -0.2491 -1.3292
   82SAPS   H4S 7656   1.600   4.173  10.187 -2.2385 -0.7718 -1.5066
   82SAPS   C25 7657   1.609   3.956  10.132 -0.0178 -0.2674  0.0535
   82SAPS   H5R 7658   1.657   3.864  10.168 -1.9486 -1.7967 -1.1015
   82SAPS   C26 7659   1.575   3.960  10.003  0.3422  0.0378 -0.3551
   82SAPS   H6R 7660   1.570   3.864   9.949  0.8382  1.4237 -3.0493
   82SAPS   C27 7661   1.516   4.078   9.927 -0.1890  0.9886  0.0694
   82SAPS   H7R 7662   1.536   4.035   9.826 -0.6920 -0.6024  0.6142
   82SAPS   H7S 7663   1.589   4.160   9.944  0.2957  0.8664 -1.2948
   82SAPS   C28 7664   1.373   4.128   9.957 -1.4257 -0.7743  0.3403
   82SAPS   H8R 7665   1.350   4.157  10.061  1.9440  0.8814  0.7588
   82SAPS   C29 7666   1.283   4.154   9.863 -0.1633 -0.4790  0.1991
   82SAPS   H9R 7667   1.184   4.189   9.896  1.0771  0.3394  3.4536
   82SAPS  C210 7668   1.310   4.151   9.712  0.2710  0.6565 -0.4670
   82SAPS  H10R 7669   1.417   4.159   9.687 -0.2705  1.1927 -2.8332
   82SAPS  H10S 7670   1.251   4.238   9.675 -0.1792 -0.3666 -2.2518
   82SAPS  C211 7671   1.258   4.029   9.642 -0.0968  0.7529  0.2272
   82SAPS  H11R 7672   1.227   3.942   9.703 -0.7190  1.1578  0.4967
   82SAPS  C212 7673   1.237   4.018   9.508 -0.2458 -0.8100 -0.2018
   82SAPS  H12R 7674   1.207   3.923   9.461  0.6974 -0.2680 -1.9731
   82SAPS  C213 7675   1.269   4.117   9.405 -0.0380 -0.3342  1.0290
   82SAPS  H13R 7676   1.332   4.064   9.330  0.3296  2.7995 -1.0641
   82SAPS  H13S 7677   1.328   4.204   9.443  0.7343 -0.0026 -0.8409
   82SAPS  C214 7678   1.140   4.156   9.338 -0.3164  0.4211 -0.0811
   82SAPS  H14R 7679   1.081   4.233   9.390 -0.1999 -1.0630  2.4318
   82SAPS  C215 7680   1.091   4.110   9.223 -0.0064 -0.9504  0.0366
   82SAPS  H15R 7681   0.990   4.143   9.196 -0.9802 -1.8505  2.3724
   82SAPS  C216 7682   1.163   4.003   9.141 -0.1305  0.2761 -0.0320
   82SAPS  H16R 7683   1.087   3.929   9.109 -2.0554  1.4562  1.5629
   82SAPS  H16S 7684   1.237   3.945   9.200  1.1635 -0.0264 -1.8584
   82SAPS  C217 7685   1.235   4.064   9.017  0.0117  0.6888  0.2283
   82SAPS  H17R 7686   1.313   4.137   9.045 -1.5178  2.7616 -0.6427
   82SAPS  H17S 7687   1.163   4.123   8.956  0.8696 -0.2149 -1.7470
   82SAPS  C218 7688   1.270   3.952   8.906 -0.0563  0.6039 -0.0944
   82SAPS  H18R 7689   1.194   3.879   8.940  1.0421  0.0734  1.3323
   82SAPS  H18S 7690   1.372   3.911   8.924  0.2546  0.2574 -2.3597
   82SAPS  C219 7691   1.244   3.989   8.759  0.4116  0.2548  0.0162
   82SAPS  H19R 7692   1.275   4.094   8.739  1.0262  0.1300  0.2970
   82SAPS  H19S 7693   1.136   3.980   8.733  0.1669 -3.1819  1.6600
   82SAPS  C220 7694   1.322   3.903   8.659 -0.2845 -0.2221  0.4403
   82SAPS  H20R 7695   1.285   3.927   8.557  0.0381  1.4351  0.6877
   82SAPS  H20S 7696   1.300   3.795   8.676 -0.9472 -0.5826 -2.3038
   82SAPS  H20T 7697   1.433   3.909   8.658 -0.3824  2.5236 -0.7529
   82SAPS   C33 7698   1.360   4.405  10.262 -0.4793  0.2858 -1.1041
   82SAPS   H3X 7699   1.289   4.367  10.184  1.1711 -0.1878 -2.4399
   82SAPS   H3Y 7700   1.437   4.328  10.282 -0.9164  0.3025  0.8344
   82SAPS   C34 7701   1.418   4.542  10.229  0.6807 -0.6506  0.0016
   82SAPS   H4X 7702   1.502   4.570  10.296  0.6558 -1.6023  0.4442
   82SAPS   H4Y 7703   1.332   4.609  10.249 -0.3958 -1.3518 -2.0224
   82SAPS   C35 7704   1.469   4.553  10.079 -0.6785  0.6096 -0.4421
   82SAPS   H5X 7705   1.507   4.651  10.042  1.0251 -0.6481 -2.1651
   82SAPS   H5Y 7706   1.380   4.524  10.019  2.0903 -1.0371 -4.1155
   82SAPS   C36 7707   1.571   4.441  10.052  1.2511 -0.6755 -0.6623
   82SAPS   H6X 7708   1.508   4.350  10.057  0.2758 -0.0900 -1.6308
   82SAPS   H6Y 7709   1.640   4.442  10.139  0.8491 -0.7631 -0.3401
   82SAPS   C37 7710   1.642   4.450   9.915  0.1061  0.0050  0.7591
   82SAPS   H7X 7711   1.726   4.378   9.906  2.7774  2.6957  2.4359
   82SAPS   H7Y 7712   1.682   4.554   9.914 -1.9969  0.8644  0.4016
   82SAPS   C38 7713   1.548   4.424   9.791 -0.4048 -0.0813 -0.7076
   82SAPS   H8X 7714   1.458   4.489   9.791  0.6128  1.3826 -1.1760
   82SAPS   H8Y 7715   1.523   4.316   9.797  1.9861 -0.6842 -0.5974
   82SAPS   C39 7716   1.618   4.449   9.654  0.1875  0.7001  0.4302
   82SAPS   H9X 7717   1.707   4.382   9.648 -1.0077 -1.1665  2.1491
   82SAPS   H9Y 7718   1.658   4.552   9.659 -2.4127  1.7632  1.0596
   82SAPS  C310 7719   1.519   4.428   9.539  0.6889 -0.1740 -0.4270
   82SAPS  H10X 7720   1.436   4.502   9.551  0.1837 -0.9441  1.0249
   82SAPS  H10Y 7721   1.468   4.330   9.544 -1.7671  1.0734  3.5173
   82SAPS  C311 7722   1.580   4.461   9.400 -0.7923  0.6758  0.0881
   82SAPS  H11X 7723   1.665   4.392   9.384 -1.4395 -0.3375  0.8983
   82SAPS  H11Y 7724   1.627   4.561   9.408  1.9996 -0.5197 -0.2813
   82SAPS  C312 7725   1.489   4.445   9.280  0.8841  0.2122 -0.3701
   82SAPS  H12X 7726   1.408   4.521   9.292  0.9772  0.0730  1.4928
   82SAPS  H12Y 7727   1.437   4.347   9.281 -1.8587  1.5410  0.8479
   82SAPS  C313 7728   1.558   4.476   9.150 -0.0064 -0.0351 -0.1683
   82SAPS  H13X 7729   1.642   4.406   9.131  1.1254  1.8899 -2.8055
   82SAPS  H13Y 7730   1.600   4.578   9.158 -1.9087  0.9046 -1.4131
   82SAPS  C314 7731   1.476   4.479   9.018  0.5485  0.8755 -0.3586
   82SAPS  H14X 7732   1.384   4.542   9.013 -1.7383 -2.2294 -0.3607
   82SAPS  H14Y 7733   1.436   4.377   9.005  1.4569  0.5878 -0.9466
   82SAPS  C315 7734   1.558   4.499   8.892  0.1668 -0.3606 -0.5391
   82SAPS  H15X 7735   1.648   4.435   8.880  1.0977  0.4051  1.7687
   82SAPS  H15Y 7736   1.593   4.605   8.900 -2.4059  0.4851  0.5650
   82SAPS  C316 7737   1.472   4.504   8.765  0.5589 -0.6212 -1.3262
   82SAPS  H16X 7738   1.492   4.590   8.698  1.6016  0.4134  0.2535
   82SAPS  H16Y 7739   1.366   4.522   8.793 -0.2316 -3.1359 -2.4135
   82SAPS  C317 7740   1.465   4.383   8.684 -0.1452  0.5604 -0.8788
   82SAPS  H17X 7741   1.458   4.288   8.742 -1.6378  1.4734  0.4956
   82SAPS  H17Y 7742   1.556   4.371   8.620  0.3955  1.0522 -0.2088
   82SAPS  C318 7743   1.346   4.381   8.576 -0.6211  0.3427 -0.3230
   82SAPS  H18X 7744   1.318   4.277   8.548 -0.5034 -0.4921  2.3095
   82SAPS  H18Y 7745   1.366   4.448   8.490  0.4526  2.4491  1.4476
   82SAPS  H18Z 7746   1.258   4.421   8.631 -0.4633 -1.5334  1.4323
   83SAPS     N 7747   2.388   5.968  10.656  0.1453 -0.0647  0.0355
   83SAPS   HN1 7748   2.382   5.888  10.591  0.4682  0.8921 -1.2046
   83SAPS   HN2 7749   2.291   5.992  10.684  0.2308  0.3133  0.0210
   83SAPS   HN3 7750   2.428   6.053  10.611  1.4009 -0.7788 -0.2437
   83SAPS   C12 7751   2.457   5.933  10.785 -0.5773 -0.8594  0.0461
   83SAPS  H12A 7752   2.386   5.964  10.861 -2.0533 -0.0924 -1.5868
   83SAPS   C13 7753   2.477   5.779  10.801 -0.0456  0.5431 -0.0138
   83SAPS  O13A 7754   2.443   5.694  10.715 -0.2910 -0.0068 -0.1524
   83SAPS  O13B 7755   2.526   5.748  10.911 -0.5154 -0.9274  0.2082
   83SAPS   C11 7756   2.590   6.010  10.800 -0.2074  0.1370 -0.2553
   83SAPS  H11A 7757   2.664   5.973  10.726  0.0588  0.0470  0.0554
   83SAPS  H11B 7758   2.640   5.985  10.896 -0.9093 -0.8214 -0.1177
   83SAPS     P 7759   2.535   6.255  10.874 -0.0071 -0.0443 -0.5465
   83SAPS   O13 7760   2.406   6.204  10.925  0.0266 -0.2361  0.7205
   83SAPS   O14 7761   2.643   6.268  10.971 -0.2504 -0.0254 -0.6270
   83SAPS   O12 7762   2.576   6.151  10.768  0.1375  0.1693 -0.0963
   83SAPS   O11 7763   2.515   6.391  10.802 -0.2622  0.4711 -0.0125
   83SAPS    C1 7764   2.619   6.438  10.714 -0.3528  0.7959  0.1875
   83SAPS    HA 7765   2.608   6.549  10.708 -0.4021  0.7345 -3.0909
   83SAPS    HB 7766   2.722   6.407  10.741  0.1014  0.5421 -1.6593
   83SAPS    C2 7767   2.620   6.392  10.563  0.5272  0.8727 -0.4370
   83SAPS    HS 7768   2.648   6.285  10.552  0.6687  0.9454 -0.7862
   83SAPS   O21 7769   2.707   6.476  10.481 -0.7844  0.7344 -0.2007
   83SAPS   C21 7770   2.836   6.429  10.462  0.7826  0.2868 -0.5809
   83SAPS   O22 7771   2.882   6.326  10.506 -0.0896 -0.2800  1.2218
   83SAPS   C22 7772   2.905   6.531  10.375  0.5282 -0.1597 -0.2109
   83SAPS   H2R 7773   2.831   6.572  10.303  0.9259  2.9858  1.0140
   83SAPS   H2S 7774   2.932   6.608  10.450  0.9179 -2.3271  1.9756
   83SAPS    C3 7775   2.473   6.381  10.508  0.0624  0.2379 -0.1707
   83SAPS    HX 7776   2.425   6.481  10.508  0.1477  0.3123  1.8162
   83SAPS    HY 7777   2.415   6.318  10.578  2.1976  0.6714  2.1506
   83SAPS   O31 7778   2.474   6.325  10.374 -0.8448  0.2883 -0.7306
   83SAPS   C31 7779   2.480   6.192  10.360 -0.0728 -0.2638  0.7555
   83SAPS   O32 7780   2.479   6.109  10.448 -0.0750 -0.6105  0.4570
   83SAPS   C32 7781   2.475   6.168  10.209 -0.3272 -0.5254 -0.2835
   83SAPS   H2X 7782   2.571   6.200  10.163 -0.7539  1.3047  0.0445
   83SAPS   H2Y 7783   2.396   6.231  10.164  1.1994  1.0977 -0.8057
   83SAPS   C23 7784   3.040   6.494  10.303  0.9286 -0.0571  0.2803
   83SAPS   H3R 7785   3.112   6.462  10.382  1.4056  3.5136  1.4706
   83SAPS   H3S 7786   3.082   6.583  10.251 -1.2325  0.3597 -0.8579
   83SAPS   C24 7787   3.013   6.393  10.189  1.0238  0.4075  0.3916
   83SAPS   H4R 7788   2.961   6.466  10.123 -0.5258  0.8614  2.0390
   83SAPS   H4S 7789   2.948   6.307  10.217  0.6240  0.7049  0.3805
   83SAPS   C25 7790   3.145   6.345  10.140 -0.2328  0.3328  1.1215
   83SAPS   H5R 7791   3.213   6.289  10.206  0.5994 -0.2942 -0.2281
   83SAPS   C26 7792   3.187   6.362  10.013 -0.4537  0.0990  0.0129
   83SAPS   H6R 7793   3.285   6.318   9.995 -0.6722 -0.7089  0.7260
   83SAPS   C27 7794   3.113   6.429   9.896 -0.1319 -0.2844  0.2146
   83SAPS   H7R 7795   3.082   6.529   9.932  1.8977 -0.2495  2.0448
   83SAPS   H7S 7796   3.029   6.358   9.876 -0.5040  0.4781 -0.9952
   83SAPS   C28 7797   3.201   6.420   9.768  0.1509  0.1187  0.0760
   83SAPS   H8R 7798   3.306   6.445   9.789  0.3633 -1.9980  1.9176
   83SAPS   C29 7799   3.167   6.375   9.642 -0.3352  0.0956 -0.3157
   83SAPS   H9R 7800   3.248   6.369   9.568 -0.2337  1.4804 -0.3362
   83SAPS  C210 7801   3.033   6.325   9.604 -0.2982 -0.1457 -0.8865
   83SAPS  H10R 7802   2.989   6.404   9.540  1.8774  1.0726 -0.9907
   83SAPS  H10S 7803   2.960   6.314   9.688  1.4929  0.9464  0.9124
   83SAPS  C211 7804   3.040   6.191   9.540 -0.5534 -0.3603 -0.0951
   83SAPS  H11R 7805   3.074   6.111   9.607 -0.6416 -0.6977 -0.4523
   83SAPS  C212 7806   3.002   6.163   9.419 -0.5011  0.6268  0.3792
   83SAPS  H12R 7807   2.995   6.058   9.388 -3.7684  1.8784 -4.2699
   83SAPS  C213 7808   2.942   6.252   9.314  0.1478 -0.0471  0.1743
   83SAPS  H13R 7809   2.928   6.357   9.350 -0.4125 -0.3632  0.9055
   83SAPS  H13S 7810   2.836   6.229   9.289 -0.0110 -1.7019  2.1294
   83SAPS  C214 7811   3.022   6.252   9.182 -0.3773 -0.0246  0.4328
   83SAPS  H14R 7812   3.088   6.169   9.154 -1.5936 -0.5027 -1.1376
   83SAPS  C215 7813   3.003   6.353   9.092  1.1818 -0.5741  0.0590
   83SAPS  H15R 7814   3.062   6.356   8.999  1.3952  2.9283  0.1763
   83SAPS  C216 7815   2.900   6.466   9.103 -0.2602 -0.2051  0.1664
   83SAPS  H16R 7816   2.938   6.549   9.167  0.0684 -1.0855  1.1347
   83SAPS  H16S 7817   2.802   6.430   9.140 -0.8634 -0.7011 -1.8401
   83SAPS  C217 7818   2.870   6.533   8.965 -0.7427 -0.3394 -0.6180
   83SAPS  H17R 7819   2.775   6.589   8.972 -1.6158 -1.7630 -0.5876
   83SAPS  H17S 7820   2.844   6.455   8.891 -0.9746 -1.5103  0.6467
   83SAPS  C218 7821   2.990   6.625   8.919  0.4467  0.1622 -0.7847
   83SAPS  H18R 7822   3.079   6.561   8.901  0.7596  0.6548 -1.0010
   83SAPS  H18S 7823   3.018   6.684   9.009  0.7528 -0.3977 -0.5085
   83SAPS  C219 7824   2.949   6.706   8.792 -0.8818  0.3148  0.2711
   83SAPS  H19R 7825   3.047   6.734   8.749  0.6841 -1.2777  2.5788
   83SAPS  H19S 7826   2.893   6.795   8.829 -1.1951  0.9195 -1.5577
   83SAPS  C220 7827   2.857   6.648   8.684 -0.1997 -0.5759 -0.4300
   83SAPS  H20R 7828   2.758   6.628   8.729  0.7763 -0.5711  1.8746
   83SAPS  H20S 7829   2.904   6.559   8.638  1.1415 -0.2416  0.2446
   83SAPS  H20T 7830   2.842   6.722   8.602  0.2956 -0.7868 -0.7191
   83SAPS   C33 7831   2.446   6.024  10.167  0.9486  0.7455  0.0320
   83SAPS   H3X 7832   2.353   5.981  10.211  2.1528 -0.0110  1.9871
   83SAPS   H3Y 7833   2.534   5.968  10.206  2.0646  1.6957 -1.0518
   83SAPS   C34 7834   2.443   6.007  10.010  0.3158 -0.5328 -0.5782
   83SAPS   H4X 7835   2.526   6.070   9.969 -0.6930  0.4605 -1.1599
   83SAPS   H4Y 7836   2.343   6.034   9.970 -0.0453 -1.2542 -0.1732
   83SAPS   C35 7837   2.470   5.861   9.972 -0.4325  0.3816  0.0640
   83SAPS   H5X 7838   2.388   5.792  10.000  0.5107 -1.3089 -1.1485
   83SAPS   H5Y 7839   2.551   5.825  10.040 -2.1567 -0.4584  1.7455
   83SAPS   C36 7840   2.508   5.833   9.823  0.2267  0.6569  0.1143
   83SAPS   H6X 7841   2.506   5.724   9.802  0.3975  0.4551  1.0971
   83SAPS   H6Y 7842   2.606   5.883   9.811  0.7983 -0.2387  0.9295
   83SAPS   C37 7843   2.406   5.893   9.727 -0.2963  0.5810 -0.4609
   83SAPS   H7X 7844   2.397   6.004   9.721  3.0079  0.9032 -2.2792
   83SAPS   H7Y 7845   2.305   5.855   9.753  0.7285 -1.6014  0.6594
   83SAPS   C38 7846   2.410   5.860   9.575 -0.2996 -0.5647  0.3008
   83SAPS   H8X 7847   2.418   5.749   9.579 -0.8031 -0.8011 -2.8870
   83SAPS   H8Y 7848   2.501   5.909   9.533 -1.4324  1.3970  0.0380
   83SAPS   C39 7849   2.289   5.893   9.498  0.2598  0.3276 -0.5176
   83SAPS   H9X 7850   2.265   6.001   9.487  0.7310  0.3918 -0.9739
   83SAPS   H9Y 7851   2.193   5.848   9.532  0.0506  0.8703 -0.3769
   83SAPS  C310 7852   2.289   5.838   9.351  0.1684 -0.1991 -0.6662
   83SAPS  H10X 7853   2.286   5.727   9.349 -0.2620 -0.2544  1.2999
   83SAPS  H10Y 7854   2.392   5.858   9.315  0.5787 -1.4671 -0.2707
   83SAPS  C311 7855   2.183   5.901   9.265 -0.7794  0.2508 -0.0244
   83SAPS  H11X 7856   2.202   6.010   9.255 -0.6215  0.3677  1.3089
   83SAPS  H11Y 7857   2.087   5.884   9.319  0.5002 -3.7191  1.2886
   83SAPS  C312 7858   2.164   5.840   9.129  0.2463 -0.4053 -0.4445
   83SAPS  H12X 7859   2.070   5.859   9.073  0.3043 -3.1571 -1.6234
   83SAPS  H12Y 7860   2.157   5.730   9.139  1.9480 -0.3980  1.4207
   83SAPS  C313 7861   2.271   5.870   9.028  0.2115  0.4002  0.4046
   83SAPS  H13X 7862   2.370   5.873   9.079 -0.6123 -1.1503  2.2434
   83SAPS  H13Y 7863   2.261   5.976   8.997  0.6831  0.4110  0.2725
   83SAPS  C314 7864   2.292   5.767   8.920 -1.0213  0.0126  0.4168
   83SAPS  H14X 7865   2.216   5.788   8.841 -0.0485 -0.3181 -0.6389
   83SAPS  H14Y 7866   2.257   5.668   8.954 -1.0205 -0.0353  0.2806
   83SAPS  C315 7867   2.438   5.754   8.873  0.4082 -0.0889  0.5628
   83SAPS  H15X 7868   2.503   5.730   8.959 -0.2046 -1.2311  0.7282
   83SAPS  H15Y 7869   2.475   5.849   8.829 -1.4430  0.7320  0.6835
   83SAPS  C316 7870   2.463   5.648   8.761  0.8659 -0.3629 -0.2848
   83SAPS  H16X 7871   2.441   5.548   8.804 -0.1429 -0.8190 -1.7804
   83SAPS  H16Y 7872   2.567   5.653   8.722  0.9490 -0.8430 -0.1240
   83SAPS  C317 7873   2.366   5.674   8.648  0.0845  0.1473  0.1046
   83SAPS  H17X 7874   2.395   5.776   8.617  3.5259  0.0788  2.4550
   83SAPS  H17Y 7875   2.259   5.675   8.676 -0.6717  1.8395 -2.4872
   83SAPS  C318 7876   2.393   5.567   8.537  1.3116  0.0568  0.2301
   83SAPS  H18X 7877   2.330   5.477   8.557 -0.9083  1.6985  1.0595
   83SAPS  H18Y 7878   2.501   5.542   8.538  1.8389  2.0973 -0.0587
   83SAPS  H18Z 7879   2.383   5.600   8.432  3.3139 -1.8297 -0.6113
   84SAPS     N 7880   3.451   0.043  11.046 -0.0817  0.0604  0.8578
   84SAPS   HN1 7881   3.476  -0.054  11.017 -1.6281 -0.6184  1.7101
   84SAPS   HN2 7882   3.428   0.040  11.147 -1.6124 -1.9065  0.4945
   84SAPS   HN3 7883   3.377   0.081  10.983  1.0387  1.3359  0.2606
   84SAPS   C12 7884   3.574   0.125  11.033  0.5338 -0.3557 -0.1064
   84SAPS  H12A 7885   3.594   0.140  10.928  3.4420  2.7538  0.7171
   84SAPS   C13 7886   3.560   0.265  11.087 -0.0467  0.2736 -0.1468
   84SAPS  O13A 7887   3.454   0.300  11.151  0.0269  0.2300 -0.1763
   84SAPS  O13B 7888   3.663   0.340  11.086  0.2601 -0.2267 -0.6747
   84SAPS   C11 7889   3.690   0.043  11.084  0.5414  0.6109  0.2233
   84SAPS  H11A 7890   3.685   0.019  11.192 -0.7496 -1.7235 -0.2866
   84SAPS  H11B 7891   3.788   0.095  11.077  1.1063 -0.5926 -1.3704
   84SAPS     P 7892   3.831  -0.145  10.942  0.5312 -0.2006 -0.1850
   84SAPS   O13 7893   3.949  -0.105  11.028  0.5524 -0.4735 -0.3929
   84SAPS   O14 7894   3.814  -0.290  10.912 -0.0429 -0.1976 -0.6397
   84SAPS   O12 7895   3.700  -0.086  11.008 -0.0984  0.1547 -0.4172
   84SAPS   O11 7896   3.841  -0.070  10.807  0.5947 -0.1603  0.2985
   84SAPS    C1 7897   3.723  -0.041  10.720 -0.4217 -0.2902  0.0256
   84SAPS    HA 7898   3.629  -0.069  10.771 -0.6132  1.0143  0.4362
   84SAPS    HB 7899   3.719   0.066  10.688 -1.9285 -0.5819 -0.8723
   84SAPS    C2 7900   3.731  -0.117  10.583 -0.7109  0.0092  0.9042
   84SAPS    HS 7901   3.647  -0.086  10.516  1.0823  0.2772 -1.3675
   84SAPS   O21 7902   3.727  -0.255  10.598 -0.4652 -0.1205  0.4226
   84SAPS   C21 7903   3.611  -0.311  10.619  0.8463 -0.5425 -0.1875
   84SAPS   O22 7904   3.505  -0.246  10.617  0.6688  0.4928  0.5636
   84SAPS   C22 7905   3.632  -0.460  10.658  0.5301 -0.4571 -0.2206
   84SAPS   H2R 7906   3.713  -0.449  10.733  1.7790  0.5245 -1.6214
   84SAPS   H2S 7907   3.539  -0.496  10.705 -0.6815 -1.0517 -2.8737
   84SAPS    C3 7908   3.860  -0.075  10.506 -0.7380 -0.1539 -0.0648
   84SAPS    HX 7909   3.940  -0.123  10.566 -0.3822 -0.1960 -0.5706
   84SAPS    HY 7910   3.876   0.035  10.504 -0.9051 -0.1215 -2.0367
   84SAPS   O31 7911   3.850  -0.106  10.364  0.6930 -0.5820  0.1410
   84SAPS   C31 7912   3.900  -0.223  10.329  0.1058  0.0983  0.7127
   84SAPS   O32 7913   3.948  -0.304  10.411  0.6003 -0.1224  0.3511
   84SAPS   C32 7914   3.894  -0.242  10.177  0.4020  0.2089  0.8453
   84SAPS   H2X 7915   3.991  -0.208  10.136  0.4172  0.2612  0.9235
   84SAPS   H2Y 7916   3.809  -0.182  10.139  0.6198  0.5862  0.9487
   84SAPS   C23 7917   3.674  -0.543  10.538  0.0631  0.4626 -0.2052
   84SAPS   H3R 7918   3.737  -0.627  10.573 -1.7532 -0.2324  1.6031
   84SAPS   H3S 7919   3.730  -0.485  10.462 -0.4834 -0.5546 -1.4217
   84SAPS   C24 7920   3.564  -0.600  10.448  0.5276  0.0778 -0.2104
   84SAPS   H4R 7921   3.498  -0.674  10.499  1.3115 -0.2476  0.3482
   84SAPS   H4S 7922   3.626  -0.667  10.384  0.9311 -0.8967  1.1494
   84SAPS   C25 7923   3.500  -0.490  10.369  0.5354 -0.1183 -0.4399
   84SAPS   H5R 7924   3.469  -0.413  10.442  0.5731 -1.8847  1.5376
   84SAPS   C26 7925   3.493  -0.476  10.239 -1.1331  0.2281  0.4487
   84SAPS   H6R 7926   3.432  -0.393  10.199 -1.2421 -0.3342 -0.5804
   84SAPS   C27 7927   3.541  -0.582  10.135 -0.2773 -0.7808 -0.4118
   84SAPS   H7R 7928   3.633  -0.625  10.181 -1.2766 -0.2109  2.2990
   84SAPS   H7S 7929   3.550  -0.532  10.036 -0.2479  0.3713  0.1564
   84SAPS   C28 7930   3.442  -0.691  10.116  0.2363  0.4429 -0.2384
   84SAPS   H8R 7931   3.391  -0.723  10.208  0.4808 -0.8707 -0.5429
   84SAPS   C29 7932   3.435  -0.771  10.008 -0.0707  1.2330  0.4585
   84SAPS   H9R 7933   3.362  -0.853  10.010  0.3851  0.8108  0.1097
   84SAPS  C210 7934   3.537  -0.759   9.896 -0.0975 -0.0229 -0.2554
   84SAPS  H10R 7935   3.639  -0.741   9.936  0.3825  1.3212 -2.0029
   84SAPS  H10S 7936   3.513  -0.668   9.837  2.5148  1.9238  1.4715
   84SAPS  C211 7937   3.557  -0.883   9.807  0.3018  0.2541  0.3979
   84SAPS  H11R 7938   3.636  -0.954   9.835 -1.2020 -1.4530  0.4954
   84SAPS  C212 7939   3.479  -0.904   9.694 -0.3947  0.2595 -0.3587
   84SAPS  H12R 7940   3.485  -1.001   9.644 -1.7720 -0.1419  0.1991
   84SAPS  C213 7941   3.372  -0.808   9.630  0.2218  0.1953 -0.2044
   84SAPS  H13R 7942   3.379  -0.705   9.671  2.6126 -0.7776  2.1166
   84SAPS  H13S 7943   3.270  -0.848   9.651  0.9364 -0.1570  3.1535
   84SAPS  C214 7944   3.397  -0.809   9.481  0.4500  0.5736  1.0939
   84SAPS  H14R 7945   3.483  -0.753   9.442  1.5949 -2.5935 -1.3793
   84SAPS  C215 7946   3.322  -0.893   9.400 -0.4243 -0.0168  0.5694
   84SAPS  H15R 7947   3.349  -0.892   9.293 -0.6474 -0.8356  0.5021
   84SAPS  C216 7948   3.211  -0.986   9.435  0.2143  0.0969 -0.1040
   84SAPS  H16R 7949   3.137  -0.921   9.487 -0.5864 -0.7475 -0.1716
   84SAPS  H16S 7950   3.242  -1.058   9.514 -2.0878 -0.4338  0.3872
   84SAPS  C217 7951   3.161  -1.053   9.310 -0.5756  0.8657  0.7321
   84SAPS  H17R 7952   3.093  -1.134   9.341  2.4071 -1.5450  1.4972
   84SAPS  H17S 7953   3.238  -1.107   9.251 -0.3690  0.8438  1.0186
   84SAPS  C218 7954   3.077  -0.970   9.216 -0.1433  0.9569  0.0479
   84SAPS  H18R 7955   3.135  -0.877   9.196  0.6826  0.5918  0.7203
   84SAPS  H18S 7956   2.983  -0.942   9.267  0.6513  1.6123  1.1757
   84SAPS  C219 7957   3.064  -1.028   9.076  0.3967  0.0646 -0.1861
   84SAPS  H19R 7958   3.013  -1.126   9.081  2.3445 -0.9705  0.2864
   84SAPS  H19S 7959   3.167  -1.042   9.038  1.0622  1.1571  1.1211
   84SAPS  C220 7960   2.999  -0.941   8.965 -0.7744 -0.3022  0.1580
   84SAPS  H20R 7961   3.080  -0.876   8.925 -2.4697  2.1018  0.3692
   84SAPS  H20S 7962   2.913  -0.876   8.995  0.0648  1.4486 -1.0514
   84SAPS  H20T 7963   2.974  -1.012   8.884 -0.9347 -1.3009  1.0480
   84SAPS   C33 7964   3.889  -0.393  10.150  0.1865 -0.0190  0.0544
   84SAPS   H3X 7965   3.806  -0.446  10.202  1.8544 -2.8061  0.0444
   84SAPS   H3Y 7966   3.974  -0.441  10.202 -1.4744 -1.2239  1.8310
   84SAPS   C34 7967   3.894  -0.440  10.007 -0.2745 -0.0830  0.2310
   84SAPS   H4X 7968   3.867  -0.547  10.002 -0.2673 -0.0933  0.3994
   84SAPS   H4Y 7969   3.993  -0.421   9.960 -0.8688  1.1696 -0.5803
   84SAPS   C35 7970   3.784  -0.370   9.924 -0.4235 -0.7367  0.8260
   84SAPS   H5X 7971   3.820  -0.266   9.905  0.9697 -1.5241 -1.2167
   84SAPS   H5Y 7972   3.686  -0.365   9.975 -1.6152 -2.2774 -1.1622
   84SAPS   C36 7973   3.762  -0.442   9.789 -0.0945  0.1865 -0.0037
   84SAPS   H6X 7974   3.737  -0.544   9.825  1.4726 -0.5133 -0.7677
   84SAPS   H6Y 7975   3.864  -0.440   9.744 -0.1322 -1.2510 -0.2052
   84SAPS   C37 7976   3.691  -0.361   9.685 -0.2220  0.2767  0.0239
   84SAPS   H7X 7977   3.742  -0.263   9.678  0.6234 -0.2456 -2.6047
   84SAPS   H7Y 7978   3.587  -0.350   9.722  0.0144  0.8192  0.5335
   84SAPS   C38 7979   3.688  -0.435   9.552  0.8431 -0.2771  0.4794
   84SAPS   H8X 7980   3.626  -0.527   9.563 -0.3338  0.6019  1.5016
   84SAPS   H8Y 7981   3.790  -0.470   9.523  1.7247  1.9956  0.6177
   84SAPS   C39 7982   3.627  -0.344   9.443  0.1631  0.3462 -0.0797
   84SAPS   H9X 7983   3.681  -0.249   9.426  0.4204  0.2691  0.2977
   84SAPS   H9Y 7984   3.521  -0.316   9.461  0.1930  1.6701 -1.6337
   84SAPS  C310 7985   3.612  -0.417   9.305  0.1244  0.4661 -0.3884
   84SAPS  H10X 7986   3.563  -0.514   9.330  0.4754 -0.4082 -2.8936
   84SAPS  H10Y 7987   3.711  -0.444   9.262  0.0469  1.1787 -1.0274
   84SAPS  C311 7988   3.537  -0.328   9.208  0.4079  1.0542  0.5223
   84SAPS  H11X 7989   3.606  -0.243   9.190  0.7150  0.4191 -1.6042
   84SAPS  H11Y 7990   3.449  -0.280   9.256  0.4944  2.3657 -0.5757
   84SAPS  C312 7991   3.492  -0.402   9.082  0.1050  0.5246  0.2701
   84SAPS  H12X 7992   3.589  -0.444   9.045 -0.2334 -0.0212 -0.0189
   84SAPS  H12Y 7993   3.456  -0.333   9.002  1.5661  0.5072 -0.4468
   84SAPS  C313 7994   3.387  -0.509   9.092  0.6605 -0.2257 -0.3851
   84SAPS  H13X 7995   3.292  -0.464   9.129 -0.8445 -1.4050 -2.6099
   84SAPS  H13Y 7996   3.410  -0.597   9.155  2.3180 -0.8739 -1.8124
   84SAPS  C314 7997   3.358  -0.578   8.959  0.1976  0.6450 -1.0246
   84SAPS  H14X 7998   3.297  -0.506   8.902  0.3867 -0.1564 -2.2862
   84SAPS  H14Y 7999   3.298  -0.670   8.981 -0.3231  0.2783 -3.6694
   84SAPS  C315 8000   3.474  -0.634   8.883 -0.8023  1.0693  0.4240
   84SAPS  H15X 8001   3.553  -0.688   8.940  1.1438  3.1723 -0.1257
   84SAPS  H15Y 8002   3.529  -0.545   8.844 -0.5837  0.8613  0.2564
   84SAPS  C316 8003   3.417  -0.704   8.752  0.0014 -0.2275 -0.3754
   84SAPS  H16X 8004   3.489  -0.682   8.671 -1.0961  0.3175 -1.2258
   84SAPS  H16Y 8005   3.321  -0.654   8.727  1.3119  1.8505 -1.5042
   84SAPS  C317 8006   3.396  -0.854   8.764  0.1854 -0.5980 -0.4236
   84SAPS  H17X 8007   3.329  -0.875   8.850 -1.0420 -0.8959 -1.4368
   84SAPS  H17Y 8008   3.495  -0.903   8.779  0.7208 -0.2620 -2.5972
   84SAPS  C318 8009   3.322  -0.909   8.644  0.5191  0.2684 -0.4591
   84SAPS  H18X 8010   3.311  -1.020   8.649  2.5197 -0.0021 -1.0937
   84SAPS  H18Y 8011   3.373  -0.889   8.547 -0.9205 -1.1066 -1.5722
   84SAPS  H18Z 8012   3.222  -0.861   8.640  0.9431  1.2813  0.6303
   85SAPS     N 8013   0.731   1.833  11.054 -0.1430  0.8331  0.4990
   85SAPS   HN1 8014   0.695   1.809  11.149  2.0310  1.7692  1.6394
   85SAPS   HN2 8015   0.663   1.900  11.012 -1.5113 -1.9040 -2.0214
   85SAPS   HN3 8016   0.719   1.745  11.000  0.2690 -0.5029  2.4758
   85SAPS   C12 8017   0.865   1.896  11.060  0.6766  0.0498  0.3507
   85SAPS  H12A 8018   0.902   1.915  10.960 -0.3025 -1.0919 -0.2590
   85SAPS   C13 8019   0.875   2.026  11.131  0.3927 -0.2765 -0.0931
   85SAPS  O13A 8020   0.785   2.054  11.216 -0.1304 -0.1162 -0.1437
   85SAPS  O13B 8021   0.984   2.089  11.119 -0.4444 -0.2966  0.1146
   85SAPS   C11 8022   0.964   1.802  11.129 -0.4717  1.1849  0.0001
   85SAPS  H11A 8023   0.958   1.790  11.239 -0.2615  1.5322  0.0512
   85SAPS  H11B 8024   1.066   1.842  11.111  0.6684 -1.5810 -0.1871
   85SAPS     P 8025   1.070   1.614  10.973 -0.3077 -0.1442  0.1407
   85SAPS   O13 8026   1.193   1.618  11.047 -0.8834 -0.1634  0.6560
   85SAPS   O14 8027   1.021   1.492  10.907  0.3583 -0.4318 -0.0900
   85SAPS   O12 8028   0.958   1.667  11.067  0.2157  0.2762 -0.1508
   85SAPS   O11 8029   1.078   1.732  10.871  0.0139  0.2344  0.3859
   85SAPS    C1 8030   1.018   1.724  10.741 -0.9324  0.6037 -0.3215
   85SAPS    HA 8031   0.921   1.669  10.743 -0.8024  0.3945  1.1308
   85SAPS    HB 8032   1.013   1.822  10.689  1.4737  0.1352 -1.6129
   85SAPS    C2 8033   1.105   1.637  10.638 -0.5107 -0.5987  0.1068
   85SAPS    HS 8034   1.129   1.537  10.678  2.7580  0.2328  0.4449
   85SAPS   O21 8035   1.216   1.721  10.606 -0.3552 -0.1811 -0.1495
   85SAPS   C21 8036   1.328   1.667  10.572 -0.2640  0.0595  0.2440
   85SAPS   O22 8037   1.351   1.550  10.554 -0.5339  0.3726 -0.3053
   85SAPS   C22 8038   1.441   1.760  10.582  0.4814  0.1329  0.0362
   85SAPS   H2R 8039   1.424   1.865  10.550  2.8301  0.8962  1.0304
   85SAPS   H2S 8040   1.466   1.751  10.690  0.3629 -0.1948  0.0358
   85SAPS    C3 8041   1.016   1.620  10.507  0.0977 -0.3114  0.1048
   85SAPS    HX 8042   1.004   1.722  10.465  0.2742 -0.0373  0.7123
   85SAPS    HY 8043   0.915   1.580  10.526 -0.3391 -1.5458 -3.7831
   85SAPS   O31 8044   1.082   1.536  10.407  0.3556 -0.0149 -0.2789
   85SAPS   C31 8045   1.108   1.413  10.442 -0.2524 -0.2528  0.0300
   85SAPS   O32 8046   1.084   1.356  10.547 -0.2759  0.4284 -0.6541
   85SAPS   C32 8047   1.189   1.348  10.328 -0.7667 -0.2982 -0.7123
   85SAPS   H2X 8048   1.255   1.285  10.392 -2.3794  0.3390  1.7565
   85SAPS   H2Y 8049   1.246   1.430  10.280 -1.9500  0.4188 -0.9353
   85SAPS   C23 8050   1.566   1.723  10.489 -0.7871  0.2552 -0.1948
   85SAPS   H3R 8051   1.531   1.704  10.386  1.1978 -0.3707 -0.8009
   85SAPS   H3S 8052   1.590   1.621  10.526  1.2856  0.1110 -1.7897
   85SAPS   C24 8053   1.697   1.799  10.494  0.4049 -0.2982  0.6778
   85SAPS   H4R 8054   1.775   1.753  10.429  2.2350  3.2172  0.1607
   85SAPS   H4S 8055   1.728   1.789  10.600 -0.3721 -1.3966  0.8267
   85SAPS   C25 8056   1.661   1.939  10.442 -0.3488  0.1119 -0.3694
   85SAPS   H5R 8057   1.585   1.993  10.500 -2.2278  0.2869 -2.8439
   85SAPS   C26 8058   1.702   2.007  10.331 -0.1627 -0.2481  0.1299
   85SAPS   H6R 8059   1.662   2.106  10.304 -0.1768 -1.0398 -3.1047
   85SAPS   C27 8060   1.805   1.945  10.238 -0.2340  0.3245  0.2161
   85SAPS   H7R 8061   1.750   1.885  10.162  0.2412  0.5836 -0.3359
   85SAPS   H7S 8062   1.862   1.868  10.293  0.1044  0.6067  0.2624
   85SAPS   C28 8063   1.891   2.050  10.168  0.1428 -0.4325 -0.3304
   85SAPS   H8R 8064   1.957   2.114  10.229  0.2699 -0.5254 -0.3692
   85SAPS   C29 8065   1.884   2.087  10.039 -1.0402 -0.6385 -0.5687
   85SAPS   H9R 8066   1.955   2.168  10.018  1.8071 -2.6049  0.7084
   85SAPS  C210 8067   1.805   2.025   9.926  0.0755 -0.2337  0.0771
   85SAPS  H10R 8068   1.741   2.105   9.883  0.1037 -0.2255  0.0508
   85SAPS  H10S 8069   1.736   1.947   9.964 -1.8602  1.1684 -0.4065
   85SAPS  C211 8070   1.900   1.955   9.827 -0.2028 -0.8057 -0.2475
   85SAPS  H11R 8071   2.007   1.955   9.852 -0.1835  0.5155 -0.2726
   85SAPS  C212 8072   1.863   1.917   9.703 -0.3199  0.5152 -0.1203
   85SAPS  H12R 8073   1.944   1.869   9.646  1.0046  3.0386 -0.4754
   85SAPS  C213 8074   1.731   1.904   9.638  0.3697  0.0577  0.0117
   85SAPS  H13R 8075   1.721   1.969   9.548 -0.2404 -0.5003 -0.3353
   85SAPS  H13S 8076   1.643   1.937   9.698 -1.2062  0.1572 -2.2092
   85SAPS  C214 8077   1.705   1.765   9.597  0.4401  0.0478 -0.1268
   85SAPS  H14R 8078   1.755   1.677   9.640  1.0884  1.1969  1.5650
   85SAPS  C215 8079   1.630   1.736   9.485  0.9811  0.8432 -0.0432
   85SAPS  H15R 8080   1.617   1.627   9.473 -0.3494  1.0294 -0.3688
   85SAPS  C216 8081   1.559   1.821   9.386  0.6546 -0.1891 -0.7105
   85SAPS  H16R 8082   1.615   1.915   9.366  1.8079 -0.4015  1.2215
   85SAPS  H16S 8083   1.472   1.853   9.447  2.1641  0.4068  1.2757
   85SAPS  C217 8084   1.515   1.744   9.259 -0.0081 -0.5238  0.0715
   85SAPS  H17R 8085   1.448   1.812   9.202 -1.6583 -2.2811 -0.1716
   85SAPS  H17S 8086   1.466   1.646   9.270 -0.2908 -0.7418 -2.4416
   85SAPS  C218 8087   1.635   1.715   9.169  0.1087 -0.1781  0.1965
   85SAPS  H18R 8088   1.696   1.640   9.224  0.1875 -0.3044 -0.0642
   85SAPS  H18S 8089   1.686   1.813   9.171 -1.5101  0.6823  0.8400
   85SAPS  C219 8090   1.609   1.675   9.022  0.1714  0.9270  0.4436
   85SAPS  H19R 8091   1.512   1.622   9.017 -0.7870  2.6892 -2.9801
   85SAPS  H19S 8092   1.687   1.606   8.984  0.2139  0.3475  1.5585
   85SAPS  C220 8093   1.602   1.791   8.926  0.1200 -0.1164 -0.6161
   85SAPS  H20R 8094   1.570   1.884   8.978 -1.4904 -0.2363 -1.3513
   85SAPS  H20S 8095   1.530   1.767   8.845  0.6959 -1.3022 -0.7962
   85SAPS  H20T 8096   1.705   1.803   8.885 -0.0342  1.5841 -0.5961
   85SAPS   C33 8097   1.109   1.277  10.219 -0.1927  0.4355 -0.2033
   85SAPS   H3X 8098   1.028   1.346  10.187  0.1018  0.9120  0.0620
   85SAPS   H3Y 8099   1.065   1.182  10.256  0.3438  0.8777  1.6504
   85SAPS   C34 8100   1.183   1.237  10.088 -0.1590 -0.5027 -0.0763
   85SAPS   H4X 8101   1.261   1.158  10.093  1.9238  1.3847 -0.6057
   85SAPS   H4Y 8102   1.243   1.319  10.041  2.4731 -1.3506  1.5638
   85SAPS   C35 8103   1.107   1.166   9.974  0.1085  0.5765  0.3518
   85SAPS   H5X 8104   1.037   1.086  10.008 -1.4085  0.9155 -1.7749
   85SAPS   H5Y 8105   1.178   1.129   9.897  0.7411  0.8689  0.7825
   85SAPS   C36 8106   1.011   1.267   9.904 -0.3866 -0.2302 -1.0089
   85SAPS   H6X 8107   1.072   1.338   9.845 -0.1386  0.0784 -0.3838
   85SAPS   H6Y 8108   0.958   1.333   9.976 -1.7765 -0.7398 -1.5143
   85SAPS   C37 8109   0.891   1.197   9.823 -0.0761 -0.3373  0.3821
   85SAPS   H7X 8110   0.836   1.280   9.775  3.1614  1.6087 -0.2590
   85SAPS   H7Y 8111   0.824   1.130   9.881 -0.5846 -0.0223  0.1598
   85SAPS   C38 8112   0.956   1.119   9.706 -0.6975  0.7401 -0.2391
   85SAPS   H8X 8113   1.006   1.030   9.750  3.5370  2.9053 -0.1701
   85SAPS   H8Y 8114   1.041   1.178   9.667  0.1080 -0.6275 -0.5986
   85SAPS   C39 8115   0.878   1.069   9.591 -0.8890 -0.8065  0.1675
   85SAPS   H9X 8116   0.819   1.152   9.547  1.7676  1.2841  0.3252
   85SAPS   H9Y 8117   0.806   0.993   9.629 -1.3339 -0.7353 -0.5092
   85SAPS  C310 8118   0.964   1.015   9.478 -0.1755  0.3667  0.2678
   85SAPS  H10X 8119   1.040   0.941   9.512 -1.1638 -0.3912  0.8749
   85SAPS  H10Y 8120   1.027   1.097   9.438  0.9959 -0.4219  0.4493
   85SAPS  C311 8121   0.882   0.952   9.371  0.0906  0.1628 -0.0263
   85SAPS  H11X 8122   0.791   1.005   9.338 -0.1233 -1.5187 -2.4025
   85SAPS  H11Y 8123   0.840   0.858   9.413 -0.8706 -0.0556 -1.4251
   85SAPS  C312 8124   0.962   0.919   9.238 -0.0377 -0.5064 -0.6744
   85SAPS  H12X 8125   1.055   0.862   9.259 -0.3347 -0.2576  1.5044
   85SAPS  H12Y 8126   0.988   1.022   9.205 -2.3735 -0.0918 -1.4285
   85SAPS  C313 8127   0.876   0.846   9.140 -0.2580  0.0293 -0.1173
   85SAPS  H13X 8128   0.776   0.895   9.132 -0.4615 -0.5046 -1.0893
   85SAPS  H13Y 8129   0.855   0.744   9.181 -1.9638  0.3463 -0.1045
   85SAPS  C314 8130   0.936   0.845   9.002  0.0875  0.3406  0.3675
   85SAPS  H14X 8131   1.040   0.809   9.009 -0.1315 -0.5602 -0.6318
   85SAPS  H14Y 8132   0.947   0.949   8.965  2.1963 -0.0440 -0.2156
   85SAPS  C315 8133   0.866   0.747   8.910  0.2106 -0.3541 -0.0606
   85SAPS  H15X 8134   0.756   0.762   8.913  0.3066  0.1354  1.4521
   85SAPS  H15Y 8135   0.873   0.645   8.952 -0.4859  0.7917  3.0692
   85SAPS  C316 8136   0.907   0.766   8.758  0.4437 -0.2425  0.4306
   85SAPS  H16X 8137   1.015   0.789   8.754  0.5938 -0.4512  2.3731
   85SAPS  H16Y 8138   0.857   0.862   8.732 -0.1048 -0.8490 -0.8137
   85SAPS  C317 8139   0.878   0.651   8.669 -0.0936 -0.2817  0.0018
   85SAPS  H17X 8140   0.946   0.564   8.680 -0.6265 -0.5788  1.0703
   85SAPS  H17Y 8141   0.902   0.690   8.568  2.1469  1.0419  0.9487
   85SAPS  C318 8142   0.731   0.604   8.675  0.9887  0.1825 -0.6344
   85SAPS  H18X 8143   0.665   0.693   8.683  0.1837 -0.5836  3.8001
   85SAPS  H18Y 8144   0.720   0.545   8.768  1.4245  0.6809 -0.2655
   85SAPS  H18Z 8145   0.711   0.538   8.587 -0.0778  0.3922 -0.5641
   86SAPS     N 8146   3.947   1.472  10.723 -0.3532 -0.1882 -0.0459
   86SAPS   HN1 8147   3.949   1.373  10.689  0.0475 -0.8004  1.6237
   86SAPS   HN2 8148   3.852   1.496  10.757 -0.5769 -1.0284 -0.0384
   86SAPS   HN3 8149   3.978   1.542  10.653  0.0432  1.6760  1.9008
   86SAPS   C12 8150   4.035   1.483  10.851  0.0415  0.2205  0.3303
   86SAPS  H12A 8151   4.043   1.585  10.887 -1.4173  0.0021  1.3448
   86SAPS   C13 8152   3.973   1.387  10.962 -0.9851 -0.4660  0.3567
   86SAPS  O13A 8153   3.874   1.313  10.933  0.2905  0.3686 -0.2357
   86SAPS  O13B 8154   4.014   1.406  11.083 -0.2100 -0.3401  0.7411
   86SAPS   C11 8155   4.181   1.428  10.816  0.2987 -0.1829  0.1658
   86SAPS  H11A 8156   4.171   1.318  10.811 -0.1332 -0.2071  1.2514
   86SAPS  H11B 8157   4.242   1.452  10.907  0.0858 -0.7075  0.4471
   86SAPS     P 8158   4.389   1.497  10.684  0.3133 -0.2958  0.0969
   86SAPS   O13 8159   4.416   1.563  10.553  0.2215  0.2817 -0.6040
   86SAPS   O14 8160   4.443   1.555  10.805  0.0206 -0.2558  0.1189
   86SAPS   O12 8161   4.230   1.475  10.694  0.1764  0.2465 -0.0572
   86SAPS   O11 8162   4.435   1.347  10.673 -0.1170  0.2432 -0.8148
   86SAPS    C1 8163   4.370   1.247  10.586 -0.5254  0.2271 -0.5775
   86SAPS    HA 8164   4.343   1.155  10.643  3.2820 -0.1868  0.8079
   86SAPS    HB 8165   4.283   1.285  10.528  0.0574 -0.6949 -2.1229
   86SAPS    C2 8166   4.470   1.177  10.491 -0.8984 -0.1488 -0.1370
   86SAPS    HS 8167   4.567   1.147  10.537 -0.1453 -0.9909 -2.1539
   86SAPS   O21 8168   4.485   1.268  10.384  0.2343  0.1471  0.2288
   86SAPS   C21 8169   4.596   1.335  10.362 -0.0014  1.0028  0.0822
   86SAPS   O22 8170   4.699   1.316  10.421 -0.3049  0.7675  0.0132
   86SAPS   C22 8171   4.579   1.428  10.242  0.0136  0.4519  0.3179
   86SAPS   H2R 8172   4.473   1.459  10.238 -0.6634 -1.7658 -2.4119
   86SAPS   H2S 8173   4.648   1.513  10.264 -0.1333  0.4537  0.7780
   86SAPS    C3 8174   4.421   1.050  10.435  0.1956  0.2656  0.3136
   86SAPS    HX 8175   4.320   1.080  10.400  0.2718 -0.7074 -0.7932
   86SAPS    HY 8176   4.414   0.973  10.514  0.6429 -2.1757 -1.8980
   86SAPS   O31 8177   4.492   1.002  10.327 -0.6093  0.4503  0.2542
   86SAPS   C31 8178   4.427   0.921  10.244  0.2755 -1.1179  0.1581
   86SAPS   O32 8179   4.308   0.894  10.251 -0.4690 -0.0105 -0.4220
   86SAPS   C32 8180   4.518   0.888  10.121  0.1957 -0.3400  0.3894
   86SAPS   H2X 8181   4.542   0.780  10.131  0.4428 -0.0758  3.6186
   86SAPS   H2Y 8182   4.597   0.965  10.116 -1.7750  1.7033 -1.5218
   86SAPS   C23 8183   4.604   1.368  10.102 -0.4480 -0.0396 -0.4032
   86SAPS   H3R 8184   4.708   1.329  10.093 -0.8540 -0.8939 -1.8921
   86SAPS   H3S 8185   4.598   1.461  10.042  0.4553  1.3649  1.5767
   86SAPS   C24 8186   4.505   1.261  10.064 -0.7066  0.2212  0.4039
   86SAPS   H4R 8187   4.505   1.192  10.151  0.1498 -1.4021 -0.8304
   86SAPS   H4S 8188   4.534   1.198   9.977 -2.2475  0.4888 -0.3429
   86SAPS   C25 8189   4.368   1.320  10.037  0.7288  0.1893  0.5620
   86SAPS   H5R 8190   4.303   1.340  10.123  0.1374 -0.5685  0.3096
   86SAPS   C26 8191   4.306   1.314   9.914 -0.1451 -0.0434  0.4172
   86SAPS   H6R 8192   4.203   1.353   9.915 -0.3828 -0.6560  1.8718
   86SAPS   C27 8193   4.369   1.261   9.791  0.1070  0.1444  0.4913
   86SAPS   H7R 8194   4.293   1.216   9.724  0.5056 -1.1286  0.8606
   86SAPS   H7S 8195   4.421   1.167   9.821 -0.8853 -0.1132  1.5168
   86SAPS   C28 8196   4.466   1.347   9.719 -0.5679 -0.4979  0.3963
   86SAPS   H8R 8197   4.535   1.420   9.763 -1.2415  0.9573 -0.8798
   86SAPS   C29 8198   4.477   1.341   9.586  0.0114  0.0012 -0.1180
   86SAPS   H9R 8199   4.549   1.410   9.538 -0.0115 -0.9188 -1.5494
   86SAPS  C210 8200   4.405   1.256   9.483  0.7868 -1.0188 -0.0063
   86SAPS  H10R 8201   4.310   1.211   9.520  1.4173 -3.2202 -0.8501
   86SAPS  H10S 8202   4.470   1.169   9.460 -0.1402 -1.4514 -1.1080
   86SAPS  C211 8203   4.379   1.329   9.358  0.3373 -0.1925 -0.2492
   86SAPS  H11R 8204   4.450   1.411   9.341 -1.6112  1.7004  0.3967
   86SAPS  C212 8205   4.269   1.324   9.273 -0.5983  0.7173  0.2091
   86SAPS  H12R 8206   4.261   1.376   9.176 -0.0705 -1.3032 -0.9737
   86SAPS  C213 8207   4.152   1.228   9.292  0.2723 -1.4974  0.5736
   86SAPS  H13R 8208   4.164   1.173   9.388 -0.3647 -2.9957 -0.1555
   86SAPS  H13S 8209   4.146   1.146   9.217 -1.9722 -0.8141 -0.0755
   86SAPS  C214 8210   4.012   1.293   9.305  0.2217  0.3053  0.2203
   86SAPS  H14R 8211   3.946   1.293   9.217  0.2111  0.3269  0.2283
   86SAPS  C215 8212   3.953   1.316   9.424  0.1461 -0.5482 -0.0296
   86SAPS  H15R 8213   3.852   1.359   9.432  0.1975 -0.4976  0.3754
   86SAPS  C216 8214   4.003   1.299   9.566 -0.3926 -0.8600 -0.3405
   86SAPS  H16R 8215   4.114   1.310   9.557 -0.4441  0.5552  0.5642
   86SAPS  H16S 8216   3.980   1.197   9.604  1.6132 -1.2421  0.0002
   86SAPS  C217 8217   3.972   1.409   9.669 -0.1258  0.5800  0.0098
   86SAPS  H17R 8218   4.035   1.390   9.759 -0.4259 -1.2857 -0.1268
   86SAPS  H17S 8219   3.868   1.419   9.704  0.7498 -0.6744  3.3577
   86SAPS  C218 8220   4.012   1.550   9.626 -0.4961  0.1912  0.6098
   86SAPS  H18R 8221   3.961   1.568   9.529  1.1452 -0.8331 -0.5084
   86SAPS  H18S 8222   4.123   1.552   9.614 -0.2514 -0.4841  2.4598
   86SAPS  C219 8223   3.957   1.651   9.724 -0.4110 -0.2286  0.9399
   86SAPS  H19R 8224   3.849   1.629   9.726 -0.3936 -0.4049  0.1821
   86SAPS  H19S 8225   3.978   1.756   9.694 -0.1079 -0.3062  0.8704
   86SAPS  C220 8226   4.013   1.632   9.866  0.2316  0.3874  0.4730
   86SAPS  H20R 8227   4.017   1.716   9.938 -0.5702  0.8335  0.0169
   86SAPS  H20S 8228   4.121   1.611   9.852 -0.0835 -0.6398 -0.5546
   86SAPS  H20T 8229   3.966   1.540   9.909  1.1689 -0.5284 -0.4103
   86SAPS   C33 8230   4.442   0.909   9.988 -0.1810 -0.2647 -0.2596
   86SAPS   H3X 8231   4.394   1.008   9.971 -0.5193 -0.5599 -1.0939
   86SAPS   H3Y 8232   4.362   0.833   9.978  1.1884 -1.6671 -0.9809
   86SAPS   C34 8233   4.525   0.867   9.873 -0.8844  0.5544  0.6849
   86SAPS   H4X 8234   4.572   0.769   9.894  0.1214  0.8166 -0.2618
   86SAPS   H4Y 8235   4.600   0.948   9.866 -0.8380  0.3818 -1.5035
   86SAPS   C35 8236   4.442   0.863   9.744 -0.3585 -0.4162  0.1976
   86SAPS   H5X 8237   4.402   0.966   9.731 -0.8901 -0.2126  2.9326
   86SAPS   H5Y 8238   4.355   0.797   9.762 -0.8266 -0.7731 -2.8814
   86SAPS   C36 8239   4.525   0.824   9.629 -0.2222  0.2071  1.1010
   86SAPS   H6X 8240   4.546   0.715   9.635 -0.4364 -0.2680 -3.4572
   86SAPS   H6Y 8241   4.619   0.884   9.628 -0.0880  0.0017 -0.5108
   86SAPS   C37 8242   4.455   0.833   9.494  0.4012  0.1879  0.5127
   86SAPS   H7X 8243   4.425   0.937   9.468  0.1193 -0.0593 -0.1726
   86SAPS   H7Y 8244   4.360   0.779   9.513 -0.3209  0.6498 -1.5328
   86SAPS   C38 8245   4.530   0.750   9.399 -0.5925 -0.4726 -0.1178
   86SAPS   H8X 8246   4.516   0.643   9.426 -1.1071 -0.3453  0.1390
   86SAPS   H8Y 8247   4.639   0.768   9.390 -0.2000 -0.3292  3.3950
   86SAPS   C39 8248   4.470   0.757   9.253  0.0077  0.8334 -0.3843
   86SAPS   H9X 8249   4.531   0.835   9.203 -0.8561  1.7698 -0.0322
   86SAPS   H9Y 8250   4.362   0.786   9.248 -0.9288 -2.0827  0.8462
   86SAPS  C310 8251   4.492   0.627   9.181  0.4017  0.2439  0.1930
   86SAPS  H10X 8252   4.440   0.549   9.240 -1.7435  0.1277 -1.7051
   86SAPS  H10Y 8253   4.601   0.602   9.179 -0.0041 -1.7096 -2.1294
   86SAPS  C311 8254   4.439   0.616   9.033  0.7709 -0.0128 -0.8369
   86SAPS  H11X 8255   4.334   0.646   9.018 -0.0308 -1.2984  1.6400
   86SAPS  H11Y 8256   4.455   0.513   8.994 -0.5417 -0.1247 -1.1305
   86SAPS  C312 8257   4.504   0.708   8.926  0.7059  0.6457 -0.2033
   86SAPS  H12X 8258   4.614   0.695   8.930  0.5790 -0.6342 -0.2959
   86SAPS  H12Y 8259   4.490   0.811   8.964  1.0086  1.3165 -1.8574
   86SAPS  C313 8260   4.427   0.723   8.792  0.2534  0.1222  0.4371
   86SAPS  H13X 8261   4.318   0.716   8.812  0.0408 -2.0626 -1.1275
   86SAPS  H13Y 8262   4.458   0.633   8.736  2.3731  0.4514  0.9683
   86SAPS  C314 8263   4.479   0.836   8.704  0.2355  0.1958 -0.1183
   86SAPS  H14X 8264   4.473   0.938   8.748  0.2560  0.1398  0.0161
   86SAPS  H14Y 8265   4.408   0.838   8.619 -1.3954  2.3751  1.1863
   86SAPS  C315 8266   4.622   0.830   8.651 -0.7170 -0.1567  0.1363
   86SAPS  H15X 8267   4.628   0.740   8.585 -0.9003  1.8031 -2.7284
   86SAPS  H15Y 8268   4.686   0.820   8.740  1.9740  1.0378 -1.5334
   86SAPS  C316 8269   4.671   0.948   8.566  0.2085  0.2651  0.3268
   86SAPS  H16X 8270   4.778   0.943   8.537  0.2108  1.7185  0.0078
   86SAPS  H16Y 8271   4.666   1.042   8.625 -1.9558 -0.5253  1.5326
   86SAPS  C317 8272   4.586   0.970   8.442  0.2682 -0.3257  0.0223
   86SAPS  H17X 8273   4.497   1.029   8.473  1.0630  1.5667 -1.0827
   86SAPS  H17Y 8274   4.557   0.878   8.387  1.1352 -0.1362 -0.7821
   86SAPS  C318 8275   4.646   1.065   8.346  0.6490 -0.6494  0.1799
   86SAPS  H18X 8276   4.579   1.084   8.260 -0.8516  1.0889  1.6432
   86SAPS  H18Y 8277   4.741   1.030   8.300  1.1252  1.8994 -0.9153
   86SAPS  H18Z 8278   4.676   1.161   8.394  1.1679 -1.3122  1.2186
   87SAPS     N 8279   3.365   2.836  10.879  0.5224  0.0688  0.1681
   87SAPS   HN1 8280   3.345   2.898  10.960 -3.2124 -2.4179  1.4162
   87SAPS   HN2 8281   3.450   2.873  10.832  1.2319  0.5204  1.7432
   87SAPS   HN3 8282   3.289   2.845  10.809  2.2353  1.9650 -1.5608
   87SAPS   C12 8283   3.382   2.703  10.937  0.1911 -0.7159 -0.3467
   87SAPS  H12A 8284   3.470   2.705  10.999  1.0883  0.7916 -1.6103
   87SAPS   C13 8285   3.262   2.645  11.014  0.6875 -0.1846  0.3486
   87SAPS  O13A 8286   3.148   2.671  10.972  0.6420  0.1106 -0.3449
   87SAPS  O13B 8287   3.286   2.546  11.086 -0.1428 -0.2672  0.0710
   87SAPS   C11 8288   3.417   2.607  10.822  0.1796  0.3645  0.2329
   87SAPS  H11A 8289   3.339   2.624  10.745  1.7890  4.0012 -0.8210
   87SAPS  H11B 8290   3.408   2.503  10.859  0.4458 -0.2586 -1.3906
   87SAPS     P 8291   3.667   2.576  10.818 -0.2018  0.3548  0.0174
   87SAPS   O13 8292   3.787   2.606  10.735 -0.0544  0.3398  0.3953
   87SAPS   O14 8293   3.679   2.605  10.962 -0.2601  0.2354 -0.2205
   87SAPS   O12 8294   3.539   2.644  10.764 -0.3900  0.0225 -0.0048
   87SAPS   O11 8295   3.627   2.417  10.799 -0.5012 -0.3368 -0.2255
   87SAPS    C1 8296   3.651   2.337  10.683  0.0003  0.6041  0.2036
   87SAPS    HA 8297   3.742   2.362  10.625 -0.6808  1.3557 -0.5670
   87SAPS    HB 8298   3.672   2.234  10.717 -1.4782  0.6055  1.2083
   87SAPS    C2 8299   3.526   2.324  10.593 -0.3128  0.3438  0.2171
   87SAPS    HS 8300   3.553   2.253  10.512 -0.5135 -1.8736  1.9761
   87SAPS   O21 8301   3.488   2.451  10.533  0.4928  0.3701  0.1370
   87SAPS   C21 8302   3.570   2.511  10.449 -0.3493  0.1452  0.7291
   87SAPS   O22 8303   3.677   2.472  10.412 -0.3248 -0.1288  0.1036
   87SAPS   C22 8304   3.519   2.653  10.424 -0.3920  0.3478 -1.0017
   87SAPS   H2R 8305   3.443   2.683  10.499  0.3159  2.5432 -1.0764
   87SAPS   H2S 8306   3.605   2.722  10.436  0.6740 -0.9636 -0.9368
   87SAPS    C3 8307   3.410   2.263  10.656  1.1228  0.1930 -0.2797
   87SAPS    HX 8308   3.378   2.341  10.729 -1.3893 -0.1524 -0.9053
   87SAPS    HY 8309   3.445   2.172  10.710 -0.7710 -1.6625 -1.9898
   87SAPS   O31 8310   3.312   2.219  10.562 -0.1056 -0.5353  0.1188
   87SAPS   C31 8311   3.218   2.305  10.526  0.3750 -0.3034  0.1676
   87SAPS   O32 8312   3.197   2.414  10.584  0.8839 -0.4224 -0.5458
   87SAPS   C32 8313   3.137   2.242  10.422 -0.3461 -0.1579  0.4800
   87SAPS   H2X 8314   3.032   2.262  10.451 -0.5483 -0.6133  0.0764
   87SAPS   H2Y 8315   3.165   2.134  10.432  0.3573  0.0183  0.4860
   87SAPS   C23 8316   3.454   2.669  10.285  0.0344  0.3171  0.0037
   87SAPS   H3R 8317   3.404   2.768  10.283  2.1231  1.6922  4.3581
   87SAPS   H3S 8318   3.382   2.587  10.266  1.7919 -0.8470 -2.1141
   87SAPS   C24 8319   3.569   2.662  10.176  0.4961  0.1879 -0.6583
   87SAPS   H4R 8320   3.610   2.560  10.188  0.5830  0.2786 -0.1551
   87SAPS   H4S 8321   3.642   2.741  10.202 -1.8018  2.3068 -0.2186
   87SAPS   C25 8322   3.505   2.700  10.042 -0.5880 -0.4220 -0.0061
   87SAPS   H5R 8323   3.450   2.795  10.048 -0.7852 -0.5484  0.1712
   87SAPS   C26 8324   3.508   2.626   9.930  0.6558  0.0220  0.2276
   87SAPS   H6R 8325   3.462   2.668   9.839  0.8383  1.8246  0.9224
   87SAPS   C27 8326   3.575   2.496   9.910 -0.0245 -0.1956 -0.0916
   87SAPS   H7R 8327   3.507   2.421   9.866  1.2990 -0.9385 -0.9542
   87SAPS   H7S 8328   3.609   2.450  10.006 -0.6443  2.4398  1.4752
   87SAPS   C28 8329   3.693   2.524   9.823 -1.5049 -0.3875  0.2197
   87SAPS   H8R 8330   3.786   2.545   9.878 -0.3886 -2.0846 -0.9059
   87SAPS   C29 8331   3.709   2.503   9.690 -0.0237 -0.0293  0.5004
   87SAPS   H9R 8332   3.803   2.517   9.635 -0.1871 -0.2031  0.1737
   87SAPS  C210 8333   3.600   2.447   9.608  0.0124 -0.3211  0.5494
   87SAPS  H10R 8334   3.498   2.457   9.650 -0.2221  2.1996 -0.4806
   87SAPS  H10S 8335   3.611   2.336   9.605 -2.5966 -0.6538  0.8009
   87SAPS  C211 8336   3.603   2.517   9.472  0.6122  0.0598  0.0066
   87SAPS  H11R 8337   3.540   2.607   9.475 -1.8649 -1.5807  0.6841
   87SAPS  C212 8338   3.685   2.479   9.369  0.3071  0.2711  0.2881
   87SAPS  H12R 8339   3.677   2.542   9.280 -1.9491 -0.4977 -0.1143
   87SAPS  C213 8340   3.776   2.354   9.364 -0.0259  0.2655 -0.4546
   87SAPS  H13R 8341   3.695   2.279   9.358 -0.1299  0.4404 -1.5018
   87SAPS  H13S 8342   3.836   2.355   9.458 -1.5204 -0.0774  0.5371
   87SAPS  C214 8343   3.876   2.355   9.256  0.1885  0.4648 -0.0623
   87SAPS  H14R 8344   3.953   2.431   9.272 -0.3927  1.0050  0.2305
   87SAPS  C215 8345   3.897   2.275   9.148  0.4772 -0.8043 -0.0405
   87SAPS  H15R 8346   3.981   2.295   9.079 -0.5799 -0.5126 -1.2850
   87SAPS  C216 8347   3.813   2.163   9.106 -0.0582 -0.7720  0.0184
   87SAPS  H16R 8348   3.732   2.139   9.178 -0.1792  0.1946  0.2208
   87SAPS  H16S 8349   3.869   2.067   9.100  0.0129 -0.8120  1.0930
   87SAPS  C217 8350   3.764   2.167   8.960  0.2458  0.1510  0.0414
   87SAPS  H17R 8351   3.851   2.197   8.897  1.3439  0.4669  1.6251
   87SAPS  H17S 8352   3.709   2.264   8.956  2.1308  1.2381 -1.2297
   87SAPS  C218 8353   3.681   2.049   8.919  0.1072  0.1137 -0.0602
   87SAPS  H18R 8354   3.626   2.060   8.823  0.4697  2.1745 -0.0822
   87SAPS  H18S 8355   3.607   2.021   8.997  0.0868 -0.6459 -0.3449
   87SAPS  C219 8356   3.760   1.920   8.904 -0.2868  0.8218  0.1002
   87SAPS  H19R 8357   3.799   1.895   9.005 -0.3388  2.1456  0.4699
   87SAPS  H19S 8358   3.845   1.935   8.834 -1.1643 -0.0367 -1.1987
   87SAPS  C220 8359   3.675   1.806   8.852 -0.0860 -0.5426 -0.1619
   87SAPS  H20R 8360   3.692   1.794   8.743  2.4499  0.0659  0.1201
   87SAPS  H20S 8361   3.567   1.818   8.878  0.1983 -2.8719  2.7021
   87SAPS  H20T 8362   3.707   1.714   8.907  1.1812 -0.0332 -0.0202
   87SAPS   C33 8363   3.156   2.310  10.284 -0.5693  0.2329  0.0462
   87SAPS   H3X 8364   3.150   2.421  10.279  0.1213  0.2952  0.4238
   87SAPS   H3Y 8365   3.073   2.266  10.225 -1.0527 -0.5711  1.2961
   87SAPS   C34 8366   3.290   2.268  10.223 -0.5184  0.5702  0.2558
   87SAPS   H4X 8367   3.307   2.159  10.239  0.5273  0.7330  0.3423
   87SAPS   H4Y 8368   3.375   2.312  10.280 -0.1406  0.3187 -0.1114
   87SAPS   C35 8369   3.322   2.305  10.080 -0.6846 -0.2903  0.0167
   87SAPS   H5X 8370   3.419   2.259  10.054 -1.3600 -1.2064 -0.9547
   87SAPS   H5Y 8371   3.339   2.415  10.078  0.8828 -0.5016  0.8801
   87SAPS   C36 8372   3.223   2.246   9.974  0.1759 -0.1949 -0.1951
   87SAPS   H6X 8373   3.140   2.319   9.961 -0.9855 -1.4948 -0.3592
   87SAPS   H6Y 8374   3.184   2.145  10.001  0.5038 -0.2770 -0.0149
   87SAPS   C37 8375   3.274   2.229   9.830 -0.5470  0.3319  0.1059
   87SAPS   H7X 8376   3.343   2.142   9.821  0.6808  1.4593 -2.1482
   87SAPS   H7Y 8377   3.327   2.321   9.799  2.3784 -0.3232  2.6242
   87SAPS   C38 8378   3.148   2.212   9.742 -0.0703  0.3609  0.6562
   87SAPS   H8X 8379   3.107   2.313   9.724  1.2271  0.6455 -1.0163
   87SAPS   H8Y 8380   3.079   2.151   9.804  0.6258  0.8543  1.9463
   87SAPS   C39 8381   3.170   2.158   9.592 -0.2495 -0.4458 -0.5197
   87SAPS   H9X 8382   3.066   2.144   9.555 -0.0448 -0.5365 -1.0642
   87SAPS   H9Y 8383   3.226   2.062   9.587 -0.1796 -0.4248 -0.1839
   87SAPS  C310 8384   3.240   2.271   9.507 -0.3969 -0.5532 -0.0410
   87SAPS  H10X 8385   3.331   2.304   9.560 -1.9211  1.5402  1.3846
   87SAPS  H10Y 8386   3.169   2.356   9.506  0.5376  0.2424 -0.5460
   87SAPS  C311 8387   3.283   2.224   9.365  0.9407 -0.1449  0.1077
   87SAPS  H11X 8388   3.307   2.316   9.307 -0.8106 -0.5413 -1.3363
   87SAPS  H11Y 8389   3.187   2.194   9.318  0.6766  1.6683 -0.6133
   87SAPS  C312 8390   3.381   2.108   9.343  0.5035 -0.5303 -0.1381
   87SAPS  H12X 8391   3.337   2.016   9.387  2.6062 -1.2825  0.5254
   87SAPS  H12Y 8392   3.473   2.131   9.401 -0.8190  1.6309  1.2690
   87SAPS  C313 8393   3.421   2.073   9.196  0.8325 -0.4624 -0.2059
   87SAPS  H13X 8394   3.484   1.982   9.188  2.3682  0.5554 -0.1464
   87SAPS  H13Y 8395   3.479   2.158   9.154  1.6381  0.3124  2.3032
   87SAPS  C314 8396   3.290   2.051   9.111 -0.8511  0.2867  0.0754
   87SAPS  H14X 8397   3.235   2.146   9.094  1.2475  1.5746  0.1763
   87SAPS  H14Y 8398   3.237   1.976   9.174 -0.8540 -1.0791 -1.4838
   87SAPS  C315 8399   3.310   1.979   8.977 -0.0390 -0.2476  0.6182
   87SAPS  H15X 8400   3.386   1.898   8.987 -1.6338 -1.7090  1.3590
   87SAPS  H15Y 8401   3.355   2.058   8.913  0.3763 -0.2798  0.8705
   87SAPS  C316 8402   3.182   1.922   8.910  0.2007  0.1421 -0.0116
   87SAPS  H16X 8403   3.128   2.015   8.881 -1.7856 -1.2512 -1.0628
   87SAPS  H16Y 8404   3.108   1.887   8.984 -1.4974  1.0967 -1.1728
   87SAPS  C317 8405   3.185   1.825   8.789  0.7084 -0.1024 -0.2896
   87SAPS  H17X 8406   3.085   1.843   8.743 -0.8092  1.4907  3.2718
   87SAPS  H17Y 8407   3.193   1.718   8.817 -1.4779 -1.2356 -3.4322
   87SAPS  C318 8408   3.297   1.852   8.687  0.1228 -0.2733  0.0314
   87SAPS  H18X 8409   3.390   1.807   8.727 -0.3859 -1.2727  0.1088
   87SAPS  H18Y 8410   3.314   1.961   8.668  1.5605 -0.2965  1.0015
   87SAPS  H18Z 8411   3.270   1.798   8.594 -4.4597 -1.4479  1.8102
   88SAPS     N 8412   5.507   6.512  10.973 -0.2093 -0.5376  0.6618
   88SAPS   HN1 8413   5.593   6.570  10.980  1.2354 -1.8820 -3.0654
   88SAPS   HN2 8414   5.525   6.410  10.984  0.6323 -0.5421 -0.5202
   88SAPS   HN3 8415   5.468   6.522  10.877 -0.3612 -0.2723  0.7511
   88SAPS   C12 8416   5.403   6.551  11.066 -0.5943  0.5005 -0.4233
   88SAPS  H12A 8417   5.438   6.542  11.168  0.2867  2.3261 -0.5197
   88SAPS   C13 8418   5.358   6.702  11.061  0.2025 -0.6017 -0.4034
   88SAPS  O13A 8419   5.404   6.784  10.977 -0.1153  0.0042  0.1581
   88SAPS  O13B 8420   5.257   6.737  11.132  0.4390 -0.3654  0.5373
   88SAPS   C11 8421   5.276   6.463  11.041  0.4852  0.6541 -0.3733
   88SAPS  H11A 8422   5.198   6.488  11.116 -1.8367  0.2213 -2.5125
   88SAPS  H11B 8423   5.286   6.353  11.053 -1.4367  0.7027  3.2623
   88SAPS     P 8424   5.085   6.426  10.863  0.3914  0.2089 -0.2974
   88SAPS   O13 8425   5.049   6.292  10.911  0.1156  0.4663  0.0335
   88SAPS   O14 8426   4.996   6.529  10.910 -0.2636  0.3181  0.2092
   88SAPS   O12 8427   5.231   6.470  10.903  0.5417 -0.2777 -0.1688
   88SAPS   O11 8428   5.091   6.435  10.707  0.1281 -0.3070 -0.5699
   88SAPS    C1 8429   4.992   6.368  10.622  0.3406 -0.2298 -0.1223
   88SAPS    HA 8430   5.017   6.363  10.514  0.3192  0.3227 -0.1575
   88SAPS    HB 8431   4.987   6.261  10.649  0.4855 -0.7906 -2.1483
   88SAPS    C2 8432   4.854   6.429  10.615  0.6800  0.3794 -0.1589
   88SAPS    HS 8433   4.833   6.444  10.723 -1.0656  0.9177 -0.5471
   88SAPS   O21 8434   4.765   6.341  10.552 -0.0690 -0.3673 -0.4903
   88SAPS   C21 8435   4.701   6.242  10.624  0.4527 -0.4471  0.1530
   88SAPS   O22 8436   4.685   6.245  10.744 -0.3810  0.5466 -0.0499
   88SAPS   C22 8437   4.631   6.143  10.530  0.3759 -0.6825  0.4402
   88SAPS   H2R 8438   4.616   6.196  10.434 -2.0938 -0.1344  1.0382
   88SAPS   H2S 8439   4.701   6.058  10.520  1.3242  0.1518 -0.1377
   88SAPS    C3 8440   4.850   6.571  10.541  0.1748 -0.1966  0.4423
   88SAPS    HX 8441   4.915   6.645  10.593  0.9628 -0.8412  0.3947
   88SAPS    HY 8442   4.748   6.613  10.551  0.2640  0.2207 -0.3163
   88SAPS   O31 8443   4.883   6.554  10.400 -0.2557  0.0368  0.5164
   88SAPS   C31 8444   4.901   6.666  10.330  0.1342  0.0631  0.0819
   88SAPS   O32 8445   4.884   6.779  10.376  0.0448 -0.4986  0.3487
   88SAPS   C32 8446   4.920   6.635  10.179 -0.8700 -0.0545 -0.9152
   88SAPS   H2X 8447   4.829   6.577  10.152  0.4208 -3.7745  1.9039
   88SAPS   H2Y 8448   5.010   6.570  10.189 -0.7296  0.3235  0.3660
   88SAPS   C23 8449   4.496   6.088  10.596  0.4955  0.2336  0.3131
   88SAPS   H3R 8450   4.437   6.167  10.647  0.1001 -0.0031  0.2274
   88SAPS   H3S 8451   4.534   6.007  10.662  3.6280 -0.5836 -2.2150
   88SAPS   C24 8452   4.400   6.025  10.491 -0.6407  0.2036 -0.1453
   88SAPS   H4R 8453   4.378   6.105  10.417  1.0809  0.1490 -0.7453
   88SAPS   H4S 8454   4.314   5.983  10.547  0.3345  0.0887  1.3192
   88SAPS   C25 8455   4.462   5.904  10.426 -0.3534 -0.2949  0.0619
   88SAPS   H5R 8456   4.469   5.818  10.494 -2.2435 -0.8575 -0.4052
   88SAPS   C26 8457   4.495   5.893  10.297 -0.1105  0.2116 -0.1909
   88SAPS   H6R 8458   4.535   5.800  10.256  0.0475 -0.7827  2.0645
   88SAPS   C27 8459   4.466   6.002  10.194  0.0588 -0.6079  0.1095
   88SAPS   H7R 8460   4.551   6.073  10.196  0.9813 -1.7008  1.7495
   88SAPS   H7S 8461   4.387   6.075  10.223  0.2000  0.2699 -1.6091
   88SAPS   C28 8462   4.443   5.970  10.047  0.3644  0.4812 -0.1362
   88SAPS   H8R 8463   4.342   5.996  10.011 -0.1452 -2.4464 -1.1231
   88SAPS   C29 8464   4.535   5.921   9.964  0.4854  0.3252  0.2959
   88SAPS   H9R 8465   4.519   5.913   9.855 -0.9032 -0.8260  0.5646
   88SAPS  C210 8466   4.677   5.882  10.000  0.4339  0.7117  0.2170
   88SAPS  H10R 8467   4.680   5.771  10.008 -1.8720  0.7130  2.6974
   88SAPS  H10S 8468   4.705   5.919  10.100 -1.4552 -0.0278  1.0622
   88SAPS  C211 8469   4.781   5.938   9.899  0.0221 -0.0749 -0.3614
   88SAPS  H11R 8470   4.777   6.048   9.900 -1.1596 -0.0855  2.1980
   88SAPS  C212 8471   4.859   5.869   9.810  0.1526 -0.5116 -0.2711
   88SAPS  H12R 8472   4.921   5.921   9.736  1.1928 -3.3024 -1.4883
   88SAPS  C213 8473   4.865   5.723   9.799  0.0469 -0.0640  0.5618
   88SAPS  H13R 8474   4.867   5.677   9.900  1.0374 -1.2929  0.0228
   88SAPS  H13S 8475   4.954   5.684   9.744 -1.3309 -1.4477 -0.8118
   88SAPS  C214 8476   4.752   5.652   9.743 -0.0877  1.2033 -0.1899
   88SAPS  H14R 8477   4.667   5.647   9.813 -0.5184 -3.3012 -0.6899
   88SAPS  C215 8478   4.738   5.602   9.617  0.5501  0.1138  0.1621
   88SAPS  H15R 8479   4.643   5.550   9.598 -0.4069  1.8431  0.0191
   88SAPS  C216 8480   4.832   5.597   9.500  0.5916  0.1416 -0.4242
   88SAPS  H16R 8481   4.884   5.499   9.493  1.5985  0.7581 -2.3478
   88SAPS  H16S 8482   4.914   5.671   9.515  1.6644 -1.4852  2.7829
   88SAPS  C217 8483   4.757   5.629   9.369  0.0289 -0.1952  0.1788
   88SAPS  H17R 8484   4.709   5.725   9.397  0.7236  0.0724  0.4570
   88SAPS  H17S 8485   4.681   5.551   9.347  0.9429 -0.6456 -1.5578
   88SAPS  C218 8486   4.847   5.641   9.243  0.0692 -0.2481 -0.4583
   88SAPS  H18R 8487   4.923   5.720   9.264 -0.6598  0.4369 -0.3172
   88SAPS  H18S 8488   4.774   5.683   9.169 -0.0701 -2.4022 -1.6090
   88SAPS  C219 8489   4.906   5.511   9.185  0.1617  0.6350 -0.6168
   88SAPS  H19R 8490   4.823   5.448   9.148 -0.6790  1.2537  0.1709
   88SAPS  H19S 8491   4.962   5.460   9.266 -2.5473 -0.9438  0.3782
   88SAPS  C220 8492   4.993   5.544   9.068  0.3274  0.1677  1.0841
   88SAPS  H20R 8493   5.036   5.454   9.019  2.4232 -0.3426  3.6250
   88SAPS  H20S 8494   5.075   5.614   9.092 -0.0888  0.9428  0.3059
   88SAPS  H20T 8495   4.932   5.591   8.988  2.0893 -0.1328 -0.5138
   88SAPS   C33 8496   4.945   6.769  10.096 -0.2276 -0.3959  0.5595
   88SAPS   H3X 8497   5.056   6.780  10.095 -0.0794 -1.3509  2.3151
   88SAPS   H3Y 8498   4.915   6.859  10.154  1.8384 -0.1424  1.3154
   88SAPS   C34 8499   4.875   6.778   9.960 -0.3358  0.6107 -0.2645
   88SAPS   H4X 8500   4.899   6.694   9.892 -2.5256 -0.2632 -0.0373
   88SAPS   H4Y 8501   4.901   6.873   9.908 -1.5823  1.0928 -0.0369
   88SAPS   C35 8502   4.725   6.768   9.974  0.0486 -0.5621 -0.1094
   88SAPS   H5X 8503   4.692   6.814  10.070  2.2412 -0.7023  0.7829
   88SAPS   H5Y 8504   4.701   6.660   9.973  3.6840 -1.5216 -0.1045
   88SAPS   C36 8505   4.641   6.821   9.850  0.5109  0.2493  0.0336
   88SAPS   H6X 8506   4.645   6.931   9.844  0.4026  0.3723  1.6888
   88SAPS   H6Y 8507   4.533   6.805   9.866  0.7281  0.2947  1.7367
   88SAPS   C37 8508   4.663   6.745   9.718 -0.5390 -0.2098 -0.0342
   88SAPS   H7X 8509   4.641   6.636   9.729 -1.2834 -0.3422 -2.3358
   88SAPS   H7Y 8510   4.767   6.760   9.681 -0.6023  0.4875  0.0586
   88SAPS   C38 8511   4.580   6.796   9.605 -1.2673 -0.3206 -0.2355
   88SAPS   H8X 8512   4.611   6.894   9.563 -3.3172  1.1085  1.4011
   88SAPS   H8Y 8513   4.473   6.794   9.634 -1.0913 -1.6535  0.4133
   88SAPS   C39 8514   4.580   6.699   9.486  0.1062  0.4181 -0.2586
   88SAPS   H9X 8515   4.525   6.606   9.510 -4.2806  2.5132 -1.2870
   88SAPS   H9Y 8516   4.686   6.664   9.481 -0.3597 -1.4592  1.7090
   88SAPS  C310 8517   4.522   6.766   9.358 -0.4228  0.2654 -0.5253
   88SAPS  H10X 8518   4.425   6.815   9.381  0.0049  0.2288  1.5564
   88SAPS  H10Y 8519   4.518   6.679   9.289  1.0280 -0.1079 -0.1746
   88SAPS  C311 8520   4.629   6.854   9.286  0.6496  0.0834  0.1195
   88SAPS  H11X 8521   4.726   6.800   9.284  0.7286  0.2427 -1.9453
   88SAPS  H11Y 8522   4.645   6.951   9.338 -2.9416  0.7597  0.2214
   88SAPS  C312 8523   4.587   6.880   9.142  0.2369 -0.6759  0.4879
   88SAPS  H12X 8524   4.642   6.963   9.092 -1.0058 -0.6107 -0.8351
   88SAPS  H12Y 8525   4.481   6.913   9.132  0.3287 -0.8092 -1.3735
   88SAPS  C313 8526   4.594   6.763   9.049 -0.1171  0.0133  0.1894
   88SAPS  H13X 8527   4.519   6.681   9.058  0.5470 -0.8997 -2.0459
   88SAPS  H13Y 8528   4.696   6.720   9.059  0.3554  0.9154 -0.6187
   88SAPS  C314 8529   4.585   6.810   8.907 -0.2013 -0.2631 -0.4066
   88SAPS  H14X 8530   4.640   6.904   8.888  0.5675 -0.4733  0.6761
   88SAPS  H14Y 8531   4.476   6.827   8.895 -0.5196 -1.6100  0.2779
   88SAPS  C315 8532   4.610   6.696   8.801 -0.7604  0.1242 -0.2143
   88SAPS  H15X 8533   4.718   6.670   8.805 -0.9195 -0.5043  0.0773
   88SAPS  H15Y 8534   4.590   6.744   8.703  2.5700  0.3839 -0.8862
   88SAPS  C316 8535   4.512   6.575   8.824 -0.5054 -0.4412  0.1743
   88SAPS  H16X 8536   4.415   6.623   8.801  0.0620  0.5255 -0.2426
   88SAPS  H16Y 8537   4.520   6.531   8.925 -1.1501 -1.2939 -0.1246
   88SAPS  C317 8538   4.533   6.469   8.713 -0.1414  0.1670  0.2637
   88SAPS  H17X 8539   4.636   6.427   8.714 -1.8203 -4.6633 -2.1082
   88SAPS  H17Y 8540   4.519   6.524   8.618  2.0659  0.7169  0.2087
   88SAPS  C318 8541   4.439   6.342   8.725  0.8113  0.4744  0.3231
   88SAPS  H18X 8542   4.446   6.305   8.829  0.8653  0.4074  0.2963
   88SAPS  H18Y 8543   4.469   6.272   8.644  1.5004 -1.8949  2.4979
   88SAPS  H18Z 8544   4.339   6.379   8.692  0.3643 -0.7797  0.2308
   89SAPS     N 8545   5.670   2.278  10.660 -0.4587 -0.4759 -0.2021
   89SAPS   HN1 8546   5.639   2.183  10.631 -0.3267 -0.7735  0.6147
   89SAPS   HN2 8547   5.582   2.333  10.669 -0.0401  0.5343 -1.7642
   89SAPS   HN3 8548   5.733   2.325  10.592 -2.2672  0.4069 -1.3575
   89SAPS   C12 8549   5.737   2.258  10.788 -0.0733 -0.3907 -0.2424
   89SAPS  H12A 8550   5.767   2.359  10.812 -1.2087  0.0739 -0.7286
   89SAPS   C13 8551   5.648   2.212  10.904 -0.3692  0.5164 -0.0502
   89SAPS  O13A 8552   5.528   2.196  10.878  0.2193  0.3053 -0.1248
   89SAPS  O13B 8553   5.692   2.210  11.026 -0.6843  0.2902  0.0080
   89SAPS   C11 8554   5.863   2.168  10.771  0.0938  0.3908  0.9448
   89SAPS  H11A 8555   5.830   2.078  10.715 -3.2759  0.5170  2.4768
   89SAPS  H11B 8556   5.895   2.141  10.873  0.1825  2.0924  1.3893
   89SAPS     P 8557   6.094   2.194  10.653 -0.3904 -0.1777  0.0804
   89SAPS   O13 8558   6.181   2.312  10.638  0.2213 -0.4730  0.0841
   89SAPS   O14 8559   6.122   2.099  10.763  0.1160 -0.5455 -0.0154
   89SAPS   O12 8560   5.954   2.242  10.695 -0.8079 -0.0256  0.3376
   89SAPS   O11 8561   6.075   2.125  10.512 -0.5477 -0.2732 -0.2840
   89SAPS    C1 8562   5.985   2.151  10.405  0.8744  0.9940 -0.1086
   89SAPS    HA 8563   5.999   2.073  10.328  1.2914 -0.9106  1.7789
   89SAPS    HB 8564   5.881   2.142  10.443  1.1358 -1.0876  0.2406
   89SAPS    C2 8565   6.003   2.291  10.342  0.2030  0.2661 -0.1474
   89SAPS    HS 8566   5.994   2.361  10.428  0.2266 -1.5433  1.4123
   89SAPS   O21 8567   5.897   2.323  10.255  0.2991  0.0783 -0.1124
   89SAPS   C21 8568   5.771   2.341  10.286  0.1266 -0.8358 -0.6243
   89SAPS   O22 8569   5.720   2.313  10.396 -0.8269 -0.1967 -0.4717
   89SAPS   C22 8570   5.692   2.390  10.164 -0.2695 -0.2487  0.4956
   89SAPS   H2R 8571   5.772   2.414  10.091  0.1982 -0.3941  0.9606
   89SAPS   H2S 8572   5.628   2.306  10.127  0.6547 -0.5145 -0.5374
   89SAPS    C3 8573   6.147   2.290  10.277  0.0507 -0.0998  0.0755
   89SAPS    HX 8574   6.216   2.258  10.357 -1.2907  1.0719  1.7981
   89SAPS    HY 8575   6.171   2.395  10.250 -2.7597  0.1465 -1.9485
   89SAPS   O31 8576   6.165   2.200  10.167  0.3573 -0.7378  0.2275
   89SAPS   C31 8577   6.289   2.183  10.129 -0.0668  0.2226  0.3299
   89SAPS   O32 8578   6.387   2.221  10.189 -0.4714  0.0495  0.0902
   89SAPS   C32 8579   6.298   2.104   9.990  0.5147 -0.4193 -0.0848
   89SAPS   H2X 8580   6.404   2.091   9.960  0.1041 -2.3956 -0.8479
   89SAPS   H2Y 8581   6.245   2.172   9.920  4.5588  1.6412 -1.4328
   89SAPS   C23 8582   5.591   2.510  10.178  0.6981  0.8799  0.1296
   89SAPS   H3R 8583   5.652   2.590  10.226 -0.1342 -0.2591  3.3076
   89SAPS   H3S 8584   5.504   2.486  10.242 -0.6145  1.9414 -1.1922
   89SAPS   C24 8585   5.522   2.543  10.044 -0.5753 -0.7767  0.4196
   89SAPS   H4R 8586   5.455   2.630  10.062 -0.4319 -0.4774 -0.4290
   89SAPS   H4S 8587   5.453   2.465  10.006 -0.8798 -0.0916 -0.4897
   89SAPS   C25 8588   5.614   2.598   9.933  0.3191  0.1958  0.7083
   89SAPS   H5R 8589   5.656   2.698   9.949  0.1408  0.6428 -1.3049
   89SAPS   C26 8590   5.646   2.541   9.816  0.3222  0.7824 -0.2019
   89SAPS   H6R 8591   5.718   2.599   9.756 -0.9746  0.8701 -1.7413
   89SAPS   C27 8592   5.601   2.406   9.766 -0.6659 -0.5032  0.1605
   89SAPS   H7R 8593   5.551   2.343   9.842 -1.0680 -1.0658 -0.5617
   89SAPS   H7S 8594   5.685   2.353   9.715 -0.3044  1.8317 -1.8380
   89SAPS   C28 8595   5.499   2.445   9.659  0.9096 -0.0557  0.0903
   89SAPS   H8R 8596   5.404   2.483   9.699 -0.6958 -4.0830  0.5456
   89SAPS   C29 8597   5.524   2.452   9.535 -0.2620  0.3030 -0.5729
   89SAPS   H9R 8598   5.445   2.490   9.470 -1.3065 -1.2650 -0.2747
   89SAPS  C210 8599   5.661   2.424   9.479 -0.2025 -0.2284  0.6310
   89SAPS  H10R 8600   5.743   2.468   9.540  2.0931 -2.1080 -0.9335
   89SAPS  H10S 8601   5.677   2.484   9.387  0.9190  0.6940  1.3930
   89SAPS  C211 8602   5.689   2.277   9.460  0.4792 -0.8336 -0.0023
   89SAPS  H11R 8603   5.691   2.217   9.553  1.5195 -0.6075  0.1393
   89SAPS  C212 8604   5.732   2.218   9.345 -1.0661 -0.8295 -0.0921
   89SAPS  H12R 8605   5.745   2.108   9.347  3.9564 -0.4716 -0.5074
   89SAPS  C213 8606   5.771   2.281   9.209  0.0743 -0.7546 -0.4885
   89SAPS  H13R 8607   5.818   2.204   9.145 -0.9196 -2.5148  0.8046
   89SAPS  H13S 8608   5.844   2.362   9.229  0.0156 -0.6253 -0.7959
   89SAPS  C214 8609   5.649   2.350   9.148 -0.5342  0.0886  0.2134
   89SAPS  H14R 8610   5.558   2.366   9.209 -0.8958  2.8273 -0.9006
   89SAPS  C215 8611   5.648   2.383   9.021 -0.3530 -0.8252 -0.5101
   89SAPS  H15R 8612   5.554   2.414   8.973  0.0658  1.0442 -0.2031
   89SAPS  C216 8613   5.762   2.380   8.924 -0.2812 -0.8730 -0.3294
   89SAPS  H16R 8614   5.761   2.291   8.857 -0.4592 -0.8626 -0.3423
   89SAPS  H16S 8615   5.854   2.370   8.984 -0.0551  0.0258 -0.5106
   89SAPS  C217 8616   5.777   2.498   8.830  0.2182  0.6188 -0.1181
   89SAPS  H17R 8617   5.720   2.475   8.737 -0.7930 -0.7149  0.7898
   89SAPS  H17S 8618   5.882   2.492   8.796 -0.2151  0.4209 -1.4868
   89SAPS  C218 8619   5.744   2.644   8.873  0.0495  0.5556 -0.5129
   89SAPS  H18R 8620   5.821   2.675   8.946 -0.2595 -0.7896  0.4153
   89SAPS  H18S 8621   5.651   2.660   8.933  1.6808  1.4262  1.9472
   89SAPS  C219 8622   5.737   2.728   8.744 -0.3579  0.1721  0.1492
   89SAPS  H19R 8623   5.655   2.687   8.681  0.1439 -1.9257  0.7810
   89SAPS  H19S 8624   5.829   2.709   8.684 -0.4468  1.1059 -0.2949
   89SAPS  C220 8625   5.731   2.882   8.766 -0.2719 -0.8200 -0.1651
   89SAPS  H20R 8626   5.798   2.919   8.847  2.2895 -0.8742 -2.1687
   89SAPS  H20S 8627   5.628   2.895   8.808 -0.9653 -1.1727 -1.7088
   89SAPS  H20T 8628   5.729   2.937   8.670  0.4878 -0.9323 -0.2472
   89SAPS   C33 8629   6.246   1.958   9.997  1.1777 -0.7463  1.1230
   89SAPS   H3X 8630   6.136   1.966  10.013  1.1262  1.0047  0.0749
   89SAPS   H3Y 8631   6.288   1.905  10.085  1.6697  2.0954  2.7249
   89SAPS   C34 8632   6.258   1.882   9.865  0.4749 -0.0039  0.3200
   89SAPS   H4X 8633   6.234   1.948   9.779 -2.7109 -0.4241  0.7358
   89SAPS   H4Y 8634   6.187   1.797   9.855 -1.5449  1.7696 -1.3321
   89SAPS   C35 8635   6.398   1.819   9.838  0.3557  0.1841 -0.5849
   89SAPS   H5X 8636   6.410   1.751   9.926  2.4758  1.7614  0.4362
   89SAPS   H5Y 8637   6.477   1.896   9.846 -1.2384  1.9460 -1.0083
   89SAPS   C36 8638   6.405   1.715   9.723 -0.3090 -0.2735  0.0097
   89SAPS   H6X 8639   6.399   1.781   9.634  0.7515 -0.2309 -0.0486
   89SAPS   H6Y 8640   6.317   1.648   9.720 -1.9511  1.7245  1.2970
   89SAPS   C37 8641   6.530   1.623   9.711  0.2930 -0.8703 -0.4938
   89SAPS   H7X 8642   6.526   1.556   9.799 -2.1587 -0.2979 -0.0796
   89SAPS   H7Y 8643   6.625   1.680   9.717  1.1475 -2.0280 -2.1689
   89SAPS   C38 8644   6.539   1.554   9.576 -0.3107  0.3666  0.4294
   89SAPS   H8X 8645   6.541   1.629   9.494 -1.2974 -0.1825 -0.1201
   89SAPS   H8Y 8646   6.451   1.489   9.559  0.7489 -0.9340 -0.2253
   89SAPS   C39 8647   6.659   1.453   9.564 -0.0445  0.5629  0.0551
   89SAPS   H9X 8648   6.640   1.392   9.473  1.4999  0.8039 -0.4622
   89SAPS   H9Y 8649   6.656   1.370   9.637 -0.0243  0.0591 -0.5120
   89SAPS  C310 8650   6.793   1.523   9.572  0.2225  0.4050  0.2415
   89SAPS  H10X 8651   6.835   1.503   9.673 -1.1183 -1.1393  0.5269
   89SAPS  H10Y 8652   6.787   1.631   9.546  1.4915  0.7215  1.1564
   89SAPS  C311 8653   6.902   1.458   9.489 -0.4095 -0.0247  0.3929
   89SAPS  H11X 8654   6.898   1.348   9.501 -0.2692 -0.0255  0.4342
   89SAPS  H11Y 8655   7.005   1.490   9.513  0.4359 -1.2353 -1.4131
   89SAPS  C312 8656   6.887   1.487   9.340  0.1202 -0.3725 -0.2813
   89SAPS  H12X 8657   6.853   1.593   9.335 -1.6009 -0.7940  1.4863
   89SAPS  H12Y 8658   6.816   1.424   9.282  0.5558 -1.9109  0.8120
   89SAPS  C313 8659   7.016   1.474   9.259  0.0418 -0.1727 -0.8100
   89SAPS  H13X 8660   7.076   1.385   9.289 -1.8312 -1.4595 -0.6679
   89SAPS  H13Y 8661   7.077   1.564   9.280 -0.1033  0.1316 -1.6349
   89SAPS  C314 8662   7.018   1.462   9.106  1.0966 -0.1597  0.4894
   89SAPS  H14X 8663   7.119   1.481   9.064  1.7279 -3.4152  0.2011
   89SAPS  H14Y 8664   6.946   1.533   9.059  0.3700 -1.7559 -0.9559
   89SAPS  C315 8665   6.986   1.317   9.064 -0.8030  1.2236 -0.5310
   89SAPS  H15X 8666   6.891   1.284   9.113  0.5689 -0.9985  0.8067
   89SAPS  H15Y 8667   7.073   1.261   9.104 -1.5578  0.4588  0.0794
   89SAPS  C316 8668   6.966   1.297   8.912  0.5476 -0.8253 -1.2838
   89SAPS  H16X 8669   7.051   1.353   8.868  1.2870 -0.7889  0.1317
   89SAPS  H16Y 8670   6.870   1.346   8.886  0.3225 -0.1005  0.7253
   89SAPS  C317 8671   6.959   1.155   8.879 -0.9396 -0.0644  0.3709
   89SAPS  H17X 8672   7.034   1.098   8.938 -0.0296  0.3855 -0.3227
   89SAPS  H17Y 8673   6.981   1.144   8.771  2.9696  1.4458  0.8428
   89SAPS  C318 8674   6.829   1.088   8.915 -0.1928 -0.0358 -0.2070
   89SAPS  H18X 8675   6.737   1.147   8.895  0.5577  1.5273  0.6548
   89SAPS  H18Y 8676   6.824   1.069   9.024  1.2816  1.2679  0.1305
   89SAPS  H18Z 8677   6.813   0.994   8.859 -0.1518 -0.7110  0.8889
   90SAPS     N 8678   1.597   0.125  10.888 -0.7415 -0.0792  0.4226
   90SAPS   HN1 8679   1.559   0.032  10.859  1.3830 -0.9241  0.1570
   90SAPS   HN2 8680   1.672   0.139  10.818 -1.7110 -0.1132 -0.6622
   90SAPS   HN3 8681   1.629   0.134  10.986 -1.5200  0.2478  0.6549
   90SAPS   C12 8682   1.483   0.213  10.850  0.1394 -0.5772  0.0363
   90SAPS  H12A 8683   1.438   0.181  10.758 -0.7978 -0.3377  0.3918
   90SAPS   C13 8684   1.370   0.210  10.962  0.3683 -0.5086  0.4255
   90SAPS  O13A 8685   1.376   0.125  11.050  0.2388 -0.1039  0.2972
   90SAPS  O13B 8686   1.275   0.295  10.949 -0.1417  0.1674 -0.3542
   90SAPS   C11 8687   1.528   0.357  10.837  0.2835 -0.3488 -0.3142
   90SAPS  H11A 8688   1.585   0.408  10.917  1.2177  1.7046 -2.1759
   90SAPS  H11B 8689   1.445   0.429  10.819  2.2094  1.6631 -1.5485
   90SAPS     P 8690   1.651   0.507  10.653  0.1095  0.0312  0.4030
   90SAPS   O13 8691   1.656   0.609  10.760 -0.2394  0.1599  0.1098
   90SAPS   O14 8692   1.762   0.492  10.561 -0.1082  0.5971 -0.2418
   90SAPS   O12 8693   1.615   0.367  10.725  0.5727 -0.2925  0.2689
   90SAPS   O11 8694   1.524   0.537  10.574 -0.5757 -0.1767  0.4298
   90SAPS    C1 8695   1.428   0.430  10.547 -0.5319  1.0329  0.2661
   90SAPS    HA 8696   1.472   0.330  10.527 -1.7031  0.6724 -0.6650
   90SAPS    HB 8697   1.364   0.412  10.636  1.6882  1.1277  1.9341
   90SAPS    C2 8698   1.347   0.471  10.421  0.2963  0.0081 -0.7361
   90SAPS    HS 8699   1.260   0.403  10.408  0.2720 -0.3260  0.9074
   90SAPS   O21 8700   1.434   0.475  10.303 -0.0421  0.0638 -0.0711
   90SAPS   C21 8701   1.469   0.353  10.256  0.4368 -0.1797 -0.2345
   90SAPS   O22 8702   1.443   0.247  10.306  0.0805  0.3213 -0.3370
   90SAPS   C22 8703   1.532   0.373  10.122  0.9805 -0.4269  0.2810
   90SAPS   H2R 8704   1.472   0.443  10.061  2.2601 -0.2073 -0.7624
   90SAPS   H2S 8705   1.623   0.435  10.132  0.0627  1.2220 -1.1819
   90SAPS    C3 8706   1.290   0.618  10.437  0.0517 -0.5698  0.1618
   90SAPS    HX 8707   1.381   0.682  10.440  0.4879 -1.2219  0.8469
   90SAPS    HY 8708   1.247   0.647  10.535  3.0164 -0.1961  1.4420
   90SAPS   O31 8709   1.216   0.663  10.318 -0.5776  0.4704 -0.6752
   90SAPS   C31 8710   1.092   0.631  10.319 -0.1807 -0.3951  0.6641
   90SAPS   O32 8711   1.037   0.563  10.405 -0.1954  0.4455 -0.0503
   90SAPS   C32 8712   1.031   0.690  10.195 -0.0040  0.2132  0.5905
   90SAPS   H2X 8713   1.070   0.793  10.185  2.3287 -0.5619  1.1997
   90SAPS   H2Y 8714   0.922   0.695  10.217 -0.0701  1.1190  0.0998
   90SAPS   C23 8715   1.553   0.242  10.048  0.5208  0.1149 -0.1787
   90SAPS   H3R 8716   1.466   0.175  10.038  1.6826 -1.4457 -0.2552
   90SAPS   H3S 8717   1.623   0.174  10.101 -0.6958  1.4409  3.4776
   90SAPS   C24 8718   1.600   0.268   9.899 -0.6721 -0.0233  0.6791
   90SAPS   H4R 8719   1.634   0.169   9.861  0.1187  0.3472  0.3967
   90SAPS   H4S 8720   1.691   0.332   9.903  0.1550 -1.0295 -0.8556
   90SAPS   C25 8721   1.485   0.325   9.820 -0.5800 -0.7857  0.1355
   90SAPS   H5R 8722   1.388   0.280   9.850  0.4087 -1.9135  1.8470
   90SAPS   C26 8723   1.494   0.420   9.725  0.6127  0.3641  0.3115
   90SAPS   H6R 8724   1.403   0.453   9.674  2.4462  1.6769 -2.3790
   90SAPS   C27 8725   1.629   0.465   9.672 -0.2320  0.1732 -0.7575
   90SAPS   H7R 8726   1.700   0.486   9.754 -0.1632 -2.8869  0.0992
   90SAPS   H7S 8727   1.617   0.571   9.639  0.0421  0.1002 -1.0965
   90SAPS   C28 8728   1.682   0.368   9.568  0.3508 -0.2634  0.1873
   90SAPS   H8R 8729   1.741   0.283   9.606 -0.3298  0.4877  3.2400
   90SAPS   C29 8730   1.656   0.376   9.432 -0.0659 -0.0522  0.0830
   90SAPS   H9R 8731   1.702   0.296   9.371 -2.1323 -2.0230  0.9726
   90SAPS  C210 8732   1.564   0.475   9.366 -0.6042 -0.1373 -0.2698
   90SAPS  H10R 8733   1.610   0.571   9.335 -0.2153 -0.1413  0.2932
   90SAPS  H10S 8734   1.490   0.504   9.443 -1.1182 -0.3876 -0.6650
   90SAPS  C211 8735   1.493   0.414   9.248  1.0429 -0.0992  0.2215
   90SAPS  H11R 8736   1.419   0.343   9.289  1.7506  0.2884  2.3341
   90SAPS  C212 8737   1.511   0.421   9.116 -0.1990  0.2594 -0.7840
   90SAPS  H12R 8738   1.438   0.373   9.049 -0.9784  0.1054  0.1677
   90SAPS  C213 8739   1.623   0.499   9.061 -0.1316 -0.7755  0.7553
   90SAPS  H13R 8740   1.705   0.512   9.134  1.1632  3.4496 -1.1420
   90SAPS  H13S 8741   1.584   0.601   9.038  2.2074 -0.1076 -0.5617
   90SAPS  C214 8742   1.681   0.443   8.935 -0.1014  0.8202  0.6011
   90SAPS  H14R 8743   1.751   0.360   8.955 -2.0096 -1.0052  0.0895
   90SAPS  C215 8744   1.639   0.476   8.812  0.2796 -0.5230  0.3625
   90SAPS  H15R 8745   1.692   0.433   8.726 -1.4204 -1.5017 -0.2382
   90SAPS  C216 8746   1.533   0.577   8.774 -0.3446  0.0137  0.6188
   90SAPS  H16R 8747   1.564   0.650   8.697  0.9633  0.4893  1.5751
   90SAPS  H16S 8748   1.515   0.651   8.855 -0.5965  2.2324 -1.3661
   90SAPS  C217 8749   1.397   0.508   8.735  0.2367  0.1292  1.0089
   90SAPS  H17R 8750   1.316   0.572   8.776 -0.8632 -0.7884  0.3426
   90SAPS  H17S 8751   1.378   0.416   8.794 -2.7562 -0.2299 -0.2823
   90SAPS  C218 8752   1.387   0.471   8.592  0.1739 -0.1968  0.4060
   90SAPS  H18R 8753   1.434   0.372   8.571  2.0849  0.7904 -0.2401
   90SAPS  H18S 8754   1.442   0.547   8.531  2.8423 -1.0268  1.6038
   90SAPS  C219 8755   1.237   0.466   8.551  0.5426  0.7203 -0.1251
   90SAPS  H19R 8756   1.238   0.462   8.440 -0.3387 -0.9515 -0.0985
   90SAPS  H19S 8757   1.192   0.563   8.581  0.2607  0.4106  0.4818
   90SAPS  C220 8758   1.154   0.356   8.619 -0.2776  0.6623  0.0732
   90SAPS  H20R 8759   1.054   0.352   8.570 -1.3103 -2.0055  2.1446
   90SAPS  H20S 8760   1.163   0.353   8.729  0.7410 -2.5185  0.0049
   90SAPS  H20T 8761   1.197   0.258   8.588  0.0508 -0.0859  2.6984
   90SAPS   C33 8762   1.064   0.599  10.074  0.5523  0.0965  0.9648
   90SAPS   H3X 8763   1.007   0.504  10.083 -0.2744  0.6433  1.5664
   90SAPS   H3Y 8764   1.173   0.586  10.054  0.4666  1.3498 -0.5678
   90SAPS   C34 8765   1.013   0.660   9.942 -0.0388  0.0611  0.0799
   90SAPS   H4X 8766   1.073   0.750   9.918  0.9455 -0.4486  0.5864
   90SAPS   H4Y 8767   0.905   0.684   9.954  0.1992  1.4652 -0.3317
   90SAPS   C35 8768   1.036   0.556   9.832  0.0710 -0.4559  0.8918
   90SAPS   H5X 8769   0.953   0.483   9.844 -0.5757  0.4785  2.3418
   90SAPS   H5Y 8770   1.132   0.502   9.849 -0.2640 -0.3850  3.3374
   90SAPS   C36 8771   1.030   0.622   9.693  0.1194  0.2171  0.9242
   90SAPS   H6X 8772   1.115   0.693   9.680 -0.8610  1.0046 -1.9029
   90SAPS   H6Y 8773   0.944   0.692   9.688  0.0383  0.0993  0.6252
   90SAPS   C37 8774   1.023   0.521   9.577 -0.3696  0.2462  0.5708
   90SAPS   H7X 8775   0.923   0.475   9.562  0.0503 -0.0731 -1.5478
   90SAPS   H7Y 8776   1.101   0.442   9.585  0.1531  0.1534 -3.3804
   90SAPS   C38 8777   1.063   0.579   9.436 -0.4078  0.0363  0.0571
   90SAPS   H8X 8778   1.148   0.651   9.442 -0.0076 -0.5335  1.8476
   90SAPS   H8Y 8779   0.978   0.633   9.388 -0.0431 -0.8350 -1.6174
   90SAPS   C39 8780   1.105   0.470   9.339  0.3923 -0.1410 -0.0609
   90SAPS   H9X 8781   1.016   0.403   9.344  0.1279  0.2583  1.0118
   90SAPS   H9Y 8782   1.195   0.414   9.371  0.0786 -1.7399 -1.8183
   90SAPS  C310 8783   1.138   0.525   9.196  0.1503  0.2692  0.1107
   90SAPS  H10X 8784   1.238   0.573   9.198 -0.6595  2.1219 -1.0273
   90SAPS  H10Y 8785   1.060   0.597   9.163  0.0922  0.1956  0.0877
   90SAPS  C311 8786   1.139   0.408   9.087 -0.6805 -0.4085 -0.3726
   90SAPS  H11X 8787   1.215   0.336   9.126  0.6869  0.7081 -0.8716
   90SAPS  H11Y 8788   1.202   0.450   9.005 -1.9014 -1.1966 -1.7529
   90SAPS  C312 8789   1.016   0.348   9.025  0.1523  0.4113  0.1875
   90SAPS  H12X 8790   0.971   0.426   8.960  1.2662 -0.1491 -1.3017
   90SAPS  H12Y 8791   0.947   0.335   9.111  1.8101 -0.5701  1.4224
   90SAPS  C313 8792   1.047   0.214   8.955  0.1233 -0.1373  0.1140
   90SAPS  H13X 8793   1.049   0.139   9.038 -0.5256  2.1944  2.3788
   90SAPS  H13Y 8794   1.145   0.219   8.904 -0.7930 -0.5062 -1.7615
   90SAPS  C314 8795   0.939   0.171   8.859 -0.0566 -0.1960 -0.9295
   90SAPS  H14X 8796   0.951   0.236   8.770  2.6824  0.3877 -0.2087
   90SAPS  H14Y 8797   0.838   0.187   8.904 -0.8694 -1.7809 -2.0829
   90SAPS  C315 8798   0.958   0.025   8.830 -0.5129  0.2420 -0.1305
   90SAPS  H15X 8799   0.929  -0.031   8.922  0.4597 -0.1969 -0.0810
   90SAPS  H15Y 8800   1.065   0.016   8.802 -0.5744 -0.4749 -0.1427
   90SAPS  C316 8801   0.871  -0.033   8.712  0.2487 -0.2671  0.1347
   90SAPS  H16X 8802   0.914   0.006   8.617 -0.4127  2.3287  0.8259
   90SAPS  H16Y 8803   0.761  -0.025   8.723  0.2688 -1.4240  1.6046
   90SAPS  C317 8804   0.889  -0.188   8.707 -0.2236 -0.6381 -0.0061
   90SAPS  H17X 8805   0.828  -0.233   8.626 -0.7117  0.2507 -0.1468
   90SAPS  H17Y 8806   0.865  -0.231   8.807 -0.1540  2.8067  1.6183
   90SAPS  C318 8807   1.036  -0.223   8.687  0.0271 -0.1919 -0.5579
   90SAPS  H18X 8808   1.084  -0.179   8.598  2.2133 -0.8014  0.2384
   90SAPS  H18Y 8809   1.032  -0.334   8.676 -0.7706 -0.3081  0.7040
   90SAPS  H18Z 8810   1.093  -0.212   8.782  1.4725 -1.8325 -1.1673
   91SAPS     N 8811   4.006   1.215   5.944 -0.6268 -0.1924  0.0746
   91SAPS   HN1 8812   3.992   1.288   5.872  0.0815  0.4126  0.5489
   91SAPS   HN2 8813   3.930   1.224   6.015  0.3418  0.0431  1.1095
   91SAPS   HN3 8814   4.099   1.213   5.989 -0.9268  2.0869  0.8936
   91SAPS   C12 8815   3.989   1.080   5.882  0.4217  0.3229  0.0433
   91SAPS  H12A 8816   3.883   1.073   5.868  0.4653  1.2407 -0.9295
   91SAPS   C13 8817   4.055   1.067   5.748  0.2394  0.9407  0.0074
   91SAPS  O13A 8818   4.131   1.161   5.703  0.3458  0.2447  0.2197
   91SAPS  O13B 8819   4.026   0.968   5.679  0.0274  0.0455 -0.1274
   91SAPS   C11 8820   4.055   0.964   5.972 -0.0407 -1.0182 -0.8056
   91SAPS  H11A 8821   4.025   0.867   5.927 -1.5412 -0.1874 -1.6739
   91SAPS  H11B 8822   4.008   0.964   6.073 -0.6233 -1.7568 -1.0658
   91SAPS     P 8823   4.277   1.029   6.107 -0.2186 -0.5033  0.0359
   91SAPS   O13 8824   4.422   0.994   6.107  0.4202  0.1022 -0.0251
   91SAPS   O14 8825   4.240   1.172   6.120  0.3073  0.3158  0.4100
   91SAPS   O12 8826   4.196   0.963   5.983  0.4865  0.0875 -0.1950
   91SAPS   O11 8827   4.207   0.957   6.228 -0.1607 -0.0082 -0.0173
   91SAPS    C1 8828   4.196   0.819   6.240 -0.0845 -1.0672  0.1177
   91SAPS    HA 8829   4.107   0.779   6.186 -0.3715 -0.0913 -0.1554
   91SAPS    HB 8830   4.294   0.779   6.206  1.0736  1.7446 -0.0866
   91SAPS    C2 8831   4.187   0.783   6.389  0.3001 -0.0442 -0.0276
   91SAPS    HS 8832   4.210   0.676   6.401 -0.6879 -0.2374  0.2563
   91SAPS   O21 8833   4.060   0.817   6.440  0.0572 -0.1097 -0.3824
   91SAPS   C21 8834   3.960   0.729   6.422  0.0966  0.1519  0.1041
   91SAPS   O22 8835   3.975   0.631   6.355  0.0672  0.5122  0.1500
   91SAPS   C22 8836   3.832   0.774   6.493  0.1213 -0.2831 -0.0076
   91SAPS   H2R 8837   3.856   0.867   6.549  1.6206  0.8328 -2.3329
   91SAPS   H2S 8838   3.760   0.805   6.414 -0.0590  1.7147  0.8807
   91SAPS    C3 8839   4.295   0.848   6.478  0.1492  0.3507  0.0376
   91SAPS    HX 8840   4.283   0.957   6.459 -0.4103  0.3084  0.1248
   91SAPS    HY 8841   4.391   0.818   6.432  0.9509  1.4018  0.9750
   91SAPS   O31 8842   4.295   0.807   6.612  0.2846 -0.3212  0.0163
   91SAPS   C31 8843   4.228   0.880   6.700 -0.2381 -0.2234 -0.0293
   91SAPS   O32 8844   4.158   0.977   6.678 -0.2287 -0.2467 -0.0447
   91SAPS   C32 8845   4.275   0.828   6.844 -0.6822 -0.5881  0.2973
   91SAPS   H2X 8846   4.386   0.831   6.845 -0.6890  1.3288 -0.7586
   91SAPS   H2Y 8847   4.247   0.720   6.850  0.0200 -0.9557 -2.0685
   91SAPS   C23 8848   3.753   0.666   6.575  0.1405  0.6094  1.2461
   91SAPS   H3R 8849   3.783   0.566   6.536  1.0180  1.4508 -0.3213
   91SAPS   H3S 8850   3.646   0.690   6.563  0.2020  0.9987  1.4788
   91SAPS   C24 8851   3.792   0.656   6.721 -0.1209 -0.1883  0.2088
   91SAPS   H4R 8852   3.776   0.751   6.777  1.3844 -0.1973  0.6878
   91SAPS   H4S 8853   3.901   0.641   6.711 -0.4070 -1.3977 -1.4234
   91SAPS   C25 8854   3.718   0.538   6.782  0.5185 -0.0825 -0.2815
   91SAPS   H5R 8855   3.615   0.514   6.752  0.9528 -3.3807  0.3981
   91SAPS   C26 8856   3.773   0.444   6.865  0.2338  0.2615 -0.4197
   91SAPS   H6R 8857   3.693   0.377   6.899 -2.9704  2.1292 -3.6030
   91SAPS   C27 8858   3.907   0.439   6.914 -0.0998 -0.3192  0.3542
   91SAPS   H7R 8859   3.905   0.458   7.023 -2.5062 -0.4134  0.3787
   91SAPS   H7S 8860   3.972   0.523   6.879  2.0214 -1.5017  1.2501
   91SAPS   C28 8861   3.971   0.302   6.877  0.2863  0.7523 -0.6750
   91SAPS   H8R 8862   3.906   0.222   6.837  0.0795 -0.3673  1.7156
   91SAPS   C29 8863   4.100   0.272   6.876  0.1006  0.1195  0.3523
   91SAPS   H9R 8864   4.124   0.172   6.838  0.7829  0.9260 -1.4276
   91SAPS  C210 8865   4.215   0.360   6.905 -0.1404 -0.2352 -0.1156
   91SAPS  H10R 8866   4.186   0.458   6.948 -2.8152 -1.2021  0.4724
   91SAPS  H10S 8867   4.273   0.376   6.811 -1.0072 -0.2205 -0.6561
   91SAPS  C211 8868   4.318   0.294   7.000 -0.6011 -1.0357  0.2612
   91SAPS  H11R 8869   4.386   0.228   6.943 -2.1803 -1.3492 -1.3432
   91SAPS  C212 8870   4.327   0.304   7.133  0.1706  0.3864 -0.5146
   91SAPS  H12R 8871   4.414   0.257   7.181  0.9873  1.1585 -1.2053
   91SAPS  C213 8872   4.238   0.395   7.225  0.0904  0.5446  0.5497
   91SAPS  H13R 8873   4.261   0.497   7.189 -1.8059  1.4991  1.9018
   91SAPS  H13S 8874   4.287   0.386   7.324  0.5680 -1.7911  0.1787
   91SAPS  C214 8875   4.093   0.355   7.237 -0.0308  0.0409  0.8217
   91SAPS  H14R 8876   4.056   0.316   7.141  1.0408 -2.2692  1.2769
   91SAPS  C215 8877   4.002   0.382   7.329  0.2376  0.0791  0.1139
   91SAPS  H15R 8878   3.899   0.344   7.328 -0.3425  1.6065 -0.3331
   91SAPS  C216 8879   4.033   0.458   7.454  0.2115 -0.2742  0.4799
   91SAPS  H16R 8880   3.935   0.501   7.484  0.1896  0.0838 -0.0821
   91SAPS  H16S 8881   4.102   0.541   7.427  1.7565 -1.0711  1.7663
   91SAPS  C217 8882   4.090   0.384   7.570  0.5330 -0.8586  0.6613
   91SAPS  H17R 8883   4.187   0.341   7.536 -0.4716 -1.9618 -1.0032
   91SAPS  H17S 8884   4.019   0.301   7.592  1.0620 -1.2051  1.0955
   91SAPS  C218 8885   4.124   0.462   7.696  0.9066 -0.3826 -0.4966
   91SAPS  H18R 8886   4.038   0.498   7.757  1.3129 -0.6061  0.2209
   91SAPS  H18S 8887   4.167   0.558   7.661 -1.3732  0.8183 -0.2699
   91SAPS  C219 8888   4.217   0.385   7.800  0.0512  0.2706  0.1992
   91SAPS  H19R 8889   4.321   0.375   7.762  0.3100 -3.1891  1.4478
   91SAPS  H19S 8890   4.184   0.280   7.813 -0.9302  0.3229 -1.5717
   91SAPS  C220 8891   4.239   0.467   7.923  0.2187  0.3050 -0.3479
   91SAPS  H20R 8892   4.287   0.414   8.008  0.3021  1.5162  0.3793
   91SAPS  H20S 8893   4.140   0.512   7.946 -1.4508 -1.2657 -3.7033
   91SAPS  H20T 8894   4.303   0.554   7.895  2.9781 -1.4139  0.2167
   91SAPS   C33 8895   4.209   0.886   6.971 -0.0606 -0.1756  0.2554
   91SAPS   H3X 8896   4.101   0.864   6.959 -0.1177  0.7370 -1.1547
   91SAPS   H3Y 8897   4.224   0.996   6.973 -0.8070 -0.0136  3.6475
   91SAPS   C34 8898   4.253   0.832   7.104 -0.6802 -0.5125  0.5494
   91SAPS   H4X 8899   4.359   0.863   7.119 -1.0794  1.4113 -0.2301
   91SAPS   H4Y 8900   4.239   0.722   7.105 -0.8631 -0.5140 -0.7303
   91SAPS   C35 8901   4.184   0.891   7.226  0.8128  0.0125 -0.0105
   91SAPS   H5X 8902   4.079   0.856   7.237  0.8622 -0.2904 -0.4823
   91SAPS   H5Y 8903   4.183   1.001   7.209  0.1757 -0.3283 -2.4520
   91SAPS   C36 8904   4.254   0.870   7.363  0.3974  0.1634  0.3491
   91SAPS   H6X 8905   4.336   0.944   7.380 -0.4580  0.7435  2.2464
   91SAPS   H6Y 8906   4.281   0.762   7.366 -0.9243 -0.2231 -0.9557
   91SAPS   C37 8907   4.147   0.899   7.477  0.5155  0.3920 -0.0051
   91SAPS   H7X 8908   4.075   0.816   7.463  0.8957 -0.4806  2.6569
   91SAPS   H7Y 8909   4.099   0.999   7.475 -2.4356 -0.7928  2.6842
   91SAPS   C38 8910   4.216   0.874   7.614  0.5084  0.6744 -0.3181
   91SAPS   H8X 8911   4.288   0.958   7.628 -1.1435  2.4475 -1.8314
   91SAPS   H8Y 8912   4.268   0.776   7.609 -0.1228  0.3784 -1.4940
   91SAPS   C39 8913   4.110   0.881   7.731 -0.3051 -0.2390  0.2535
   91SAPS   H9X 8914   4.043   0.793   7.721  0.4460 -1.2711  3.2159
   91SAPS   H9Y 8915   4.060   0.978   7.710 -4.6060 -2.5674 -1.6129
   91SAPS  C310 8916   4.185   0.869   7.866  0.6906  0.4613 -0.3039
   91SAPS  H10X 8917   4.263   0.948   7.870 -0.2399  1.4026  3.5499
   91SAPS  H10Y 8918   4.227   0.766   7.865 -2.8516 -1.1612  0.1138
   91SAPS  C311 8919   4.103   0.883   7.994 -0.1950 -0.1476 -0.0004
   91SAPS  H11X 8920   4.036   0.970   7.980  1.3060  1.1858  0.8446
   91SAPS  H11Y 8921   4.171   0.920   8.073 -1.0728 -0.3562  0.8763
   91SAPS  C312 8922   4.019   0.763   8.034  0.7997  0.1074  0.2467
   91SAPS  H12X 8923   4.075   0.680   8.082 -0.1319 -0.9557 -0.4525
   91SAPS  H12Y 8924   3.976   0.721   7.941  2.7574 -0.0487 -0.6373
   91SAPS  C313 8925   3.901   0.798   8.122 -0.8878  0.0079 -0.1996
   91SAPS  H13X 8926   3.829   0.713   8.116 -0.2595 -0.5462  0.0010
   91SAPS  H13Y 8927   3.846   0.889   8.089  1.9384  0.9605 -2.6735
   91SAPS  C314 8928   3.952   0.813   8.264  0.0805 -0.1593  0.1940
   91SAPS  H14X 8929   4.062   0.804   8.278 -0.0769 -0.0393  1.5745
   91SAPS  H14Y 8930   3.916   0.735   8.334 -1.4975 -0.5775 -1.0307
   91SAPS  C315 8931   3.927   0.953   8.321  0.3046  0.1203 -0.0120
   91SAPS  H15X 8932   3.818   0.961   8.340  0.1943  0.5582 -0.7697
   91SAPS  H15Y 8933   3.950   1.035   8.249  0.0186 -1.5404 -2.1022
   91SAPS  C316 8934   3.978   0.983   8.457  0.0078  0.2949 -0.2402
   91SAPS  H16X 8935   4.089   0.977   8.467 -0.0075 -0.0173 -0.2318
   91SAPS  H16Y 8936   3.932   0.919   8.535  0.8661 -1.3944 -1.0557
   91SAPS  C317 8937   3.936   1.125   8.502  0.4624  0.5772 -0.0789
   91SAPS  H17X 8938   3.846   1.158   8.446  0.7639  0.9284 -0.3609
   91SAPS  H17Y 8939   4.015   1.192   8.462  0.0037 -0.3396 -2.7429
   91SAPS  C318 8940   3.923   1.130   8.659  0.8748  0.3625  0.0199
   91SAPS  H18X 8941   3.831   1.076   8.689  1.0123  0.3047  0.3461
   91SAPS  H18Y 8942   3.932   1.234   8.698 -0.5611  1.1584 -1.6659
   91SAPS  H18Z 8943   4.012   1.076   8.698  0.4054 -1.4624 -1.3227
   92SAPS     N 8944   5.469   5.236   6.294 -0.0776 -0.0681  0.2200
   92SAPS   HN1 8945   5.487   5.338   6.289 -0.7879 -0.0010 -1.5079
   92SAPS   HN2 8946   5.435   5.209   6.389  2.9344 -3.1805  0.6244
   92SAPS   HN3 8947   5.562   5.190   6.295 -0.1470 -0.2703  2.1187
   92SAPS   C12 8948   5.382   5.187   6.185  0.3386  0.2719  0.4853
   92SAPS  H12A 8949   5.278   5.199   6.211 -0.1442 -2.8638  0.3904
   92SAPS   C13 8950   5.422   5.252   6.046 -0.2777  0.4288  0.6269
   92SAPS  O13A 8951   5.501   5.346   6.028  0.1759  0.1107 -0.3932
   92SAPS  O13B 8952   5.340   5.220   5.952  0.1255  0.1887 -0.2275
   92SAPS   C11 8953   5.393   5.031   6.167  0.1919 -0.1214 -0.2796
   92SAPS  H11A 8954   5.488   5.007   6.115  0.6693  3.0126 -1.0803
   92SAPS  H11B 8955   5.315   4.996   6.096  1.5122  0.0545 -1.8769
   92SAPS     P 8956   5.268   4.875   6.336 -0.5155 -0.3808 -0.1363
   92SAPS   O13 8957   5.166   4.960   6.400  0.0681 -0.7626 -0.2138
   92SAPS   O14 8958   5.221   4.791   6.221 -0.0597  0.2183 -0.4274
   92SAPS   O12 8959   5.392   4.962   6.293  0.1366 -0.0112  0.5806
   92SAPS   O11 8960   5.330   4.781   6.439  0.0238 -0.1723 -0.4758
   92SAPS    C1 8961   5.459   4.714   6.417  0.1009 -0.2376  0.4838
   92SAPS    HA 8962   5.449   4.607   6.391 -3.5747 -0.1026  0.7678
   92SAPS    HB 8963   5.512   4.762   6.332 -0.5699 -1.5532 -0.7244
   92SAPS    C2 8964   5.542   4.725   6.548  0.2113  0.2421  0.3582
   92SAPS    HS 8965   5.649   4.702   6.533  0.3538  1.0249  0.1699
   92SAPS   O21 8966   5.483   4.645   6.656  0.0820 -0.3220 -0.2804
   92SAPS   C21 8967   5.525   4.522   6.665  0.3080 -0.2281  0.5857
   92SAPS   O22 8968   5.597   4.467   6.583 -0.3388  0.0574 -0.1603
   92SAPS   C22 8969   5.460   4.464   6.791  0.3350 -0.2196 -0.2121
   92SAPS   H2R 8970   5.353   4.494   6.803 -0.7925 -2.7504 -2.7963
   92SAPS   H2S 8971   5.462   4.353   6.783 -2.9710 -0.3533 -0.6098
   92SAPS    C3 8972   5.548   4.873   6.598  0.1476 -0.2443  0.2536
   92SAPS    HX 8973   5.453   4.906   6.645  0.9451  1.8009  0.5180
   92SAPS    HY 8974   5.556   4.928   6.502  0.7891  1.1458  1.0722
   92SAPS   O31 8975   5.655   4.905   6.682 -0.4356 -0.1714  0.2098
   92SAPS   C31 8976   5.655   5.014   6.749  0.1827 -0.2748  0.1333
   92SAPS   O32 8977   5.575   5.110   6.739 -0.2075  0.4207  0.3948
   92SAPS   C32 8978   5.771   5.005   6.855  0.2424  0.5608  0.2947
   92SAPS   H2X 8979   5.864   5.007   6.793  0.7214  0.7773  1.0115
   92SAPS   H2Y 8980   5.770   4.899   6.886 -1.3201  0.8753  1.4295
   92SAPS   C23 8981   5.534   4.499   6.921  0.3252 -1.3215 -0.2334
   92SAPS   H3R 8982   5.509   4.597   6.965  1.8200 -0.7902 -0.5245
   92SAPS   H3S 8983   5.644   4.493   6.906  0.1610 -2.3205 -1.2338
   92SAPS   C24 8984   5.503   4.388   7.023 -0.6353  0.2746  0.7193
   92SAPS   H4R 8985   5.565   4.383   7.115 -1.0399 -2.6670  0.9147
   92SAPS   H4S 8986   5.533   4.304   6.958 -0.2436  2.6233 -2.3946
   92SAPS   C25 8987   5.358   4.388   7.055 -0.3873 -0.1076 -0.1579
   92SAPS   H5R 8988   5.288   4.436   6.984 -0.2210  2.5688  1.3507
   92SAPS   C26 8989   5.305   4.343   7.167 -0.0045 -0.4350 -0.5305
   92SAPS   H6R 8990   5.199   4.361   7.191  0.9998  3.4658  1.8044
   92SAPS   C27 8991   5.383   4.274   7.274 -0.4761 -0.2108  0.2556
   92SAPS   H7R 8992   5.440   4.187   7.236 -1.5401 -0.1180 -1.7287
   92SAPS   H7S 8993   5.314   4.221   7.343  0.7571 -2.0986  0.1108
   92SAPS   C28 8994   5.485   4.343   7.363  0.2309 -0.0057  0.3577
   92SAPS   H8R 8995   5.559   4.409   7.315 -0.0364  0.9220  1.2066
   92SAPS   C29 8996   5.486   4.337   7.497  0.3015 -0.6258 -0.3173
   92SAPS   H9R 8997   5.568   4.395   7.541 -0.5011  0.0415  0.3469
   92SAPS  C210 8998   5.401   4.263   7.593 -0.0158  0.1853 -0.4191
   92SAPS  H10R 8999   5.460   4.246   7.686 -0.2113 -0.4521 -0.4106
   92SAPS  H10S 9000   5.383   4.159   7.559  0.1719 -0.2031  0.6206
   92SAPS  C211 9001   5.259   4.326   7.616 -0.0076  0.3429  0.1181
   92SAPS  H11R 9002   5.194   4.338   7.528 -1.2401 -0.7235  0.8518
   92SAPS  C212 9003   5.206   4.370   7.732 -0.0482  1.3523  1.0854
   92SAPS  H12R 9004   5.103   4.408   7.730  0.4924  2.9337  1.8489
   92SAPS  C213 9005   5.278   4.369   7.864 -0.8371 -0.4808 -0.2408
   92SAPS  H13R 9006   5.353   4.449   7.880 -0.9591  0.2635 -2.9649
   92SAPS  H13S 9007   5.343   4.280   7.880  0.3315  0.6312  1.6539
   92SAPS  C214 9008   5.181   4.379   7.981  0.0973 -0.2120  0.0719
   92SAPS  H14R 9009   5.124   4.288   8.008 -1.3581  0.2070 -1.3980
   92SAPS  C215 9010   5.138   4.488   8.043  0.1046  0.2081 -0.8528
   92SAPS  H15R 9011   5.078   4.471   8.134  0.6721  1.3096 -0.2454
   92SAPS  C216 9012   5.179   4.628   8.013 -0.3653 -1.0389  0.3010
   92SAPS  H16R 9013   5.103   4.680   7.950 -1.3181 -1.6428  0.9302
   92SAPS  H16S 9014   5.278   4.631   7.964  0.1518  0.3519  1.3589
   92SAPS  C217 9015   5.193   4.704   8.151  0.2414  0.0657 -0.1450
   92SAPS  H17R 9016   5.096   4.720   8.203  0.1498 -3.6119  1.1591
   92SAPS  H17S 9017   5.242   4.800   8.125  0.6605 -0.3548 -0.9306
   92SAPS  C218 9018   5.288   4.632   8.250  0.1988 -0.4087  0.6133
   92SAPS  H18R 9019   5.393   4.642   8.215  0.4605 -0.1252  1.4715
   92SAPS  H18S 9020   5.268   4.524   8.270  0.7072 -0.8813 -1.2255
   92SAPS  C219 9021   5.302   4.702   8.382  0.5873 -0.3366  0.6257
   92SAPS  H19R 9022   5.331   4.807   8.359 -3.0163  0.4097 -1.2388
   92SAPS  H19S 9023   5.379   4.648   8.441 -0.8999 -2.2107  0.9310
   92SAPS  C220 9024   5.180   4.701   8.477  0.5881 -0.2385 -0.5245
   92SAPS  H20R 9025   5.215   4.736   8.577  3.0874  0.1526 -1.4820
   92SAPS  H20S 9026   5.139   4.599   8.493  0.8904 -0.3505 -0.4627
   92SAPS  H20T 9027   5.097   4.768   8.445 -0.3466 -0.5311  1.1445
   92SAPS   C33 9028   5.758   5.104   6.977 -0.2237  0.4100 -0.4609
   92SAPS   H3X 9029   5.652   5.099   7.008  0.2831 -1.2707  1.1512
   92SAPS   H3Y 9030   5.779   5.210   6.950 -1.7972  0.9857  0.4521
   92SAPS   C34 9031   5.834   5.043   7.101 -0.4390 -1.0177  0.9065
   92SAPS   H4X 9032   5.803   4.941   7.132 -0.9413 -1.0994  0.1552
   92SAPS   H4Y 9033   5.809   5.114   7.182 -1.5588 -2.3748  1.8013
   92SAPS   C35 9034   5.987   5.026   7.085 -0.0973  0.9385  0.8168
   92SAPS   H5X 9035   6.039   5.118   7.054  0.0814  0.8190  0.7598
   92SAPS   H5Y 9036   6.011   4.945   7.012 -0.9329 -0.1559  1.7100
   92SAPS   C36 9037   6.047   4.962   7.213 -0.4136  0.2534  0.6692
   92SAPS   H6X 9038   6.155   4.990   7.215 -0.3856  0.6293 -2.5134
   92SAPS   H6Y 9039   6.066   4.852   7.205  1.5718  0.4757  1.6002
   92SAPS   C37 9040   5.983   4.996   7.352 -0.4161  0.5569 -0.4052
   92SAPS   H7X 9041   5.879   4.957   7.342 -0.7279  0.4127  2.5171
   92SAPS   H7Y 9042   5.968   5.105   7.367 -3.3485  0.1282  0.3397
   92SAPS   C38 9043   6.041   4.921   7.472  0.8563  0.9233  0.8784
   92SAPS   H8X 9044   6.041   4.816   7.435 -0.9420  1.2839 -0.2746
   92SAPS   H8Y 9045   5.977   4.929   7.562  0.0272  0.2421  0.3637
   92SAPS   C39 9046   6.186   4.958   7.508  1.3276 -0.3079  0.5913
   92SAPS   H9X 9047   6.226   5.008   7.417  0.4184 -0.5262  0.0469
   92SAPS   H9Y 9048   6.236   4.858   7.510  0.9310 -0.5100  0.5574
   92SAPS  C310 9049   6.200   5.045   7.636 -0.0493  0.2688  0.9545
   92SAPS  H10X 9050   6.139   5.137   7.622  2.5776  1.8612 -0.8950
   92SAPS  H10Y 9051   6.305   5.074   7.657  0.1070 -0.9019  1.8784
   92SAPS  C311 9052   6.145   4.985   7.766  0.2394 -0.1867  0.3557
   92SAPS  H11X 9053   6.147   4.876   7.746  2.2522  0.3797 -3.3062
   92SAPS  H11Y 9054   6.041   5.022   7.773  0.4956  0.2214  3.5446
   92SAPS  C312 9055   6.214   5.021   7.897 -0.6222  0.1097 -0.5639
   92SAPS  H12X 9056   6.237   5.129   7.901 -0.0878  0.0827 -2.1396
   92SAPS  H12Y 9057   6.314   4.972   7.894 -1.4913 -1.7571 -0.8158
   92SAPS  C313 9058   6.126   4.991   8.025 -0.2115  0.6917  0.1826
   92SAPS  H13X 9059   6.179   5.020   8.117  0.6172  0.9215 -0.3583
   92SAPS  H13Y 9060   6.113   4.880   8.022  0.4073  0.5902  0.9228
   92SAPS  C314 9061   6.000   5.073   8.032  0.4139  0.3084 -0.3646
   92SAPS  H14X 9062   5.938   5.051   7.943  3.2800 -0.7445 -2.2307
   92SAPS  H14Y 9063   6.025   5.181   8.035  2.6366 -0.1778  0.3791
   92SAPS  C315 9064   5.928   5.027   8.161 -0.9334  0.0373 -1.1229
   92SAPS  H15X 9065   5.989   5.073   8.241 -2.1661 -0.9840  0.4569
   92SAPS  H15Y 9066   5.934   4.917   8.180 -1.3123  0.0645 -0.8436
   92SAPS  C316 9067   5.781   5.077   8.179  0.0271 -0.4357  0.0982
   92SAPS  H16X 9068   5.724   5.038   8.092 -3.5563 -0.4907  2.2682
   92SAPS  H16Y 9069   5.791   5.188   8.169  1.9050 -0.5611  0.0992
   92SAPS  C317 9070   5.713   5.035   8.310 -0.3550  0.4324  0.2735
   92SAPS  H17X 9071   5.721   4.925   8.304 -0.2635  0.4541 -0.0252
   92SAPS  H17Y 9072   5.605   5.055   8.294  0.0320  1.6631 -1.0617
   92SAPS  C318 9073   5.778   5.087   8.445 -0.5245  0.2858 -0.8424
   92SAPS  H18X 9074   5.883   5.053   8.455 -0.2598  1.2669 -0.0626
   92SAPS  H18Y 9075   5.719   5.048   8.530 -0.2781 -0.3858 -0.9719
   92SAPS  H18Z 9076   5.781   5.198   8.448  0.2099  0.2835 -1.1937
   93SAPS     N 9077   6.603   5.326   6.136 -0.0438 -1.1327  0.2853
   93SAPS   HN1 9078   6.637   5.373   6.049 -1.1216 -1.7394 -0.4738
   93SAPS   HN2 9079   6.555   5.390   6.201  0.2206 -0.9993  0.3512
   93SAPS   HN3 9080   6.683   5.280   6.185 -0.5557 -0.2497  2.0121
   93SAPS   C12 9081   6.515   5.214   6.083 -0.6251  0.3139  0.5950
   93SAPS  H12A 9082   6.417   5.252   6.060 -0.3261  0.8504  0.1815
   93SAPS   C13 9083   6.552   5.173   5.936  0.3200  0.2901  0.8110
   93SAPS  O13A 9084   6.639   5.235   5.869 -0.0151  0.0207  0.0635
   93SAPS  O13B 9085   6.473   5.088   5.886  0.1410 -0.7984 -0.0385
   93SAPS   C11 9086   6.521   5.084   6.176 -0.4808  0.7234  0.5782
   93SAPS  H11A 9087   6.626   5.051   6.170 -0.0472  2.0400  0.5633
   93SAPS  H11B 9088   6.459   5.000   6.137  0.8167 -0.0507  0.1537
   93SAPS     P 9089   6.335   5.102   6.353  0.2573  0.1220 -0.2604
   93SAPS   O13 9090   6.316   5.206   6.457  0.1280  0.4456 -0.5440
   93SAPS   O14 9091   6.247   5.100   6.236  0.1720 -0.1562  0.0861
   93SAPS   O12 9092   6.488   5.120   6.304 -0.0394  0.2009  0.5757
   93SAPS   O11 9093   6.329   4.964   6.427  0.4274 -1.2693  0.4260
   93SAPS    C1 9094   6.445   4.891   6.451  0.9037  0.7853  0.1993
   93SAPS    HA 9095   6.448   4.808   6.377  0.2176 -0.4812  1.5466
   93SAPS    HB 9096   6.537   4.954   6.452  0.8979  0.8059 -0.3048
   93SAPS    C2 9097   6.432   4.820   6.590  0.3706  0.3559 -1.0456
   93SAPS    HS 9098   6.336   4.767   6.602 -0.3540  1.6336 -0.9584
   93SAPS   O21 9099   6.470   4.916   6.693 -0.6524 -0.1920 -0.4954
   93SAPS   C21 9100   6.374   4.948   6.770  0.4435 -0.4410 -0.1622
   93SAPS   O22 9101   6.255   4.925   6.756 -0.3351 -0.5110 -0.6679
   93SAPS   C22 9102   6.426   5.025   6.898  0.7791  0.3553  0.1367
   93SAPS   H2R 9103   6.537   5.028   6.887  0.5736  1.4049 -2.3192
   93SAPS   H2S 9104   6.392   5.129   6.883  2.2235  0.3808 -4.2868
   93SAPS    C3 9105   6.545   4.712   6.591  0.2828 -0.2884  0.3211
   93SAPS    HX 9106   6.636   4.770   6.568 -1.3324  1.8296 -1.0518
   93SAPS    HY 9107   6.523   4.647   6.504 -0.8373 -0.7555  0.9188
   93SAPS   O31 9108   6.546   4.636   6.715  0.2716  0.0237  0.0308
   93SAPS   C31 9109   6.502   4.508   6.702 -0.1533 -0.3994 -0.1548
   93SAPS   O32 9110   6.484   4.450   6.601  0.0988  0.2484 -0.3001
   93SAPS   C32 9111   6.488   4.450   6.848  0.1764 -0.2030 -0.1434
   93SAPS   H2X 9112   6.587   4.460   6.896  0.2907  0.0904 -0.4373
   93SAPS   H2Y 9113   6.470   4.340   6.848  1.1590 -0.4183  2.2239
   93SAPS   C23 9114   6.391   4.965   7.032 -0.1946  0.0395  0.2790
   93SAPS   H3R 9115   6.446   4.869   7.048 -0.7835 -0.2420  0.6720
   93SAPS   H3S 9116   6.283   4.937   7.030 -0.1596 -0.1289  0.5985
   93SAPS   C24 9117   6.412   5.061   7.152  0.2231  0.0605  0.7273
   93SAPS   H4R 9118   6.360   5.010   7.236 -0.0797  0.8268  1.0127
   93SAPS   H4S 9119   6.368   5.160   7.129  1.4027  0.5025  0.3071
   93SAPS   C25 9120   6.557   5.067   7.187 -0.3592 -0.5340 -0.3925
   93SAPS   H5R 9121   6.619   5.099   7.101  2.7685  1.1320  2.2752
   93SAPS   C26 9122   6.623   5.039   7.306 -0.1727  0.0606  0.2731
   93SAPS   H6R 9123   6.730   5.062   7.319  0.4897 -1.7124 -1.5648
   93SAPS   C27 9124   6.560   4.981   7.432 -0.1134  0.6153 -0.3841
   93SAPS   H7R 9125   6.456   4.944   7.418  0.0579 -0.1400  0.3267
   93SAPS   H7S 9126   6.569   5.062   7.507  0.3070  0.2014  0.0096
   93SAPS   C28 9127   6.625   4.845   7.476  0.3802  0.9304 -0.3846
   93SAPS   H8R 9128   6.672   4.784   7.397  0.7203  0.1454  0.4118
   93SAPS   C29 9129   6.639   4.799   7.600  0.4761 -0.8415  0.0252
   93SAPS   H9R 9130   6.706   4.715   7.622  0.8777  0.1273  3.0568
   93SAPS  C210 9131   6.587   4.869   7.725  0.3050 -0.1929 -0.0184
   93SAPS  H10R 9132   6.480   4.838   7.731 -0.1299  0.7919 -1.9076
   93SAPS  H10S 9133   6.571   4.978   7.708 -1.9238 -0.3899  0.4390
   93SAPS  C211 9134   6.662   4.850   7.854  0.6202  0.4115  0.0397
   93SAPS  H11R 9135   6.734   4.768   7.862  1.5918  1.2946  0.5026
   93SAPS  C212 9136   6.650   4.936   7.958  0.7764 -0.0108  0.2339
   93SAPS  H12R 9137   6.724   4.933   8.039  1.7221  2.3580 -0.4614
   93SAPS  C213 9138   6.562   5.063   7.955  0.6891  0.5950  0.2059
   93SAPS  H13R 9139   6.482   5.055   8.032  0.1006  0.4610 -0.4060
   93SAPS  H13S 9140   6.506   5.079   7.860  0.9173 -1.7939 -0.4053
   93SAPS  C214 9141   6.648   5.194   7.964 -0.4863  0.2806  0.0200
   93SAPS  H14R 9142   6.714   5.212   7.878 -2.0152  1.5757 -0.9594
   93SAPS  C215 9143   6.653   5.285   8.058 -1.1261 -0.6391  0.2043
   93SAPS  H15R 9144   6.717   5.374   8.049 -0.6539 -1.0890 -1.2000
   93SAPS  C216 9145   6.581   5.275   8.193 -0.2384  0.2648 -0.4632
   93SAPS  H16R 9146   6.492   5.209   8.178  0.9701 -1.2627 -1.2248
   93SAPS  H16S 9147   6.533   5.373   8.214 -0.3873  0.1627 -0.3273
   93SAPS  C217 9148   6.668   5.212   8.306 -0.3651 -0.1730  0.5610
   93SAPS  H17R 9149   6.723   5.123   8.268 -0.4182 -0.2804  0.7364
   93SAPS  H17S 9150   6.601   5.176   8.387 -1.9524  1.4019  0.0056
   93SAPS  C218 9151   6.772   5.310   8.361  0.0331  0.0142 -0.2260
   93SAPS  H18R 9152   6.712   5.389   8.412  1.4872 -0.3947  2.2477
   93SAPS  H18S 9153   6.824   5.360   8.276  1.7241 -0.5029  0.4704
   93SAPS  C219 9154   6.863   5.242   8.460 -0.1900 -0.0139  0.3191
   93SAPS  H19R 9155   6.921   5.172   8.396 -2.6972  0.9166 -3.2405
   93SAPS  H19S 9156   6.818   5.166   8.527 -1.2342  0.0573 -0.2865
   93SAPS  C220 9157   6.948   5.335   8.539  0.2491 -0.4353 -0.0071
   93SAPS  H20R 9158   6.998   5.413   8.477 -0.4529  0.1152  0.1104
   93SAPS  H20S 9159   7.025   5.285   8.601 -0.6279  1.0345  2.4235
   93SAPS  H20T 9160   6.871   5.383   8.604  1.6623  1.0935  0.6281
   93SAPS   C33 9161   6.385   4.525   6.933  0.7061 -0.1633  0.4161
   93SAPS   H3X 9162   6.292   4.521   6.872  0.9103 -1.3278  0.1613
   93SAPS   H3Y 9163   6.413   4.632   6.934  0.8102 -0.0757 -2.6521
   93SAPS   C34 9164   6.359   4.461   7.064  0.1550  0.1334 -0.2623
   93SAPS   H4X 9165   6.458   4.448   7.113  0.9659  2.0583 -1.2806
   93SAPS   H4Y 9166   6.315   4.359   7.058  1.7564 -0.6382  0.4008
   93SAPS   C35 9167   6.288   4.550   7.164  0.0485  0.0100  0.1962
   93SAPS   H5X 9168   6.185   4.568   7.126  0.3436 -0.8849 -1.0950
   93SAPS   H5Y 9169   6.335   4.650   7.167 -2.8535  1.6714 -3.0127
   93SAPS   C36 9170   6.301   4.497   7.308 -0.2660  0.2497  0.7507
   93SAPS   H6X 9171   6.407   4.483   7.338 -0.2617 -0.0548  0.5909
   93SAPS   H6Y 9172   6.251   4.398   7.315 -0.5181  0.1107 -2.0770
   93SAPS   C37 9173   6.241   4.582   7.421  0.5395  0.0243  0.4981
   93SAPS   H7X 9174   6.136   4.602   7.391  0.3684 -0.2826  0.8889
   93SAPS   H7Y 9175   6.299   4.676   7.431  1.6521 -0.8060  2.4401
   93SAPS   C38 9176   6.261   4.508   7.551  0.0426 -0.4923 -0.1405
   93SAPS   H8X 9177   6.362   4.463   7.559 -1.2114 -3.4842  0.1757
   93SAPS   H8Y 9178   6.187   4.426   7.564  0.4595 -0.5689  2.1587
   93SAPS   C39 9179   6.259   4.600   7.667  0.4448  0.1944  0.2430
   93SAPS   H9X 9180   6.164   4.658   7.663 -1.0700 -2.0835  1.4991
   93SAPS   H9Y 9181   6.334   4.683   7.662 -1.3250  1.8496 -0.2434
   93SAPS  C310 9182   6.276   4.527   7.807 -0.4962 -0.0316  0.2979
   93SAPS  H10X 9183   6.364   4.461   7.799 -0.4742  0.0558 -0.2066
   93SAPS  H10Y 9184   6.185   4.465   7.825 -0.2740 -0.8056 -1.1521
   93SAPS  C311 9185   6.295   4.637   7.910 -0.3779 -0.7312 -0.0525
   93SAPS  H11X 9186   6.217   4.714   7.896  0.8339  0.9199  1.8201
   93SAPS  H11Y 9187   6.388   4.686   7.873 -0.1243 -0.5738  0.7729
   93SAPS  C312 9188   6.313   4.595   8.053 -0.0411  1.2204  0.4033
   93SAPS  H12X 9189   6.355   4.492   8.053 -1.9355  0.3812 -1.3944
   93SAPS  H12Y 9190   6.212   4.586   8.099  0.7304 -4.1751  1.7627
   93SAPS  C313 9191   6.384   4.691   8.147 -0.2582 -0.7040  0.3412
   93SAPS  H13X 9192   6.329   4.784   8.122  1.2324 -0.0456 -0.6206
   93SAPS  H13Y 9193   6.491   4.699   8.119 -0.6754 -0.4041 -1.2771
   93SAPS  C314 9194   6.377   4.654   8.292 -0.4719  0.5072 -0.0937
   93SAPS  H14X 9195   6.427   4.557   8.312  0.7057  1.6131  3.0778
   93SAPS  H14Y 9196   6.271   4.643   8.323 -0.4303 -2.0166 -0.6286
   93SAPS  C315 9197   6.432   4.754   8.394  0.5172  0.1348 -0.5007
   93SAPS  H15X 9198   6.533   4.782   8.357  0.4371 -0.2591 -1.0347
   93SAPS  H15Y 9199   6.437   4.703   8.493 -0.4502  0.5681 -0.2157
   93SAPS  C316 9200   6.352   4.883   8.412  0.3267  0.5524  0.6427
   93SAPS  H16X 9201   6.247   4.860   8.441  0.6825 -2.5702 -0.1779
   93SAPS  H16Y 9202   6.357   4.944   8.319 -0.6323  0.8408  0.7593
   93SAPS  C317 9203   6.414   4.959   8.531 -0.5020  0.9516 -0.6227
   93SAPS  H17X 9204   6.521   4.985   8.512 -0.7972  2.5038 -0.3067
   93SAPS  H17Y 9205   6.416   4.889   8.617 -1.3173 -1.0740 -2.1851
   93SAPS  C318 9206   6.340   5.080   8.578 -0.4748 -1.3745 -0.7086
   93SAPS  H18X 9207   6.402   5.132   8.654 -2.7258  1.9647 -0.9577
   93SAPS  H18Y 9208   6.246   5.052   8.630  0.5378 -3.3272  0.1874
   93SAPS  H18Z 9209   6.323   5.162   8.505 -1.0177  0.0441  0.9563
   94SAPS     N 9210   6.689   0.734   5.908 -0.5711  0.7842 -0.5469
   94SAPS   HN1 9211   6.637   0.759   5.995  0.4649  1.1755 -0.0329
   94SAPS   HN2 9212   6.727   0.638   5.919 -0.1533  1.0175  0.0950
   94SAPS   HN3 9213   6.775   0.792   5.918  1.3859 -1.9009 -0.8282
   94SAPS   C12 9214   6.626   0.761   5.770 -0.3870 -0.9244 -0.2664
   94SAPS  H12A 9215   6.582   0.859   5.767  2.5418  0.5074  0.2871
   94SAPS   C13 9216   6.744   0.759   5.661 -0.3681  0.3875 -1.5247
   94SAPS  O13A 9217   6.858   0.748   5.706 -0.1424 -0.0443  0.7121
   94SAPS  O13B 9218   6.726   0.807   5.549 -0.4926  0.5914 -0.2024
   94SAPS   C11 9219   6.528   0.656   5.724 -0.1006 -0.4966 -0.5663
   94SAPS  H11A 9220   6.582   0.560   5.740 -0.4763 -0.7579 -0.8268
   94SAPS  H11B 9221   6.495   0.677   5.620 -2.2502  0.2234  0.1997
   94SAPS     P 9222   6.303   0.547   5.799  0.1555 -0.1814  0.0519
   94SAPS   O13 9223   6.176   0.614   5.763  0.2230 -0.0993 -0.2415
   94SAPS   O14 9224   6.337   0.438   5.704 -0.2922  0.1553  0.1561
   94SAPS   O12 9225   6.416   0.667   5.807  0.0197  0.3722  0.2375
   94SAPS   O11 9226   6.286   0.493   5.949 -0.2686 -0.5539  0.0634
   94SAPS    C1 9227   6.378   0.399   6.001  0.9291  0.1274 -0.1421
   94SAPS    HA 9228   6.333   0.299   5.980  0.8980  0.0332  0.3636
   94SAPS    HB 9229   6.477   0.415   5.953  1.1723 -1.1517 -0.0991
   94SAPS    C2 9230   6.386   0.409   6.159 -0.4187  0.1394  0.4136
   94SAPS    HS 9231   6.423   0.309   6.190 -2.0969 -0.9449 -0.9209
   94SAPS   O21 9232   6.255   0.424   6.219  0.2081 -0.1961  0.0641
   94SAPS   C21 9233   6.161   0.326   6.193 -0.0326  0.1292  1.3592
   94SAPS   O22 9234   6.191   0.219   6.155 -0.2971  0.2229  0.1080
   94SAPS   C22 9235   6.025   0.361   6.246  0.0990  0.0377 -0.4180
   94SAPS   H2R 9236   5.962   0.377   6.156 -0.6073 -0.1167  0.0440
   94SAPS   H2S 9237   6.001   0.258   6.282  1.8853 -0.4060 -0.3845
   94SAPS    C3 9238   6.470   0.535   6.197 -0.2296  0.2578  0.3238
   94SAPS    HX 9239   6.425   0.616   6.136 -3.3972 -1.2927  0.3559
   94SAPS    HY 9240   6.574   0.521   6.162 -0.2741  2.9952 -1.2061
   94SAPS   O31 9241   6.465   0.560   6.333  0.4633 -0.1782 -0.1111
   94SAPS   C31 9242   6.391   0.671   6.371 -0.4078 -0.3345 -0.0286
   94SAPS   O32 9243   6.347   0.756   6.299 -0.4842 -0.5272 -0.4323
   94SAPS   C32 9244   6.393   0.694   6.528  0.1099  0.1140  0.2814
   94SAPS   H2X 9245   6.288   0.668   6.553  0.8770 -3.5068  0.2865
   94SAPS   H2Y 9246   6.411   0.803   6.543  0.4427  0.0449  0.4022
   94SAPS   C23 9247   6.015   0.470   6.356 -0.0624 -0.0850 -0.4820
   94SAPS   H3R 9248   5.909   0.504   6.365 -0.7294 -2.2686  0.9018
   94SAPS   H3S 9249   6.084   0.551   6.323  0.4594  0.0046  0.7526
   94SAPS   C24 9250   6.073   0.419   6.494 -0.7572 -0.1208  0.4865
   94SAPS   H4R 9251   6.183   0.409   6.480 -0.9497 -0.6458 -0.7959
   94SAPS   H4S 9252   6.022   0.322   6.510 -0.7850 -0.2943 -0.5645
   94SAPS   C25 9253   6.039   0.520   6.603  0.5012  0.7046  0.7614
   94SAPS   H5R 9254   6.013   0.619   6.562 -0.8598 -0.3964 -1.2363
   94SAPS   C26 9255   6.036   0.497   6.735  0.0199  0.0373  1.5210
   94SAPS   H6R 9256   6.004   0.576   6.806  1.4295  1.2918  0.8110
   94SAPS   C27 9257   6.058   0.362   6.798  0.8118 -0.3805  0.2113
   94SAPS   H7R 9258   6.150   0.372   6.860  1.8352  0.8610 -1.4015
   94SAPS   H7S 9259   6.084   0.276   6.734  0.6995 -0.1547 -0.1423
   94SAPS   C28 9260   5.936   0.324   6.879 -0.4335  0.0380  0.1458
   94SAPS   H8R 9261   5.847   0.285   6.827  0.8145 -1.7309 -0.7692
   94SAPS   C29 9262   5.931   0.321   7.012  0.2608  0.1192  0.4230
   94SAPS   H9R 9263   5.834   0.286   7.050 -0.2403  0.6292 -0.3653
   94SAPS  C210 9264   6.036   0.355   7.120  0.2022 -0.6695 -0.0778
   94SAPS  H10R 9265   6.131   0.322   7.072  0.9459  1.9208 -0.5361
   94SAPS  H10S 9266   6.008   0.290   7.207 -0.0436 -1.3299 -0.6415
   94SAPS  C211 9267   6.061   0.498   7.156 -0.1966  0.0662 -0.2288
   94SAPS  H11R 9268   6.033   0.566   7.074 -0.3340  0.9539  0.5338
   94SAPS  C212 9269   6.110   0.544   7.280 -0.1058  0.1658  0.0489
   94SAPS  H12R 9270   6.123   0.653   7.292  2.2079 -0.1041  0.4888
   94SAPS  C213 9271   6.137   0.456   7.396 -0.5686  0.2722 -0.0815
   94SAPS  H13R 9272   6.229   0.490   7.448 -0.4824  0.0251 -0.0708
   94SAPS  H13S 9273   6.170   0.355   7.361  1.1016  0.9919 -0.6944
   94SAPS  C214 9274   6.030   0.448   7.500  0.2077  0.2963  0.1723
   94SAPS  H14R 9275   5.960   0.378   7.453  2.6405 -1.0889 -1.6384
   94SAPS  C215 9276   6.003   0.521   7.608 -0.1563 -0.0683  0.4209
   94SAPS  H15R 9277   5.933   0.483   7.684 -0.0865 -0.2327  0.4033
   94SAPS  C216 9278   6.096   0.627   7.662  1.3019 -0.2975  0.2797
   94SAPS  H16R 9279   6.037   0.720   7.674  1.8064  0.2037 -0.9394
   94SAPS  H16S 9280   6.174   0.651   7.587  0.5269  0.6956 -0.2281
   94SAPS  C217 9281   6.151   0.603   7.808 -0.5435 -0.4046 -0.3641
   94SAPS  H17R 9282   6.071   0.584   7.883 -0.5675  1.6016  0.1751
   94SAPS  H17S 9283   6.186   0.702   7.843 -2.0266 -0.4314  1.3625
   94SAPS  C218 9284   6.255   0.488   7.822  0.4337  0.0855  0.3311
   94SAPS  H18R 9285   6.316   0.496   7.729 -0.2030  2.1006  0.0344
   94SAPS  H18S 9286   6.202   0.390   7.815 -2.0103  1.2539  1.1912
   94SAPS  C219 9287   6.363   0.503   7.934  0.2198 -1.1572 -0.6713
   94SAPS  H19R 9288   6.303   0.517   8.027 -0.6889  2.6412 -1.6534
   94SAPS  H19S 9289   6.424   0.595   7.921  0.3201 -1.1544 -0.1773
   94SAPS  C220 9290   6.448   0.374   7.952 -0.3499  0.2613 -0.0161
   94SAPS  H20R 9291   6.495   0.345   7.856 -0.3851 -1.4354  0.4439
   94SAPS  H20S 9292   6.382   0.293   7.990 -1.7054  1.4678  0.2889
   94SAPS  H20T 9293   6.538   0.379   8.018 -0.3435 -1.1549  0.1137
   94SAPS   C33 9294   6.487   0.607   6.614  0.0675  0.4522  0.4934
   94SAPS   H3X 9295   6.589   0.633   6.578 -0.7505  1.9490 -0.8971
   94SAPS   H3Y 9296   6.473   0.499   6.594  0.2413 -0.2202  3.5243
   94SAPS   C34 9297   6.491   0.641   6.761  0.0606  0.7385 -0.6129
   94SAPS   H4X 9298   6.544   0.739   6.765  1.6091 -0.1133  1.6116
   94SAPS   H4Y 9299   6.555   0.569   6.817 -0.0036  1.2227  0.0905
   94SAPS   C35 9300   6.355   0.645   6.823 -0.1323 -1.1388 -0.2673
   94SAPS   H5X 9301   6.300   0.555   6.787 -1.3367 -1.0665  1.2818
   94SAPS   H5Y 9302   6.301   0.739   6.797  0.9185 -0.5281 -0.2932
   94SAPS   C36 9303   6.351   0.644   6.977 -0.1624  0.1280  0.1275
   94SAPS   H6X 9304   6.377   0.542   7.013 -0.6628  0.4110  1.3252
   94SAPS   H6Y 9305   6.245   0.666   7.000  0.7690  2.7959  2.2957
   94SAPS   C37 9306   6.441   0.757   7.039 -0.2373  0.4925  0.1078
   94SAPS   H7X 9307   6.414   0.848   6.982  0.8266  1.8780  1.7361
   94SAPS   H7Y 9308   6.549   0.742   7.018 -0.8255 -2.3227 -1.4188
   94SAPS   C38 9309   6.421   0.790   7.193 -0.9101  0.1108  0.2656
   94SAPS   H8X 9310   6.514   0.841   7.225 -2.1156  3.3753 -1.0470
   94SAPS   H8Y 9311   6.411   0.694   7.248 -0.4004 -2.1880 -3.3241
   94SAPS   C39 9312   6.305   0.881   7.228  0.3901  0.4326 -0.0110
   94SAPS   H9X 9313   6.211   0.840   7.185  1.5133 -0.0650 -2.1028
   94SAPS   H9Y 9314   6.323   0.978   7.177  1.4506  0.6284  0.6948
   94SAPS  C310 9315   6.295   0.904   7.380  0.0740 -0.0755  0.2014
   94SAPS  H10X 9316   6.393   0.932   7.422  1.0034 -4.3815  1.3795
   94SAPS  H10Y 9317   6.265   0.812   7.434  1.2730  0.3259  1.6140
   94SAPS  C311 9318   6.206   1.020   7.425 -0.1807  0.0224  0.7588
   94SAPS  H11X 9319   6.099   0.990   7.422 -0.1126 -0.4700  2.1236
   94SAPS  H11Y 9320   6.221   1.111   7.364  0.6327 -0.2747  0.4927
   94SAPS  C312 9321   6.233   1.059   7.575 -0.1031 -0.0560  0.0183
   94SAPS  H12X 9322   6.199   1.162   7.601 -1.2994 -0.9490  2.2804
   94SAPS  H12Y 9323   6.343   1.051   7.589  0.1099  1.5832 -0.4979
   94SAPS  C313 9324   6.181   0.961   7.676  0.4529 -0.4328 -0.2575
   94SAPS  H13X 9325   6.214   0.860   7.644  0.7974  0.5386 -3.2207
   94SAPS  H13Y 9326   6.071   0.949   7.671  0.3055 -0.9040  2.4681
   94SAPS  C314 9327   6.226   0.996   7.820 -0.2846 -0.4366  0.2025
   94SAPS  H14X 9328   6.167   0.926   7.883  2.2181 -2.7885  0.1356
   94SAPS  H14Y 9329   6.198   1.101   7.843  0.3343 -0.3493  0.5653
   94SAPS  C315 9330   6.374   0.976   7.846 -0.3177 -0.2498  1.1718
   94SAPS  H15X 9331   6.435   1.047   7.786 -0.4291  2.2967  3.8418
   94SAPS  H15Y 9332   6.392   0.870   7.817  1.7439  0.1605  0.8563
   94SAPS  C316 9333   6.412   0.990   7.994  0.3941  0.1508  0.5056
   94SAPS  H16X 9334   6.385   1.094   8.020  2.1640  0.8751 -0.3318
   94SAPS  H16Y 9335   6.523   0.992   7.997  0.4272 -0.0620 -0.2754
   94SAPS  C317 9336   6.338   0.889   8.077 -0.2090 -0.3752  0.2119
   94SAPS  H17X 9337   6.349   0.785   8.041 -0.1267 -0.9652  1.8484
   94SAPS  H17Y 9338   6.230   0.915   8.072  0.3594  2.0477 -0.6490
   94SAPS  C318 9339   6.393   0.884   8.216  0.0111  1.1328  1.0195
   94SAPS  H18X 9340   6.502   0.862   8.208 -0.8724 -4.4980  0.4994
   94SAPS  H18Y 9341   6.347   0.800   8.271  0.3416 -1.7361 -2.6466
   94SAPS  H18Z 9342   6.383   0.985   8.262  0.8265  0.8236  1.9138
   95SAPS     N 9343   1.430   5.868   6.051  0.3037  0.1196 -0.3568
   95SAPS   HN1 9344   1.512   5.910   6.099  1.4113  0.9202 -2.8029
   95SAPS   HN2 9345   1.439   5.764   6.054  2.1584  0.2395 -0.4566
   95SAPS   HN3 9346   1.433   5.906   5.955  0.8275  0.5317 -0.1770
   95SAPS   C12 9347   1.308   5.893   6.134  0.1935  0.5690 -1.0128
   95SAPS  H12A 9348   1.302   5.997   6.160  0.7837  1.0755 -2.7469
   95SAPS   C13 9349   1.184   5.830   6.064  0.4807  1.0652 -0.1571
   95SAPS  O13A 9350   1.191   5.738   5.979 -0.1862  0.3042  0.3395
   95SAPS  O13B 9351   1.067   5.856   6.106  0.6063 -0.2324 -0.5424
   95SAPS   C11 9352   1.322   5.816   6.265 -0.6454 -0.4705 -0.1795
   95SAPS  H11A 9353   1.339   5.709   6.241  1.9989 -0.5077  1.4241
   95SAPS  H11B 9354   1.230   5.823   6.327 -0.1366 -0.0580  0.5407
   95SAPS     P 9355   1.437   5.933   6.473  0.0001 -0.3705 -0.1487
   95SAPS   O13 9356   1.576   5.955   6.508 -0.0411 -0.1610  0.2653
   95SAPS   O14 9357   1.358   6.059   6.451 -0.6453  0.5663  0.1175
   95SAPS   O12 9358   1.435   5.856   6.339  0.0165 -0.2797  0.4613
   95SAPS   O11 9359   1.364   5.837   6.574 -0.1266 -0.0112 -0.2971
   95SAPS    C1 9360   1.369   5.691   6.569 -0.8798  0.5475 -0.0177
   95SAPS    HA 9361   1.268   5.658   6.602 -0.4065 -1.5699 -0.5000
   95SAPS    HB 9362   1.389   5.647   6.469 -0.4267 -2.3984  1.2623
   95SAPS    C2 9363   1.474   5.619   6.663  0.2770 -0.3953 -0.4744
   95SAPS    HS 9364   1.476   5.676   6.758 -2.2631  1.9914 -1.7141
   95SAPS   O21 9365   1.596   5.643   6.589  0.1798 -0.4825 -0.4732
   95SAPS   C21 9366   1.698   5.685   6.655 -0.0911  0.0336 -0.1227
   95SAPS   O22 9367   1.709   5.694   6.775 -0.3217  0.1707 -0.0153
   95SAPS   C22 9368   1.814   5.707   6.561 -0.4387  1.2967 -0.3227
   95SAPS   H2R 9369   1.776   5.703   6.457  1.3933  2.6723 -1.0972
   95SAPS   H2S 9370   1.851   5.812   6.572 -0.9859  1.5352 -0.7373
   95SAPS    C3 9371   1.442   5.473   6.697 -0.0094 -0.1702 -0.0404
   95SAPS    HX 9372   1.450   5.400   6.614  1.5403  0.1524 -0.2060
   95SAPS    HY 9373   1.336   5.469   6.730 -0.3065 -2.0457 -1.0693
   95SAPS   O31 9374   1.525   5.434   6.810  0.0222 -0.8011  0.9476
   95SAPS   C31 9375   1.643   5.365   6.790  0.1832 -0.3199  0.6435
   95SAPS   O32 9376   1.674   5.335   6.676  0.2858 -0.2989 -0.1982
   95SAPS   C32 9377   1.718   5.334   6.916 -0.5788  0.7393 -0.3552
   95SAPS   H2X 9378   1.644   5.314   6.996 -1.1673  4.1843  0.1229
   95SAPS   H2Y 9379   1.765   5.430   6.946 -0.6283  0.8841 -0.7376
   95SAPS   C23 9380   1.935   5.601   6.572 -0.0230 -0.2133  0.4172
   95SAPS   H3R 9381   2.006   5.595   6.487  2.7072 -0.9474  2.5696
   95SAPS   H3S 9382   1.880   5.505   6.571 -1.1057  0.3693  1.3524
   95SAPS   C24 9383   2.018   5.629   6.699  0.5443  0.4977  0.1473
   95SAPS   H4R 9384   2.052   5.534   6.745  0.1576 -0.1475 -0.8580
   95SAPS   H4S 9385   1.947   5.665   6.777  0.1981  1.5746 -0.6346
   95SAPS   C25 9386   2.128   5.725   6.664 -0.0858 -0.0924 -0.1286
   95SAPS   H5R 9387   2.150   5.742   6.557 -1.5510 -1.1748 -0.6297
   95SAPS   C26 9388   2.197   5.785   6.763  1.5985  0.1406 -0.5139
   95SAPS   H6R 9389   2.273   5.860   6.735  0.1452  1.8178 -0.1776
   95SAPS   C27 9390   2.181   5.775   6.915 -0.5773 -0.4275 -0.4240
   95SAPS   H7R 9391   2.107   5.697   6.940 -0.2941 -0.0459  1.7467
   95SAPS   H7S 9392   2.138   5.871   6.952  1.2519 -0.1398  1.0956
   95SAPS   C28 9393   2.309   5.729   6.979  0.7461 -0.0233  0.6397
   95SAPS   H8R 9394   2.394   5.705   6.913 -0.1333 -0.3999 -0.3962
   95SAPS   C29 9395   2.317   5.678   7.100 -0.3923 -0.3448 -0.0914
   95SAPS   H9R 9396   2.414   5.639   7.136  0.3056  0.0947 -1.4428
   95SAPS  C210 9397   2.214   5.666   7.211  0.0089 -0.1280 -0.6571
   95SAPS  H10R 9398   2.118   5.701   7.166  1.1518 -0.5133 -3.6444
   95SAPS  H10S 9399   2.221   5.736   7.297 -0.6297 -2.2263  1.1869
   95SAPS  C211 9400   2.192   5.530   7.271  0.4434 -0.1043 -0.2584
   95SAPS  H11R 9401   2.123   5.465   7.216 -0.0423 -0.6301  0.9362
   95SAPS  C212 9402   2.249   5.487   7.384 -0.2625  1.1603 -0.0024
   95SAPS  H12R 9403   2.219   5.387   7.418  1.0846  0.4092 -0.9088
   95SAPS  C213 9404   2.342   5.569   7.470  0.2078 -0.1101 -0.1526
   95SAPS  H13R 9405   2.384   5.657   7.416 -2.4947  0.1342 -2.0779
   95SAPS  H13S 9406   2.423   5.507   7.513 -1.1321 -1.4062  0.5829
   95SAPS  C214 9407   2.252   5.633   7.580  0.0703 -0.2693  0.4026
   95SAPS  H14R 9408   2.173   5.697   7.539  0.2718  0.6972  1.4728
   95SAPS  C215 9409   2.255   5.627   7.713 -0.2964  0.2028  0.3424
   95SAPS  H15R 9410   2.183   5.686   7.771 -0.7223 -1.2916  1.3891
   95SAPS  C216 9411   2.349   5.542   7.798 -0.1359  0.1099  0.7249
   95SAPS  H16R 9412   2.449   5.590   7.796 -0.0100 -0.1748 -0.6961
   95SAPS  H16S 9413   2.361   5.435   7.774  1.1460  0.5960 -0.9022
   95SAPS  C217 9414   2.311   5.549   7.946  0.3683 -0.1614 -0.0715
   95SAPS  H17R 9415   2.313   5.656   7.977  0.7535 -0.6371  1.6504
   95SAPS  H17S 9416   2.386   5.493   8.006 -0.9114 -0.8468  0.9288
   95SAPS  C218 9417   2.181   5.482   7.971  0.2733 -0.5028  0.4025
   95SAPS  H18R 9418   2.178   5.399   7.896  1.0791  1.1568 -1.5555
   95SAPS  H18S 9419   2.105   5.554   7.936  3.3535  2.1840 -1.2924
   95SAPS  C219 9420   2.148   5.461   8.119 -0.0432  0.3589 -0.6283
   95SAPS  H19R 9421   2.040   5.433   8.124  0.1329 -0.0541  1.7026
   95SAPS  H19S 9422   2.164   5.542   8.192 -2.2380  0.4204 -0.1410
   95SAPS  C220 9423   2.208   5.325   8.160  0.3338 -0.1464 -0.6203
   95SAPS  H20R 9424   2.155   5.274   8.242 -0.0956 -1.3991 -1.6455
   95SAPS  H20S 9425   2.312   5.335   8.198 -0.1073 -0.0720  0.5914
   95SAPS  H20T 9426   2.197   5.248   8.080 -0.1792 -1.4447  0.6618
   95SAPS   C33 9427   1.817   5.213   6.889 -0.0028 -0.1823 -0.6153
   95SAPS   H3X 9428   1.897   5.241   6.817 -0.2914 -0.0690 -0.8940
   95SAPS   H3Y 9429   1.745   5.140   6.844 -0.6811  0.7392 -1.0538
   95SAPS   C34 9430   1.870   5.151   7.017 -0.1819  0.0763  0.6154
   95SAPS   H4X 9431   1.939   5.068   6.992 -0.3972 -0.2321  1.0392
   95SAPS   H4Y 9432   1.790   5.111   7.082  0.5474  0.3475  1.7049
   95SAPS   C35 9433   1.952   5.246   7.109 -0.1375 -0.2825 -0.0014
   95SAPS   H5X 9434   1.900   5.341   7.135  2.8767  0.9757  2.1565
   95SAPS   H5Y 9435   2.038   5.272   7.043  0.0656  1.1772  0.7996
   95SAPS   C36 9436   1.990   5.178   7.242 -0.3436  0.4740 -0.0884
   95SAPS   H6X 9437   2.054   5.249   7.297  0.6185 -1.8972  2.0546
   95SAPS   H6Y 9438   2.047   5.085   7.222  1.0928  0.7208  2.4873
   95SAPS   C37 9439   1.870   5.144   7.340 -0.1255 -0.2920 -0.0864
   95SAPS   H7X 9440   1.798   5.091   7.274  0.2121 -1.2164  0.2753
   95SAPS   H7Y 9441   1.818   5.239   7.365 -0.3505 -0.8207  1.5233
   95SAPS   C38 9442   1.907   5.063   7.463 -0.3171  0.3338 -0.9856
   95SAPS   H8X 9443   1.951   4.967   7.428  1.9249  0.6556  0.7079
   95SAPS   H8Y 9444   1.822   5.042   7.532  1.1452  1.9081  1.4771
   95SAPS   C39 9445   2.013   5.127   7.561 -0.6259 -0.2280  0.1927
   95SAPS   H9X 9446   2.103   5.134   7.496 -1.3633 -0.8440 -0.9126
   95SAPS   H9Y 9447   2.021   5.055   7.645  0.5912  1.9425  2.0598
   95SAPS  C310 9448   1.977   5.267   7.615 -0.1985 -0.0098 -1.2541
   95SAPS  H10X 9449   1.951   5.325   7.524  1.0884  2.3568 -0.1751
   95SAPS  H10Y 9450   2.061   5.323   7.661 -0.5997 -0.5087  0.1449
   95SAPS  C311 9451   1.869   5.277   7.721 -0.1739 -0.8182 -0.6814
   95SAPS  H11X 9452   1.914   5.251   7.819  0.9398  3.6203  0.2042
   95SAPS  H11Y 9453   1.773   5.231   7.687 -0.0955 -1.6088  0.1228
   95SAPS  C312 9454   1.827   5.426   7.753 -0.2494 -0.5066 -0.3217
   95SAPS  H12X 9455   1.801   5.480   7.659  0.7000  1.6970  0.6105
   95SAPS  H12Y 9456   1.916   5.475   7.798 -0.2947 -2.1363  1.6916
   95SAPS  C313 9457   1.717   5.432   7.856 -0.0980  0.4415 -0.0938
   95SAPS  H13X 9458   1.635   5.359   7.839  1.4531 -1.6694  0.8967
   95SAPS  H13Y 9459   1.668   5.531   7.847  1.0053  0.8509 -2.3467
   95SAPS  C314 9460   1.768   5.429   8.005 -0.4783  0.2664  0.4099
   95SAPS  H14X 9461   1.831   5.519   8.021  1.5186 -1.1517  0.8056
   95SAPS  H14Y 9462   1.842   5.347   8.011 -0.1289  0.6355  1.3375
   95SAPS  C315 9463   1.674   5.421   8.127  0.4393 -0.1260  0.2261
   95SAPS  H15X 9464   1.612   5.330   8.107 -0.1672  0.7666 -2.3248
   95SAPS  H15Y 9465   1.601   5.504   8.130 -0.6793 -1.0918  2.5449
   95SAPS  C316 9466   1.741   5.405   8.268 -0.5556  0.4800  0.4116
   95SAPS  H16X 9467   1.808   5.492   8.286  1.0779 -0.1867 -1.9343
   95SAPS  H16Y 9468   1.802   5.313   8.254 -0.1108  1.0681 -1.8757
   95SAPS  C317 9469   1.646   5.395   8.388 -0.1006  0.3490 -0.4342
   95SAPS  H17X 9470   1.692   5.332   8.467 -1.5955 -0.0588  0.1589
   95SAPS  H17Y 9471   1.557   5.338   8.352  1.0177 -1.4083 -0.5751
   95SAPS  C318 9472   1.587   5.525   8.449  0.2915 -0.1039 -0.4633
   95SAPS  H18X 9473   1.505   5.568   8.387 -0.2244  0.5652  0.6307
   95SAPS  H18Y 9474   1.659   5.610   8.448  0.4108 -0.1774 -2.9931
   95SAPS  H18Z 9475   1.534   5.513   8.546 -1.9356 -1.1958 -1.7289
   96SAPS     N 9476   2.969   0.060   6.150  0.3780 -0.9246  0.5197
   96SAPS   HN1 9477   2.922   0.037   6.240 -0.3062 -2.2269 -0.1603
   96SAPS   HN2 9478   2.924   0.013   6.069 -1.0646 -2.6062  2.2135
   96SAPS   HN3 9479   3.063   0.017   6.151 -0.2675 -2.3835  0.5651
   96SAPS   C12 9480   2.988   0.214   6.130 -0.8724 -0.0889 -0.6024
   96SAPS  H12A 9481   3.019   0.263   6.222  1.3526 -1.0808 -0.7675
   96SAPS   C13 9482   3.099   0.258   6.029 -0.3274  0.0644  0.4156
   96SAPS  O13A 9483   3.139   0.171   5.948 -0.6698  0.6082  0.5926
   96SAPS  O13B 9484   3.139   0.374   6.027  0.0785  0.1030  0.0835
   96SAPS   C11 9485   2.845   0.264   6.090 -0.0527 -0.3088 -0.9220
   96SAPS  H11A 9486   2.769   0.232   6.164  1.8630  0.9506  1.7306
   96SAPS  H11B 9487   2.806   0.233   5.991  0.3664 -1.4756 -0.7287
   96SAPS     P 9488   2.718   0.499   6.134 -0.5440 -0.2231 -0.0026
   96SAPS   O13 9489   2.753   0.631   6.077  0.4091  0.0001  0.4041
   96SAPS   O14 9490   2.588   0.440   6.087 -0.3921 -0.0473 -0.7149
   96SAPS   O12 9491   2.836   0.403   6.093 -0.3165 -0.7824  0.4581
   96SAPS   O11 9492   2.720   0.507   6.291  0.0400  0.9172  0.6410
   96SAPS    C1 9493   2.838   0.532   6.364 -0.2761 -0.1093 -0.2350
   96SAPS    HA 9494   2.928   0.524   6.299  0.0625 -1.3363  0.3637
   96SAPS    HB 9495   2.835   0.639   6.394 -0.5402 -0.2346  0.1998
   96SAPS    C2 9496   2.859   0.442   6.493  1.1698 -0.3090  0.2468
   96SAPS    HS 9497   2.863   0.336   6.462 -1.0989 -0.5321  0.5438
   96SAPS   O21 9498   2.740   0.461   6.575  0.1481  0.6269  0.3101
   96SAPS   C21 9499   2.681   0.347   6.624  0.0741 -0.0370  0.1207
   96SAPS   O22 9500   2.714   0.231   6.604 -0.5214 -0.1822 -0.1197
   96SAPS   C22 9501   2.571   0.381   6.717 -0.6847  0.0532  1.1588
   96SAPS   H2R 9502   2.614   0.459   6.784 -0.7546  1.1196 -0.0013
   96SAPS   H2S 9503   2.491   0.424   6.653 -0.1694 -0.1934  0.3308
   96SAPS    C3 9504   2.980   0.490   6.573 -0.0555 -0.3521 -0.1953
   96SAPS    HX 9505   2.954   0.596   6.594  0.9337 -0.2954  0.7880
   96SAPS    HY 9506   3.065   0.496   6.502 -0.7103  1.2731 -0.8869
   96SAPS   O31 9507   2.994   0.418   6.701  0.3952 -0.3514 -0.6620
   96SAPS   C31 9508   3.084   0.324   6.697  0.1192  0.1779 -0.1002
   96SAPS   O32 9509   3.146   0.291   6.595 -0.7934 -0.0370  0.0968
   96SAPS   C32 9510   3.085   0.247   6.828  0.7106  0.6110  0.9085
   96SAPS   H2X 9511   3.149   0.311   6.894  0.4077  2.0815 -0.1829
   96SAPS   H2Y 9512   3.129   0.148   6.807  0.7794  0.7716  0.2919
   96SAPS   C23 9513   2.512   0.260   6.794  0.2423 -0.2602  0.5303
   96SAPS   H3R 9514   2.583   0.195   6.850 -0.5297 -0.5304  1.2196
   96SAPS   H3S 9515   2.461   0.187   6.728  0.5915 -2.3169  2.4506
   96SAPS   C24 9516   2.407   0.312   6.888  0.2460  0.1120 -0.6390
   96SAPS   H4R 9517   2.350   0.220   6.909 -0.7762  0.3315 -2.2623
   96SAPS   H4S 9518   2.335   0.378   6.834  1.6830  1.8277 -0.5731
   96SAPS   C25 9519   2.461   0.385   7.014 -0.3964 -0.2742  0.2281
   96SAPS   H5R 9520   2.476   0.493   6.996 -1.3167 -0.1252  0.3004
   96SAPS   C26 9521   2.487   0.326   7.135 -0.9114  0.2116  0.4094
   96SAPS   H6R 9522   2.529   0.386   7.216  1.2242  0.6028 -0.9081
   96SAPS   C27 9523   2.484   0.175   7.162 -0.0678 -0.3651 -0.0024
   96SAPS   H7R 9524   2.574   0.157   7.224  0.7034 -0.2503 -1.0495
   96SAPS   H7S 9525   2.500   0.109   7.073  0.7787  1.5004 -1.2958
   96SAPS   C28 9526   2.364   0.123   7.238 -0.0301 -0.3309 -0.3010
   96SAPS   H8R 9527   2.286   0.074   7.179 -0.7182 -0.3024  0.5721
   96SAPS   C29 9528   2.340   0.145   7.365 -0.6858  0.2275 -0.3375
   96SAPS   H9R 9529   2.255   0.098   7.416  0.2960 -0.4303  0.7323
   96SAPS  C210 9530   2.417   0.228   7.465 -0.0925 -0.2425  0.3533
   96SAPS  H10R 9531   2.498   0.288   7.417 -1.9940  0.6889 -1.9057
   96SAPS  H10S 9532   2.469   0.157   7.532 -1.3459 -2.3383 -0.7859
   96SAPS  C211 9533   2.324   0.322   7.538  0.2505 -0.1326  0.0894
   96SAPS  H11R 9534   2.236   0.360   7.484 -1.7316 -0.7151  2.7207
   96SAPS  C212 9535   2.334   0.363   7.669  0.2310 -0.0264 -0.1706
   96SAPS  H12R 9536   2.258   0.428   7.715  0.3124 -0.2401  0.2770
   96SAPS  C213 9537   2.452   0.322   7.758  0.2259 -0.0400 -0.0184
   96SAPS  H13R 9538   2.514   0.237   7.722 -0.5016 -0.5917  0.0104
   96SAPS  H13S 9539   2.400   0.293   7.852  1.1283  2.8776  1.5278
   96SAPS  C214 9540   2.555   0.430   7.778 -0.0279  0.3994  0.3330
   96SAPS  H14R 9541   2.551   0.514   7.707  0.4455 -2.0349 -2.7790
   96SAPS  C215 9542   2.630   0.439   7.890 -0.0949 -0.1821 -0.0041
   96SAPS  H15R 9543   2.716   0.507   7.895 -0.5299  0.6604 -2.6612
   96SAPS  C216 9544   2.632   0.343   8.011  0.1341 -0.3735  1.0710
   96SAPS  H16R 9545   2.575   0.249   7.999  0.2069 -0.3987  0.9126
   96SAPS  H16S 9546   2.576   0.407   8.082  0.1299  2.4587 -1.2708
   96SAPS  C217 9547   2.762   0.314   8.076  0.4247  0.7256  0.8580
   96SAPS  H17R 9548   2.834   0.398   8.079  2.0878 -0.6283  0.5136
   96SAPS  H17S 9549   2.803   0.241   8.002  0.8727  1.7790  0.0434
   96SAPS  C218 9550   2.758   0.257   8.216  0.2664 -0.2078 -0.5147
   96SAPS  H18R 9551   2.699   0.163   8.227 -0.0541  0.0420 -0.0410
   96SAPS  H18S 9552   2.713   0.333   8.284  0.1317 -0.3430 -0.4522
   96SAPS  C219 9553   2.897   0.225   8.263 -0.2260  0.0707 -0.3016
   96SAPS  H19R 9554   2.942   0.323   8.288 -3.0660  1.1871  0.7787
   96SAPS  H19S 9555   2.966   0.179   8.189 -1.5693 -2.2430 -0.2174
   96SAPS  C220 9556   2.907   0.131   8.380 -0.1573 -0.1913 -0.3864
   96SAPS  H20R 9557   2.873   0.188   8.469 -0.9942 -0.7038 -0.3679
   96SAPS  H20S 9558   3.010   0.088   8.383  0.3350  0.8494 -1.8344
   96SAPS  H20T 9559   2.832   0.052   8.358 -0.5170  0.1348 -0.3351
   96SAPS   C33 9560   2.939   0.219   6.879 -0.1427  0.0834 -0.5704
   96SAPS   H3X 9561   2.889   0.134   6.827  0.1690  0.5114 -1.5677
   96SAPS   H3Y 9562   2.866   0.302   6.866  2.0464  2.1188 -0.4901
   96SAPS   C34 9563   2.942   0.182   7.029  0.2859 -0.0728  0.1182
   96SAPS   H4X 9564   2.843   0.160   7.074  0.1065  0.3855 -0.0480
   96SAPS   H4Y 9565   2.965   0.270   7.093  3.4773 -1.9243  1.8085
   96SAPS   C35 9566   3.032   0.078   7.075 -0.5565  0.6421 -0.2458
   96SAPS   H5X 9567   3.027   0.001   6.995  0.7207  2.1355 -1.8534
   96SAPS   H5Y 9568   2.984   0.035   7.165 -1.4405 -1.1122 -1.4954
   96SAPS   C36 9569   3.168   0.131   7.108  0.6728 -0.6190 -0.2697
   96SAPS   H6X 9570   3.164   0.238   7.138  1.4464 -1.3745  2.9080
   96SAPS   H6Y 9571   3.227   0.122   7.014 -1.2675 -0.0236 -1.6039
   96SAPS   C37 9572   3.236   0.058   7.230 -0.0115  0.2395 -0.3997
   96SAPS   H7X 9573   3.187   0.058   7.329 -0.6294 -0.9936 -0.6895
   96SAPS   H7Y 9574   3.339   0.100   7.234 -0.1960  0.6008  1.9092
   96SAPS   C38 9575   3.258  -0.089   7.193 -0.9881 -0.5875  0.7630
   96SAPS   H8X 9576   3.303  -0.098   7.092 -0.3107  2.4070  0.6880
   96SAPS   H8Y 9577   3.155  -0.129   7.191 -0.7541 -1.1906 -0.8477
   96SAPS   C39 9578   3.339  -0.173   7.297  0.0127  0.6048 -0.1119
   96SAPS   H9X 9579   3.441  -0.134   7.319  0.3790 -1.1756  1.7757
   96SAPS   H9Y 9580   3.355  -0.272   7.249  0.3313  0.7098 -0.2271
   96SAPS  C310 9581   3.264  -0.190   7.436 -0.1078 -0.0618  0.3992
   96SAPS  H10X 9582   3.157  -0.202   7.412 -0.3559 -1.4419  2.0406
   96SAPS  H10Y 9583   3.266  -0.096   7.496  0.2999  0.2023 -0.0189
   96SAPS  C311 9584   3.304  -0.311   7.524 -0.2337 -0.7376  0.3661
   96SAPS  H11X 9585   3.412  -0.304   7.549  0.2182 -0.4641 -1.5110
   96SAPS  H11Y 9586   3.295  -0.407   7.468  0.4397 -0.3118 -0.5131
   96SAPS  C312 9587   3.223  -0.316   7.652 -0.0338 -0.1159  0.1895
   96SAPS  H12X 9588   3.220  -0.421   7.686 -1.0031 -1.0922 -2.5944
   96SAPS  H12Y 9589   3.117  -0.303   7.620  0.2533 -0.8675 -1.1695
   96SAPS  C313 9590   3.263  -0.211   7.747  0.3321 -0.8403 -0.1092
   96SAPS  H13X 9591   3.247  -0.105   7.721 -1.1720 -0.4672  2.0714
   96SAPS  H13Y 9592   3.374  -0.205   7.748  0.3252 -0.3147 -1.2921
   96SAPS  C314 9593   3.205  -0.235   7.886  0.0838  0.0245 -0.4549
   96SAPS  H14X 9594   3.252  -0.320   7.939  0.5972  0.2207 -0.5932
   96SAPS  H14Y 9595   3.099  -0.263   7.867 -0.6981  2.6718 -0.5187
   96SAPS  C315 9596   3.194  -0.111   7.979  0.2754 -0.0391 -0.1997
   96SAPS  H15X 9597   3.127  -0.142   8.062  0.0483  1.6284  0.2903
   96SAPS  H15Y 9598   3.144  -0.032   7.919  1.2393 -1.5362 -3.1690
   96SAPS  C316 9599   3.330  -0.063   8.036  0.2699 -1.1717 -0.0859
   96SAPS  H16X 9600   3.390  -0.019   7.953 -0.2563  1.6082  0.8831
   96SAPS  H16Y 9601   3.377  -0.157   8.070 -2.1186 -2.5312 -0.3076
   96SAPS  C317 9602   3.308   0.052   8.141  0.9603  0.5948  0.3877
   96SAPS  H17X 9603   3.254   0.008   8.228 -0.0848  1.2175  0.0711
   96SAPS  H17Y 9604   3.236   0.124   8.098  0.8693  0.3906  0.1942
   96SAPS  C318 9605   3.432   0.122   8.182 -0.9017  0.0187  1.6901
   96SAPS  H18X 9606   3.474   0.178   8.095 -1.5262  1.4099  2.2495
   96SAPS  H18Y 9607   3.504   0.048   8.222  0.0285 -0.4274 -0.6125
   96SAPS  H18Z 9608   3.409   0.205   8.252  1.5700  0.8339  1.6446
   97SAPS     N 9609   4.489   5.765   6.570 -0.7492 -0.0646  0.1259
   97SAPS   HN1 9610   4.484   5.867   6.550  0.0985  0.1831  1.0648
   97SAPS   HN2 9611   4.476   5.746   6.672 -2.3517  0.2813  0.0089
   97SAPS   HN3 9612   4.588   5.750   6.543 -0.7333 -1.7952  0.9881
   97SAPS   C12 9613   4.382   5.701   6.492 -0.6487  0.1079  0.0271
   97SAPS  H12A 9614   4.288   5.696   6.545 -1.1699 -1.3165 -0.9832
   97SAPS   C13 9615   4.361   5.778   6.357 -0.4572 -0.6421 -0.1151
   97SAPS  O13A 9616   4.437   5.868   6.314  0.3776 -0.0741 -0.4385
   97SAPS  O13B 9617   4.283   5.722   6.279  0.6801  0.5110 -0.4485
   97SAPS   C11 9618   4.423   5.550   6.470  0.2323 -0.3457 -0.5736
   97SAPS  H11A 9619   4.504   5.556   6.394  0.5029  3.8126 -0.1922
   97SAPS  H11B 9620   4.330   5.506   6.427  0.3608  0.1057 -1.3433
   97SAPS     P 9621   4.362   5.408   6.688 -0.3177  0.0904  0.3006
   97SAPS   O13 9622   4.229   5.467   6.677  0.0281  0.1885  0.2035
   97SAPS   O14 9623   4.371   5.264   6.659 -0.0789  0.4494  0.1475
   97SAPS   O12 9624   4.466   5.482   6.586  0.0237  0.4207 -0.1789
   97SAPS   O11 9625   4.425   5.434   6.829  0.8957  0.1544 -0.1659
   97SAPS    C1 9626   4.570   5.437   6.847 -0.1645  0.0645  0.2869
   97SAPS    HA 9627   4.620   5.472   6.755 -0.1095  1.8577  0.9469
   97SAPS    HB 9628   4.590   5.506   6.932 -0.9074 -0.3158  0.7883
   97SAPS    C2 9629   4.630   5.298   6.896  0.2090 -0.8475  0.1675
   97SAPS    HS 9630   4.586   5.223   6.828  0.8320 -0.3859 -0.7792
   97SAPS   O21 9631   4.593   5.281   7.038  0.6193 -0.3919 -0.0207
   97SAPS   C21 9632   4.613   5.160   7.089 -0.4303 -0.1894  0.0263
   97SAPS   O22 9633   4.642   5.056   7.027  0.3928 -0.1154  0.0410
   97SAPS   C22 9634   4.594   5.173   7.237  0.0940  0.7059 -0.4900
   97SAPS   H2R 9635   4.684   5.218   7.284  0.0867  0.3338 -0.1133
   97SAPS   H2S 9636   4.507   5.241   7.251  0.1328  0.7403 -0.4096
   97SAPS    C3 9637   4.786   5.298   6.878 -0.4933 -0.2684 -0.0758
   97SAPS    HX 9638   4.798   5.320   6.770  1.4205 -0.4308  0.0745
   97SAPS    HY 9639   4.835   5.198   6.882  1.7718  0.7465 -0.9836
   97SAPS   O31 9640   4.848   5.402   6.961  0.3640  0.6924 -1.1201
   97SAPS   C31 9641   4.903   5.354   7.074  1.0114 -0.2469 -0.0747
   97SAPS   O32 9642   4.911   5.237   7.105  0.1814 -0.6640 -0.3114
   97SAPS   C32 9643   4.915   5.476   7.171  0.2431  0.5261 -0.8779
   97SAPS   H2X 9644   4.810   5.510   7.181  0.0643 -0.3771  0.6152
   97SAPS   H2Y 9645   4.974   5.555   7.121  0.7020  0.0254 -1.1459
   97SAPS   C23 9646   4.572   5.045   7.314 -0.0685 -0.3350  0.6685
   97SAPS   H3R 9647   4.634   4.959   7.280  0.5647  0.1111  0.6809
   97SAPS   H3S 9648   4.465   5.023   7.295 -0.3464  2.3892 -1.5700
   97SAPS   C24 9649   4.576   5.066   7.476 -0.1177  0.5555  0.0882
   97SAPS   H4R 9650   4.668   5.126   7.496  0.0094  0.9546 -1.5677
   97SAPS   H4S 9651   4.574   4.969   7.530 -0.5377  1.5933  2.0490
   97SAPS   C25 9652   4.462   5.149   7.530  0.1232 -0.4431 -0.4234
   97SAPS   H5R 9653   4.417   5.221   7.460  0.4887  1.1656  0.9452
   97SAPS   C26 9654   4.398   5.116   7.645  0.0465 -0.5898  0.1340
   97SAPS   H6R 9655   4.332   5.195   7.684  1.0239 -0.0405  0.7246
   97SAPS   C27 9656   4.428   5.007   7.737 -0.1010  0.3183 -0.2094
   97SAPS   H7R 9657   4.534   4.977   7.729  0.0813  0.4280  1.5195
   97SAPS   H7S 9658   4.377   4.916   7.699 -1.6194  0.9418  0.2348
   97SAPS   C28 9659   4.388   5.047   7.875 -0.3674 -0.2489 -0.7640
   97SAPS   H8R 9660   4.347   5.148   7.890 -0.0634 -0.1174 -0.8060
   97SAPS   C29 9661   4.429   4.979   7.988 -0.0156 -0.3452 -0.8559
   97SAPS   H9R 9662   4.396   5.025   8.082  0.3912 -1.0139 -0.3867
   97SAPS  C210 9663   4.516   4.853   8.010 -0.7230 -0.1503 -0.1647
   97SAPS  H10R 9664   4.620   4.876   7.982 -0.9110 -1.0385 -1.7267
   97SAPS  H10S 9665   4.486   4.764   7.950  0.5331 -1.4650  1.0787
   97SAPS  C211 9666   4.518   4.817   8.158 -0.1563 -0.6050 -0.1384
   97SAPS  H11R 9667   4.445   4.742   8.191 -1.1792  1.3423  2.3673
   97SAPS  C212 9668   4.597   4.864   8.257 -0.8860  0.4151 -0.1650
   97SAPS  H12R 9669   4.586   4.831   8.361 -0.0905 -1.0667 -0.5180
   97SAPS  C213 9670   4.702   4.972   8.239 -0.2445 -0.6968  0.4153
   97SAPS  H13R 9671   4.700   5.030   8.334  1.4129 -0.3391  0.2702
   97SAPS  H13S 9672   4.670   5.046   8.163 -1.1551 -1.0431  0.4531
   97SAPS  C214 9673   4.843   4.924   8.204  0.3544  0.5973 -0.2404
   97SAPS  H14R 9674   4.855   4.853   8.122  1.8208 -0.2226  0.6435
   97SAPS  C215 9675   4.958   4.966   8.266  0.2838  0.1869 -0.0357
   97SAPS  H15R 9676   5.049   4.915   8.232 -0.8557 -1.0889 -1.3049
   97SAPS  C216 9677   4.962   5.054   8.391  0.1043  0.0395 -0.4626
   97SAPS  H16R 9678   4.904   5.144   8.363  0.4519  0.0354 -1.2252
   97SAPS  H16S 9679   5.061   5.098   8.417 -0.6840  0.8370  1.3300
   97SAPS  C217 9680   4.911   4.986   8.515  0.0351 -0.0570 -0.6901
   97SAPS  H17R 9681   4.962   4.888   8.520 -0.7222 -0.4135  0.4150
   97SAPS  H17S 9682   4.805   4.954   8.502  0.2388 -1.6695  1.1652
   97SAPS  C218 9683   4.931   5.070   8.645 -0.2298 -0.5155  0.9619
   97SAPS  H18R 9684   4.880   5.168   8.630  1.3810  0.2313  0.0912
   97SAPS  H18S 9685   5.039   5.097   8.638 -0.3619 -0.3752 -2.5068
   97SAPS  C219 9686   4.893   5.004   8.776  0.1154  0.1221  0.5996
   97SAPS  H19R 9687   4.898   5.066   8.869 -2.5581  0.8503  0.3348
   97SAPS  H19S 9688   4.956   4.913   8.782 -0.3902 -0.2125  0.9791
   97SAPS  C220 9689   4.753   4.939   8.777 -0.2348  0.4378  0.7585
   97SAPS  H20R 9690   4.746   4.869   8.691  2.2085 -1.0884  1.7008
   97SAPS  H20S 9691   4.674   5.017   8.776 -0.2090  0.6804 -3.9683
   97SAPS  H20T 9692   4.747   4.868   8.863 -0.9766 -0.9391 -0.3873
   97SAPS   C33 9693   4.972   5.448   7.312  0.1261 -0.4549 -0.0658
   97SAPS   H3X 9694   4.920   5.369   7.371  0.4390  1.3111  2.7837
   97SAPS   H3Y 9695   4.952   5.536   7.377  1.4354 -1.0932  1.2584
   97SAPS   C34 9696   5.129   5.434   7.300 -0.1305 -0.9002  0.0293
   97SAPS   H4X 9697   5.157   5.509   7.223  1.4371  1.3980  2.6357
   97SAPS   H4Y 9698   5.159   5.332   7.271  0.4846  0.1642 -3.4559
   97SAPS   C35 9699   5.210   5.471   7.429  0.2787  0.6422  0.6193
   97SAPS   H5X 9700   5.176   5.575   7.449  1.6785  1.2563 -0.0323
   97SAPS   H5Y 9701   5.317   5.481   7.399 -0.2948  1.1671 -1.3850
   97SAPS   C36 9702   5.180   5.389   7.555  0.3832  0.4073 -0.6304
   97SAPS   H6X 9703   5.218   5.286   7.540  2.2421  0.8893  0.5087
   97SAPS   H6Y 9704   5.070   5.385   7.574  0.7793  0.6649  2.1330
   97SAPS   C37 9705   5.247   5.436   7.682 -0.4365 -0.6463  0.1614
   97SAPS   H7X 9706   5.354   5.446   7.653 -0.6753  0.9339 -0.2601
   97SAPS   H7Y 9707   5.257   5.359   7.761  1.3262 -0.8819 -0.2404
   97SAPS   C38 9708   5.194   5.566   7.737  0.0068 -0.4207  0.3098
   97SAPS   H8X 9709   5.084   5.553   7.749  0.0390 -1.4550 -0.3767
   97SAPS   H8Y 9710   5.228   5.656   7.682 -0.3016 -0.2601  0.3827
   97SAPS   C39 9711   5.258   5.590   7.881 -0.5365 -0.1154  1.0913
   97SAPS   H9X 9712   5.361   5.620   7.853 -1.2281 -1.2693 -3.5178
   97SAPS   H9Y 9713   5.257   5.494   7.937 -1.3750 -0.9475 -0.2785
   97SAPS  C310 9714   5.197   5.704   7.966  0.0716 -0.1851 -0.4447
   97SAPS  H10X 9715   5.194   5.796   7.904  0.1075 -0.6720 -1.1882
   97SAPS  H10Y 9716   5.264   5.716   8.054  1.4341 -2.2032 -1.1222
   97SAPS  C311 9717   5.060   5.674   8.018  0.2027  0.2545  0.6596
   97SAPS  H11X 9718   4.995   5.670   7.929  1.8030  2.0968 -0.6855
   97SAPS  H11Y 9719   5.028   5.760   8.081  0.0667 -0.4748  1.6245
   97SAPS  C312 9720   5.057   5.547   8.109  0.4439 -0.0192  0.0400
   97SAPS  H12X 9721   5.120   5.551   8.201  1.0831 -1.4046 -0.3015
   97SAPS  H12Y 9722   5.090   5.458   8.051  0.9166  0.1586  0.0340
   97SAPS  C313 9723   4.913   5.527   8.168  0.3087 -0.6623 -0.0240
   97SAPS  H13X 9724   4.821   5.555   8.112 -1.4145 -0.1582  2.8406
   97SAPS  H13Y 9725   4.899   5.594   8.256  4.2860  0.4246 -0.0067
   97SAPS  C314 9726   4.890   5.387   8.219 -0.4470  0.3791  1.1932
   97SAPS  H14X 9727   4.928   5.379   8.323  2.8391  1.1540  0.1935
   97SAPS  H14Y 9728   4.944   5.318   8.151  0.0540  1.1797  0.7513
   97SAPS  C315 9729   4.742   5.344   8.225 -0.6580  0.0964  0.5866
   97SAPS  H15X 9730   4.733   5.235   8.240  0.6935 -0.4736 -2.1560
   97SAPS  H15Y 9731   4.705   5.351   8.121  0.1761 -3.7860 -0.0969
   97SAPS  C316 9732   4.656   5.430   8.320  0.6793 -0.0404  0.2369
   97SAPS  H16X 9733   4.655   5.531   8.273  2.2253  0.0807  0.4262
   97SAPS  H16Y 9734   4.698   5.441   8.422 -0.1434 -1.4699  0.7588
   97SAPS  C317 9735   4.508   5.388   8.339 -0.3685  0.9680  0.0916
   97SAPS  H17X 9736   4.454   5.407   8.244 -1.8450  1.0536  0.9150
   97SAPS  H17Y 9737   4.467   5.452   8.419  0.8023  1.7672  0.0705
   97SAPS  C318 9738   4.494   5.240   8.391 -0.0619  0.4052  0.2946
   97SAPS  H18X 9739   4.396   5.236   8.444 -0.6721 -0.5807 -0.8839
   97SAPS  H18Y 9740   4.577   5.220   8.462  0.4751  1.2764 -0.0713
   97SAPS  H18Z 9741   4.487   5.158   8.318  0.9184  1.0408 -0.5355
   98SAPS     N 9742   1.934   5.864   6.211 -0.3108 -0.3696  0.7173
   98SAPS   HN1 9743   1.994   5.852   6.295 -0.2458 -0.7672  0.6143
   98SAPS   HN2 9744   1.916   5.961   6.179 -1.1631 -1.5906 -2.9686
   98SAPS   HN3 9745   1.841   5.822   6.234 -1.3117  1.5299  0.3665
   98SAPS   C12 9746   2.000   5.773   6.108  0.0008 -0.2064  0.0517
   98SAPS  H12A 9747   1.929   5.695   6.086  2.6912 -2.8491  0.1840
   98SAPS   C13 9748   2.015   5.850   5.971 -0.0428 -0.0035  0.5319
   98SAPS  O13A 9749   1.991   5.973   5.959 -0.0526  0.6004  0.0474
   98SAPS  O13B 9750   2.036   5.776   5.869  0.1797  0.1595  0.3770
   98SAPS   C11 9751   2.132   5.715   6.156 -0.3848  0.8266 -0.2417
   98SAPS  H11A 9752   2.152   5.627   6.091  1.0960  0.6782  0.3793
   98SAPS  H11B 9753   2.111   5.672   6.257  0.3319  1.5477  0.2246
   98SAPS     P 9754   2.396   5.749   6.165 -0.1040 -0.1717 -0.2383
   98SAPS   O13 9755   2.444   5.726   6.028  0.3094 -0.2104  0.3238
   98SAPS   O14 9756   2.463   5.841   6.259 -0.6435  0.0708 -0.1182
   98SAPS   O12 9757   2.243   5.802   6.147 -0.3359 -0.6110 -0.7397
   98SAPS   O11 9758   2.384   5.603   6.238 -0.0410 -0.2032  0.3584
   98SAPS    C1 9759   2.384   5.578   6.381 -0.6493  0.1397  0.8221
   98SAPS    HA 9760   2.455   5.648   6.430  1.1036 -1.2687  0.3881
   98SAPS    HB 9761   2.279   5.599   6.410 -0.6488  0.6579  0.4542
   98SAPS    C2 9762   2.420   5.436   6.421 -0.5344  0.8874 -0.2959
   98SAPS    HS 9763   2.358   5.355   6.376 -2.4528  2.0324  0.1956
   98SAPS   O21 9764   2.419   5.427   6.569  0.3014  0.4056  0.2617
   98SAPS   C21 9765   2.304   5.403   6.624  0.3301  0.4363  0.1225
   98SAPS   O22 9766   2.200   5.384   6.566  0.4660 -0.6595  0.1730
   98SAPS   C22 9767   2.319   5.384   6.772 -0.0685 -0.2189 -0.3481
   98SAPS   H2R 9768   2.420   5.344   6.799  0.7049  1.8154  0.0142
   98SAPS   H2S 9769   2.302   5.482   6.822  0.8449 -0.0563 -0.3207
   98SAPS    C3 9770   2.567   5.401   6.376  0.4157  0.9644 -0.6193
   98SAPS    HX 9771   2.636   5.448   6.449 -2.4911  0.6590  2.6308
   98SAPS    HY 9772   2.581   5.442   6.274 -2.8974  2.3590 -0.6537
   98SAPS   O31 9773   2.574   5.257   6.380 -0.4013 -0.2098  0.2799
   98SAPS   C31 9774   2.690   5.202   6.389 -0.1388  0.1396  0.6017
   98SAPS   O32 9775   2.799   5.261   6.388 -0.1772 -0.3170  0.2498
   98SAPS   C32 9776   2.676   5.052   6.429  0.2998 -0.5359  0.4168
   98SAPS   H2X 9777   2.751   5.000   6.366 -1.1273 -0.2256 -1.6322
   98SAPS   H2Y 9778   2.578   5.010   6.397 -0.5140  1.1499  0.5793
   98SAPS   C23 9779   2.226   5.274   6.828  0.2970  0.2585  0.5996
   98SAPS   H3R 9780   2.120   5.291   6.800 -0.3992 -1.7574  1.7767
   98SAPS   H3S 9781   2.233   5.280   6.939 -1.1896 -0.8165  0.7898
   98SAPS   C24 9782   2.276   5.134   6.780  0.5077 -0.0130  0.2630
   98SAPS   H4R 9783   2.368   5.098   6.830  2.9019  0.8999 -3.1193
   98SAPS   H4S 9784   2.307   5.147   6.674 -2.0040 -2.4901 -0.8967
   98SAPS   C25 9785   2.159   5.034   6.779  0.3060 -0.9477 -0.0228
   98SAPS   H5R 9786   2.087   5.042   6.695 -1.4324 -1.3286  1.3670
   98SAPS   C26 9787   2.135   4.938   6.873 -0.4089 -0.1625  0.6540
   98SAPS   H6R 9788   2.061   4.864   6.842 -0.8113  0.5040 -0.0308
   98SAPS   C27 9789   2.219   4.913   6.995 -0.3847 -0.3314 -0.6803
   98SAPS   H7R 9790   2.166   4.959   7.081  1.8877  2.8612 -0.8265
   98SAPS   H7S 9791   2.314   4.971   6.991 -0.3650 -0.2797  0.2401
   98SAPS   C28 9792   2.260   4.769   6.996 -0.2230  0.5274 -0.1892
   98SAPS   H8R 9793   2.264   4.722   6.897  0.7803  0.7390 -0.2548
   98SAPS   C29 9794   2.247   4.688   7.104  0.7025  0.1377 -0.0999
   98SAPS   H9R 9795   2.244   4.579   7.090 -2.9450  0.1606 -0.3146
   98SAPS  C210 9796   2.217   4.731   7.249  0.2332  0.3457  0.0647
   98SAPS  H10R 9797   2.126   4.795   7.248 -1.8348 -2.4050 -0.4078
   98SAPS  H10S 9798   2.287   4.798   7.304 -2.3253  1.6549  1.9496
   98SAPS  C211 9799   2.186   4.616   7.342 -0.3790 -0.3990  0.0639
   98SAPS  H11R 9800   2.238   4.526   7.308 -0.4191  0.4891 -2.5568
   98SAPS  C212 9801   2.122   4.626   7.461 -0.1537 -0.2872  0.2955
   98SAPS  H12R 9802   2.097   4.532   7.512 -1.8796  0.9066  1.7951
   98SAPS  C213 9803   2.082   4.758   7.520  0.7673 -0.3318 -0.2260
   98SAPS  H13R 9804   2.082   4.843   7.449 -0.6272 -1.6286 -1.8594
   98SAPS  H13S 9805   2.161   4.777   7.597 -0.4213 -0.8331  1.1694
   98SAPS  C214 9806   1.951   4.760   7.599  0.4563  0.6044  0.3251
   98SAPS  H14R 9807   1.867   4.740   7.530  0.7014 -0.4186  0.3098
   98SAPS  C215 9808   1.920   4.781   7.727 -0.8021  0.1717 -1.0062
   98SAPS  H15R 9809   1.818   4.767   7.765  0.2836 -2.5073  1.2679
   98SAPS  C216 9810   2.020   4.814   7.838 -0.0692 -0.1943  0.1483
   98SAPS  H16R 9811   2.121   4.838   7.799  1.2244  0.5116  3.5717
   98SAPS  H16S 9812   2.037   4.730   7.909 -0.0851  0.0445  0.4389
   98SAPS  C217 9813   1.977   4.943   7.917 -0.2814  1.3505  0.1761
   98SAPS  H17R 9814   1.993   5.034   7.855 -1.2866  0.7298 -1.0480
   98SAPS  H17S 9815   2.053   4.952   7.997  0.9704  2.6122 -1.0811
   98SAPS  C218 9816   1.843   4.931   7.972 -0.2027 -0.3964  0.0948
   98SAPS  H18R 9817   1.854   4.841   8.036  1.7863  1.7340  3.0748
   98SAPS  H18S 9818   1.759   4.931   7.899  0.9094  1.2609 -1.2828
   98SAPS  C219 9819   1.815   5.038   8.082 -0.1866  0.0121  0.4105
   98SAPS  H19R 9820   1.821   5.129   8.019 -1.9987 -1.4889 -2.0693
   98SAPS  H19S 9821   1.891   5.026   8.163 -2.4175 -1.2307  2.4643
   98SAPS  C220 9822   1.676   5.024   8.145  0.4819 -0.3031  0.1945
   98SAPS  H20R 9823   1.666   4.918   8.180  2.5625 -0.3688  0.7236
   98SAPS  H20S 9824   1.603   5.024   8.062  0.1750  1.7778  0.4227
   98SAPS  H20T 9825   1.642   5.104   8.213  2.7952 -0.1669  1.3110
   98SAPS   C33 9826   2.705   5.039   6.579 -0.0620  0.6707 -0.5195
   98SAPS   H3X 9827   2.629   5.103   6.627 -0.9513  0.2437 -1.3166
   98SAPS   H3Y 9828   2.804   5.073   6.616  0.6477 -0.2142 -1.5407
   98SAPS   C34 9829   2.683   4.896   6.625 -0.5302  0.4808  0.2281
   98SAPS   H4X 9830   2.762   4.841   6.569  0.1680  1.3123  0.3794
   98SAPS   H4Y 9831   2.585   4.856   6.591 -0.6916 -0.1388  1.3725
   98SAPS   C35 9832   2.690   4.876   6.777 -0.7522 -0.8316 -0.1190
   98SAPS   H5X 9833   2.599   4.927   6.817 -0.4393  0.5266 -1.0514
   98SAPS   H5Y 9834   2.790   4.912   6.809 -0.1505 -2.9656  0.5120
   98SAPS   C36 9835   2.671   4.730   6.810 -0.2000  0.0263 -0.5408
   98SAPS   H6X 9836   2.755   4.666   6.773  1.2994  0.7058  1.4670
   98SAPS   H6Y 9837   2.574   4.697   6.767 -0.4624 -0.4723  0.4122
   98SAPS   C37 9838   2.651   4.711   6.957  0.1669  0.1025 -1.2211
   98SAPS   H7X 9839   2.565   4.771   6.993  1.6566  0.3114  2.3409
   98SAPS   H7Y 9840   2.734   4.735   7.026  0.3943  0.9280 -1.7575
   98SAPS   C38 9841   2.615   4.559   6.983  0.2201 -0.6940 -0.0931
   98SAPS   H8X 9842   2.696   4.505   6.931 -0.0313  0.5837 -1.8990
   98SAPS   H8Y 9843   2.515   4.539   6.937  0.3339 -0.6952 -0.3401
   98SAPS   C39 9844   2.610   4.524   7.134 -0.4709  0.0122  0.1642
   98SAPS   H9X 9845   2.537   4.593   7.182  1.5394  2.2379  0.1995
   98SAPS   H9Y 9846   2.710   4.554   7.172 -0.1518 -2.2015  1.2219
   98SAPS  C310 9847   2.582   4.374   7.137  0.6449 -0.3653  1.1983
   98SAPS  H10X 9848   2.652   4.315   7.075  0.0988 -1.1399  1.3092
   98SAPS  H10Y 9849   2.482   4.345   7.098  0.3488  2.1675 -0.1455
   98SAPS  C311 9850   2.576   4.329   7.282  0.2523 -0.5463  0.2712
   98SAPS  H11X 9851   2.516   4.397   7.346  1.4226 -0.4940  1.3589
   98SAPS  H11Y 9852   2.678   4.319   7.325 -1.1185  0.8616  4.3003
   98SAPS  C312 9853   2.513   4.187   7.276 -0.3207  0.2359  0.1086
   98SAPS  H12X 9854   2.545   4.145   7.179 -1.6690  0.7162 -0.5671
   98SAPS  H12Y 9855   2.403   4.197   7.264 -0.6362 -1.2509  1.4467
   98SAPS  C313 9856   2.536   4.086   7.385  0.1222  0.5574 -0.2756
   98SAPS  H13X 9857   2.646   4.082   7.400  0.1751 -0.6607 -0.8629
   98SAPS  H13Y 9858   2.506   3.983   7.358 -0.4687  0.6481 -0.0000
   98SAPS  C314 9859   2.462   4.123   7.514  0.3527  0.3117  0.2042
   98SAPS  H14X 9860   2.352   4.116   7.497  0.4681 -1.6017 -0.0307
   98SAPS  H14Y 9861   2.486   4.222   7.558  1.0184  0.3586 -0.2614
   98SAPS  C315 9862   2.501   4.017   7.626 -0.4876  0.3376 -0.2026
   98SAPS  H15X 9863   2.593   4.060   7.671  0.1230 -1.2682  0.1530
   98SAPS  H15Y 9864   2.510   3.920   7.573 -0.7585 -0.2602  0.8047
   98SAPS  C316 9865   2.404   4.015   7.747 -0.4417 -0.0457  0.2733
   98SAPS  H16X 9866   2.301   3.983   7.719 -0.4276 -1.6448  1.8562
   98SAPS  H16Y 9867   2.403   4.120   7.784  0.2017  0.5076 -1.1941
   98SAPS  C317 9868   2.448   3.915   7.848 -0.4896  0.0150  0.1524
   98SAPS  H17X 9869   2.480   3.827   7.787  2.2343  1.9734 -1.4367
   98SAPS  H17Y 9870   2.362   3.877   7.907 -0.1260 -1.5679 -0.2859
   98SAPS  C318 9871   2.563   3.966   7.934  0.2798  0.2374  0.5488
   98SAPS  H18X 9872   2.601   3.887   8.002 -0.3179 -0.3678  0.2008
   98SAPS  H18Y 9873   2.532   4.046   8.003 -2.8446 -0.7888  0.4709
   98SAPS  H18Z 9874   2.653   3.998   7.877  0.9066  0.8730  1.8677
   99SAPS     N 9875   0.590   1.741   6.416 -0.1498 -0.2506 -0.0642
   99SAPS   HN1 9876   0.683   1.781   6.441 -0.5103  0.5392  0.0340
   99SAPS   HN2 9877   0.518   1.784   6.477  0.8875 -2.3324  2.8397
   99SAPS   HN3 9878   0.600   1.643   6.449 -1.5475 -0.3849  0.0084
   99SAPS   C12 9879   0.583   1.754   6.267 -0.4704  0.2789  0.6059
   99SAPS  H12A 9880   0.536   1.848   6.245  0.2187  0.2739 -1.0397
   99SAPS   C13 9881   0.710   1.764   6.187 -0.2077 -0.3069 -0.1022
   99SAPS  O13A 9882   0.825   1.771   6.248 -0.0842  0.2263 -0.0684
   99SAPS  O13B 9883   0.695   1.782   6.064 -0.5647 -0.0145 -0.4671
   99SAPS   C11 9884   0.494   1.641   6.217 -0.0968  0.3203 -0.8355
   99SAPS  H11A 9885   0.531   1.538   6.234  0.1196  0.3577 -1.0774
   99SAPS  H11B 9886   0.498   1.634   6.107 -1.5787 -1.4642 -0.8197
   99SAPS     P 9887   0.241   1.596   6.179  0.0279  0.0095 -0.6918
   99SAPS   O13 9888   0.261   1.643   6.044  0.0076  0.3476  0.3724
   99SAPS   O14 9889   0.218   1.446   6.193  0.0859 -0.1701  0.0431
   99SAPS   O12 9890   0.364   1.638   6.277 -0.2890 -0.5801 -0.2833
   99SAPS   O11 9891   0.119   1.670   6.249  0.0942 -0.8169 -0.0824
   99SAPS    C1 9892   0.141   1.777   6.344  0.7840  0.1488 -0.5629
   99SAPS    HA 9893   0.227   1.841   6.317  1.5151 -1.5265 -2.4691
   99SAPS    HB 9894   0.049   1.838   6.356 -0.2779 -1.5153  0.2034
   99SAPS    C2 9895   0.170   1.726   6.494 -0.3740  0.0552  0.4806
   99SAPS    HS 9896   0.266   1.671   6.502 -1.0988 -1.0668  6.6359
   99SAPS   O21 9897   0.065   1.649   6.555 -0.0327  0.3210 -0.0838
   99SAPS   C21 9898   0.103   1.538   6.621  0.2633  0.4436  0.4344
   99SAPS   O22 9899   0.213   1.491   6.629  0.3900  0.1067  0.1690
   99SAPS   C22 9900  -0.024   1.476   6.690 -0.0701  0.0800  0.1439
   99SAPS   H2R 9901  -0.108   1.481   6.617  0.0493  0.1119  0.0083
   99SAPS   H2S 9902  -0.014   1.368   6.716 -0.6654  0.1863  0.8578
   99SAPS    C3 9903   0.204   1.845   6.586  0.2356  0.0696  0.0350
   99SAPS    HX 9904   0.103   1.891   6.587 -1.7598 -3.9012  0.8899
   99SAPS    HY 9905   0.272   1.925   6.548 -0.5632  0.9324  0.3904
   99SAPS   O31 9906   0.237   1.794   6.714  0.8206  0.0178 -0.2863
   99SAPS   C31 9907   0.370   1.785   6.735  0.6205 -0.1385 -0.5729
   99SAPS   O32 9908   0.450   1.802   6.650  0.0352 -0.7260 -0.4384
   99SAPS   C32 9909   0.397   1.720   6.873  0.5654  0.9304 -0.2385
   99SAPS   H2X 9910   0.318   1.643   6.887  1.9984 -0.5363  0.2158
   99SAPS   H2Y 9911   0.384   1.795   6.953  0.3606 -0.1596  0.7730
   99SAPS   C23 9912  -0.065   1.562   6.819  0.1793 -0.1818 -0.1268
   99SAPS   H3R 9913  -0.156   1.514   6.862  0.7628  0.4107  1.8907
   99SAPS   H3S 9914  -0.095   1.665   6.791  0.4382  0.0196  0.3150
   99SAPS   C24 9915   0.037   1.570   6.929 -0.2745 -0.2217  0.1855
   99SAPS   H4R 9916   0.113   1.644   6.895 -0.9722  0.4671  0.1096
   99SAPS   H4S 9917   0.089   1.474   6.947  1.0126  0.6841  1.6257
   99SAPS   C25 9918  -0.030   1.619   7.060  0.3605  0.2807  0.0271
   99SAPS   H5R 9919  -0.085   1.715   7.059 -0.2140 -0.0499 -0.8646
   99SAPS   C26 9920  -0.054   1.550   7.178 -0.5304  0.1465 -0.0505
   99SAPS   H6R 9921  -0.123   1.605   7.243 -0.5318  0.9572 -0.7091
   99SAPS   C27 9922  -0.012   1.408   7.205  0.1457  0.4732  0.0380
   99SAPS   H7R 9923  -0.006   1.355   7.107 -1.0182  1.6468 -0.7093
   99SAPS   H7S 9924  -0.096   1.352   7.251 -1.3799  1.3336 -1.5848
   99SAPS   C28 9925   0.113   1.386   7.284  0.0405  0.1338  0.6490
   99SAPS   H8R 9926   0.203   1.369   7.223 -1.7861 -1.0776 -1.9084
   99SAPS   C29 9927   0.129   1.385   7.418  0.4739 -0.5338 -0.1290
   99SAPS   H9R 9928   0.230   1.372   7.461 -0.1916 -0.6101  1.4883
   99SAPS  C210 9929   0.018   1.404   7.515 -0.0406  0.7516 -0.3410
   99SAPS  H10R 9930  -0.014   1.307   7.559  1.0701  0.1355 -0.8379
   99SAPS  H10S 9931  -0.075   1.440   7.466 -0.6053 -0.6671 -0.3536
   99SAPS  C211 9932   0.064   1.488   7.633 -0.4740 -0.0683  0.5300
   99SAPS  H11R 9933   0.091   1.591   7.609  1.0248 -0.2958  1.1389
   99SAPS  C212 9934   0.075   1.455   7.762  0.9023  0.0245 -0.3955
   99SAPS  H12R 9935   0.113   1.537   7.824 -0.4771 -0.8409  1.7260
   99SAPS  C213 9936   0.038   1.329   7.838 -0.2301  0.3548  0.1052
   99SAPS  H13R 9937   0.040   1.233   7.782 -0.5966 -0.5120  1.5264
   99SAPS  H13S 9938  -0.068   1.326   7.870 -0.7512 -2.7368 -1.4464
   99SAPS  C214 9939   0.132   1.315   7.952  0.0352 -0.5853  0.1878
   99SAPS  H14R 9940   0.239   1.331   7.929  0.1365 -0.6805  0.5855
   99SAPS  C215 9941   0.097   1.281   8.068  0.7217 -0.1340  0.5385
   99SAPS  H15R 9942   0.168   1.282   8.151 -1.7509  2.1742  2.8157
   99SAPS  C216 9943  -0.044   1.248   8.107  0.9501  0.2361  0.2332
   99SAPS  H16R 9944  -0.087   1.179   8.031  0.1434 -1.7068  2.3116
   99SAPS  H16S 9945  -0.101   1.341   8.126 -0.1066 -0.2495 -0.4522
   99SAPS  C217 9946  -0.041   1.168   8.242 -0.1769  0.0327  0.0688
   99SAPS  H17R 9947  -0.142   1.151   8.287 -0.6411  1.2290 -0.4720
   99SAPS  H17S 9948   0.017   1.222   8.320 -0.9999 -1.9712  2.1915
   99SAPS  C218 9949   0.022   1.027   8.219  0.0888  0.2042 -0.3068
   99SAPS  H18R 9950   0.118   1.029   8.162  0.4023 -0.9593  0.1388
   99SAPS  H18S 9951  -0.054   0.965   8.166  0.6707  0.3618 -1.3708
   99SAPS  C219 9952   0.036   0.941   8.348 -0.4662  0.4549 -0.6140
   99SAPS  H19R 9953   0.073   0.840   8.319 -2.1909 -0.8971  1.6240
   99SAPS  H19S 9954  -0.059   0.928   8.403  1.1168 -4.3038  1.5440
   99SAPS  C220 9955   0.131   0.999   8.449  0.0071  0.1790 -0.3064
   99SAPS  H20R 9956   0.108   1.104   8.475  1.9220  0.3399  0.9232
   99SAPS  H20S 9957   0.232   1.004   8.402  0.5170 -1.0830  0.5906
   99SAPS  H20T 9958   0.135   0.936   8.541 -1.5777 -0.3630 -0.5785
   99SAPS   C33 9959   0.535   1.648   6.875  0.1393  0.4777 -0.7055
   99SAPS   H3X 9960   0.611   1.721   6.908 -0.7357  1.3032 -0.4663
   99SAPS   H3Y 9961   0.566   1.612   6.775  2.0074  2.9241 -1.0831
   99SAPS   C34 9962   0.522   1.531   6.975 -0.2879 -0.2786  0.1112
   99SAPS   H4X 9963   0.615   1.473   6.993 -0.6096 -1.2232 -1.1070
   99SAPS   H4Y 9964   0.458   1.458   6.921 -0.2488 -1.0946  1.1534
   99SAPS   C35 9965   0.458   1.580   7.111  0.5541  0.7401  1.0172
   99SAPS   H5X 9966   0.349   1.577   7.093  1.0905  2.0217 -3.9140
   99SAPS   H5Y 9967   0.498   1.678   7.144  0.1440  1.3888 -0.3660
   99SAPS   C36 9968   0.488   1.476   7.223 -0.0258 -0.5001  0.0280
   99SAPS   H6X 9969   0.594   1.443   7.210  0.4788  1.7508 -2.5159
   99SAPS   H6Y 9970   0.424   1.386   7.214 -1.7792  0.7940 -1.2129
   99SAPS   C37 9971   0.452   1.538   7.362  0.8745 -0.6538  0.3433
   99SAPS   H7X 9972   0.343   1.551   7.377  1.3005  2.6024  1.4240
   99SAPS   H7Y 9973   0.490   1.642   7.373  0.0276 -0.0261 -2.0959
   99SAPS   C38 9974   0.504   1.445   7.472  0.4013 -0.0196  0.0177
   99SAPS   H8X 9975   0.612   1.417   7.464  0.9255  2.0664 -0.9201
   99SAPS   H8Y 9976   0.455   1.346   7.470 -1.7585  0.8779  2.3424
   99SAPS   C39 9977   0.485   1.503   7.618  0.6309  0.1443 -0.0883
   99SAPS   H9X 9978   0.376   1.524   7.618  0.6788  0.8913 -3.2543
   99SAPS   H9Y 9979   0.546   1.595   7.615 -0.7368  1.1136  0.6700
   99SAPS  C310 9980   0.526   1.413   7.733  0.7324 -0.0371 -0.8612
   99SAPS  H10X 9981   0.633   1.386   7.739  0.5546 -0.6543 -0.4244
   99SAPS  H10Y 9982   0.470   1.318   7.731 -0.0287  0.3793  0.1588
   99SAPS  C311 9983   0.499   1.483   7.863  0.7559 -0.2712 -0.8722
   99SAPS  H11X 9984   0.391   1.511   7.854 -0.3208 -3.7031 -0.1939
   99SAPS  H11Y 9985   0.555   1.579   7.860  0.1675  0.0790 -0.8610
   99SAPS  C312 9986   0.517   1.405   7.991  0.4927 -0.1327 -0.3118
   99SAPS  H12X 9987   0.620   1.363   7.993  0.6493  0.1924 -1.1192
   99SAPS  H12Y 9988   0.456   1.312   7.987  0.3491 -0.0694  0.2985
   99SAPS  C313 9989   0.493   1.477   8.130  0.0151  0.0651 -0.0298
   99SAPS  H13X 9990   0.396   1.527   8.111 -1.0136 -2.0395 -0.7089
   99SAPS  H13Y 9991   0.563   1.563   8.137  0.9849 -0.6584 -0.6064
   99SAPS  C314 9992   0.495   1.389   8.253  0.3046  0.6356 -0.8915
   99SAPS  H14X 9993   0.600   1.370   8.283 -0.2113  0.9211  1.2521
   99SAPS  H14Y 9994   0.438   1.294   8.252 -0.0692  0.7497  2.1538
   99SAPS  C315 9995   0.440   1.460   8.379 -0.7306 -0.1722 -0.0262
   99SAPS  H15X 9996   0.474   1.566   8.376  0.3851 -0.5396 -0.8958
   99SAPS  H15Y 9997   0.472   1.403   8.470  0.2173  0.4387  0.0394
   99SAPS  C316 9998   0.285   1.469   8.377  0.2387  0.2955  0.0070
   99SAPS  H16X 9999   0.236   1.377   8.338 -0.9670  1.3791 -1.1137
   99SAPS  H16Y10000   0.250   1.550   8.310 -0.8099 -0.4036 -0.3117
   99SAPS  C31710001   0.219   1.496   8.516  0.0792  0.0037 -0.4148
   99SAPS  H17X10002   0.241   1.601   8.545  1.7437 -0.4577  0.0682
   99SAPS  H17Y10003   0.278   1.428   8.580  3.1213 -0.2013 -3.1809
   99SAPS  C31810004   0.071   1.458   8.530  0.4360  0.6540 -1.2456
   99SAPS  H18X10005   0.061   1.348   8.520 -0.4969  0.4387  1.3142
   99SAPS  H18Y10006   0.013   1.494   8.442  0.0561  0.2519 -1.1627
   99SAPS  H18Z10007   0.030   1.490   8.628  0.2232 -2.9173 -0.0407
  100SAPS     N10008   4.308   4.242   6.534  0.2895  0.8258  0.1529
  100SAPS   HN110009   4.208   4.246   6.505  0.3602 -2.0312 -0.8442
  100SAPS   HN210010   4.332   4.336   6.570 -1.3589  1.8351 -1.2208
  100SAPS   HN310011   4.379   4.227   6.459 -0.0210  0.5896 -0.1007
  100SAPS   C1210012   4.301   4.132   6.629 -1.1343  0.3037 -0.2755
  100SAPS  H12A10013   4.220   4.148   6.698 -0.2697 -2.9767  1.6885
  100SAPS   C1310014   4.281   3.997   6.569  0.5311  0.0631 -0.0917
  100SAPS  O13A10015   4.261   3.989   6.448  0.2189  0.3878  0.5799
  100SAPS  O13B10016   4.286   3.891   6.641  1.0272  0.2589  0.6410
  100SAPS   C1110017   4.444   4.126   6.705  0.3542 -0.5927 -0.3046
  100SAPS  H11A10018   4.432   4.076   6.804  1.6786  0.6214  0.5230
  100SAPS  H11B10019   4.474   4.231   6.726 -3.4105  0.8466 -1.3282
  100SAPS     P10020   4.657   4.121   6.555  0.5115  0.0183  0.1669
  100SAPS   O1310021   4.728   4.007   6.484  0.9640  0.6555  0.7761
  100SAPS   O1410022   4.595   4.221   6.462 -0.2601  0.5937 -0.5644
  100SAPS   O1210023   4.533   4.058   6.627  0.2384  0.2048 -0.0889
  100SAPS   O1110024   4.744   4.194   6.668 -0.1212  0.2173  0.8122
  100SAPS    C110025   4.855   4.118   6.713 -0.3693  0.4431 -0.2640
  100SAPS    HA10026   4.922   4.103   6.626 -0.8654  0.4540 -0.6520
  100SAPS    HB10027   4.916   4.174   6.786 -0.8238  1.3704 -0.5730
  100SAPS    C210028   4.812   3.982   6.783  0.5823  0.2401  0.3173
  100SAPS    HS10029   4.750   3.920   6.714 -4.2329 -0.4200  4.6043
  100SAPS   O2110030   4.728   4.037   6.892 -0.1228  0.7345  0.3557
  100SAPS   C2110031   4.647   3.951   6.938  0.9059  0.8506  0.3220
  100SAPS   O2210032   4.629   3.837   6.893 -0.2400  0.4174 -0.4670
  100SAPS   C2210033   4.582   4.016   7.062  0.2438  0.5363 -0.0185
  100SAPS   H2R10034   4.651   3.998   7.147 -1.0961 -1.8726  0.6499
  100SAPS   H2S10035   4.569   4.126   7.046 -0.3004  0.1195 -3.2492
  100SAPS    C310036   4.918   3.894   6.842  0.4573  0.1885 -0.0608
  100SAPS    HX10037   4.978   3.857   6.755 -0.5482  2.0932 -1.6494
  100SAPS    HY10038   4.873   3.805   6.891  2.9596 -0.0453  2.0076
  100SAPS   O3110039   4.996   3.971   6.928  0.1253 -0.2277  0.1028
  100SAPS   C3110040   4.960   3.961   7.059 -0.6872  0.3029  0.1496
  100SAPS   O3210041   4.893   3.872   7.102 -0.2778  0.6384 -0.2663
  100SAPS   C3210042   5.039   4.063   7.137 -0.4118  0.4425 -0.2598
  100SAPS   H2X10043   5.006   4.167   7.115  1.6538  1.1821 -0.1180
  100SAPS   H2Y10044   5.138   4.058   7.087 -0.5866 -3.5618 -0.5194
  100SAPS   C2310045   4.446   3.962   7.109  0.4316 -0.3896  0.2952
  100SAPS   H3R10046   4.441   3.851   7.099  0.7243 -0.3201 -0.6369
  100SAPS   H3S10047   4.370   4.002   7.038  1.3412  3.5155  1.2803
  100SAPS   C2410048   4.407   3.999   7.256  0.7113 -0.0901  0.1327
  100SAPS   H4R10049   4.476   3.954   7.330 -1.7884 -1.2897  1.8604
  100SAPS   H4S10050   4.306   3.955   7.270  0.9901 -2.6419 -4.1526
  100SAPS   C2510051   4.403   4.148   7.278  0.1374 -0.8241  0.1470
  100SAPS   H5R10052   4.314   4.189   7.229 -0.8060 -0.1747  2.2919
  100SAPS   C2610053   4.449   4.212   7.380  0.6438 -0.1240 -0.6412
  100SAPS   H6R10054   4.425   4.319   7.387 -1.6308 -0.4747 -1.9588
  100SAPS   C2710055   4.524   4.152   7.496 -0.0751 -0.2709  0.0002
  100SAPS   H7R10056   4.607   4.224   7.515  0.5788 -1.3989  1.6275
  100SAPS   H7S10057   4.581   4.060   7.473  0.3935  0.1070 -0.3644
  100SAPS   C2810058   4.434   4.127   7.614 -0.6688 -0.1571 -0.6888
  100SAPS   H8R10059   4.369   4.040   7.605  0.2694 -0.9543 -0.0096
  100SAPS   C2910060   4.433   4.200   7.732  0.2283 -0.1938 -0.1997
  100SAPS   H9R10061   4.358   4.169   7.807 -0.7194 -3.3117 -2.2330
  100SAPS  C21010062   4.517   4.326   7.770  0.1835  0.4653  0.1033
  100SAPS  H10R10063   4.539   4.388   7.681  0.0797  1.7278  0.9331
  100SAPS  H10S10064   4.620   4.298   7.801  0.4439  1.4001  0.0971
  100SAPS  C21110065   4.454   4.423   7.870  0.2476 -0.2620 -0.3654
  100SAPS  H11R10066   4.367   4.472   7.824 -1.2131 -3.5062 -1.4139
  100SAPS  C21210067   4.490   4.453   7.994  0.1180  0.3640 -0.6088
  100SAPS  H12R10068   4.428   4.522   8.053  1.0309  2.4252 -1.9183
  100SAPS  C21310069   4.614   4.391   8.064 -0.3922  0.3309 -1.1266
  100SAPS  H13R10070   4.667   4.331   7.988 -0.8918  0.6981 -1.7684
  100SAPS  H13S10071   4.586   4.321   8.146 -0.0675  0.4707 -0.8886
  100SAPS  C21410072   4.708   4.500   8.108  0.1499  0.1988 -0.1951
  100SAPS  H14R10073   4.737   4.575   8.033  0.9313  2.6194  2.3538
  100SAPS  C21510074   4.786   4.504   8.221  0.1327  0.8415 -0.1354
  100SAPS  H15R10075   4.849   4.593   8.237  0.8669  0.5119 -1.0337
  100SAPS  C21610076   4.796   4.406   8.336 -0.1051  0.6775 -0.3388
  100SAPS  H16R10077   4.747   4.309   8.312 -1.4021  0.5916  2.3481
  100SAPS  H16S10078   4.753   4.448   8.429  1.2299 -2.2670  1.7867
  100SAPS  C21710079   4.952   4.367   8.367  0.1599  0.4326  0.6784
  100SAPS  H17R10080   5.017   4.456   8.383  1.2982 -0.3530  0.5612
  100SAPS  H17S10081   4.986   4.310   8.278  0.5531 -0.9345  1.6667
  100SAPS  C21810082   4.968   4.264   8.481 -0.2421 -0.0469  0.1101
  100SAPS  H18R10083   4.889   4.186   8.480  0.5086 -0.8192 -0.4247
  100SAPS  H18S10084   4.957   4.323   8.575  0.1921  0.5091 -0.1844
  100SAPS  C21910085   5.107   4.199   8.472  0.6444  0.5326 -0.4792
  100SAPS  H19R10086   5.171   4.289   8.482  1.6112 -0.0075 -1.5278
  100SAPS  H19S10087   5.131   4.147   8.376 -2.6635 -3.7149  0.6801
  100SAPS  C22010088   5.140   4.097   8.580 -0.9833  0.2523  0.3639
  100SAPS  H20R10089   5.134   4.145   8.680 -3.3871  1.4574 -0.2927
  100SAPS  H20S10090   5.244   4.065   8.558 -1.9747 -3.6494  0.6311
  100SAPS  H20T10091   5.072   4.009   8.579 -2.3436  1.2453  1.5277
  100SAPS   C3310092   5.056   4.044   7.288  0.0057  0.0008  0.2306
  100SAPS   H3X10093   5.160   4.066   7.320  0.1902  1.9650 -1.4955
  100SAPS   H3Y10094   5.059   3.933   7.299 -0.7617 -0.2118 -1.4384
  100SAPS   C3410095   4.935   4.098   7.366  0.0855 -0.0772 -0.5607
  100SAPS   H4X10096   4.847   4.041   7.329 -1.0027  1.6491 -0.7888
  100SAPS   H4Y10097   4.919   4.208   7.354  0.5688 -0.0073 -0.5577
  100SAPS   C3510098   4.959   4.079   7.510 -0.1989  0.0858 -0.7319
  100SAPS   H5X10099   5.052   4.139   7.527  0.0151 -0.2839 -0.5851
  100SAPS   H5Y10100   4.985   3.974   7.534 -1.1644 -0.3331 -1.4762
  100SAPS   C3610101   4.848   4.124   7.597  0.5886  0.1655 -0.7748
  100SAPS   H6X10102   4.773   4.045   7.579 -0.2382  1.3204 -2.7059
  100SAPS   H6Y10103   4.806   4.223   7.568  1.1955  0.8779  0.6637
  100SAPS   C3710104   4.898   4.128   7.744 -0.3069  0.2924 -0.0451
  100SAPS   H7X10105   4.887   4.236   7.766 -1.4894  0.0704  0.4993
  100SAPS   H7Y10106   5.003   4.096   7.760 -0.7372 -0.6045  1.0935
  100SAPS   C3810107   4.809   4.060   7.851 -0.3987  0.2660  0.4724
  100SAPS   H8X10108   4.813   3.955   7.817  1.0257  1.1202 -2.3662
  100SAPS   H8Y10109   4.704   4.096   7.843  0.2382  2.8489  2.3742
  100SAPS   C3910110   4.861   4.088   7.992 -0.0004  0.2355  0.2763
  100SAPS   H9X10111   4.837   4.196   8.000 -0.1538  0.4497 -2.2119
  100SAPS   H9Y10112   4.971   4.071   7.998  0.6337  3.6027  0.0732
  100SAPS  C31010113   4.790   4.008   8.103 -0.6996  0.7749  0.0654
  100SAPS  H10X10114   4.690   3.973   8.069 -0.5093  0.3870 -0.1022
  100SAPS  H10Y10115   4.768   4.083   8.182 -1.3183  1.0136 -0.3190
  100SAPS  C31110116   4.857   3.888   8.175 -0.0340 -0.2885  0.9041
  100SAPS  H11X10117   4.961   3.922   8.194  0.1910  0.0085 -0.7097
  100SAPS  H11Y10118   4.872   3.800   8.109  0.3679  1.0520 -0.8748
  100SAPS  C31210119   4.787   3.858   8.304  0.0886 -0.1669  0.9170
  100SAPS  H12X10120   4.681   3.854   8.270  0.2031 -4.6388  0.4033
  100SAPS  H12Y10121   4.805   3.932   8.385  2.5314  0.4946 -0.1327
  100SAPS  C31310122   4.819   3.725   8.368  0.5216 -0.1274  0.2698
  100SAPS  H13X10123   4.925   3.721   8.401  0.1934 -2.3575  1.2453
  100SAPS  H13Y10124   4.795   3.651   8.288  1.4490 -0.2686  0.1146
  100SAPS  C31410125   4.734   3.695   8.493 -0.3094  0.4372  0.0739
  100SAPS  H14X10126   4.624   3.696   8.477 -0.5208 -0.6656  1.3104
  100SAPS  H14Y10127   4.754   3.777   8.565 -0.5938  0.9635 -0.4392
  100SAPS  C31510128   4.778   3.560   8.559  0.3699 -0.8301 -0.7409
  100SAPS  H15X10129   4.753   3.564   8.667 -1.3823 -2.3474 -1.0551
  100SAPS  H15Y10130   4.884   3.534   8.539  0.0307 -1.5799 -1.6413
  100SAPS  C31610131   4.701   3.439   8.494  0.1280 -0.2652  0.8402
  100SAPS  H16X10132   4.748   3.415   8.396  1.2306 -1.6658  1.6765
  100SAPS  H16Y10133   4.595   3.468   8.477 -0.5853 -1.7877  2.3388
  100SAPS  C31710134   4.693   3.307   8.567 -0.1242  0.6103 -0.3639
  100SAPS  H17X10135   4.638   3.321   8.662  1.0617  1.9276  0.1617
  100SAPS  H17Y10136   4.794   3.271   8.598  0.4507  2.6246  0.2643
  100SAPS  C31810137   4.619   3.207   8.473  0.5161 -0.3659 -0.0660
  100SAPS  H18X10138   4.531   3.259   8.430  1.2134 -0.2058 -1.3531
  100SAPS  H18Y10139   4.583   3.113   8.522  0.8111 -1.2428 -1.4823
  100SAPS  H18Z10140   4.682   3.178   8.386 -0.1797  0.0209 -0.7101
  101OSM      N10141   4.128   5.710  11.263 -0.3422 -0.2278  0.3263
  101OSM    C1510142   4.184   5.854  11.278 -0.0009 -0.2331  0.4589
  101OSM   H15A10143   4.194   5.881  11.382  0.3533  0.1355  0.3313
  101OSM   H15B10144   4.135   5.923  11.210  0.2555 -1.4038 -0.9686
  101OSM   H15C10145   4.285   5.847  11.239 -0.7046  0.5345 -1.6575
  101OSM    C1410146   4.215   5.617  11.327 -0.0141 -0.6943 -0.1832
  101OSM   H14A10147   4.191   5.632  11.431 -1.7286  1.5042 -0.8157
  101OSM   H14B10148   4.319   5.632  11.301 -0.5479  1.0947 -1.4341
  101OSM   H14C10149   4.194   5.515  11.298  0.6056 -0.5733 -1.1012
  101OSM    C1310150   4.000   5.691  11.338  0.2312 -0.4872 -0.2886
  101OSM   H13A10151   3.928   5.630  11.286  0.1637 -1.5681  0.9962
  101OSM   H13B10152   3.943   5.781  11.351 -1.6426 -1.6483 -0.1042
  101OSM   H13C10153   4.013   5.645  11.435  1.4403  2.0086  0.8137
  101OSM    C1210154   4.113   5.684  11.116 -0.4902 -0.2320  0.7126
  101OSM   H12A10155   4.099   5.577  11.112  1.8325 -0.6765  2.6203
  101OSM   H12B10156   4.210   5.703  11.074  0.0456  1.7686  2.6613
  101OSM    C1110157   3.999   5.748  11.039 -0.0659 -0.1317  0.6394
  101OSM   H11A10158   4.024   5.769  10.933  0.5499  0.3931  0.8817
  101OSM   H11B10159   3.989   5.854  11.071 -0.4930 -0.7401  2.6780
  101OSM      P10160   3.856   5.534  11.001 -0.1178  0.5581 -0.1088
  101OSM    O1310161   3.928   5.447  11.098 -0.0550  0.8315  0.5184
  101OSM    O1410162   3.714   5.501  10.975 -0.0301 -0.0748  0.0489
  101OSM    O1110163   3.941   5.531  10.873 -0.0040 -0.0895  0.7918
  101OSM    O1210164   3.868   5.683  11.056  0.0453 -0.0390 -0.0237
  101OSM    C1S10165   3.941   5.417  10.784 -0.0451 -0.3297 -0.2977
  101OSM    H1S10166   3.840   5.371  10.774 -0.4283  0.5465 -0.5962
  101OSM    H1T10167   4.014   5.344  10.824  2.9439  3.7233  2.4963
  101OSM     NF10168   3.968   5.363  10.541  0.5984 -0.3789 -0.2008
  101OSM    HNF10169   4.048   5.304  10.530  0.7381 -0.8093  2.3438
  101OSM    C2S10170   3.977   5.467  10.645  0.0627 -0.4135 -0.1835
  101OSM    H2S10171   3.900   5.542  10.619  0.6487 -0.2580 -1.5655
  101OSM    C3S10172   4.120   5.522  10.642 -0.1731  0.6453 -0.4288
  101OSM    H3S10173   4.177   5.432  10.673 -2.4119 -0.8609 -0.4655
  101OSM     O310174   4.158   5.622  10.742 -0.3547  0.3256  0.3711
  101OSM    HO310175   4.095   5.617  10.814  0.9114  0.7963  1.5452
  101OSM    C4S10176   4.146   5.559  10.501 -0.1737 -0.5028 -0.6383
  101OSM    H4S10177   4.191   5.479  10.441  1.8188 -0.1494  0.3121
  101OSM    C5S10178   4.133   5.683  10.448  0.1858  0.0934 -0.5200
  101OSM    H5S10179   4.102   5.766  10.513  0.0289 -2.3506  2.7597
  101OSM    C6S10180   4.158   5.712  10.302 -0.6161 -0.2697  0.1214
  101OSM    H6S10181   4.226   5.798  10.281 -2.7031  0.8313 -2.7476
  101OSM    H6T10182   4.058   5.736  10.259 -0.5206  0.9697  0.5422
  101OSM    C7S10183   4.213   5.598  10.218  0.2666  0.4606 -0.9050
  101OSM    H7S10184   4.148   5.508  10.215 -0.6617  1.0913 -0.4148
  101OSM    H7T10185   4.317   5.576  10.249  1.6363  4.3638 -2.1545
  101OSM    C8S10186   4.213   5.645  10.070 -0.8905  0.1981 -0.7065
  101OSM    H8S10187   4.272   5.740  10.072  0.1864 -0.4099 -1.8903
  101OSM    H8T10188   4.109   5.670  10.041 -0.1998  1.7645 -2.0746
  101OSM    C9S10189   4.257   5.546   9.967  1.1135 -0.8118  0.1495
  101OSM    H9S10190   4.213   5.446   9.989 -0.8958  0.6821  3.7488
  101OSM    H9T10191   4.367   5.535   9.973  1.4217  1.9062  0.2900
  101OSM   C10S10192   4.215   5.583   9.824  0.5345 -0.1523  0.2065
  101OSM   H10S10193   4.138   5.663   9.819  2.1305  1.3976 -2.8486
  101OSM   H10T10194   4.173   5.488   9.783 -0.5227 -0.2180  1.4007
  101OSM   C11S10195   4.324   5.636   9.734  0.0146  0.5842 -1.2290
  101OSM   H11S10196   4.408   5.564   9.748  0.2176  0.8635 -0.9986
  101OSM   H11T10197   4.354   5.734   9.777 -0.1545  0.4100 -0.7078
  101OSM   C12S10198   4.299   5.647   9.581  0.1137 -0.2787  0.1482
  101OSM   H12S10199   4.205   5.706   9.580  0.2616  0.0017  1.4060
  101OSM   H12T10200   4.270   5.551   9.532 -0.2899 -0.3011  0.4188
  101OSM   C13S10201   4.414   5.716   9.515 -0.4600 -1.3444  0.3415
  101OSM   H13S10202   4.477   5.638   9.467  0.7690 -0.2493  0.1076
  101OSM   H13T10203   4.466   5.780   9.589 -1.9343 -0.9952  1.1139
  101OSM   C14S10204   4.369   5.814   9.394  0.0323  0.0520 -0.9927
  101OSM   H14S10205   4.408   5.914   9.425 -4.8340  1.5428  1.4061
  101OSM   H14T10206   4.264   5.837   9.365  0.3468  1.0233 -1.4151
  101OSM   C15S10207   4.426   5.779   9.261  0.4900  0.0828  0.3337
  101OSM   H15S10208   4.394   5.683   9.214 -0.4092  0.9208 -0.8336
  101OSM   H15T10209   4.535   5.784   9.281  1.1050 -3.6065 -1.2604
  101OSM   C16S10210   4.400   5.869   9.145  0.8028 -0.7453 -0.6134
  101OSM   H16S10211   4.407   5.973   9.184 -2.6266 -0.8446  0.6305
  101OSM   H16T10212   4.293   5.860   9.115  1.2837  1.9626 -3.7639
  101OSM   C17S10213   4.493   5.851   9.022 -0.1104  0.7116  0.0426
  101OSM   H17S10214   4.497   5.742   9.001 -0.8460  0.6906 -0.0045
  101OSM   H17T10215   4.592   5.900   9.031  0.8551 -1.0027 -0.7641
  101OSM   C18S10216   4.433   5.913   8.900  0.3393 -0.2920  0.6944
  101OSM   H18S10217   4.329   5.880   8.876  0.1931  2.0414 -2.5696
  101OSM   H18T10218   4.483   5.882   8.806  0.1862 -1.7203  1.0605
  101OSM   H18U10219   4.442   6.023   8.905  1.0238 -0.3950  2.3459
  101OSM    C1F10220   3.853   5.319  10.509  0.5091  0.5280 -0.0041
  101OSM     OF10221   3.749   5.366  10.557  0.3864  0.5332 -0.5097
  101OSM    C2F10222   3.851   5.196  10.417  0.3083 -0.2797 -0.1413
  101OSM    H2F10223   3.854   5.110  10.487 -2.2884  0.4564  0.9545
  101OSM    H2G10224   3.938   5.188  10.348 -0.2705  0.0854 -0.9309
  101OSM    C3F10225   3.716   5.191  10.345 -0.1187  0.3734 -0.2519
  101OSM    H3F10226   3.675   5.294  10.338 -1.4217 -0.0781  0.2452
  101OSM    H3G10227   3.643   5.151  10.419  0.1661 -0.3163 -0.3358
  101OSM    C4F10228   3.708   5.119  10.206 -0.1628 -0.2388 -0.2562
  101OSM    H4F10229   3.733   5.011  10.209 -0.3438 -0.3997 -2.9312
  101OSM    H4G10230   3.792   5.149  10.140 -1.9893  1.4981 -1.8982
  101OSM    C5F10231   3.562   5.123  10.144 -0.6048 -0.1618  0.9045
  101OSM    H5F10232   3.522   5.226  10.141  2.2710  1.0251  0.2944
  101OSM    H5G10233   3.499   5.071  10.219 -0.8106 -0.2803  0.6535
  101OSM    C6F10234   3.566   5.044  10.004 -0.4031  0.0955  0.2463
  101OSM    H6F10235   3.591   4.940  10.032  2.5820  0.9096  0.9845
  101OSM    H6G10236   3.640   5.085   9.932 -1.2518  1.4494  0.1053
  101OSM    C7F10237   3.424   5.041   9.945  0.2243 -0.2761 -0.7808
  101OSM    H7F10238   3.384   5.144   9.935 -0.4042 -0.0222  2.8390
  101OSM    H7G10239   3.352   4.987  10.011  2.2666 -1.3019  0.7145
  101OSM    C8F10240   3.435   4.979   9.801  0.0875  0.4991 -0.2003
  101OSM    H8F10241   3.479   4.880   9.824 -1.0923 -0.5724 -2.2541
  101OSM    H8G10242   3.506   5.032   9.734 -2.1278  1.3452 -1.9783
  101OSM    C9F10243   3.298   4.983   9.750 -0.1735  0.1952  0.2072
  101OSM    H9F10244   3.227   5.034   9.816 -0.2241  1.0564 -0.4945
  101OSM   C10F10245   3.263   4.931   9.629 -0.4285  0.1787 -0.5703
  101OSM   H10F10246   3.161   4.943   9.590 -0.3581 -0.5182 -0.9884
  101OSM   C11F10247   3.349   4.867   9.526 -0.3633  0.1580 -0.0263
  101OSM   H11F10248   3.338   4.757   9.534  2.4990 -0.1405  1.2266
  101OSM   H11G10249   3.457   4.887   9.546  0.1155 -0.9710 -1.3863
  101OSM   C12F10250   3.324   4.920   9.386  0.5975 -0.5596 -0.0319
  101OSM   H12F10251   3.335   5.030   9.375 -2.2443 -0.1968  0.0827
  101OSM   H12G10252   3.219   4.894   9.363 -0.7944  3.3711  1.0379
  101OSM   C13F10253   3.417   4.866   9.285 -0.1799 -0.6310 -0.2599
  101OSM   H13F10254   3.397   4.758   9.267  0.6418 -0.9154  0.4900
  101OSM   H13G10255   3.522   4.879   9.318  0.2052  0.3741 -1.7935
  101OSM   C14F10256   3.400   4.934   9.154  0.4127  0.3267 -0.0245
  101OSM   H14F10257   3.439   5.037   9.164 -1.2215  0.8983  0.8002
  101OSM   H14G10258   3.293   4.944   9.129  0.8212  0.6252 -1.7783
  101OSM   C15F10259   3.480   4.877   9.031 -0.1133 -0.6417  0.0260
  101OSM   H15F10260   3.583   4.858   9.066  1.0828 -0.8331 -3.2464
  101OSM   H15G10261   3.483   4.953   8.950 -1.7744  0.3493  0.8426
  101OSM   C16F10262   3.398   4.761   8.976  0.3414 -0.0226 -0.7881
  101OSM   H16F10263   3.296   4.804   8.973  1.0280  1.6941 -0.9568
  101OSM   H16G10264   3.389   4.679   9.050 -0.6610 -0.4147 -1.3329
  101OSM   C17F10265   3.436   4.700   8.848  0.9459  0.9865 -0.3060
  101OSM   H17F10266   3.466   4.781   8.778 -0.0747 -0.0324 -1.9915
  101OSM   H17G10267   3.344   4.656   8.804 -0.9848  1.4689  2.9033
  101OSM   C18F10268   3.538   4.586   8.849  0.3999 -0.5452  0.6022
  101OSM   H18F10269   3.492   4.490   8.879 -2.0749  0.5620  0.5533
  101OSM   H18G10270   3.622   4.593   8.921 -0.7125 -0.3086  1.9035
  101OSM   H18H10271   3.584   4.579   8.748  1.1789 -0.5561  0.9498
  102OSM      N10272   3.278   5.109  10.567  0.1074  0.4115  0.7454
  102OSM    C1510273   3.306   5.235  10.631 -0.0940  0.1868 -0.4563
  102OSM   H15A10274   3.218   5.299  10.637 -0.0355  0.2478 -0.2373
  102OSM   H15B10275   3.390   5.289  10.591  0.6663  0.3897  1.3099
  102OSM   H15C10276   3.335   5.225  10.735 -0.2818  0.0594 -0.4166
  102OSM    C1410277   3.281   5.132  10.417  0.0019 -0.2957 -0.0314
  102OSM   H14A10278   3.363   5.195  10.389 -1.6501  2.3103  0.6432
  102OSM   H14B10279   3.188   5.180  10.391  2.1315  3.2112 -1.9694
  102OSM   H14C10280   3.279   5.037  10.365  0.0536  0.0597 -0.6803
  102OSM    C1310281   3.384   5.016  10.598  0.4891  0.6639  0.2036
  102OSM   H13A10282   3.396   4.999  10.704 -0.5931  0.9546  0.3838
  102OSM   H13B10283   3.478   5.053  10.561  0.5935 -0.7822 -1.0867
  102OSM   H13C10284   3.373   4.921  10.548 -0.4757  0.2764  1.1104
  102OSM    C1210285   3.140   5.058  10.619 -0.4889  0.1245  0.1316
  102OSM   H12A10286   3.061   5.126  10.590  1.6859  2.2630 -1.1272
  102OSM   H12B10287   3.150   5.062  10.726 -1.6798 -0.1101  0.2704
  102OSM    C1110288   3.110   4.917  10.567  0.9025 -0.0325  0.3209
  102OSM   H11A10289   3.182   4.844  10.609  0.7264 -2.1118 -2.7092
  102OSM   H11B10290   3.119   4.911  10.456 -1.0852 -0.8014  0.1742
  102OSM      P10291   2.927   4.765  10.678 -0.1273 -0.1571 -0.0523
  102OSM    O1310292   3.004   4.756  10.797 -0.2439  0.0310  0.1994
  102OSM    O1410293   2.781   4.770  10.698 -0.0248 -0.0666  0.1632
  102OSM    O1110294   2.970   4.647  10.573 -0.4033  0.0010 -0.2695
  102OSM    O1210295   2.972   4.895  10.600 -0.3521  0.7342  0.0793
  102OSM    C1S10296   2.878   4.590  10.483 -0.2305  0.2930 -0.4660
  102OSM    H1S10297   2.771   4.618  10.500 -0.9292 -0.9640 -2.4506
  102OSM    H1T10298   2.883   4.481  10.503  2.1376 -0.0314 -2.4584
  102OSM     NF10299   2.811   4.547  10.253 -0.4020 -0.0385  0.1605
  102OSM    HNF10300   2.841   4.458  10.219 -1.4747 -0.4245  0.2011
  102OSM    C2S10301   2.906   4.613  10.335  0.1228 -0.4604 -0.2793
  102OSM    H2S10302   2.898   4.723  10.316 -0.7900 -0.3966  0.4082
  102OSM    C3S10303   3.049   4.576  10.299  0.1587 -0.1360  0.1265
  102OSM    H3S10304   3.048   4.466  10.317  1.5235 -0.3211 -0.7871
  102OSM     O310305   3.146   4.642  10.385  0.6140  0.0478 -0.2561
  102OSM    HO310306   3.097   4.666  10.465 -0.1973  0.8550 -0.9746
  102OSM    C4S10307   3.070   4.606  10.148  0.4590 -0.6269  0.3048
  102OSM    H4S10308   3.047   4.520  10.082  1.5897 -0.2654 -0.5953
  102OSM    C5S10309   3.111   4.722  10.090  0.0953 -1.0912 -0.5325
  102OSM    H5S10310   3.115   4.812  10.152 -1.8594 -1.1009 -0.3153
  102OSM    C6S10311   3.113   4.743   9.942  0.1296 -0.6148 -0.2107
  102OSM    H6S10312   3.208   4.708   9.897  0.1415 -1.9108  0.7784
  102OSM    H6T10313   3.102   4.848   9.908 -0.6335 -1.2270 -1.9939
  102OSM    C7S10314   3.000   4.677   9.864  0.0089  0.6716 -0.2142
  102OSM    H7S10315   2.905   4.701   9.917 -1.3185 -2.0555 -1.1999
  102OSM    H7T10316   3.012   4.567   9.858 -0.4750  0.4346  2.0795
  102OSM    C8S10317   2.963   4.734   9.727 -0.4431 -0.4321 -0.4054
  102OSM    H8S10318   3.053   4.736   9.661 -0.7399 -2.1259 -0.9183
  102OSM    H8T10319   2.926   4.838   9.741  1.0595  0.0185  0.4609
  102OSM    C9S10320   2.852   4.664   9.645 -0.1371  0.3068 -1.2477
  102OSM    H9S10321   2.771   4.666   9.721 -0.8385 -0.2934 -1.9487
  102OSM    H9T10322   2.875   4.556   9.635  0.7237  0.2518  0.8919
  102OSM   C10S10323   2.809   4.737   9.518 -0.2092 -0.3053  0.0956
  102OSM   H10S10324   2.781   4.840   9.548  1.9319  1.0938 -2.2660
  102OSM   H10T10325   2.713   4.693   9.482 -0.2891 -0.3262  0.3347
  102OSM   C11S10326   2.917   4.742   9.408  0.6066 -0.0838 -0.5534
  102OSM   H11S10327   3.002   4.784   9.465  0.5458 -0.4647 -0.1703
  102OSM   H11T10328   2.879   4.816   9.335 -3.5040  0.3599  1.6744
  102OSM   C12S10329   2.936   4.606   9.337  0.5916  0.3230 -0.4266
  102OSM   H12S10330   2.841   4.595   9.281 -1.6034 -0.1993  3.0637
  102OSM   H12T10331   2.944   4.526   9.415 -1.3415  0.8531  0.3680
  102OSM   C13S10332   3.064   4.600   9.244 -0.1595 -0.0526  0.2670
  102OSM   H13S10333   3.158   4.621   9.300  1.0048  3.2455 -2.5347
  102OSM   H13T10334   3.062   4.695   9.185 -2.1904 -0.0421  0.2826
  102OSM   C14S10335   3.080   4.479   9.145 -0.1710 -0.3066  0.0592
  102OSM   H14S10336   3.103   4.394   9.213 -2.2225 -0.3422  0.7813
  102OSM   H14T10337   3.170   4.481   9.080 -0.2572 -0.6697 -0.0771
  102OSM   C15S10338   2.959   4.433   9.055  0.5036  0.1809 -0.0352
  102OSM   H15S10339   2.870   4.429   9.122 -0.1904  1.3552 -0.8388
  102OSM   H15T10340   2.978   4.334   9.009 -2.2813  0.1649 -1.3866
  102OSM   C16S10341   2.923   4.532   8.943 -0.4271 -0.4545 -0.1668
  102OSM   H16S10342   3.014   4.549   8.882 -2.0470  1.0469 -2.3174
  102OSM   H16T10343   2.909   4.628   8.999  2.3813  1.5493 -2.5780
  102OSM   C17S10344   2.809   4.500   8.847 -0.3517  0.1522 -1.0431
  102OSM   H17S10345   2.775   4.595   8.800 -0.8830  0.7173  0.4303
  102OSM   H17T10346   2.715   4.473   8.900  0.5938  0.0976  0.6483
  102OSM   C18S10347   2.835   4.393   8.735 -0.4520  0.2082  0.1789
  102OSM   H18S10348   2.747   4.374   8.670  0.3759  0.4916 -1.0640
  102OSM   H18T10349   2.873   4.299   8.779 -0.2194 -0.5719 -1.6243
  102OSM   H18U10350   2.911   4.444   8.672 -0.7842  1.3124  0.6378
  102OSM    C1F10351   2.683   4.595  10.241 -0.1597  0.1996  1.0751
  102OSM     OF10352   2.643   4.694  10.302 -0.3378 -0.2545 -0.3210
  102OSM    C2F10353   2.583   4.513  10.163  0.6583  0.4357  0.3130
  102OSM    H2F10354   2.482   4.549  10.194  0.7905 -0.4021  1.8572
  102OSM    H2G10355   2.583   4.414  10.214 -0.5354  0.1819 -0.1562
  102OSM    C3F10356   2.600   4.509  10.011 -0.0367 -0.3813  0.2659
  102OSM    H3F10357   2.699   4.461   9.996 -0.2016 -1.3965  2.1322
  102OSM    H3G10358   2.599   4.608   9.960 -1.1184 -1.8588 -2.8157
  102OSM    C4F10359   2.496   4.430   9.945  0.4921  0.2658 -0.0840
  102OSM    H4F10360   2.395   4.470   9.968  0.6170  0.2484  0.5070
  102OSM    H4G10361   2.502   4.322   9.973 -1.7595  0.0925 -0.0458
  102OSM    C5F10362   2.520   4.439   9.793 -0.5582 -0.5042 -0.4472
  102OSM    H5F10363   2.624   4.405   9.778 -0.1907  0.7809 -0.9315
  102OSM    H5G10364   2.512   4.546   9.765 -0.0698 -0.3711 -0.0805
  102OSM    C6F10365   2.436   4.333   9.723 -0.0263 -0.3174  0.5309
  102OSM    H6F10366   2.333   4.373   9.734  0.2777  1.2115 -1.4680
  102OSM    H6G10367   2.444   4.234   9.773  1.3902 -0.8086 -0.6019
  102OSM    C7F10368   2.459   4.317   9.576 -0.5174 -0.0781  0.8360
  102OSM    H7F10369   2.554   4.261   9.570  0.5212  1.7476 -2.0586
  102OSM    H7G10370   2.477   4.414   9.524 -0.5482  0.2416  1.4182
  102OSM    C8F10371   2.338   4.248   9.508 -0.6890  0.7931 -0.1726
  102OSM    H8F10372   2.254   4.320   9.499 -0.5036  0.7603 -4.6521
  102OSM    H8G10373   2.310   4.162   9.572 -0.3650  0.7112 -0.1338
  102OSM    C9F10374   2.359   4.215   9.365 -0.4356 -0.0869 -0.3760
  102OSM    H9F10375   2.352   4.301   9.298 -2.3157  1.0280  1.1455
  102OSM   C10F10376   2.377   4.094   9.315  0.9838 -0.1353  0.0574
  102OSM   H10F10377   2.397   4.085   9.207 -1.4073 -2.9308 -0.2870
  102OSM   C11F10378   2.371   3.969   9.396 -0.4151  0.1789  0.5413
  102OSM   H11F10379   2.421   3.971   9.496 -1.1798  1.6329  0.9106
  102OSM   H11G10380   2.424   3.882   9.351  0.4119  0.5881  0.7033
  102OSM   C12F10381   2.218   3.927   9.418 -0.5303  0.6205 -0.2676
  102OSM   H12F10382   2.173   4.008   9.479  1.0537  0.3753  1.2956
  102OSM   H12G10383   2.225   3.829   9.471 -1.1535 -1.1094 -3.1346
  102OSM   C13F10384   2.139   3.907   9.287 -0.0763  0.2199  0.2849
  102OSM   H13F10385   2.138   4.003   9.232  0.3446  0.7567  1.2057
  102OSM   H13G10386   2.034   3.884   9.315 -0.0017 -0.0387  0.3557
  102OSM   C14F10387   2.194   3.787   9.196 -0.9030 -0.7015 -0.5864
  102OSM   H14F10388   2.189   3.694   9.256  1.6749 -0.3136  0.3603
  102OSM   H14G10389   2.301   3.812   9.180 -1.3769  2.8370  0.8454
  102OSM   C15F10390   2.113   3.769   9.072  0.6351 -0.1037  0.2238
  102OSM   H15F10391   2.155   3.825   8.986 -1.3262 -0.5554 -1.0803
  102OSM   H15G10392   2.006   3.796   9.086  1.0928  2.3284 -0.4814
  102OSM   C16F10393   2.105   3.616   9.031  0.2584  0.0364 -0.1017
  102OSM   H16F10394   2.081   3.555   9.120 -0.7813  0.1160 -0.3170
  102OSM   H16G10395   2.209   3.588   9.003 -0.6368 -1.5507 -2.1871
  102OSM   C17F10396   1.992   3.593   8.931  1.0626  0.4309  0.6709
  102OSM   H17F10397   2.001   3.665   8.847 -1.5306 -0.4151 -0.4299
  102OSM   H17G10398   1.897   3.615   8.982  0.6216 -0.7073  0.3776
  102OSM   C18F10399   1.976   3.449   8.875 -0.2834 -0.0443  0.4780
  102OSM   H18F10400   1.985   3.376   8.959  3.0798  1.9645  2.0340
  102OSM   H18G10401   2.047   3.431   8.791  0.1291  3.1639  0.0244
  102OSM   H18H10402   1.873   3.432   8.837 -0.9818  2.2798  1.1542
  103OSM      N10403   4.746   1.365  10.873 -0.2610  0.1971  0.2624
  103OSM    C1510404   4.854   1.314  10.963  0.7537  0.0975  0.1057
  103OSM   H15A10405   4.838   1.209  10.983  0.0492  0.1357 -0.2168
  103OSM   H15B10406   4.869   1.367  11.056 -1.3102  0.1767  0.4289
  103OSM   H15C10407   4.946   1.322  10.907  0.8216  1.9052  0.4271
  103OSM    C1410408   4.765   1.510  10.861 -0.4508  0.1526  0.1994
  103OSM   H14A10409   4.742   1.565  10.951 -0.1933 -0.5601  0.6997
  103OSM   H14B10410   4.697   1.557  10.790 -2.3476 -0.1442  1.7421
  103OSM   H14C10411   4.861   1.535  10.818 -1.7120 -0.3724 -3.2340
  103OSM    C1310412   4.768   1.294  10.746  0.9010  0.0995  0.5903
  103OSM   H13A10413   4.754   1.187  10.758  0.5435 -0.0346 -0.8182
  103OSM   H13B10414   4.871   1.312  10.716  1.5328 -0.3823  2.3815
  103OSM   H13C10415   4.708   1.331  10.664  0.5778  2.8863  1.9774
  103OSM    C1210416   4.611   1.327  10.928  0.4693  0.5660  0.7708
  103OSM   H12A10417   4.534   1.391  10.887 -0.8175 -1.4275 -0.0379
  103OSM   H12B10418   4.608   1.347  11.034  1.7944  0.6493  0.8057
  103OSM    C1110419   4.564   1.177  10.907 -0.3322 -0.4611 -0.6700
  103OSM   H11A10420   4.552   1.158  10.799 -0.6487  0.1483 -0.7425
  103OSM   H11B10421   4.466   1.168  10.959  0.4183 -1.1716  0.7009
  103OSM      P10422   4.665   0.938  10.925  0.0417 -0.3510  0.2642
  103OSM    O1310423   4.796   0.888  10.974  0.1410 -0.2788  0.0725
  103OSM    O1410424   4.541   0.867  10.958 -0.7420  0.2461 -0.1913
  103OSM    O1110425   4.671   0.938  10.763 -0.8515 -0.0939  0.3126
  103OSM    O1210426   4.654   1.087  10.969 -0.2385  0.3501 -0.0078
  103OSM    C1S10427   4.688   0.808  10.693  0.0788  0.4897 -0.0679
  103OSM    H1S10428   4.586   0.763  10.687  0.2168  0.0164  0.8845
  103OSM    H1T10429   4.752   0.734  10.745 -0.4437 -0.4512 -0.7335
  103OSM     NF10430   4.738   0.693  10.471 -0.2357 -0.0595 -0.0290
  103OSM    HNF10431   4.828   0.653  10.458  0.3301  1.3084 -0.5225
  103OSM    C2S10432   4.738   0.820  10.543 -0.2657 -0.9653 -0.0649
  103OSM    H2S10433   4.664   0.886  10.492 -1.0522 -1.3139  0.6039
  103OSM    C3S10434   4.881   0.886  10.543 -0.1633 -0.4943  0.2347
  103OSM    H3S10435   4.951   0.806  10.576 -0.4430 -1.1376 -0.6945
  103OSM     O310436   4.906   0.993  10.640 -0.5583 -0.4253  0.0850
  103OSM    HO310437   4.831   0.998  10.699  1.3529  0.5553  2.6033
  103OSM    C4S10438   4.913   0.930  10.404 -0.1959  0.5195 -0.3243
  103OSM    H4S10439   5.001   0.882  10.360 -1.5579 -0.4939 -2.1233
  103OSM    C5S10440   4.868   1.035  10.335  0.0680  0.5857 -0.2531
  103OSM    H5S10441   4.791   1.102  10.377  1.6226  2.9861 -1.0016
  103OSM    C6S10442   4.905   1.071  10.192 -0.6148 -0.2705  0.2529
  103OSM    H6S10443   4.994   1.136  10.183 -1.4645  0.8465 -0.2770
  103OSM    H6T10444   4.817   1.121  10.147  0.5633  0.6407 -1.1244
  103OSM    C7S10445   4.923   0.957  10.093  0.3885 -0.1310 -0.0892
  103OSM    H7S10446   4.849   0.877  10.112  0.6605 -0.0055  1.6906
  103OSM    H7T10447   5.027   0.920  10.099  0.4442 -0.0569 -0.5307
  103OSM    C8S10448   4.918   0.997   9.948  0.4172  0.2967  0.0782
  103OSM    H8S10449   5.000   1.070   9.931  0.8375 -0.3741 -0.8301
  103OSM    H8T10450   4.817   1.044   9.944  0.1994 -0.0666  1.0561
  103OSM    C9S10451   4.931   0.879   9.855 -0.3901 -0.7003  0.2115
  103OSM    H9S10452   4.849   0.810   9.882 -0.4437 -0.7796 -0.1508
  103OSM    H9T10453   5.025   0.827   9.884 -0.1882 -1.4673 -1.6501
  103OSM   C10S10454   4.948   0.911   9.705  0.0717 -0.2316  0.2683
  103OSM   H10S10455   5.035   0.978   9.689 -0.6850  0.9425  0.9009
  103OSM   H10T10456   4.859   0.972   9.677  1.2951  1.4415 -0.1222
  103OSM   C11S10457   4.938   0.788   9.618 -0.4653  0.7434  0.1981
  103OSM   H11S10458   4.846   0.732   9.645  0.4117 -1.7261 -1.5668
  103OSM   H11T10459   5.017   0.717   9.651  1.6439  3.9282  2.6450
  103OSM   C12S10460   4.929   0.827   9.474 -0.2617  0.3782  0.3395
  103OSM   H12S10461   5.018   0.889   9.449 -0.0592  0.3631  0.9962
  103OSM   H12T10462   4.843   0.894   9.459 -0.4689 -0.1825 -1.2503
  103OSM   C13S10463   4.931   0.710   9.377 -0.2747  0.1097  0.0300
  103OSM   H13S10464   4.851   0.635   9.399  2.7723 -2.2558  4.4646
  103OSM   H13T10465   5.020   0.647   9.396 -0.3361 -0.8306 -2.4493
  103OSM   C14S10466   4.941   0.755   9.230  0.2086 -0.0883 -0.3258
  103OSM   H14S10467   5.032   0.817   9.219 -0.4373  1.2383  1.3246
  103OSM   H14T10468   4.853   0.823   9.219  1.4262  1.4907 -0.7109
  103OSM   C15S10469   4.926   0.634   9.137 -0.7519  0.4204 -0.5164
  103OSM   H15S10470   4.828   0.585   9.153 -0.0072 -2.0563 -2.7840
  103OSM   H15T10471   5.007   0.563   9.163 -0.7629  0.8515  0.7545
  103OSM   C16S10472   4.949   0.655   8.986 -0.2837 -0.3454  0.1418
  103OSM   H16S10473   5.058   0.676   8.984 -0.3979  0.4830  1.4524
  103OSM   H16T10474   4.890   0.747   8.966 -0.7415 -0.1315  2.2417
  103OSM   C17S10475   4.917   0.529   8.897  0.2549 -0.0852 -0.4688
  103OSM   H17S10476   4.810   0.504   8.911 -0.3252  2.8364  1.0011
  103OSM   H17T10477   4.972   0.440   8.936 -1.2492  0.1067  2.2900
  103OSM   C18S10478   4.961   0.551   8.752  0.0447  0.9200  0.5938
  103OSM   H18S10479   4.935   0.649   8.706 -0.7434  0.4277 -0.0324
  103OSM   H18T10480   4.914   0.470   8.693  0.5763  0.4348  0.8361
  103OSM   H18U10481   5.069   0.528   8.754 -0.2664 -0.7583 -0.6019
  103OSM    C1F10482   4.631   0.632  10.424 -0.1150  0.0790  0.3817
  103OSM     OF10483   4.521   0.684  10.422  0.0831 -0.2517  0.1911
  103OSM    C2F10484   4.653   0.491  10.372 -0.3141 -0.4279 -0.9206
  103OSM    H2F10485   4.613   0.420  10.448 -0.1803  0.4895  0.0210
  103OSM    H2G10486   4.759   0.471  10.348  0.2278  2.1101 -0.8907
  103OSM    C3F10487   4.566   0.464  10.248  0.2058 -0.3000 -0.7225
  103OSM    H3F10488   4.585   0.546  10.175  3.5204  0.6427  0.9979
  103OSM    H3G10489   4.464   0.465  10.291 -0.2042  1.5887 -1.6445
  103OSM    C4F10490   4.585   0.323  10.180  0.5141  0.1837  0.5513
  103OSM    H4F10491   4.584   0.245  10.259 -1.9441 -0.3912  0.0359
  103OSM    H4G10492   4.684   0.310  10.132  0.1388 -1.1542  0.1012
  103OSM    C5F10493   4.474   0.287  10.073  0.5107 -0.5611  0.4319
  103OSM    H5F10494   4.374   0.307  10.117  0.5429  0.0543  0.2370
  103OSM    H5G10495   4.497   0.186  10.032  1.4265  0.6821 -2.3896
  103OSM    C6F10496   4.474   0.372   9.952 -0.4237  0.3079  0.0342
  103OSM    H6F10497   4.569   0.371   9.894 -1.0638 -2.2470 -1.1086
  103OSM    H6G10498   4.462   0.478   9.983  1.1257 -0.2608  2.9135
  103OSM    C7F10499   4.370   0.323   9.846  0.6818 -0.0506  0.5936
  103OSM    H7F10500   4.275   0.315   9.903  1.0155  0.4731  1.2230
  103OSM    H7G10501   4.402   0.221   9.817  3.0115  0.6265  0.6254
  103OSM    C8F10502   4.346   0.426   9.744 -0.0188  0.3388  0.1613
  103OSM    H8F10503   4.333   0.531   9.778  0.6836  1.4966 -2.8713
  103OSM    H8G10504   4.248   0.398   9.700  0.7808  0.7191 -1.9969
  103OSM    C9F10505   4.453   0.434   9.642 -0.2390  1.2290 -0.0116
  103OSM    H9F10506   4.531   0.511   9.659  2.9285 -1.0227 -2.9280
  103OSM   C10F10507   4.465   0.377   9.518  0.0791  0.1933  0.2812
  103OSM   H10F10508   4.550   0.403   9.454 -0.5074  1.3180 -0.0579
  103OSM   C11F10509   4.365   0.274   9.452 -0.2484 -0.3796 -0.6450
  103OSM   H11F10510   4.314   0.214   9.530  2.9726 -1.0504  1.1389
  103OSM   H11G10511   4.414   0.200   9.385  0.4986  0.0649 -0.6002
  103OSM   C12F10512   4.251   0.345   9.385 -0.5164  0.3958  0.0265
  103OSM   H12F10513   4.289   0.380   9.287 -0.6178  0.3630 -0.0236
  103OSM   H12G10514   4.218   0.425   9.455 -0.4943  0.0923  0.3881
  103OSM   C13F10515   4.135   0.248   9.364 -0.9457  0.4777 -0.6544
  103OSM   H13F10516   4.173   0.144   9.356 -1.3872  0.2665 -0.0121
  103OSM   H13G10517   4.060   0.263   9.444  0.6372  1.6811  0.6760
  103OSM   C14F10518   4.081   0.274   9.226 -0.1021 -0.2645  0.5896
  103OSM   H14F10519   4.089   0.383   9.207 -1.5031 -0.2595 -0.0897
  103OSM   H14G10520   3.973   0.247   9.229 -0.1130 -0.1598  2.0031
  103OSM   C15F10521   4.154   0.207   9.099  0.6679 -0.2712 -0.7989
  103OSM   H15F10522   4.152   0.096   9.108  0.2500 -0.1835  0.4052
  103OSM   H15G10523   4.251   0.259   9.103  0.2097  0.5579 -0.2108
  103OSM   C16F10524   4.088   0.243   8.969  0.3972  0.8054  0.3702
  103OSM   H16F10525   4.139   0.189   8.886  0.1543  1.7581 -0.4121
  103OSM   H16G10526   4.105   0.352   8.954 -0.3349  1.2332  2.3786
  103OSM   C17F10527   3.938   0.201   8.962  0.3465  0.0538  0.3071
  103OSM   H17F10528   3.879   0.265   9.031  0.9298  0.1836  0.6931
  103OSM   H17G10529   3.936   0.097   9.001 -0.6353 -0.7163 -1.6741
  103OSM   C18F10530   3.885   0.203   8.819 -0.2559 -0.0113  0.6763
  103OSM   H18F10531   3.955   0.157   8.747 -0.9457  0.0166 -0.0288
  103OSM   H18G10532   3.871   0.309   8.789  0.1142 -0.7071 -2.2544
  103OSM   H18H10533   3.781   0.168   8.803 -0.5774  0.9129  0.6496
  104OSM      N10534   1.357   6.160  10.919  0.2672  0.0073  0.1848
  104OSM    C1510535   1.493   6.203  10.973  0.5161  0.0088 -0.3807
  104OSM   H15A10536   1.546   6.253  10.892 -2.1315  1.8143 -1.1368
  104OSM   H15B10537   1.552   6.116  10.999  0.4453 -0.1360 -0.6950
  104OSM   H15C10538   1.485   6.254  11.067 -1.9812 -0.3807 -0.3296
  104OSM    C1410539   1.376   6.048  10.819  0.0127 -0.2501  0.0358
  104OSM   H14A10540   1.385   5.959  10.879 -2.0106 -0.5577 -0.0451
  104OSM   H14B10541   1.472   6.054  10.770  0.9872  0.9642  1.9767
  104OSM   H14C10542   1.295   6.035  10.748 -0.2308  1.8679 -0.1242
  104OSM    C1310543   1.265   6.112  11.030  0.3687  0.2476  0.5456
  104OSM   H13A10544   1.249   6.192  11.101  1.5490  1.8529 -0.9296
  104OSM   H13B10545   1.305   6.030  11.088 -1.4627  0.3592  2.0798
  104OSM   H13C10546   1.170   6.087  10.986 -0.2644  2.7730  0.3263
  104OSM    C1210547   1.292   6.281  10.848  0.1083  0.4811  0.3651
  104OSM   H12A10548   1.271   6.353  10.926  0.2940  2.2014 -1.1285
  104OSM   H12B10549   1.195   6.253  10.809  0.4778 -0.3507  0.0211
  104OSM    C1110550   1.370   6.346  10.728  0.1042 -0.2813 -0.0932
  104OSM   H11A10551   1.294   6.388  10.659 -1.3321 -3.5010 -0.6464
  104OSM   H11B10552   1.424   6.276  10.660 -0.0202  0.9740 -1.5300
  104OSM      P10553   1.413   6.588  10.830  0.4621 -0.2733  0.2525
  104OSM    O1310554   1.325   6.567  10.952  0.1400 -0.5247  0.3360
  104OSM    O1410555   1.530   6.673  10.855  0.7303 -0.0211  0.0756
  104OSM    O1110556   1.330   6.634  10.703  0.1922 -0.1919  0.0743
  104OSM    O1210557   1.458   6.446  10.781 -0.1241  0.1144 -0.6701
  104OSM    C1S10558   1.381   6.672  10.579 -0.4199 -0.9048 -0.6905
  104OSM    H1S10559   1.392   6.573  10.529 -3.7213 -0.9411 -1.5689
  104OSM    H1T10560   1.485   6.709  10.584 -0.6257 -0.4577  0.5765
  104OSM     NF10561   1.350   6.787  10.358 -0.5268  0.3330 -0.8766
  104OSM    HNF10562   1.402   6.872  10.351 -0.9255  0.5803 -0.8700
  104OSM    C2S10563   1.293   6.761  10.491 -0.7090  1.0756  0.5550
  104OSM    H2S10564   1.196   6.710  10.474  0.1818 -0.2831 -0.7136
  104OSM    C3S10565   1.249   6.897  10.567  0.1522 -0.4931  0.9417
  104OSM    H3S10566   1.346   6.949  10.579  0.0980  0.2423 -1.2657
  104OSM     O310567   1.195   6.887  10.697  0.2885  0.2274  0.3338
  104OSM    HO310568   1.219   6.799  10.726  0.7195  0.6430  1.2540
  104OSM    C4S10569   1.170   6.975  10.472  0.0500  0.3830 -0.2180
  104OSM    H4S10570   1.220   7.033  10.394 -0.3829  0.6178 -0.3249
  104OSM    C5S10571   1.034   6.981  10.470 -0.3334  1.0356 -0.4309
  104OSM    H5S10572   0.982   6.941  10.558 -0.0495  0.6427 -0.4423
  104OSM    C6S10573   0.957   7.056  10.366  0.2502  0.0258 -0.5575
  104OSM    H6S10574   0.904   7.142  10.412  2.3214  0.6084  0.8222
  104OSM    H6T10575   0.887   6.976  10.333 -0.2231  0.4369 -0.5625
  104OSM    C7S10576   1.018   7.098  10.235  0.9476  0.0901 -0.3728
  104OSM    H7S10577   1.108   7.163  10.246  1.7027 -0.5605 -2.3537
  104OSM    H7T10578   0.942   7.156  10.179 -1.5234 -1.8890  0.7110
  104OSM    C8S10579   1.046   6.978  10.141 -1.1234 -0.4925  0.4637
  104OSM    H8S10580   0.952   6.920  10.130 -1.4123 -0.0237  0.3986
  104OSM    H8T10581   1.122   6.914  10.190 -0.9472  0.0723  0.9490
  104OSM    C9S10582   1.088   7.026  10.006 -0.7143  0.1488 -0.0927
  104OSM    H9S10583   1.195   7.057  10.012 -0.8512  0.9889 -1.4428
  104OSM    H9T10584   1.039   7.120   9.974 -0.7061 -0.0702 -0.7768
  104OSM   C10S10585   1.070   6.920   9.896  0.2196 -0.9030  1.1732
  104OSM   H10S10586   0.962   6.901   9.875 -0.5949  4.8744 -2.1115
  104OSM   H10T10587   1.116   6.830   9.940 -0.1095 -0.6909  1.9793
  104OSM   C11S10588   1.136   6.960   9.761 -0.5018  0.3348 -0.0055
  104OSM   H11S10589   1.239   6.989   9.787 -0.2604  0.5700 -1.1502
  104OSM   H11T10590   1.086   7.055   9.730 -2.2834 -0.0527  1.5144
  104OSM   C12S10591   1.141   6.855   9.644  0.2690 -0.1744  0.4584
  104OSM   H12S10592   1.036   6.819   9.642  0.0597  0.4287  0.3293
  104OSM   H12T10593   1.213   6.773   9.665 -0.0615 -1.4776 -2.8098
  104OSM   C13S10594   1.169   6.910   9.503  0.7394  0.3900 -0.1737
  104OSM   H13S10595   1.279   6.919   9.500  0.6458  2.2615  0.4662
  104OSM   H13T10596   1.125   7.012   9.505 -1.1994 -0.4109  1.1911
  104OSM   C14S10597   1.123   6.821   9.383  0.2805  0.7011 -0.2820
  104OSM   H14S10598   1.156   6.717   9.407 -0.8929  0.4588  0.3261
  104OSM   H14T10599   1.181   6.846   9.291  0.4464 -1.3685 -0.7841
  104OSM   C15S10600   0.975   6.825   9.369 -0.0640  0.4162  0.2286
  104OSM   H15S10601   0.940   6.930   9.359 -0.3579  0.4467  1.4221
  104OSM   H15T10602   0.930   6.788   9.463 -0.5078 -1.8109 -0.7873
  104OSM   C16S10603   0.929   6.726   9.258  0.2384  0.5144  0.2030
  104OSM   H16S10604   0.958   6.624   9.291  3.3349  1.0955 -0.3529
  104OSM   H16T10605   0.985   6.730   9.162 -1.2575 -2.9196 -0.9395
  104OSM   C17S10606   0.782   6.729   9.228  0.3415  0.6189  0.0435
  104OSM   H17S10607   0.747   6.833   9.209  1.0174  0.5541 -1.7167
  104OSM   H17T10608   0.754   6.681   9.324 -0.6418 -0.9642 -0.9867
  104OSM   C18S10609   0.738   6.630   9.119 -0.7561  0.9945  0.2842
  104OSM   H18S10610   0.801   6.639   9.029  0.0356 -3.6902  0.1221
  104OSM   H18T10611   0.628   6.637   9.104 -0.9470 -0.2574  0.9543
  104OSM   H18U10612   0.759   6.529   9.161 -0.8806  0.4014 -1.0520
  104OSM    C1F10613   1.362   6.688  10.271 -0.5279 -0.1593 -0.2254
  104OSM     OF10614   1.298   6.589  10.285 -0.2712 -0.1808 -0.0466
  104OSM    C2F10615   1.450   6.706  10.147 -0.1329  0.2402 -0.0420
  104OSM    H2F10616   1.552   6.740  10.179 -0.3726  1.2231 -0.2895
  104OSM    H2G10617   1.395   6.782  10.089 -1.2378 -1.3319 -1.1133
  104OSM    C3F10618   1.457   6.589  10.046 -0.5953  0.4730 -0.1953
  104OSM    H3F10619   1.354   6.556  10.022 -0.9006 -0.0589  1.6404
  104OSM    H3G10620   1.507   6.501  10.093 -1.3232  0.8251  1.3190
  104OSM    C4F10621   1.534   6.624   9.923 -0.0931 -0.0265  0.8719
  104OSM    H4F10622   1.635   6.661   9.953  0.5326 -0.5618 -0.4956
  104OSM    H4G10623   1.478   6.709   9.877  1.7030  0.2860 -0.8835
  104OSM    C5F10624   1.542   6.508   9.820 -0.3638 -0.1976 -0.0389
  104OSM    H5F10625   1.443   6.459   9.833 -0.1132 -0.3392  1.6986
  104OSM    H5G10626   1.619   6.433   9.848  0.3158 -0.1251 -1.6309
  104OSM    C6F10627   1.556   6.558   9.676 -0.4573 -0.3357  0.1340
  104OSM    H6F10628   1.480   6.639   9.669 -0.9292 -0.8683 -1.2453
  104OSM    H6G10629   1.525   6.474   9.610  0.6006 -1.8489  1.4880
  104OSM    C7F10630   1.696   6.607   9.649 -0.2423 -0.7293  0.1813
  104OSM    H7F10631   1.777   6.536   9.675  3.7307  3.2999  0.1065
  104OSM    H7G10632   1.713   6.682   9.729  0.8389 -0.6836 -0.0712
  104OSM    C8F10633   1.705   6.662   9.507  0.0548 -0.1179 -0.1574
  104OSM    H8F10634   1.807   6.703   9.489  0.1363 -0.3030 -0.1236
  104OSM    H8G10635   1.633   6.745   9.494 -2.4837 -2.2989 -1.0150
  104OSM    C9F10636   1.686   6.556   9.405 -0.2206  0.0842  0.0882
  104OSM    H9F10637   1.742   6.463   9.427 -0.8014 -0.2602  0.1374
  104OSM   C10F10638   1.620   6.577   9.293 -0.1685  0.5958 -0.0534
  104OSM   H10F10639   1.616   6.500   9.214 -1.1575  1.9582 -1.3921
  104OSM   C11F10640   1.567   6.712   9.249  1.6511 -0.2420 -0.3830
  104OSM   H11F10641   1.612   6.796   9.307 -2.4764  2.2804 -0.3548
  104OSM   H11G10642   1.457   6.711   9.270  0.9210  1.7032 -3.5243
  104OSM   C12F10643   1.584   6.745   9.101  0.5956  0.2686 -0.0303
  104OSM   H12F10644   1.578   6.663   9.027 -0.2142  1.6526 -1.5916
  104OSM   H12G10645   1.690   6.774   9.085  0.4261  0.3986 -0.9933
  104OSM   C13F10646   1.501   6.860   9.035  0.4450 -0.0735 -0.8486
  104OSM   H13F10647   1.525   6.940   9.108 -1.2482  0.8352 -1.2409
  104OSM   H13G10648   1.391   6.845   9.043  0.7137 -1.6997  0.2371
  104OSM   C14F10649   1.548   6.880   8.891  0.2243  0.6404 -0.6297
  104OSM   H14F10650   1.655   6.851   8.882  0.1900  0.9178 -2.1103
  104OSM   H14G10651   1.547   6.987   8.862  2.7432  0.4359 -1.7062
  104OSM   C15F10652   1.462   6.801   8.787  0.1204 -0.8985 -0.5682
  104OSM   H15F10653   1.356   6.802   8.820  0.2526 -2.3460 -0.0108
  104OSM   H15G10654   1.501   6.697   8.795  2.9184  0.1842  2.0021
  104OSM   C16F10655   1.468   6.850   8.639 -0.0019 -0.2335  0.2951
  104OSM   H16F10656   1.562   6.807   8.599 -0.2983  0.9362 -1.8171
  104OSM   H16G10657   1.471   6.961   8.627  1.4163 -0.2833  0.0817
  104OSM   C17F10658   1.342   6.801   8.564 -0.2785  0.3553  0.2569
  104OSM   H17F10659   1.250   6.848   8.604 -1.9647  1.4274 -4.2741
  104OSM   H17G10660   1.332   6.690   8.571  1.2764  0.1266 -0.6127
  104OSM   C18F10661   1.338   6.836   8.414 -0.0710 -0.0447 -0.1885
  104OSM   H18F10662   1.433   6.818   8.360 -0.4970  0.6304 -1.1972
  104OSM   H18G10663   1.308   6.943   8.402 -1.7551 -0.2476  1.7761
  104OSM   H18H10664   1.251   6.785   8.367 -1.1520  0.5142  1.1458
  105OSM      N10665   0.815   6.673  11.088 -0.3235 -0.3788  0.5588
  105OSM    C1510666   0.816   6.555  11.183  0.0331 -0.0502  0.3730
  105OSM   H15A10667   0.820   6.461  11.131 -1.9321  0.4130 -0.6992
  105OSM   H15B10668   0.725   6.555  11.241  0.0894  4.2256  0.8060
  105OSM   H15C10669   0.900   6.570  11.250 -0.3602 -0.1668  0.8989
  105OSM    C1410670   0.694   6.673  11.002  0.5467 -0.2369  0.1427
  105OSM   H14A10671   0.683   6.771  10.957  1.1181 -0.6080 -0.8270
  105OSM   H14B10672   0.603   6.643  11.052  0.7336 -1.8634 -0.4251
  105OSM   H14C10673   0.705   6.599  10.924 -1.0928 -0.9751  0.5778
  105OSM    C1310674   0.811   6.795  11.180 -0.2107  0.2225  0.9287
  105OSM   H13A10675   0.814   6.889  11.127  0.3538 -0.1257  0.3267
  105OSM   H13B10676   0.885   6.800  11.259 -0.9190  0.6684  1.5744
  105OSM   H13C10677   0.721   6.782  11.237  0.3779  0.4519  1.9267
  105OSM    C1210678   0.945   6.689  10.999  0.1479  0.1831 -0.5100
  105OSM   H12A10679   1.023   6.681  11.073  0.2869  0.9048 -0.5736
  105OSM   H12B10680   0.945   6.792  10.965  2.1501 -0.1731 -1.8070
  105OSM    C1110681   0.967   6.589  10.878 -0.0265 -0.2505 -0.2231
  105OSM   H11A10682   1.073   6.601  10.848  0.5602  0.8450  2.0164
  105OSM   H11B10683   0.903   6.614  10.791  0.2858  1.7657  0.0646
  105OSM      P10684   0.893   6.339  10.833  0.0329 -0.0829  0.1985
  105OSM    O1310685   0.988   6.225  10.853 -0.0319  0.4301  0.4444
  105OSM    O1410686   0.749   6.317  10.866  0.4638  0.1065 -0.3732
  105OSM    O1110687   0.913   6.390  10.687  0.8267 -0.4518  0.2021
  105OSM    O1210688   0.949   6.454  10.922 -0.0661 -0.3567  0.2128
  105OSM    C1S10689   1.040   6.399  10.617  0.2234 -0.1427  0.3768
  105OSM    H1S10690   1.100   6.306  10.631 -1.5036 -1.0889  2.1258
  105OSM    H1T10691   1.092   6.493  10.646 -1.0439  1.3347 -1.8614
  105OSM     NF10692   1.149   6.391  10.400 -0.7682  0.0722  0.0689
  105OSM    HNF10693   1.204   6.467  10.363 -0.6727  0.3503  0.7575
  105OSM    C2S10694   1.018   6.408  10.461  0.3853  0.4255  0.0946
  105OSM    H2S10695   0.954   6.320  10.439  3.7762 -1.5261 -3.0878
  105OSM    C3S10696   0.946   6.541  10.424 -0.5060 -0.5716 -0.6301
  105OSM    H3S10697   1.018   6.623  10.446 -1.4957 -0.1801  1.3892
  105OSM     O310698   0.836   6.571  10.506  0.4983  0.3124 -0.6196
  105OSM    HO310699   0.844   6.513  10.582 -0.2720  0.1006 -0.6933
  105OSM    C4S10700   0.894   6.536  10.283  0.2723  0.0556 -0.5858
  105OSM    H4S10701   0.806   6.475  10.260 -0.2102  0.9093 -1.0566
  105OSM    C5S10702   0.944   6.609  10.187  0.0552 -0.4080 -0.1190
  105OSM    H5S10703   1.035   6.664  10.218 -0.6069  0.1046  0.9825
  105OSM    C6S10704   0.898   6.613  10.046  1.0270 -0.8668  0.2263
  105OSM    H6S10705   0.881   6.717  10.012 -0.5201 -1.8435 -2.3734
  105OSM    H6T10706   0.800   6.560  10.037  0.3766  0.1152  1.2843
  105OSM    C7S10707   1.005   6.553   9.953  0.1196  0.3304 -0.2678
  105OSM    H7S10708   1.029   6.450   9.986 -1.0878  0.1562  0.1167
  105OSM    H7T10709   1.099   6.609   9.972  0.0874 -0.2307  1.7603
  105OSM    C8S10710   0.982   6.552   9.805 -0.5863 -0.1355  0.3169
  105OSM    H8S10711   0.960   6.656   9.772  1.9332 -0.1320 -1.7055
  105OSM    H8T10712   0.893   6.492   9.778 -0.7968  0.3420 -0.0643
  105OSM    C9S10713   1.111   6.494   9.732 -0.2891  0.0664  0.5765
  105OSM    H9S10714   1.124   6.386   9.757 -0.9297 -0.1737 -0.0892
  105OSM    H9T10715   1.204   6.545   9.763  0.2790  1.2409 -2.6040
  105OSM   C10S10716   1.102   6.497   9.577  0.0121  0.2442 -0.4074
  105OSM   H10S10717   1.079   6.599   9.540 -2.0389  1.0449  2.6681
  105OSM   H10T10718   1.028   6.418   9.552 -0.9092  0.2352  2.1009
  105OSM   C11S10719   1.233   6.464   9.494  0.0865 -1.1923 -1.1019
  105OSM   H11S10720   1.277   6.370   9.532 -1.4376 -1.7637 -0.7077
  105OSM   H11T10721   1.319   6.534   9.506 -0.2703 -0.7904 -0.8883
  105OSM   C12S10722   1.213   6.431   9.344  0.0234  0.2947 -0.3085
  105OSM   H12S10723   1.220   6.522   9.281  2.1041  0.1136 -0.4116
  105OSM   H12T10724   1.108   6.402   9.321 -0.0077 -0.2077  0.4163
  105OSM   C13S10725   1.314   6.326   9.302 -0.1171 -0.0323  0.9385
  105OSM   H13S10726   1.306   6.242   9.375  0.8236  0.2856  1.4245
  105OSM   H13T10727   1.415   6.361   9.330 -0.4382 -0.8132  3.3379
  105OSM   C14S10728   1.298   6.268   9.162  0.5249  0.4972 -0.8706
  105OSM   H14S10729   1.209   6.201   9.159  1.2480 -0.6267  0.9423
  105OSM   H14T10730   1.390   6.206   9.148  1.6975  2.2862 -1.3345
  105OSM   C15S10731   1.308   6.379   9.054  0.0847 -0.3849 -0.5111
  105OSM   H15S10732   1.375   6.455   9.099 -1.7021  1.2162 -0.4558
  105OSM   H15T10733   1.212   6.432   9.042  0.1409  0.1681  1.3353
  105OSM   C16S10734   1.360   6.314   8.919 -0.2950 -0.7344 -0.3052
  105OSM   H16S10735   1.289   6.236   8.884 -0.7744 -0.7939  0.7657
  105OSM   H16T10736   1.452   6.263   8.954  1.6717  1.5619 -1.7951
  105OSM   C17S10737   1.413   6.422   8.823 -0.3434 -0.1693  0.3649
  105OSM   H17S10738   1.492   6.466   8.888 -1.6630  1.9282  0.6602
  105OSM   H17T10739   1.347   6.510   8.807  2.2096  1.6220 -1.1710
  105OSM   C18S10740   1.471   6.359   8.694  0.2964 -0.6985 -0.1306
  105OSM   H18S10741   1.484   6.442   8.621 -0.6394  0.9290  1.4487
  105OSM   H18T10742   1.396   6.290   8.650  0.6779  0.3465 -2.6106
  105OSM   H18U10743   1.567   6.305   8.702  2.5662  3.0324 -0.0801
  105OSM    C1F10744   1.205   6.269  10.402 -0.1805 -0.0081  0.2447
  105OSM     OF10745   1.138   6.169  10.429 -0.4761 -0.3535 -0.0320
  105OSM    C2F10746   1.355   6.263  10.381 -0.3867 -0.3752 -1.0530
  105OSM    H2F10747   1.387   6.160  10.409  1.3522  0.3266 -0.3470
  105OSM    H2G10748   1.406   6.329  10.453 -1.0888 -3.4391  2.5667
  105OSM    C3F10749   1.390   6.267  10.240 -0.3986  0.0973  0.3018
  105OSM    H3F10750   1.501   6.271  10.238 -0.3101 -1.7399 -0.3516
  105OSM    H3G10751   1.345   6.356  10.190 -1.2129  0.1050  1.0243
  105OSM    C4F10752   1.335   6.145  10.157 -1.0613 -0.3868 -0.4450
  105OSM    H4F10753   1.225   6.156  10.147 -0.8871  0.2440 -1.8060
  105OSM    H4G10754   1.378   6.049  10.193  2.6806  1.8923  1.9035
  105OSM    C5F10755   1.397   6.161  10.013  0.2900  0.6866 -0.5526
  105OSM    H5F10756   1.504   6.131  10.012 -0.3173 -1.6896  0.0348
  105OSM    H5G10757   1.377   6.267   9.985 -1.2655 -0.0411 -2.3916
  105OSM    C6F10758   1.325   6.072   9.906  0.6852  0.1035 -0.2489
  105OSM    H6F10759   1.216   6.096   9.907  1.4971  5.0284 -0.8713
  105OSM    H6G10760   1.331   5.965   9.933  0.5087 -0.0536 -0.8163
  105OSM    C7F10761   1.373   6.111   9.764 -0.0954 -0.2281  0.7065
  105OSM    H7F10762   1.400   6.218   9.750 -0.3181 -0.3824 -1.0744
  105OSM    H7G10763   1.292   6.081   9.694 -0.1347 -0.1726  0.7276
  105OSM    C8F10764   1.497   6.041   9.708 -0.0044 -0.8805 -0.1666
  105OSM    H8F10765   1.584   6.074   9.769  0.9916 -0.4781 -1.7277
  105OSM    H8G10766   1.512   6.091   9.610 -2.0744 -2.0635 -1.1457
  105OSM    C9F10767   1.486   5.889   9.704 -0.3909 -0.0180 -0.5680
  105OSM    H9F10768   1.547   5.835   9.779  1.0195 -2.0759 -3.0503
  105OSM   C10F10769   1.422   5.824   9.604  1.1579 -0.4167 -0.5794
  105OSM   H10F10770   1.415   5.715   9.617 -0.1675 -0.2410  0.3617
  105OSM   C11F10771   1.355   5.879   9.475 -0.2804 -0.3569 -0.1446
  105OSM   H11F10772   1.341   5.990   9.474  0.7115 -0.1984  1.1125
  105OSM   H11G10773   1.256   5.830   9.468  0.2067 -1.5138  0.7434
  105OSM   C12F10774   1.450   5.852   9.354 -0.0824  0.6989  0.4823
  105OSM   H12F10775   1.473   5.744   9.350 -1.1251  0.4969 -1.7480
  105OSM   H12G10776   1.544   5.911   9.365 -0.1560  1.0386 -0.6132
  105OSM   C13F10777   1.390   5.883   9.217  0.2269  0.0427  0.4836
  105OSM   H13F10778   1.373   5.993   9.209 -1.2969 -0.2248 -0.5167
  105OSM   H13G10779   1.291   5.833   9.216  0.5926 -0.7546  1.6656
  105OSM   C14F10780   1.478   5.835   9.100 -0.3885 -0.3314  0.2264
  105OSM   H14F10781   1.483   5.724   9.099  1.4121 -0.2793 -0.9732
  105OSM   H14G10782   1.584   5.856   9.123 -0.4878 -1.1634  1.5550
  105OSM   C15F10783   1.431   5.895   8.973 -0.3222 -0.0738  0.5970
  105OSM   H15F10784   1.442   6.005   8.977  0.0605 -0.1136  0.6650
  105OSM   H15G10785   1.324   5.875   8.947  0.2070 -0.5328 -1.4712
  105OSM   C16F10786   1.507   5.860   8.850  0.0931  0.4525  0.4385
  105OSM   H16F10787   1.485   5.757   8.814 -0.6029  0.6060  0.4069
  105OSM   H16G10788   1.617   5.869   8.867  0.0596 -0.3903  1.1614
  105OSM   C17F10789   1.473   5.954   8.737 -0.5180  0.0721 -0.0672
  105OSM   H17F10790   1.499   6.058   8.766 -0.7138  0.9135 -2.6808
  105OSM   H17G10791   1.366   5.965   8.712 -0.6631  0.5323  0.7307
  105OSM   C18F10792   1.547   5.919   8.615 -0.7517 -0.0457 -0.0079
  105OSM   H18F10793   1.541   5.991   8.531  1.7643 -0.8774 -0.9877
  105OSM   H18G10794   1.504   5.827   8.571 -1.4532 -0.3729  1.3102
  105OSM   H18H10795   1.650   5.892   8.644  0.1402  1.4054 -1.6212
  106OSM      N10796   2.501   3.960  10.856 -0.2731 -0.0628 -0.2706
  106OSM    C1510797   2.543   3.864  10.961 -0.3055 -0.0385  0.4913
  106OSM   H15A10798   2.600   3.785  10.915  0.4353  0.1840  0.9953
  106OSM   H15B10799   2.458   3.823  11.013 -0.9508  1.1727  0.4269
  106OSM   H15C10800   2.605   3.914  11.034  0.9697 -0.9624  0.0711
  106OSM    C1410801   2.426   3.878  10.759  0.7156 -0.4343  0.0440
  106OSM   H14A10802   2.401   3.943  10.676 -0.7505  1.7807  2.0678
  106OSM   H14B10803   2.337   3.835  10.803  0.7217  0.1498  0.6529
  106OSM   H14C10804   2.483   3.794  10.722 -1.5630 -2.1527  0.2250
  106OSM    C1310805   2.411   4.061  10.928 -0.2781 -0.1857 -0.2457
  106OSM   H13A10806   2.332   4.018  10.989 -0.1205 -0.3894 -0.1849
  106OSM   H13B10807   2.378   4.140  10.862  1.3525  0.4992 -0.2747
  106OSM   H13C10808   2.477   4.113  10.997  0.2817 -0.4456 -0.5809
  106OSM    C1210809   2.627   4.014  10.785 -0.2227 -0.8780  0.3412
  106OSM   H12A10810   2.593   4.083  10.709 -0.4343 -0.0686  1.1433
  106OSM   H12B10811   2.682   3.930  10.747  2.5824  1.5181 -1.3665
  106OSM    C1110812   2.723   4.094  10.874 -0.3373  0.4554 -0.4656
  106OSM   H11A10813   2.823   4.107  10.825  0.1940  0.9837  0.7198
  106OSM   H11B10814   2.761   4.037  10.962  1.5150  0.0986 -1.4273
  106OSM      P10815   2.717   4.355  10.847  0.3643 -0.0061 -0.3069
  106OSM    O1310816   2.633   4.465  10.901 -0.0208  0.0446  0.8310
  106OSM    O1410817   2.862   4.382  10.863  0.1187 -0.4021 -0.3547
  106OSM    O1110818   2.677   4.333  10.700 -0.2069 -0.3237 -0.2657
  106OSM    O1210819   2.674   4.223  10.920 -0.1726 -0.4504 -0.2318
  106OSM    C1S10820   2.538   4.332  10.660  0.6241 -0.0362  0.2973
  106OSM    H1S10821   2.495   4.433  10.679  1.5635  0.3001  0.6874
  106OSM    H1T10822   2.466   4.266  10.713 -2.4173  1.0702 -2.1610
  106OSM     NF10823   2.395   4.305  10.461  0.5002  0.3437  0.1960
  106OSM    HNF10824   2.345   4.219  10.468 -0.2613  0.8438  1.1714
  106OSM    C2S10825   2.534   4.305  10.511  0.2736  0.1889  0.2945
  106OSM    H2S10826   2.588   4.392  10.467 -0.1186 -0.3804 -1.3948
  106OSM    C3S10827   2.608   4.171  10.475  0.3929  0.3549  0.1218
  106OSM    H3S10828   2.573   4.091  10.543 -1.0481  1.0621  0.2573
  106OSM     O310829   2.750   4.174  10.496  0.0672 -0.6693 -0.4620
  106OSM    HO310830   2.761   4.250  10.553 -1.6542 -0.6895 -0.0360
  106OSM    C4S10831   2.589   4.127  10.324 -0.3884 -0.4340  0.3065
  106OSM    H4S10832   2.655   4.182  10.256  1.3991 -0.4892  1.9110
  106OSM    C5S10833   2.505   4.027  10.282 -0.5132  0.0843  0.4490
  106OSM    H5S10834   2.437   3.978  10.353 -0.8173  0.3812  0.3677
  106OSM    C6S10835   2.482   3.984  10.140 -0.3227 -1.0988  0.9615
  106OSM    H6S10836   2.548   4.045  10.074  1.3319 -1.7885  1.8972
  106OSM    H6T10837   2.377   3.988  10.105 -0.6637 -1.1782  1.9465
  106OSM    C7S10838   2.532   3.839  10.121 -0.1955 -0.3425 -0.1441
  106OSM    H7S10839   2.477   3.776  10.194 -1.0790  0.8752  0.2793
  106OSM    H7T10840   2.637   3.833  10.155 -0.4492 -0.2119  0.6824
  106OSM    C8S10841   2.515   3.770   9.981  0.6301 -0.1537 -0.4778
  106OSM    H8S10842   2.575   3.835   9.914  0.2339 -1.7946 -2.5478
  106OSM    H8T10843   2.407   3.774   9.954  0.0016  0.3945  1.8914
  106OSM    C9S10844   2.549   3.628   9.976 -0.2732  0.0313  0.1325
  106OSM    H9S10845   2.484   3.581  10.052 -0.9547 -0.1298 -0.5372
  106OSM    H9T10846   2.651   3.593  10.005 -1.0450 -3.5627 -0.9367
  106OSM   C10S10847   2.523   3.578   9.827 -0.0692  0.0129  0.2524
  106OSM   H10S10848   2.424   3.592   9.779  0.7643  1.1791 -1.2160
  106OSM   H10T10849   2.527   3.467   9.836 -3.0084 -0.0521  2.8083
  106OSM   C11S10850   2.625   3.631   9.723 -0.3396  0.0826 -0.7858
  106OSM   H11S10851   2.723   3.622   9.775 -1.1596 -0.0510  0.8225
  106OSM   H11T10852   2.607   3.740   9.708 -1.4208  0.0387  0.0419
  106OSM   C12S10853   2.611   3.561   9.587 -0.0219  0.3514  0.0544
  106OSM   H12S10854   2.546   3.475   9.613 -0.0810 -0.5914 -2.9043
  106OSM   H12T10855   2.715   3.529   9.561  1.2356  2.0423  2.5882
  106OSM   C13S10856   2.539   3.644   9.480  0.2430 -0.3215 -0.0028
  106OSM   H13S10857   2.599   3.736   9.468 -0.1639  0.0979  1.1094
  106OSM   H13T10858   2.439   3.676   9.516  0.8244  1.7432 -0.1390
  106OSM   C14S10859   2.527   3.567   9.351  0.3959  0.2377  0.3109
  106OSM   H14S10860   2.626   3.531   9.315 -0.2467 -0.8446 -0.4455
  106OSM   H14T10861   2.506   3.650   9.282  1.5323 -0.3828 -0.8289
  106OSM   C15S10862   2.409   3.463   9.346  0.8275  0.0790  0.7087
  106OSM   H15S10863   2.319   3.522   9.373 -0.0393 -1.3655  1.0501
  106OSM   H15T10864   2.429   3.373   9.408  0.2959 -0.8082 -0.3701
  106OSM   C16S10865   2.379   3.414   9.198  0.7302 -0.0362 -0.0525
  106OSM   H16S10866   2.352   3.504   9.139 -1.0721 -1.3764 -1.3989
  106OSM   H16T10867   2.283   3.360   9.209 -0.0469  1.0756 -1.0736
  106OSM   C17S10868   2.485   3.323   9.144  0.1428 -0.1459 -0.6900
  106OSM   H17S10869   2.524   3.253   9.220  2.1508 -0.3037 -1.7990
  106OSM   H17T10870   2.577   3.376   9.111  1.6091 -1.7399  0.6502
  106OSM   C18S10871   2.446   3.249   9.015  0.0814 -0.2619  0.1091
  106OSM   H18S10872   2.446   3.312   8.924 -2.3047  0.0454  0.2440
  106OSM   H18T10873   2.338   3.220   9.016  0.5564 -2.7287 -2.9675
  106OSM   H18U10874   2.515   3.163   9.000  1.1750  0.4797  0.7651
  106OSM    C1F10875   2.326   4.418  10.438  0.4340 -0.6564  0.1949
  106OSM     OF10876   2.388   4.520  10.427 -0.3910 -0.2959 -0.5993
  106OSM    C2F10877   2.176   4.411  10.427  0.2987 -0.1425  0.0295
  106OSM    H2F10878   2.137   4.481  10.504 -0.2375  0.8573 -1.1147
  106OSM    H2G10879   2.141   4.308  10.448 -0.6779 -0.1257 -1.3548
  106OSM    C3F10880   2.145   4.468  10.285 -0.1336 -0.9661  0.1929
  106OSM    H3F10881   2.206   4.558  10.262  0.7485 -1.2521  1.3359
  106OSM    H3G10882   2.038   4.500  10.291  0.5429  1.4409  0.5030
  106OSM    C4F10883   2.171   4.360  10.172 -0.0670  0.4594  0.1620
  106OSM    H4F10884   2.280   4.336  10.166  0.6411  2.0427  3.8680
  106OSM    H4G10885   2.151   4.413  10.076 -0.5960  0.0906  0.0667
  106OSM    C5F10886   2.079   4.237  10.177 -0.1444  0.1663  0.4575
  106OSM    H5F10887   1.973   4.266  10.192 -0.1856 -1.0284  2.9481
  106OSM    H5G10888   2.089   4.172  10.267  1.2936 -1.7688 -1.0003
  106OSM    C6F10889   2.087   4.153  10.047  0.0158 -0.0546  0.2668
  106OSM    H6F10890   2.191   4.116  10.030 -0.0388 -0.0878 -0.0144
  106OSM    H6G10891   2.067   4.218   9.959 -0.7503 -0.0016  0.4811
  106OSM    C7F10892   1.990   4.034  10.066 -0.2529 -0.0215  0.2433
  106OSM    H7F10893   1.889   4.074  10.087 -0.2305  0.9379 -1.2986
  106OSM    H7G10894   2.022   3.962  10.145  0.1902 -0.9109 -0.7096
  106OSM    C8F10895   1.976   3.947   9.935 -0.5521  0.2841  0.4964
  106OSM    H8F10896   1.871   3.920   9.913  0.0564 -1.4882 -0.4372
  106OSM    H8G10897   2.020   3.848   9.960 -1.2011 -0.1424 -0.0209
  106OSM    C9F10898   2.039   4.001   9.812 -0.0003  0.1848 -0.2618
  106OSM    H9F10899   2.145   3.974   9.811 -0.2916 -1.0237 -0.3229
  106OSM   C10F10900   1.982   4.076   9.721 -0.5458  0.2908 -0.1818
  106OSM   H10F10901   2.042   4.114   9.637 -1.5033  1.7298 -0.2666
  106OSM   C11F10902   1.839   4.125   9.710  0.1601 -0.4046 -0.4384
  106OSM   H11F10903   1.841   4.235   9.725 -0.3451 -0.2892 -1.1658
  106OSM   H11G10904   1.790   4.089   9.803 -2.4246  2.0836 -0.6928
  106OSM   C12F10905   1.766   4.102   9.582  0.1825 -0.1276 -0.5410
  106OSM   H12F10906   1.818   4.171   9.513  0.0138 -0.3418 -0.8909
  106OSM   H12G10907   1.664   4.146   9.582  0.7443  1.2205  0.9123
  106OSM   C13F10908   1.779   3.959   9.519 -0.7721 -0.5048  0.0193
  106OSM   H13F10909   1.699   3.888   9.549  0.0847 -1.2257  0.6655
  106OSM   H13G10910   1.877   3.909   9.537 -1.1741 -0.7825  1.5932
  106OSM   C14F10911   1.773   3.974   9.368 -1.0688 -0.4952 -0.4366
  106OSM   H14F10912   1.816   3.890   9.311  2.5018  2.7348 -2.9915
  106OSM   H14G10913   1.838   4.057   9.334 -1.5518  0.6454  1.2908
  106OSM   C15F10914   1.629   3.986   9.303  0.4624  0.0643 -0.2198
  106OSM   H15F10915   1.555   4.051   9.355  0.0781 -0.9949  0.5805
  106OSM   H15G10916   1.573   3.893   9.283  0.0845  0.8167 -3.2672
  106OSM   C16F10917   1.631   4.064   9.164 -0.6261 -0.1179  0.4117
  106OSM   H16F10918   1.682   4.157   9.197 -1.7166 -0.2554  2.6583
  106OSM   H16G10919   1.533   4.093   9.119  0.3721  1.4432 -0.8735
  106OSM   C17F10920   1.723   4.004   9.055  0.0889 -0.5032  0.3176
  106OSM   H17F10921   1.685   3.900   9.046 -1.4293 -0.0279  0.8447
  106OSM   H17G10922   1.824   4.002   9.102  0.1853 -1.8404  0.0867
  106OSM   C18F10923   1.723   4.070   8.919 -0.1927  0.5025 -0.0388
  106OSM   H18F10924   1.805   4.031   8.854  0.9159  0.4606  1.3348
  106OSM   H18G10925   1.736   4.180   8.913 -0.7034  0.6069  0.6495
  106OSM   H18H10926   1.627   4.055   8.865 -0.7405  0.5937  0.8911
  107OSM      N10927   3.869   2.348  11.194  0.2579  0.3870  0.5114
  107OSM    C1510928   3.774   2.362  11.311  0.6726  0.5557 -0.6217
  107OSM   H15A10929   3.739   2.265  11.342 -0.5815  1.2360  0.1779
  107OSM   H15B10930   3.688   2.424  11.290 -1.6229 -1.7558  1.3449
  107OSM   H15C10931   3.817   2.405  11.400  1.3630  0.0581 -0.7004
  107OSM    C1410932   3.947   2.482  11.177  0.2753  0.2995 -0.5186
  107OSM   H14A10933   4.018   2.487  11.258  0.6732 -0.0130 -0.8464
  107OSM   H14B10934   3.869   2.556  11.185 -1.2908 -1.1417 -1.6069
  107OSM   H14C10935   3.995   2.486  11.081  0.7576  0.4756 -0.2700
  107OSM    C1310936   3.963   2.232  11.228  0.0681 -0.0892 -0.0832
  107OSM   H13A10937   4.035   2.219  11.149 -0.6206  1.5399 -1.0409
  107OSM   H13B10938   3.910   2.138  11.224 -0.8246  0.3710  0.5299
  107OSM   H13C10939   4.008   2.237  11.326  0.9787 -1.9730 -0.3532
  107OSM    C1210940   3.798   2.318  11.063  0.3910 -0.0301  0.5058
  107OSM   H12A10941   3.869   2.315  10.982  0.6900 -1.5572  0.7853
  107OSM   H12B10942   3.733   2.401  11.040 -1.8844 -1.6211  0.8510
  107OSM    C1110943   3.713   2.192  11.049  0.3564  0.0141 -0.7158
  107OSM   H11A10944   3.630   2.213  10.978 -1.7942 -0.3115  1.5561
  107OSM   H11B10945   3.665   2.167  11.146  1.1179  0.3943 -0.2314
  107OSM      P10946   3.737   1.936  11.024 -0.1853  0.0813 -0.4514
  107OSM    O1310947   3.795   1.853  10.913  0.7843 -0.1395 -0.4889
  107OSM    O1410948   3.758   1.897  11.169 -0.2386  0.1971 -0.4915
  107OSM    O1110949   3.582   1.945  11.009  0.6050 -0.4388  0.4376
  107OSM    O1210950   3.793   2.085  10.999 -0.4540  0.6141  0.3324
  107OSM    C1S10951   3.523   1.981  10.879  0.0185  0.6310  0.8521
  107OSM    H1S10952   3.591   2.041  10.816  0.1826 -0.4441 -0.0084
  107OSM    H1T10953   3.437   2.047  10.902 -0.3290  0.6742 -0.4985
  107OSM     NF10954   3.442   1.902  10.656 -0.2251 -0.6399  0.1331
  107OSM    HNF10955   3.349   1.932  10.641  0.0447 -0.6424 -1.8797
  107OSM    C2S10956   3.482   1.858  10.786 -0.0941 -0.1404 -0.3643
  107OSM    H2S10957   3.566   1.788  10.765 -1.7513 -1.4738 -3.1913
  107OSM    C3S10958   3.372   1.783  10.862 -0.3510  0.0946  0.5646
  107OSM    H3S10959   3.280   1.845  10.863  0.6192  1.6827 -1.7072
  107OSM     O310960   3.406   1.760  10.996 -0.1282  0.1791  0.1237
  107OSM    HO310961   3.478   1.821  11.012 -0.4936  0.4507  0.7776
  107OSM    C4S10962   3.333   1.656  10.787  0.4205  1.1088  0.5110
  107OSM    H4S10963   3.250   1.677  10.718 -0.9669 -0.6459  1.5410
  107OSM    C5S10964   3.372   1.531  10.811  0.2497  0.4728  0.1880
  107OSM    H5S10965   3.445   1.514  10.892  2.1847  0.3834 -1.4835
  107OSM    C6S10966   3.321   1.421  10.725  0.5116  0.2304 -0.2192
  107OSM    H6S10967   3.234   1.370  10.770 -0.4779  1.9109 -0.1584
  107OSM    H6T10968   3.395   1.338  10.717  2.0313  1.5560 -0.6258
  107OSM    C7S10969   3.281   1.453  10.578 -0.2243 -0.0510  0.1451
  107OSM    H7S10970   3.202   1.531  10.578 -0.4154 -0.2135 -1.8090
  107OSM    H7T10971   3.236   1.364  10.530  0.2947  0.7449 -1.9016
  107OSM    C8S10972   3.397   1.502  10.491  0.3243 -0.2791  0.3311
  107OSM    H8S10973   3.471   1.419  10.495 -0.0083 -0.5775  0.3509
  107OSM    H8T10974   3.443   1.598  10.523 -1.1253  0.4129  0.4412
  107OSM    C9S10975   3.353   1.519  10.343 -0.1000  0.4539  0.4084
  107OSM    H9S10976   3.287   1.606  10.326  0.7658  0.8180 -1.3155
  107OSM    H9T10977   3.316   1.417  10.316  1.5507  0.0511 -0.4290
  107OSM   C10S10978   3.471   1.543  10.247  0.2392 -0.3471 -0.9893
  107OSM   H10S10979   3.541   1.459  10.269  1.0889  0.7341  0.6572
  107OSM   H10T10980   3.536   1.626  10.284 -0.3650 -0.9177  1.5677
  107OSM   C11S10981   3.442   1.545  10.099 -0.8552 -0.0789  0.5192
  107OSM   H11S10982   3.361   1.619  10.078  0.3788  0.8407 -1.2200
  107OSM   H11T10983   3.400   1.443  10.085  2.5612 -2.0231  3.1006
  107OSM   C12S10984   3.568   1.561  10.013  0.5890 -0.0115  0.0551
  107OSM   H12S10985   3.639   1.482  10.045 -0.3994 -1.2174 -0.6383
  107OSM   H12T10986   3.615   1.660  10.032  3.1371 -1.2429  0.7296
  107OSM   C13S10987   3.546   1.537   9.865 -0.2911  0.4260  0.3155
  107OSM   H13S10988   3.614   1.599   9.804 -0.8764  1.8315  1.0443
  107OSM   H13T10989   3.446   1.577   9.837 -1.9455 -3.7335 -0.5816
  107OSM   C14S10990   3.547   1.393   9.815  0.5183 -0.5166  0.1865
  107OSM   H14S10991   3.464   1.335   9.860 -1.6299 -0.7791 -3.7177
  107OSM   H14T10992   3.636   1.343   9.860 -0.4476 -2.0816  0.4268
  107OSM   C15S10993   3.535   1.375   9.663 -0.2631  0.1102  0.1940
  107OSM   H15S10994   3.613   1.430   9.607 -2.4728  1.2693 -1.9294
  107OSM   H15T10995   3.433   1.391   9.622  0.2647 -1.4915 -1.9307
  107OSM   C16S10996   3.543   1.227   9.609 -0.5600  0.4436  0.1543
  107OSM   H16S10997   3.469   1.171   9.671 -0.0024  1.8937  2.2433
  107OSM   H16T10998   3.645   1.189   9.631  0.0576  1.3188 -1.1043
  107OSM   C17S10999   3.518   1.213   9.457 -0.1290 -0.0232  0.1126
  107OSM   H17S11000   3.590   1.278   9.404 -0.4270 -0.1395 -0.4480
  107OSM   H17T11001   3.415   1.248   9.434 -0.2307  0.3353  1.0682
  107OSM   C18S11002   3.543   1.069   9.418 -0.4453 -0.3166  0.2874
  107OSM   H18S11003   3.493   0.991   9.479  0.4732 -1.4735 -0.3958
  107OSM   H18T11004   3.651   1.045   9.421 -0.3967 -0.1246  0.1025
  107OSM   H18U11005   3.502   1.051   9.316 -0.9327 -1.5679  0.6794
  107OSM    C1F11006   3.531   1.915  10.555  0.3764  0.2135 -0.1159
  107OSM     OF11007   3.651   1.918  10.587  0.6465 -0.5435  0.2622
  107OSM    C2F11008   3.469   1.937  10.424  0.4413 -0.1402  0.5283
  107OSM    H2F11009   3.393   2.017  10.425  1.4634  0.8700  0.1332
  107OSM    H2G11010   3.414   1.843  10.404 -2.7784  1.6306  0.3900
  107OSM    C3F11011   3.572   1.961  10.312 -0.7756 -0.2104 -0.8781
  107OSM    H3F11012   3.668   1.909  10.334 -0.2926  0.2606 -1.8402
  107OSM    H3G11013   3.596   2.069  10.328  0.2947 -0.6136  0.4585
  107OSM    C4F11014   3.530   1.929  10.167 -0.7181  0.1372 -0.1653
  107OSM    H4F11015   3.443   1.989  10.132 -1.1097  0.5542  1.4365
  107OSM    H4G11016   3.522   1.819  10.159  1.0836  0.0519 -1.4478
  107OSM    C5F11017   3.639   1.960  10.061 -0.0893 -0.1823 -0.5507
  107OSM    H5F11018   3.717   1.882  10.076 -1.4320 -2.2772 -3.4802
  107OSM    H5G11019   3.679   2.062  10.076 -2.2819  0.6754 -0.1424
  107OSM    C6F11020   3.573   1.951   9.923 -0.2719 -0.3903  0.4541
  107OSM    H6F11021   3.516   2.046   9.912  0.9847  0.1986 -1.5804
  107OSM    H6G11022   3.503   1.865   9.931  0.2068 -0.9015 -0.6832
  107OSM    C7F11023   3.672   1.941   9.812 -0.6243  0.0153  0.1078
  107OSM    H7F11024   3.742   1.855   9.813 -0.5705  0.0562  0.6672
  107OSM    H7G11025   3.740   2.028   9.825 -0.9328  0.5936 -1.8385
  107OSM    C8F11026   3.610   1.962   9.676 -0.4147 -0.1547 -0.3644
  107OSM    H8F11027   3.541   2.049   9.685 -0.4205 -0.2944  1.1179
  107OSM    H8G11028   3.537   1.884   9.644  0.1635  0.2581 -2.9821
  107OSM    C9F11029   3.701   1.981   9.562 -0.3827  0.5539  0.5602
  107OSM    H9F11030   3.770   2.067   9.570  0.0008  0.3856 -0.7690
  107OSM   C10F11031   3.716   1.895   9.459  0.3515 -0.3907  0.4236
  107OSM   H10F11032   3.797   1.917   9.389  1.0684 -1.8191  0.7480
  107OSM   C11F11033   3.634   1.770   9.439  0.4299 -0.0702 -0.3239
  107OSM   H11F11034   3.524   1.774   9.422  0.1748 -0.1635  1.2039
  107OSM   H11G11035   3.622   1.722   9.538 -2.5457 -1.5320 -1.2702
  107OSM   C12F11036   3.690   1.684   9.328  0.0038 -0.5849  0.7311
  107OSM   H12F11037   3.792   1.647   9.351  0.5590  0.2300 -0.3133
  107OSM   H12G11038   3.689   1.749   9.238 -0.5574 -0.5639  0.7454
  107OSM   C13F11039   3.601   1.568   9.296  0.4858  0.0294  0.2384
  107OSM   H13F11040   3.498   1.601   9.272  0.6055 -0.9722 -1.8858
  107OSM   H13G11041   3.586   1.500   9.382 -0.5382  1.8734  1.5768
  107OSM   C14F11042   3.652   1.488   9.175  0.3533  0.8965 -0.8848
  107OSM   H14F11043   3.744   1.428   9.195 -0.5503  0.3095  1.9120
  107OSM   H14G11044   3.669   1.557   9.090 -1.3830 -0.9320 -2.8164
  107OSM   C15F11045   3.537   1.398   9.124  0.3953  0.1587  0.2688
  107OSM   H15F11046   3.447   1.463   9.122 -0.4742 -0.9931 -2.2002
  107OSM   H15G11047   3.527   1.319   9.201 -0.6424 -1.0921 -1.0800
  107OSM   C16F11048   3.565   1.341   8.982  0.2258 -0.3750 -0.0473
  107OSM   H16F11049   3.637   1.395   8.918  1.2226 -2.1210 -0.4487
  107OSM   H16G11050   3.466   1.352   8.933  0.7559 -2.1773 -1.6343
  107OSM   C17F11051   3.594   1.192   8.986 -0.2551 -0.3960 -0.3476
  107OSM   H17F11052   3.592   1.143   8.887  0.2725  0.7299 -0.9338
  107OSM   H17G11053   3.518   1.146   9.053 -1.8767  1.7394 -0.6269
  107OSM   C18F11054   3.732   1.163   9.051  0.1116 -0.3132 -0.0709
  107OSM   H18F11055   3.812   1.192   8.980 -0.6533  0.3121 -0.6956
  107OSM   H18G11056   3.745   1.055   9.073 -0.2066 -0.8840 -2.4872
  107OSM   H18H11057   3.729   1.214   9.150 -1.3963 -2.6314  1.1933
  108OSM      N11058   0.689   5.788  10.775 -0.3516  0.2433 -0.0165
  108OSM    C1511059   0.702   5.720  10.908 -0.0119 -0.2903  0.6204
  108OSM   H15A11060   0.767   5.773  10.977 -1.6322  0.9694  1.2510
  108OSM   H15B11061   0.710   5.613  10.905  0.3474 -0.2796  0.9887
  108OSM   H15C11062   0.612   5.735  10.967 -1.1544  0.4302 -1.2227
  108OSM    C1411063   0.569   5.733  10.702 -0.9057  0.1545 -0.8988
  108OSM   H14A11064   0.586   5.628  10.682  0.8446  0.3003 -0.3324
  108OSM   H14B11065   0.563   5.788  10.609 -2.7126  0.7024 -0.4961
  108OSM   H14C11066   0.481   5.751  10.763 -0.1297 -0.0021  0.2967
  108OSM    C1311067   0.670   5.932  10.788  0.2131 -0.4019  0.0532
  108OSM   H13A11068   0.659   5.987  10.696  1.4866  2.4014  1.4533
  108OSM   H13B11069   0.756   5.983  10.830 -0.0663 -0.4992  0.7617
  108OSM   H13C11070   0.586   5.957  10.852  0.3897  0.6231 -0.0998
  108OSM    C1211071   0.818   5.775  10.685  0.3709  0.1117 -0.5589
  108OSM   H12A11072   0.895   5.831  10.737 -0.9142  2.2401 -0.7969
  108OSM   H12B11073   0.800   5.832  10.595 -1.6444 -0.1345 -0.3765
  108OSM    C1111074   0.862   5.624  10.662 -0.4117 -0.5859 -0.2732
  108OSM   H11A11075   0.950   5.622  10.594 -0.2788 -3.4770 -0.1295
  108OSM   H11B11076   0.787   5.560  10.611 -0.6365 -2.2062  1.9789
  108OSM      P11077   1.036   5.589  10.850 -0.2103  0.0795  0.3111
  108OSM    O1311078   1.037   5.727  10.894 -0.0906  0.3618  0.5232
  108OSM    O1411079   1.058   5.484  10.955  0.2399 -0.2162  0.0743
  108OSM    O1111080   1.146   5.563  10.735 -0.4048 -0.2175 -0.1812
  108OSM    O1211081   0.906   5.552  10.777 -0.6801 -0.2642 -0.7090
  108OSM    C1S11082   1.160   5.428  10.678 -0.1327  0.6698 -0.7957
  108OSM    H1S11083   1.091   5.354  10.724  0.1536  0.0467 -1.3600
  108OSM    H1T11084   1.259   5.387  10.705 -0.5088 -0.7002 -1.4322
  108OSM     NF11085   1.125   5.292  10.481  0.1930  0.3768 -0.0508
  108OSM    HNF11086   1.206   5.242  10.512 -0.5171 -2.3705 -2.1871
  108OSM    C2S11087   1.131   5.432  10.526  0.1767  1.3056  0.6070
  108OSM    H2S11088   1.030   5.473  10.506 -0.4686 -0.7931 -0.8581
  108OSM    C3S11089   1.234   5.517  10.457 -0.2463 -0.0423  0.4041
  108OSM    H3S11090   1.330   5.462  10.444  0.6319  1.9767 -3.3064
  108OSM     O311091   1.282   5.633  10.526  0.7196  0.7085  0.3727
  108OSM    HO311092   1.256   5.618  10.617 -0.4044  2.2850  0.3411
  108OSM    C4S11093   1.189   5.543  10.322  0.3710 -0.9492  0.0270
  108OSM    H4S11094   1.191   5.453  10.259  0.3297 -1.9919  1.4557
  108OSM    C5S11095   1.140   5.660  10.274  0.0033 -0.4195  0.2986
  108OSM    H5S11096   1.138   5.751  10.336  2.6335  0.0229 -0.1455
  108OSM    C6S11097   1.078   5.691  10.139  0.7199  0.2686  0.1817
  108OSM    H6S11098   1.113   5.787  10.094  2.7729 -0.4998  0.0591
  108OSM    H6T11099   0.971   5.700  10.166  0.6464 -0.7575  0.2701
  108OSM    C7S11100   1.094   5.581  10.034 -0.5385  0.0955 -0.5612
  108OSM    H7S11101   1.046   5.483  10.051  0.0998 -0.2943 -0.9619
  108OSM    H7T11102   1.203   5.567  10.015 -0.4683  0.0121 -0.0921
  108OSM    C8S11103   1.050   5.624   9.893 -0.1335  0.2453 -0.0395
  108OSM    H8S11104   1.092   5.725   9.872  2.4660 -0.5119  1.1205
  108OSM    H8T11105   0.939   5.621   9.889 -0.1048 -0.2469 -0.5917
  108OSM    C9S11106   1.092   5.532   9.782  0.6600 -0.5033  0.7135
  108OSM    H9S11107   1.064   5.426   9.801  1.9181 -1.4745 -2.2211
  108OSM    H9T11108   1.203   5.542   9.776  0.4852  0.9372 -2.7298
  108OSM   C10S11109   1.053   5.570   9.640  0.6713  0.0403 -0.2618
  108OSM   H10S11110   1.093   5.673   9.633 -2.3660  1.2991 -0.4546
  108OSM   H10T11111   0.945   5.593   9.635  0.3996 -1.2916 -0.9763
  108OSM   C11S11112   1.104   5.466   9.532  0.4559 -0.2351 -0.5320
  108OSM   H11S11113   1.086   5.366   9.577 -2.1115 -0.4962 -1.9083
  108OSM   H11T11114   1.215   5.477   9.533  0.5883 -1.4067  1.1827
  108OSM   C12S11115   1.041   5.474   9.389 -0.6536  0.7641  0.8554
  108OSM   H12S11116   0.933   5.451   9.398 -0.6074  0.7438  1.4248
  108OSM   H12T11117   1.107   5.421   9.318  1.6238  3.6790  0.5780
  108OSM   C13S11118   1.047   5.618   9.346  0.2746 -0.6638 -0.3843
  108OSM   H13S11119   1.151   5.655   9.358  0.4167 -1.1690 -0.0134
  108OSM   H13T11120   0.992   5.676   9.423 -1.3119  1.6344 -3.0461
  108OSM   C14S11121   0.984   5.658   9.216 -0.2439 -0.4221  0.2689
  108OSM   H14S11122   1.045   5.613   9.136 -0.9051 -0.8313 -0.0095
  108OSM   H14T11123   0.991   5.768   9.198  0.9400 -0.1075  2.2716
  108OSM   C15S11124   0.840   5.605   9.201 -0.5369  0.0706  0.0975
  108OSM   H15S11125   0.785   5.622   9.296  0.1784 -0.9331  0.7070
  108OSM   H15T11126   0.854   5.495   9.189 -0.2080  0.2623 -1.5792
  108OSM   C16S11127   0.763   5.652   9.077  0.2670  0.3706 -0.0906
  108OSM   H16S11128   0.724   5.754   9.098 -2.0030 -0.3347 -0.6220
  108OSM   H16T11129   0.673   5.589   9.062  0.8574 -0.1699 -1.5446
  108OSM   C17S11130   0.845   5.650   8.950 -0.4680  0.1385  0.1247
  108OSM   H17S11131   0.908   5.559   8.958  2.9563  2.0041 -2.7556
  108OSM   H17T11132   0.923   5.729   8.945 -0.4682  0.3984  2.6642
  108OSM   C18S11133   0.763   5.640   8.821  0.1111 -0.3165 -0.4773
  108OSM   H18S11134   0.702   5.728   8.793  0.6611  0.5631  1.0118
  108OSM   H18T11135   0.693   5.553   8.822 -1.2949  0.7365  2.2712
  108OSM   H18U11136   0.837   5.620   8.741  1.3399 -1.4703  0.9021
  108OSM    C1F11137   1.011   5.228  10.494  0.5141 -0.4307 -0.2402
  108OSM     OF11138   0.901   5.287  10.504 -0.1052 -0.1257 -0.1271
  108OSM    C2F11139   1.025   5.080  10.509  0.7619 -0.2092 -0.5478
  108OSM    H2F11140   1.001   5.061  10.616 -1.2275  2.1719 -0.4966
  108OSM    H2G11141   1.131   5.049  10.497  0.6397 -1.0909  0.4974
  108OSM    C3F11142   0.941   4.990  10.417 -0.9401  0.0692  0.5198
  108OSM    H3F11143   0.839   5.034  10.417 -1.0443 -0.1640 -0.1155
  108OSM    H3G11144   0.940   4.887  10.458  0.2141 -0.8631 -1.6916
  108OSM    C4F11145   0.963   4.993  10.266  0.1367  0.6648 -0.0917
  108OSM    H4F11146   0.950   5.099  10.236 -0.5012  0.6449  0.1044
  108OSM    H4G11147   0.892   4.928  10.212 -0.4735  1.5609 -0.3878
  108OSM    C5F11148   1.108   4.958  10.218 -0.1099  0.2070 -0.1414
  108OSM    H5F11149   1.140   4.859  10.257  0.6235  0.6153  0.3156
  108OSM    H5G11150   1.176   5.023  10.278  1.5307  0.2580 -1.9581
  108OSM    C6F11151   1.133   4.981  10.070  0.4882  0.8383 -0.1078
  108OSM    H6F11152   1.049   4.944  10.008  1.2082 -3.0611  0.9338
  108OSM    H6G11153   1.217   4.914  10.041 -0.0766  0.6611 -1.3745
  108OSM    C7F11154   1.172   5.125  10.031  0.2141 -0.5701 -0.3668
  108OSM    H7F11155   1.270   5.154  10.076  0.7069 -0.9880 -1.1452
  108OSM    H7G11156   1.090   5.189  10.070  0.0576 -1.5875  1.0592
  108OSM    C8F11157   1.188   5.138   9.876  0.7557  0.0782  0.0513
  108OSM    H8F11158   1.253   5.059   9.833 -0.5283 -0.7763 -0.3877
  108OSM    H8G11159   1.244   5.231   9.851 -0.1134  0.6397  0.1621
  108OSM    C9F11160   1.052   5.140   9.804  0.3890  0.2985  0.0010
  108OSM    H9F11161   0.972   5.196   9.854  1.4216 -1.2436  3.7510
  108OSM   C10F11162   1.011   5.075   9.692 -0.5786  0.2125  0.7513
  108OSM   H10F11163   0.903   5.087   9.676 -0.6538 -2.3939 -1.4699
  108OSM   C11F11164   1.091   4.981   9.607 -0.5448  0.6938  0.4939
  108OSM   H11F11165   1.049   4.878   9.601 -1.0555  0.8783  0.8486
  108OSM   H11G11166   1.195   4.974   9.645  0.6734 -2.0595 -2.7927
  108OSM   C12F11167   1.113   5.002   9.456  0.2293  0.3947  0.1880
  108OSM   H12F11168   1.172   4.914   9.422  1.4172  0.9653  0.6878
  108OSM   H12G11169   1.179   5.089   9.435 -0.5931  0.7941 -0.8263
  108OSM   C13F11170   0.983   5.013   9.372  0.3325 -0.4160 -0.4454
  108OSM   H13F11171   0.922   5.085   9.431  1.6238  0.1338  0.2617
  108OSM   H13G11172   0.927   4.917   9.375 -0.7012  0.1846  2.4313
  108OSM   C14F11173   1.008   5.057   9.228 -0.0323  0.2474 -0.7677
  108OSM   H14F11174   1.090   4.991   9.190 -0.2819 -1.3902  1.3715
  108OSM   H14G11175   1.066   5.152   9.228 -1.0359  0.8857 -2.3276
  108OSM   C15F11176   0.876   5.079   9.152 -0.0642  0.3259 -0.5497
  108OSM   H15F11177   0.886   5.163   9.081 -1.8418  3.1521  2.2883
  108OSM   H15G11178   0.806   5.131   9.221 -0.2488  1.2727 -1.4320
  108OSM   C16F11179   0.808   4.950   9.106 -0.1573  0.5048 -0.3093
  108OSM   H16F11180   0.773   4.895   9.196 -1.3296 -0.0045 -1.0531
  108OSM   H16G11181   0.889   4.892   9.056  2.0529  3.4830 -0.4866
  108OSM   C17F11182   0.689   4.976   9.014 -0.2124 -0.3450 -0.9707
  108OSM   H17F11183   0.718   5.042   8.929 -0.3613 -0.8692 -1.4352
  108OSM   H17G11184   0.624   5.043   9.073  2.3337 -0.1842  1.9152
  108OSM   C18F11185   0.609   4.855   8.977  0.5945  0.2109  0.6913
  108OSM   H18F11186   0.511   4.893   8.940  0.4307 -0.1495  0.7571
  108OSM   H18G11187   0.594   4.776   9.053 -0.8425  0.1274  0.3488
  108OSM   H18H11188   0.654   4.806   8.888  1.0152  0.6019  0.6783
  109OSM      N11189   6.473   5.706  10.898  0.2249  0.0713  0.1020
  109OSM    C1511190   6.407   5.585  10.950  0.4537  0.6079  1.0013
  109OSM   H15A11191   6.406   5.568  11.056 -1.2684  1.0721  1.0830
  109OSM   H15B11192   6.438   5.500  10.891 -0.0683  0.3648  1.0758
  109OSM   H15C11193   6.304   5.614  10.943 -0.2836 -1.7711  1.0847
  109OSM    C1411194   6.402   5.734  10.770 -0.3821 -0.2989 -0.9912
  109OSM   H14A11195   6.431   5.833  10.738  0.3316  0.6042  2.1041
  109OSM   H14B11196   6.296   5.742  10.786 -0.2789  0.7061 -0.7328
  109OSM   H14C11197   6.438   5.663  10.696 -0.3799 -2.2472  0.7771
  109OSM    C1311198   6.458   5.821  10.994  0.0442  0.0945 -0.5137
  109OSM   H13A11199   6.489   5.792  11.093 -1.0552 -0.5809 -0.3393
  109OSM   H13B11200   6.352   5.843  10.996 -0.8018 -3.3827  0.7753
  109OSM   H13C11201   6.513   5.905  10.956  0.7943 -0.6198 -1.0369
  109OSM    C1211202   6.623   5.672  10.877 -0.1666 -0.4701  0.0325
  109OSM   H12A11203   6.674   5.665  10.972 -1.7191 -0.3327  0.9137
  109OSM   H12B11204   6.672   5.758  10.833 -1.4635 -0.3500 -1.2588
  109OSM    C1111205   6.672   5.564  10.777  0.1639  0.0919 -0.8021
  109OSM   H11A11206   6.623   5.467  10.799 -0.7737  0.7275  0.0322
  109OSM   H11B11207   6.777   5.537  10.797  0.6682  0.2046 -3.0573
  109OSM      P11208   6.768   5.689  10.586 -0.0685 -0.0299 -0.0198
  109OSM    O1311209   6.806   5.794  10.687 -0.4946  0.0817 -0.1923
  109OSM    O1411210   6.876   5.600  10.540 -0.2912 -0.2515  0.8433
  109OSM    O1111211   6.714   5.763  10.464 -0.1526 -0.3657 -0.0805
  109OSM    O1211212   6.651   5.607  10.639  0.2692 -0.5254 -0.0101
  109OSM    C1S11213   6.681   5.909  10.479 -0.3767  0.6549  0.4376
  109OSM    H1S11214   6.763   5.970  10.522  1.5845 -0.7649 -1.0813
  109OSM    H1T11215   6.600   5.929  10.551  1.4850  2.8551  2.0704
  109OSM     NF11216   6.649   6.100  10.322  0.1169 -0.2993 -0.5649
  109OSM    HNF11217   6.573   6.155  10.289 -0.3822 -1.2764 -1.0630
  109OSM    C2S11218   6.649   5.957  10.334  0.2247 -0.9995 -0.4044
  109OSM    H2S11219   6.734   5.929  10.269  0.9082  2.9590 -1.5080
  109OSM    C3S11220   6.517   5.890  10.277 -0.1968  0.4359 -0.1249
  109OSM    H3S11221   6.436   5.919  10.348 -0.4975 -0.1909 -0.2067
  109OSM     O311222   6.536   5.745  10.270  0.3961  0.0392 -0.2259
  109OSM    HO311223   6.620   5.725  10.310  0.0151 -0.7665  0.1872
  109OSM    C4S11224   6.488   5.940  10.135 -0.3202 -0.4465  0.2737
  109OSM    H4S11225   6.382   5.968  10.124 -0.1225  0.2514  0.0740
  109OSM    C5S11226   6.570   5.948  10.029  0.2415 -0.3813 -0.1696
  109OSM    H5S11227   6.673   5.909  10.031  0.3608 -0.0209  1.5257
  109OSM    C6S11228   6.532   6.013   9.897 -0.1517 -0.3976 -0.2522
  109OSM    H6S11229   6.616   6.071   9.855  1.3207 -1.1334  1.5579
  109OSM    H6T11230   6.457   6.094   9.910 -1.7944 -1.7177 -0.9444
  109OSM    C7S11231   6.475   5.910   9.799 -0.0356  0.1443  0.8599
  109OSM    H7S11232   6.403   5.845   9.854  0.2991  0.8159  2.1063
  109OSM    H7T11233   6.551   5.844   9.751  0.3698  2.1742 -1.4808
  109OSM    C8S11234   6.415   5.983   9.678 -0.2310  0.3714 -0.1135
  109OSM    H8S11235   6.332   6.045   9.717  0.2329  0.9633 -0.0506
  109OSM    H8T11236   6.378   5.907   9.606  2.6880 -0.9129 -0.4175
  109OSM    C9S11237   6.514   6.082   9.610 -0.3543  0.6911 -0.1803
  109OSM    H9S11238   6.618   6.047   9.625 -0.0172  1.7955  0.1954
  109OSM    H9T11239   6.511   6.181   9.661  1.0439  1.1268 -0.8780
  109OSM   C10S11240   6.485   6.100   9.460  0.8952  0.0293  0.0173
  109OSM   H10S11241   6.531   6.198   9.434  0.5040  0.3995  0.6984
  109OSM   H10T11242   6.376   6.110   9.444  0.6924 -0.8455  0.7663
  109OSM   C11S11243   6.542   5.990   9.370 -0.3798 -0.4903  0.2870
  109OSM   H11S11244   6.502   5.891   9.400 -1.0065 -1.0637 -2.1929
  109OSM   H11T11245   6.652   5.987   9.384 -0.3740  2.1916  1.3994
  109OSM   C12S11246   6.516   6.016   9.220 -0.1182  0.0582 -0.3093
  109OSM   H12S11247   6.593   6.080   9.171 -0.0244  1.2613  1.3330
  109OSM   H12T11248   6.419   6.067   9.200 -0.9992 -1.6853 -0.7037
  109OSM   C13S11249   6.505   5.883   9.153 -0.0773 -0.0805 -0.0699
  109OSM   H13S11250   6.441   5.822   9.220  0.1667  3.2580  3.5539
  109OSM   H13T11251   6.600   5.825   9.145 -0.4931 -0.8664  0.5788
  109OSM   C14S11252   6.434   5.899   9.022  0.0282 -0.3948  0.0401
  109OSM   H14S11253   6.333   5.942   9.038 -0.3375 -0.7729 -1.1241
  109OSM   H14T11254   6.429   5.808   8.958  1.7207  1.6283 -3.2170
  109OSM   C15S11255   6.505   5.994   8.926 -0.0988  0.1735  1.0838
  109OSM   H15S11256   6.608   5.953   8.914  0.7316  1.7427  2.4345
  109OSM   H15T11257   6.500   6.097   8.969  0.3636  1.2484 -1.2726
  109OSM   C16S11258   6.451   5.988   8.785 -0.5600  0.1416 -0.6251
  109OSM   H16S11259   6.355   6.040   8.800  0.1394  0.9942  1.1554
  109OSM   H16T11260   6.426   5.884   8.755 -1.0842  0.4517 -1.2834
  109OSM   C17S11261   6.542   6.045   8.680 -0.1477 -0.0329 -0.5064
  109OSM   H17S11262   6.500   6.024   8.579 -0.4353  0.7987 -0.5707
  109OSM   H17T11263   6.641   5.994   8.680 -0.1990 -0.1396 -1.0785
  109OSM   C18S11264   6.569   6.202   8.671  0.7305  0.1339  0.1928
  109OSM   H18S11265   6.611   6.231   8.572 -1.0564  2.0897 -0.0687
  109OSM   H18T11266   6.633   6.240   8.753  0.4144 -0.7802  0.8750
  109OSM   H18U11267   6.469   6.251   8.674  0.4864 -0.3745  0.6355
  109OSM    C1F11268   6.757   6.172  10.323 -0.8095 -0.0475 -0.3658
  109OSM     OF11269   6.870   6.121  10.333 -0.5548  0.1432  0.1293
  109OSM    C2F11270   6.739   6.323  10.323 -0.1554 -0.9323  0.0208
  109OSM    H2F11271   6.835   6.369  10.355 -0.0904 -0.4984 -0.7683
  109OSM    H2G11272   6.665   6.358  10.398 -1.5184  0.5412 -1.9000
  109OSM    C3F11273   6.697   6.381  10.187  0.3350  0.3176  0.4022
  109OSM    H3F11274   6.695   6.492  10.180 -0.2095  0.2109 -2.9398
  109OSM    H3G11275   6.594   6.348  10.164  0.5934  0.2032 -0.6680
  109OSM    C4F11276   6.794   6.319  10.074  0.7178 -0.2164  0.6789
  109OSM    H4F11277   6.777   6.209  10.066  1.2470 -0.3097  0.7999
  109OSM    H4G11278   6.902   6.343  10.087  0.6130  1.0033 -0.5130
  109OSM    C5F11279   6.731   6.371   9.943 -0.5176 -0.9130 -0.2549
  109OSM    H5F11280   6.687   6.473   9.954 -0.7743 -1.1984  1.4993
  109OSM    H5G11281   6.642   6.315   9.908 -0.9125 -0.1603 -0.4745
  109OSM    C6F11282   6.827   6.379   9.823 -0.8975  0.1310 -0.0328
  109OSM    H6F11283   6.871   6.277   9.820 -2.0899 -0.4635  1.5140
  109OSM    H6G11284   6.908   6.452   9.845 -0.4336 -0.3743 -0.0480
  109OSM    C7F11285   6.754   6.408   9.694 -0.2838  0.5303 -0.1027
  109OSM    H7F11286   6.716   6.513   9.699 -2.6160 -0.2770  0.4789
  109OSM    H7G11287   6.670   6.337   9.680  0.2252 -0.2218  0.6102
  109OSM    C8F11288   6.838   6.395   9.563 -0.2791  0.2035 -0.5325
  109OSM    H8F11289   6.797   6.299   9.527 -1.2859 -0.4614  2.1475
  109OSM    H8G11290   6.942   6.384   9.601 -0.3896 -0.4331 -0.4094
  109OSM    C9F11291   6.819   6.509   9.470 -0.5333 -0.3558 -0.1401
  109OSM    H9F11292   6.832   6.608   9.516  4.2651 -1.0725  0.5009
  109OSM   C10F11293   6.790   6.498   9.340 -0.0836  0.4275  0.3785
  109OSM   H10F11294   6.764   6.584   9.276 -1.2893 -2.6421 -3.6606
  109OSM   C11F11295   6.759   6.381   9.253 -0.0926  0.1445  0.0935
  109OSM   H11F11296   6.655   6.358   9.222  0.2127  2.1949 -2.8509
  109OSM   H11G11297   6.791   6.288   9.305  0.3679  0.3701  0.2203
  109OSM   C12F11298   6.824   6.393   9.114  0.6072 -0.0807 -0.9869
  109OSM   H12F11299   6.930   6.404   9.147  0.6335 -0.2267 -1.0253
  109OSM   H12G11300   6.782   6.475   9.051  0.5704 -0.5084 -1.5243
  109OSM   C13F11301   6.822   6.273   9.027  0.6751  0.0315  0.3107
  109OSM   H13F11302   6.719   6.237   9.010  0.8776  0.1060 -1.1568
  109OSM   H13G11303   6.869   6.188   9.082  1.7692  0.4156 -0.0049
  109OSM   C14F11304   6.893   6.302   8.892 -0.1684 -0.1215 -0.0925
  109OSM   H14F11305   6.992   6.351   8.905 -0.4929  0.3026  0.8095
  109OSM   H14G11306   6.833   6.376   8.834  3.0062  1.0320 -2.1894
  109OSM   C15F11307   6.904   6.182   8.801 -0.4031  0.5422  0.0576
  109OSM   H15F11308   6.809   6.124   8.804 -0.2270  0.3116  2.3264
  109OSM   H15G11309   6.977   6.115   8.852 -1.0134 -2.2920 -2.4637
  109OSM   C16F11310   6.938   6.233   8.662  0.3351  0.5267 -0.4586
  109OSM   H16F11311   7.025   6.301   8.676 -0.7402  1.8877 -0.2221
  109OSM   H16G11312   6.850   6.282   8.616  0.6572  0.5874 -1.0182
  109OSM   C17F11313   6.987   6.120   8.568 -0.5853 -0.0634  0.3971
  109OSM   H17F11314   7.066   6.060   8.618 -1.1360 -2.4700 -1.4287
  109OSM   H17G11315   7.045   6.171   8.488  2.4208 -1.1012  1.7641
  109OSM   C18F11316   6.886   6.021   8.508 -0.3801  0.3817 -0.2287
  109OSM   H18F11317   6.797   6.078   8.472 -0.9743 -1.1878 -1.3390
  109OSM   H18G11318   6.857   5.946   8.584 -3.1529  1.6440  0.0946
  109OSM   H18H11319   6.926   5.964   8.422 -1.3124  1.5592 -1.4910
  110OSM      N11320   1.468   0.924  11.088  0.0303  0.1782  0.7753
  110OSM    C1511321   1.565   0.984  11.188 -0.3280 -0.1036 -0.7103
  110OSM   H15A11322   1.661   0.950  11.151 -0.6420  1.9266 -3.7585
  110OSM   H15B11323   1.544   0.946  11.287  0.8601 -1.2055 -0.8513
  110OSM   H15C11324   1.557   1.091  11.176 -0.9562 -0.3624 -3.1613
  110OSM    C1411325   1.465   0.777  11.095 -0.4769  0.6346 -0.5760
  110OSM   H14A11326   1.384   0.734  11.037  1.2206 -1.9059 -1.2105
  110OSM   H14B11327   1.465   0.735  11.195  3.4429 -0.8877 -1.0664
  110OSM   H14C11328   1.559   0.745  11.053  0.2181 -0.5795  1.6890
  110OSM    C1311329   1.333   0.978  11.130  0.1296 -0.4985 -0.3082
  110OSM   H13A11330   1.340   1.083  11.152 -0.5261 -0.2653 -1.1804
  110OSM   H13B11331   1.320   0.938  11.230  0.7816 -1.7089 -0.6901
  110OSM   H13C11332   1.252   0.946  11.067 -0.1483  1.3422 -0.9325
  110OSM    C1211333   1.495   0.965  10.949 -0.0605 -0.4552 -0.2326
  110OSM   H12A11334   1.418   0.922  10.887  1.1509 -1.0677 -1.3857
  110OSM   H12B11335   1.584   0.912  10.915 -0.1987 -0.3902 -0.7047
  110OSM    C1111336   1.506   1.115  10.929  0.4461 -0.6051 -0.2809
  110OSM   H11A11337   1.428   1.174  10.982  1.4860 -1.7458  2.7559
  110OSM   H11B11338   1.484   1.135  10.822  0.6135  0.4555 -0.1304
  110OSM      P11339   1.771   1.136  10.887 -0.0789 -0.3118  0.1837
  110OSM    O1311340   1.885   1.183  10.971 -0.7839 -0.2021  0.3429
  110OSM    O1411341   1.770   0.991  10.857  0.5611  0.3434 -0.3640
  110OSM    O1111342   1.774   1.225  10.748  0.4332  0.3223 -1.3449
  110OSM    O1211343   1.637   1.171  10.962  0.5899 -0.1456 -0.0531
  110OSM    C1S11344   1.770   1.160  10.623 -0.4014  0.3419  0.3246
  110OSM    H1S11345   1.677   1.101  10.612  0.2825 -0.4486 -1.8622
  110OSM    H1T11346   1.863   1.100  10.607 -1.3904 -1.9042  2.5157
  110OSM     NF11347   1.724   1.226  10.386  0.5073 -0.6498  0.4049
  110OSM    HNF11348   1.790   1.251  10.316 -0.5405  2.5271  0.3624
  110OSM    C2S11349   1.765   1.272  10.513 -0.0488 -0.5105 -0.1841
  110OSM    H2S11350   1.692   1.346  10.553  1.6959  0.2304  1.8167
  110OSM    C3S11351   1.900   1.355  10.508  0.4492  0.5791  0.9266
  110OSM    H3S11352   1.975   1.288  10.463 -1.3261  0.3385 -1.9562
  110OSM     O311353   1.944   1.412  10.628  0.0440  0.1491 -0.6283
  110OSM    HO311354   1.877   1.377  10.687  0.6139 -0.5155 -0.3739
  110OSM    C4S11355   1.890   1.469  10.403  0.3121  0.0910 -0.6662
  110OSM    H4S11356   1.810   1.543  10.421 -0.5989 -0.0625 -3.5765
  110OSM    C5S11357   1.970   1.486  10.299 -0.1613  0.7503 -0.4276
  110OSM    H5S11358   2.048   1.410  10.285 -0.5703 -0.0766  1.5108
  110OSM    C6S11359   1.971   1.593  10.197  0.5252  0.6040  0.1291
  110OSM    H6S11360   2.021   1.680  10.246  0.9117  0.6931 -0.4182
  110OSM    H6T11361   1.868   1.631  10.179  0.9534  1.3530 -0.7888
  110OSM    C7S11362   2.056   1.567  10.068 -0.8158  0.0527 -0.5314
  110OSM    H7S11363   2.031   1.473  10.016 -0.2169 -1.4591  1.7498
  110OSM    H7T11364   2.160   1.545  10.101 -0.1680  1.5070 -1.4997
  110OSM    C8S11365   2.051   1.695   9.983 -0.0187 -0.3702 -0.0026
  110OSM    H8S11366   2.070   1.782  10.049  0.2238  1.2031 -2.0517
  110OSM    H8T11367   1.949   1.704   9.941 -0.6339  2.1499  1.7912
  110OSM    C9S11368   2.152   1.697   9.863 -0.3761 -0.6211  0.3386
  110OSM    H9S11369   2.251   1.666   9.902  1.0365  0.0936 -2.4198
  110OSM    H9T11370   2.156   1.798   9.816 -1.7744 -1.1945 -1.1240
  110OSM   C10S11371   2.113   1.604   9.747 -0.4142  0.0119  0.0377
  110OSM   H10S11372   2.009   1.633   9.722 -0.7426 -0.3001  0.9853
  110OSM   H10T11373   2.099   1.501   9.786 -0.8515 -0.6616 -1.8005
  110OSM   C11S11374   2.209   1.590   9.632 -1.0052 -0.4673 -0.2681
  110OSM   H11S11375   2.302   1.535   9.659  0.8140  0.9460 -3.1325
  110OSM   H11T11376   2.243   1.691   9.600  3.3368 -1.7576 -0.4026
  110OSM   C12S11377   2.143   1.513   9.522 -0.2148  0.1196  0.1681
  110OSM   H12S11378   2.051   1.568   9.495 -0.7532  0.3279  2.2508
  110OSM   H12T11379   2.119   1.406   9.542 -0.0291  0.0293 -0.0822
  110OSM   C13S11380   2.238   1.499   9.406 -0.3777  0.0722 -0.6844
  110OSM   H13S11381   2.325   1.450   9.452  1.0076  2.3985 -0.6480
  110OSM   H13T11382   2.276   1.596   9.367 -0.1084 -0.4900 -1.8528
  110OSM   C14S11383   2.188   1.408   9.282  0.2928 -0.0824  0.5881
  110OSM   H14S11384   2.108   1.466   9.231 -1.6044 -1.6184  1.6736
  110OSM   H14T11385   2.154   1.315   9.332 -1.6354  0.0919 -0.3375
  110OSM   C15S11386   2.293   1.394   9.169 -0.4989 -0.0437  0.3613
  110OSM   H15S11387   2.319   1.288   9.151 -0.4249  0.1003 -0.4356
  110OSM   H15T11388   2.385   1.450   9.195 -1.3739  1.3243  0.6534
  110OSM   C16S11389   2.248   1.449   9.028 -0.4956  0.5749  0.1385
  110OSM   H16S11390   2.235   1.559   9.027  1.2853  0.8416 -2.7044
  110OSM   H16T11391   2.161   1.395   8.985  0.6125 -1.2929  0.1380
  110OSM   C17S11392   2.354   1.416   8.925 -0.4890 -0.4240 -0.3437
  110OSM   H17S11393   2.368   1.308   8.903 -1.4316 -0.4467 -0.8572
  110OSM   H17T11394   2.449   1.444   8.976 -1.8107  1.8695  1.0489
  110OSM   C18S11395   2.322   1.485   8.798 -0.3687  0.1645  1.2920
  110OSM   H18S11396   2.215   1.501   8.774 -0.0976  0.2888  0.1125
  110OSM   H18T11397   2.376   1.422   8.724 -0.4641 -0.5376  1.8056
  110OSM   H18U11398   2.372   1.584   8.801  1.0189 -0.4758  0.4191
  110OSM    C1F11399   1.621   1.147  10.358 -0.3338  0.0863  0.2965
  110OSM     OF11400   1.530   1.129  10.435 -0.1679  0.1617  0.0004
  110OSM    C2F11401   1.625   1.072  10.225  0.2867 -0.0791  1.4397
  110OSM    H2F11402   1.711   1.001  10.223 -0.1441 -0.5868  0.6032
  110OSM    H2G11403   1.622   1.153  10.149  0.6289  0.6231  2.1504
  110OSM    C3F11404   1.506   0.979  10.200 -0.3335 -0.6887  0.4930
  110OSM    H3F11405   1.412   1.037  10.210  0.2238  0.1176  1.1283
  110OSM    H3G11406   1.495   0.906  10.283  1.7341 -2.7207 -0.9092
  110OSM    C4F11407   1.519   0.906  10.066 -0.2865  0.3976 -0.5551
  110OSM    H4F11408   1.598   0.828  10.073 -3.6122 -3.1760  0.1361
  110OSM    H4G11409   1.544   0.980   9.987 -1.4956  2.6225  1.0152
  110OSM    C5F11410   1.395   0.833  10.040  0.4631 -0.5511  0.1547
  110OSM    H5F11411   1.309   0.900  10.022  1.7720  1.3963  0.8415
  110OSM    H5G11412   1.367   0.764  10.123 -0.4265 -0.4209 -0.0296
  110OSM    C6F11413   1.409   0.744   9.916  0.3853 -0.5993 -1.2096
  110OSM    H6F11414   1.315   0.687   9.899 -0.6925  0.5397  0.5801
  110OSM    H6G11415   1.489   0.677   9.953  0.3574 -0.5861 -1.1258
  110OSM    C7F11416   1.445   0.815   9.782 -1.0507  1.2512  0.0128
  110OSM    H7F11417   1.481   0.736   9.714 -0.3650  2.5604 -1.1836
  110OSM    H7G11418   1.533   0.883   9.788  0.1002 -0.1044 -1.0798
  110OSM    C8F11419   1.337   0.900   9.700  0.5446  0.0667  0.0059
  110OSM    H8F11420   1.253   0.936   9.764 -1.3235  0.0918 -2.3164
  110OSM    H8G11421   1.295   0.832   9.623  0.7644 -0.0199 -0.0368
  110OSM    C9F11422   1.399   1.032   9.651  0.0548 -0.2560  0.2246
  110OSM    H9F11423   1.377   1.122   9.711  1.6687 -0.2043  0.7781
  110OSM   C10F11424   1.467   1.031   9.535 -0.5083  0.1437 -0.0733
  110OSM   H10F11425   1.519   1.122   9.500  0.3738 -0.5644 -0.6655
  110OSM   C11F11426   1.493   0.926   9.433 -0.0359  0.2047 -0.0151
  110OSM   H11F11427   1.469   0.827   9.477  0.2917 -0.0472 -0.3942
  110OSM   H11G11428   1.596   0.933   9.393  0.0921 -0.8143  0.1065
  110OSM   C12F11429   1.401   0.959   9.312 -0.5954 -0.1979 -0.2107
  110OSM   H12F11430   1.415   1.058   9.264  1.3228 -1.4958 -2.5294
  110OSM   H12G11431   1.295   0.929   9.329 -1.1076  0.4839 -1.9414
  110OSM   C13F11432   1.441   0.850   9.200  0.0095  0.3737  0.0796
  110OSM   H13F11433   1.440   0.757   9.261 -0.4217  0.8310  0.7836
  110OSM   H13G11434   1.546   0.847   9.165 -0.5652  0.8600 -1.7649
  110OSM   C14F11435   1.344   0.849   9.076  0.6908  0.0488  0.4162
  110OSM   H14F11436   1.244   0.873   9.119  0.8673  0.5458  0.5580
  110OSM   H14G11437   1.356   0.746   9.037  1.1544  0.0612  0.5200
  110OSM   C15F11438   1.370   0.950   8.962  0.0283  0.4204  0.1936
  110OSM   H15F11439   1.479   0.933   8.949 -0.1388  0.3864 -1.3209
  110OSM   H15G11440   1.360   1.052   9.005  1.0694  0.2888  0.7777
  110OSM   C16F11441   1.303   0.925   8.824 -0.2542  0.1315  0.5127
  110OSM   H16F11442   1.198   0.959   8.833  0.2259  1.5367  1.0279
  110OSM   H16G11443   1.299   0.816   8.801  2.9866  0.2404 -1.2507
  110OSM   C17F11444   1.374   0.988   8.708 -0.2676 -0.5544  0.0315
  110OSM   H17F11445   1.480   0.955   8.708 -0.6220 -1.7364  0.9145
  110OSM   H17G11446   1.357   1.097   8.726  1.5101 -0.6535  2.8874
  110OSM   C18F11447   1.318   0.943   8.578  0.2991  0.4921 -0.0235
  110OSM   H18F11448   1.208   0.933   8.567  0.3157  1.1457 -0.9607
  110OSM   H18G11449   1.350   0.839   8.555 -1.9841 -0.1330 -0.6093
  110OSM   H18H11450   1.350   1.012   8.497  2.1653 -0.3154 -0.0241
  111OSM      N11451   3.068   3.248  11.105  0.4126  0.1925  0.8169
  111OSM    C1511452   3.177   3.196  11.201 -0.2662  0.4899 -0.4216
  111OSM   H15A11453   3.137   3.107  11.248  0.9616  0.1473 -0.0059
  111OSM   H15B11454   3.212   3.257  11.283  0.6528  0.8145 -1.0420
  111OSM   H15C11455   3.261   3.160  11.145 -0.9900 -0.5554 -0.8629
  111OSM    C1411456   3.040   3.151  10.996 -0.3534 -0.6482 -0.1617
  111OSM   H14A11457   3.135   3.117  10.958  0.6354  1.0632  0.6248
  111OSM   H14B11458   2.995   3.195  10.908  0.7863  0.5128 -0.2044
  111OSM   H14C11459   2.971   3.075  11.027  0.2338 -1.2444 -0.2990
  111OSM    C1311460   2.944   3.279  11.182  0.0080  0.8271 -0.0258
  111OSM   H13A11461   2.915   3.187  11.230 -0.3240  0.3334 -1.1384
  111OSM   H13B11462   2.860   3.309  11.122 -0.9209 -0.6629  0.4697
  111OSM   H13C11463   2.958   3.356  11.256 -1.2829  0.0999  1.0424
  111OSM    C1211464   3.128   3.371  11.042 -0.6537 -0.1114 -0.4325
  111OSM   H12A11465   3.230   3.343  11.021 -0.6037  0.2143 -0.6327
  111OSM   H12B11466   3.134   3.451  11.114 -1.7695  1.3076 -1.8395
  111OSM    C1111467   3.039   3.425  10.923  0.0849 -0.5028 -0.0728
  111OSM   H11A11468   3.051   3.359  10.834  1.1015  2.2235 -2.1072
  111OSM   H11B11469   3.077   3.521  10.882  0.2869 -0.4609  0.2160
  111OSM      P11470   2.778   3.411  10.880  0.4369 -0.0451  0.0182
  111OSM    O1311471   2.698   3.313  10.958 -0.1569 -0.1546  0.3014
  111OSM    O1411472   2.716   3.540  10.848 -0.3195 -0.7285  0.2052
  111OSM    O1111473   2.835   3.342  10.744  0.1222  0.3832 -0.0800
  111OSM    O1211474   2.909   3.446  10.961  0.7675 -0.1903  0.5505
  111OSM    C1S11475   2.737   3.312  10.644 -0.5317  0.5931  0.0726
  111OSM    H1S11476   2.703   3.405  10.593  0.7636 -0.6013 -3.2471
  111OSM    H1T11477   2.659   3.247  10.689  1.0191 -0.1415  1.8349
  111OSM     NF11478   2.716   3.184  10.433  0.2233  0.3457  0.1184
  111OSM    HNF11479   2.717   3.085  10.421  2.1892  0.3794 -0.1827
  111OSM    C2S11480   2.807   3.219  10.533 -0.8456  0.6554 -0.4280
  111OSM    H2S11481   2.881   3.288  10.487  0.0981  0.2712  0.4868
  111OSM    C3S11482   2.886   3.098  10.592 -0.3665  0.6616  0.0709
  111OSM    H3S11483   2.805   3.030  10.626 -2.7523  2.6149 -1.3578
  111OSM     O311484   2.976   3.124  10.702  0.3155  0.9244  0.5540
  111OSM    HO311485   2.937   3.206  10.735  0.3283  0.9602  0.4803
  111OSM    C4S11486   2.972   3.035  10.484 -0.0889  0.2233 -0.2351
  111OSM    H4S11487   3.040   3.097  10.424  0.5318 -1.9518 -1.8947
  111OSM    C5S11488   2.983   2.904  10.462  0.9330 -1.0054  0.3441
  111OSM    H5S11489   2.922   2.831  10.517 -3.2792  2.0434  0.1891
  111OSM    C6S11490   3.071   2.846  10.361  0.3816  0.6683 -0.4114
  111OSM    H6S11491   3.167   2.815  10.407 -1.0285  0.3428  2.5175
  111OSM    H6T11492   3.081   2.925  10.283  0.2475  0.8803 -0.2176
  111OSM    C7S11493   2.991   2.730  10.293 -0.1754 -0.2720  0.0177
  111OSM    H7S11494   2.888   2.769  10.276 -0.0868 -0.4761 -0.9968
  111OSM    H7T11495   2.985   2.655  10.376  2.1659  2.2410  2.7017
  111OSM    C8S11496   3.071   2.667  10.171  0.3921  0.0651 -0.1033
  111OSM    H8S11497   3.023   2.570  10.146 -0.3017  0.2809  0.3693
  111OSM    H8T11498   3.180   2.652  10.186  0.2512 -1.1688 -0.2077
  111OSM    C9S11499   3.074   2.751  10.030 -0.4508 -0.1265 -0.4168
  111OSM    H9S11500   3.130   2.843  10.059 -0.2656 -1.0938  2.7188
  111OSM    H9T11501   2.967   2.768  10.003 -0.5576  0.9100  0.5531
  111OSM   C10S11502   3.122   2.673   9.919 -0.1101 -0.1593  0.5162
  111OSM   H10S11503   3.058   2.585   9.896  0.0798 -0.0946 -0.2917
  111OSM   H10T11504   3.216   2.625   9.953  0.7615  0.6125 -0.7103
  111OSM   C11S11505   3.129   2.755   9.788  0.9293 -0.4470  0.2326
  111OSM   H11S11506   3.203   2.835   9.804  0.9712 -0.3078 -0.6003
  111OSM   H11T11507   3.027   2.788   9.757  1.5784  0.0339 -1.5071
  111OSM   C12S11508   3.198   2.679   9.669  0.0476 -0.6282  0.5964
  111OSM   H12S11509   3.180   2.570   9.682  0.6915 -1.5632 -4.4022
  111OSM   H12T11510   3.308   2.694   9.675 -0.0267  0.1821  0.0567
  111OSM   C13S11511   3.134   2.723   9.535  0.4502  0.5425 -0.3087
  111OSM   H13S11512   3.133   2.833   9.544 -1.0750  0.6409 -1.4091
  111OSM   H13T11513   3.027   2.696   9.520  0.3045  1.8164 -1.7779
  111OSM   C14S11514   3.212   2.683   9.412  0.3262  0.0058  0.6811
  111OSM   H14S11515   3.215   2.572   9.397 -2.0745  0.1394 -1.4439
  111OSM   H14T11516   3.317   2.718   9.422  0.9937 -1.2018 -1.3412
  111OSM   C15S11517   3.140   2.765   9.293 -0.2290 -0.0556  0.1915
  111OSM   H15S11518   3.130   2.872   9.320 -2.4225 -0.2222  0.2529
  111OSM   H15T11519   3.034   2.732   9.299  0.4539 -2.2180  1.6929
  111OSM   C16S11520   3.211   2.741   9.156  0.6559  0.6655  0.0497
  111OSM   H16S11521   3.299   2.809   9.161  0.4726  1.0470 -1.6185
  111OSM   H16T11522   3.139   2.771   9.077  0.2543 -0.4804 -0.0372
  111OSM   C17S11523   3.244   2.597   9.128 -0.2218 -0.6966  0.5103
  111OSM   H17S11524   3.154   2.539   9.157 -1.4445 -0.1576 -1.9140
  111OSM   H17T11525   3.333   2.571   9.189 -1.1644 -0.6108  1.9898
  111OSM   C18S11526   3.271   2.562   8.981  0.6691 -0.4914  0.5854
  111OSM   H18S11527   3.187   2.598   8.918  0.9278 -1.9745 -0.6712
  111OSM   H18T11528   3.261   2.451   8.977  1.3664 -0.6489  2.2762
  111OSM   H18U11529   3.373   2.594   8.951  0.3505  0.7080  0.7438
  111OSM    C1F11530   2.643   3.266  10.355  0.0450  0.1398 -0.8041
  111OSM     OF11531   2.665   3.389  10.347  0.7544 -0.4143 -0.1570
  111OSM    C2F11532   2.534   3.198  10.270 -0.1126 -0.5867 -0.3936
  111OSM    H2F11533   2.447   3.188  10.339  1.6912 -1.1563  1.9082
  111OSM    H2G11534   2.578   3.099  10.246  0.2604 -0.2967 -0.9270
  111OSM    C3F11535   2.500   3.288  10.151 -0.2650  0.1349 -0.2196
  111OSM    H3F11536   2.594   3.314  10.098  1.7464 -0.6312  2.7379
  111OSM    H3G11537   2.452   3.383  10.184 -0.1897  0.2957 -0.5655
  111OSM    C4F11538   2.426   3.218  10.045 -0.6101  0.5972 -0.0859
  111OSM    H4F11539   2.406   3.283   9.957 -3.4697  1.7359  1.2771
  111OSM    H4G11540   2.324   3.188  10.078 -0.1166  0.5438  1.4573
  111OSM    C5F11541   2.488   3.082   9.996 -0.2457 -0.5255  0.0881
  111OSM    H5F11542   2.490   3.013  10.083  0.6064 -0.4501  0.1319
  111OSM    H5G11543   2.589   3.100   9.955 -0.4731 -0.2026 -0.3361
  111OSM    C6F11544   2.414   3.041   9.869  0.7557 -0.1222 -0.8620
  111OSM    H6F11545   2.422   3.127   9.799 -0.1158 -0.3042 -1.2016
  111OSM    H6G11546   2.307   3.022   9.894  0.5602  1.4287 -0.3972
  111OSM    C7F11547   2.465   2.914   9.798  0.2499 -0.3384  0.2252
  111OSM    H7F11548   2.480   2.843   9.883  0.6121  1.7668  2.0126
  111OSM    H7G11549   2.564   2.950   9.763  0.4936  1.0104  2.1430
  111OSM    C8F11550   2.373   2.858   9.690  0.2471 -0.3486 -0.2313
  111OSM    H8F11551   2.275   2.830   9.736 -0.4216  2.2381  0.0871
  111OSM    H8G11552   2.420   2.765   9.650 -2.0706 -0.9257 -1.8027
  111OSM    C9F11553   2.343   2.951   9.576  0.4615  0.0739 -0.0450
  111OSM    H9F11554   2.352   3.059   9.591 -2.4842  0.3890  0.0432
  111OSM   C10F11555   2.300   2.899   9.454 -0.1844 -0.3864 -1.0990
  111OSM   H10F11556   2.283   2.958   9.363  1.2518 -1.8911 -2.3923
  111OSM   C11F11557   2.287   2.750   9.427  0.5263 -0.3800  0.0465
  111OSM   H11F11558   2.190   2.710   9.462  0.0740  0.3005 -0.4110
  111OSM   H11G11559   2.371   2.702   9.483 -0.2234 -2.4177 -0.4845
  111OSM   C12F11560   2.308   2.721   9.275  0.3736 -0.0846  0.5327
  111OSM   H12F11561   2.393   2.783   9.240  0.8928 -0.8029  0.4986
  111OSM   H12G11562   2.217   2.754   9.221  0.4147  0.4522  0.7749
  111OSM   C13F11563   2.325   2.577   9.241 -0.4179  0.3543  0.8268
  111OSM   H13F11564   2.251   2.500   9.273  0.5735 -0.5432  1.0398
  111OSM   H13G11565   2.416   2.539   9.292 -0.5187  1.4480  1.8695
  111OSM   C14F11566   2.350   2.570   9.095 -0.2170 -0.7092 -0.2413
  111OSM   H14F11567   2.436   2.637   9.071 -0.0783 -1.0985 -0.8615
  111OSM   H14G11568   2.253   2.604   9.052  0.8682  0.5036 -1.8692
  111OSM   C15F11569   2.393   2.429   9.049  0.6082 -0.0576  0.5620
  111OSM   H15F11570   2.306   2.361   9.063 -0.0637  0.6116 -0.2209
  111OSM   H15G11571   2.483   2.398   9.105  1.6859 -0.1682 -1.1412
  111OSM   C16F11572   2.439   2.424   8.900 -0.2081 -0.6271 -0.4152
  111OSM   H16F11573   2.477   2.324   8.871  0.4709 -0.2509 -0.8709
  111OSM   H16G11574   2.528   2.492   8.897 -0.6441 -0.0704 -1.0639
  111OSM   C17F11575   2.333   2.487   8.808  0.5902  0.2380 -0.3171
  111OSM   H17F11576   2.328   2.594   8.840  0.4934 -0.1200  0.9179
  111OSM   H17G11577   2.238   2.432   8.824  1.5802 -1.5890 -0.4543
  111OSM   C18F11578   2.363   2.474   8.664 -0.1355  0.8995 -0.5546
  111OSM   H18F11579   2.284   2.513   8.597 -1.1978  0.7658  0.5849
  111OSM   H18G11580   2.385   2.368   8.642 -0.3850  1.0592 -1.6207
  111OSM   H18H11581   2.457   2.530   8.643 -0.1544  0.2937 -2.3983
  112OSM      N11582   2.421   6.610  11.202  0.1529 -0.2014  0.2108
  112OSM    C1511583   2.483   6.480  11.246  0.4058 -0.0091  0.4988
  112OSM   H15A11584   2.481   6.468  11.353  2.2667  0.7767  0.6526
  112OSM   H15B11585   2.586   6.478  11.212  0.3358  2.2376  0.0164
  112OSM   H15C11586   2.439   6.394  11.198  1.6865 -0.1529 -0.4750
  112OSM    C1411587   2.275   6.603  11.229  0.1782  0.2251  0.1871
  112OSM   H14A11588   2.236   6.518  11.176  1.4119 -0.1161 -0.2134
  112OSM   H14B11589   2.235   6.700  11.206  0.5978  0.1507 -0.9298
  112OSM   H14C11590   2.252   6.591  11.334  1.2123 -0.5842  0.3439
  112OSM    C1311591   2.479   6.716  11.281 -0.3492 -0.4352 -0.0895
  112OSM   H13A11592   2.502   6.680  11.381  0.2328 -2.5511 -0.9200
  112OSM   H13B11593   2.410   6.798  11.287 -0.8409 -0.8019 -0.7019
  112OSM   H13C11594   2.564   6.754  11.226 -0.0820 -0.1088  0.5289
  112OSM    C1211595   2.439   6.642  11.052 -0.6677  0.1646 -0.2560
  112OSM   H12A11596   2.381   6.731  11.034 -0.7520 -0.0691 -1.2028
  112OSM   H12B11597   2.406   6.559  10.991 -0.9395  0.4306 -0.4743
  112OSM    C1111598   2.583   6.682  11.008  0.0689 -0.4886  0.1112
  112OSM   H11A11599   2.590   6.664  10.898  0.7572 -1.1059  0.2460
  112OSM   H11B11600   2.656   6.616  11.059 -0.3664 -2.1144 -1.2750
  112OSM      P11601   2.600   6.934  10.925  0.2299  0.1356 -0.1458
  112OSM    O1311602   2.461   6.980  10.946 -0.3658 -0.5574  0.1127
  112OSM    O1411603   2.704   7.035  10.944  0.0381  0.3937  0.0510
  112OSM    O1111604   2.612   6.860  10.788 -0.1933  0.0091  0.6801
  112OSM    O1211605   2.617   6.819  11.032 -0.2338 -0.5219 -0.1206
  112OSM    C1S11606   2.698   6.920  10.690 -0.0156 -0.2384  0.1881
  112OSM    H1S11607   2.803   6.917  10.727  0.1024 -0.0909 -0.1350
  112OSM    H1T11608   2.672   7.026  10.673  1.3488  0.1879  0.6375
  112OSM     NF11609   2.763   6.931  10.453 -0.1497  1.1896  0.7005
  112OSM    HNF11610   2.708   6.992  10.397  0.8706  1.0462 -0.5052
  112OSM    C2S11611   2.691   6.845  10.549 -0.2647  0.6218 -0.0231
  112OSM    H2S11612   2.740   6.745  10.555 -2.2397 -0.4230 -0.6216
  112OSM    C3S11613   2.534   6.814  10.514 -0.6939  0.1219  0.0167
  112OSM    H3S11614   2.494   6.916  10.503 -3.0039 -0.7383 -0.0640
  112OSM     O311615   2.449   6.751  10.609  0.6395 -0.4264  0.3065
  112OSM    HO311616   2.497   6.756  10.692  1.4299 -0.7639 -0.1144
  112OSM    C4S11617   2.524   6.739  10.381  0.4417  0.1421 -0.3660
  112OSM    H4S11618   2.600   6.661  10.370  0.3470  0.1238 -0.9340
  112OSM    C5S11619   2.438   6.753  10.275  0.6257  0.3193 -0.8386
  112OSM    H5S11620   2.372   6.841  10.277 -0.4276 -0.4319 -1.7189
  112OSM    C6S11621   2.447   6.672  10.151 -0.0620 -0.7065  0.4533
  112OSM    H6S11622   2.438   6.748  10.070  2.0016  0.6005  1.3755
  112OSM    H6T11623   2.365   6.598  10.143  0.4089 -1.6022  3.0526
  112OSM    C7S11624   2.577   6.598  10.120  0.0402  0.7328 -0.2276
  112OSM    H7S11625   2.616   6.536  10.204  0.0373  1.7350  0.5438
  112OSM    H7T11626   2.653   6.678  10.108 -0.9058  1.9522  1.4192
  112OSM    C8S11627   2.557   6.514   9.999 -0.0338 -0.1365  0.4311
  112OSM    H8S11628   2.536   6.575   9.908 -0.5698 -2.5763 -1.1804
  112OSM    H8T11629   2.470   6.446  10.012 -0.7969  0.3060 -1.8470
  112OSM    C9S11630   2.686   6.437   9.961 -0.7497  0.1523 -0.5877
  112OSM    H9S11631   2.730   6.393  10.054 -0.0746 -0.2345 -1.0834
  112OSM    H9T11632   2.756   6.504   9.907 -0.8510  1.7363  1.1413
  112OSM   C10S11633   2.661   6.325   9.861 -0.1136  0.1570  0.0113
  112OSM   H10S11634   2.602   6.239   9.898  1.3070 -1.1542 -0.6436
  112OSM   H10T11635   2.763   6.281   9.851  0.1563  0.4730  1.3124
  112OSM   C11S11636   2.627   6.381   9.721  0.5162 -0.8582  0.0719
  112OSM   H11S11637   2.698   6.458   9.685  0.9351 -1.2369  0.0825
  112OSM   H11T11638   2.536   6.444   9.733  2.0939  1.0406  3.2912
  112OSM   C12S11639   2.620   6.280   9.605 -1.1238  1.0204 -0.2493
  112OSM   H12S11640   2.551   6.196   9.629 -1.1199  1.3482  1.0156
  112OSM   H12T11641   2.720   6.237   9.582 -1.6101  1.0592 -2.7078
  112OSM   C13S11642   2.562   6.343   9.474 -0.1624  0.2620  0.1477
  112OSM   H13S11643   2.655   6.394   9.442  0.6045 -0.6636  0.8600
  112OSM   H13T11644   2.473   6.407   9.495  1.1472  1.5864  1.9436
  112OSM   C14S11645   2.516   6.241   9.377 -0.0259 -0.1296 -0.0994
  112OSM   H14S11646   2.432   6.173   9.405  1.3929 -2.5360 -1.3325
  112OSM   H14T11647   2.599   6.171   9.355  0.8734  0.2205  1.9698
  112OSM   C15S11648   2.476   6.298   9.244 -0.5893  0.0490  0.1295
  112OSM   H15S11649   2.539   6.389   9.230  0.9622 -0.5625  2.5130
  112OSM   H15T11650   2.368   6.323   9.239 -0.3205  1.1271 -3.1079
  112OSM   C16S11651   2.491   6.199   9.117 -0.0305 -0.3358  0.4389
  112OSM   H16S11652   2.448   6.263   9.037 -1.6062  0.6661  2.0094
  112OSM   H16T11653   2.428   6.109   9.137 -0.7349 -0.4534 -2.0526
  112OSM   C17S11654   2.631   6.167   9.079 -0.0126  0.3713  0.4129
  112OSM   H17S11655   2.669   6.102   9.160 -0.0238  0.3233  0.3798
  112OSM   H17T11656   2.714   6.240   9.075  0.7810 -0.5615 -1.0770
  112OSM   C18S11657   2.646   6.080   8.957  0.0824  0.5726  0.1496
  112OSM   H18S11658   2.751   6.066   8.923  0.1906 -1.6973  1.2098
  112OSM   H18T11659   2.592   6.121   8.869 -1.1313 -2.4010 -0.6328
  112OSM   H18U11660   2.599   5.982   8.981  2.0228 -0.4054  0.1477
  112OSM    C1F11661   2.902   6.941  10.458  0.3954 -0.2742 -0.1549
  112OSM     OF11662   2.966   6.887  10.548 -0.0745 -0.3395  0.5608
  112OSM    C2F11663   2.964   7.033  10.367  0.1732 -0.6191  0.2828
  112OSM    H2F11664   3.040   7.096  10.417 -0.3626  0.3692 -0.1319
  112OSM    H2G11665   2.878   7.099  10.341  0.1927 -0.9757 -0.7706
  112OSM    C3F11666   3.028   6.977  10.237 -0.6754  0.1909  1.3674
  112OSM    H3F11667   3.111   6.906  10.262  0.9679  1.6771  0.3433
  112OSM    H3G11668   3.075   7.065  10.189 -0.7495 -1.4607 -1.9824
  112OSM    C4F11669   2.927   6.907  10.146  0.1797 -0.2434 -0.4142
  112OSM    H4F11670   2.854   6.985  10.119  1.8699  1.7392  0.4489
  112OSM    H4G11671   2.873   6.824  10.196 -0.6970  1.5552  1.7787
  112OSM    C5F11672   2.984   6.842  10.016  0.8470 -0.1116  0.3701
  112OSM    H5F11673   3.033   6.745  10.040  0.6670 -0.4714 -0.6826
  112OSM    H5G11674   3.061   6.904   9.965 -0.7381 -0.0099 -2.0763
  112OSM    C6F11675   2.879   6.812   9.905  0.2223 -0.0419  0.5756
  112OSM    H6F11676   2.816   6.728   9.942 -0.0201 -1.9432 -3.5428
  112OSM    H6G11677   2.944   6.781   9.820 -2.2642 -0.6748 -1.1894
  112OSM    C7F11678   2.779   6.933   9.862  0.2483  0.4865  0.0564
  112OSM    H7F11679   2.767   6.922   9.752 -1.6822 -0.4588  0.3027
  112OSM    H7G11680   2.833   7.026   9.888  2.0261 -0.1511 -1.1800
  112OSM    C8F11681   2.645   6.921   9.935 -0.1125  0.7247 -0.7291
  112OSM    H8F11682   2.661   6.932  10.044 -1.0802  1.1020 -0.6088
  112OSM    H8G11683   2.620   6.814   9.919  1.6572  0.1805 -0.0979
  112OSM    C9F11684   2.532   7.012   9.885  0.2740  0.3166 -0.0929
  112OSM    H9F11685   2.539   7.108   9.938 -0.7111  0.3343  0.0086
  112OSM   C10F11686   2.424   6.987   9.814  0.5150 -1.0332 -0.2977
  112OSM   H10F11687   2.368   7.077   9.785  1.0019  0.0028  1.7680
  112OSM   C11F11688   2.376   6.858   9.743  0.2019 -0.9657  0.0442
  112OSM   H11F11689   2.265   6.859   9.739  0.2361  0.0350 -2.3638
  112OSM   H11G11690   2.391   6.769   9.809 -1.3008 -1.4231 -0.1930
  112OSM   C12F11691   2.428   6.813   9.605  0.2727 -0.4524 -0.5554
  112OSM   H12F11692   2.525   6.762   9.623 -0.6146 -3.5278 -3.3781
  112OSM   H12G11693   2.446   6.900   9.539  0.6518  1.0316  1.4312
  112OSM   C13F11694   2.330   6.726   9.532  0.8172  0.4821  0.5658
  112OSM   H13F11695   2.235   6.782   9.520  0.2422  0.1229  2.8277
  112OSM   H13G11696   2.316   6.628   9.583 -2.0168  0.8005  0.5573
  112OSM   C14F11697   2.376   6.688   9.389 -0.2432  0.8284 -0.0808
  112OSM   H14F11698   2.476   6.640   9.396 -0.2515  1.0466  2.8590
  112OSM   H14G11699   2.398   6.781   9.331  1.6859  1.6770  1.8618
  112OSM   C15F11700   2.275   6.596   9.328  0.3228 -0.0245 -0.4937
  112OSM   H15F11701   2.253   6.504   9.385  1.8547 -0.8265 -1.1672
  112OSM   H15G11702   2.320   6.565   9.232  2.4418  0.7881  0.1840
  112OSM   C16F11703   2.144   6.677   9.279 -0.4791  0.1622 -0.3111
  112OSM   H16F11704   2.171   6.767   9.220 -0.4304  0.8711  0.7718
  112OSM   H16G11705   2.084   6.706   9.368  0.0261 -0.9457  0.4141
  112OSM   C17F11706   2.059   6.597   9.181 -0.1091 -0.3958 -0.5375
  112OSM   H17F11707   2.034   6.506   9.239  0.8005  0.5763  1.4674
  112OSM   H17G11708   2.126   6.557   9.101  1.3623 -1.3750  1.0971
  112OSM   C18F11709   1.940   6.671   9.123  0.7229  0.5530  0.5384
  112OSM   H18F11710   1.879   6.687   9.214 -0.0507 -0.6573  0.2499
  112OSM   H18G11711   1.880   6.615   9.048  2.1659  0.9667 -0.9956
  112OSM   H18H11712   1.964   6.771   9.081 -0.3501  1.8033  2.7720
  113OSM      N11713   6.196   2.901  11.134  0.4902 -0.4047  0.5234
  113OSM    C1511714   6.326   2.842  11.180  0.4713 -0.0648 -0.7299
  113OSM   H15A11715   6.400   2.863  11.105  1.7464 -0.5037  0.3697
  113OSM   H15B11716   6.319   2.738  11.208  0.4410  0.1627  0.1529
  113OSM   H15C11717   6.355   2.893  11.270  0.2623 -1.2092  0.0098
  113OSM    C1411718   6.142   2.817  11.023 -0.1496  0.1983  0.3323
  113OSM   H14A11719   6.056   2.855  10.969  0.5313 -3.1068 -3.5830
  113OSM   H14B11720   6.115   2.721  11.064 -0.1833  0.2731  0.4879
  113OSM   H14C11721   6.214   2.797  10.945  0.6244  0.0823  1.0710
  113OSM    C1311722   6.100   2.889  11.250 -0.6001 -0.8861 -0.1134
  113OSM   H13A11723   6.087   2.787  11.282  1.1244 -1.2047 -0.3178
  113OSM   H13B11724   6.004   2.914  11.206  0.7343  0.1380 -2.6844
  113OSM   H13C11725   6.123   2.948  11.337 -0.2850 -0.0166 -0.7702
  113OSM    C1211726   6.206   3.055  11.091 -0.3433  0.6645  0.1239
  113OSM   H12A11727   6.103   3.088  11.083 -1.3301 -1.2426  3.2237
  113OSM   H12B11728   6.266   3.060  11.001 -0.1670  0.8609  0.2518
  113OSM    C1111729   6.263   3.150  11.197 -0.1592  0.1194  0.4536
  113OSM   H11A11730   6.194   3.127  11.281 -0.2163 -1.2356  0.0538
  113OSM   H11B11731   6.258   3.258  11.171  0.4187 -0.0310 -0.3106
  113OSM      P11732   6.505   3.144  11.122  0.4095 -0.1831 -0.0379
  113OSM    O1311733   6.594   3.251  11.174  0.8738  0.0902 -0.4956
  113OSM    O1411734   6.576   3.022  11.091  0.5582 -0.0383  0.3832
  113OSM    O1111735   6.434   3.203  10.994  0.2192  0.1874 -0.2613
  113OSM    O1211736   6.398   3.123  11.231  0.5902  0.2204 -0.5406
  113OSM    C1S11737   6.536   3.225  10.889 -0.3407  0.6442 -0.3063
  113OSM    H1S11738   6.565   3.132  10.836 -1.1970  1.3118 -2.0001
  113OSM    H1T11739   6.629   3.270  10.930 -0.3902  0.1038  0.4271
  113OSM     NF11740   6.601   3.339  10.676 -0.0491  0.5462  0.3728
  113OSM    HNF11741   6.659   3.417  10.699  1.1598  0.0203 -0.7697
  113OSM    C2S11742   6.495   3.314  10.768  0.1306  0.8773 -0.3415
  113OSM    H2S11743   6.423   3.254  10.708  0.9787 -0.2144 -0.3059
  113OSM    C3S11744   6.419   3.438  10.818 -0.7827  0.3751 -0.3498
  113OSM    H3S11745   6.479   3.501  10.887 -1.6487  0.8776 -0.0336
  113OSM     O311746   6.308   3.404  10.900  0.0171 -0.4767 -0.0951
  113OSM    HO311747   6.335   3.313  10.914  1.9831 -0.0417 -0.7528
  113OSM    C4S11748   6.354   3.523  10.716  0.3774  0.6360  0.5195
  113OSM    H4S11749   6.303   3.459  10.642  2.2256 -2.8364  2.0040
  113OSM    C5S11750   6.357   3.659  10.706  0.5482  0.6721  0.3373
  113OSM    H5S11751   6.411   3.729  10.772  0.4637  0.8021  0.2691
  113OSM    C6S11752   6.287   3.728  10.586 -0.3374  0.7849 -0.2874
  113OSM    H6S11753   6.348   3.815  10.556 -1.1193  1.4767  0.0810
  113OSM    H6T11754   6.184   3.755  10.618 -1.0563 -0.5863 -1.3674
  113OSM    C7S11755   6.254   3.649  10.453 -0.2836  0.5939  0.3707
  113OSM    H7S11756   6.188   3.708  10.385 -0.9858 -1.4219 -0.7737
  113OSM    H7T11757   6.193   3.564  10.490 -1.5832  1.7727  1.0776
  113OSM    C8S11758   6.378   3.604  10.370  0.0024 -0.0438  0.8044
  113OSM    H8S11759   6.448   3.543  10.430  2.0096  1.1562 -0.2035
  113OSM    H8T11760   6.434   3.697  10.349  1.3718 -1.3847 -2.1168
  113OSM    C9S11761   6.326   3.539  10.237  0.5094  0.0270  0.7571
  113OSM    H9S11762   6.216   3.541  10.225  0.4370 -1.1923  1.1527
  113OSM    H9T11763   6.352   3.432  10.225 -1.8404 -0.6981  1.6835
  113OSM   C10S11764   6.393   3.610  10.109  0.0325  0.0063  0.5623
  113OSM   H10S11765   6.493   3.652  10.132 -0.3385  1.5301 -0.4934
  113OSM   H10T11766   6.345   3.709  10.097  2.4866  1.2595  0.5022
  113OSM   C11S11767   6.397   3.524   9.987  0.2566  0.2371 -0.3179
  113OSM   H11S11768   6.305   3.462   9.992  0.1280  0.2948 -1.7137
  113OSM   H11T11769   6.476   3.445   9.985 -1.2459 -1.3028 -1.0400
  113OSM   C12S11770   6.399   3.606   9.852 -0.0921  0.2960 -0.1963
  113OSM   H12S11771   6.496   3.649   9.822  0.2552 -1.6751 -2.1890
  113OSM   H12T11772   6.332   3.694   9.863  0.5569  0.6544  0.9789
  113OSM   C13S11773   6.354   3.523   9.737 -0.0772 -0.0464 -0.3946
  113OSM   H13S11774   6.247   3.500   9.756 -0.0057  0.5479  0.8637
  113OSM   H13T11775   6.414   3.430   9.726  1.2712  0.6419  0.7967
  113OSM   C14S11776   6.358   3.601   9.605  0.3364 -0.3374 -0.4291
  113OSM   H14S11777   6.461   3.619   9.568 -0.5295  0.5091 -2.6102
  113OSM   H14T11778   6.327   3.707   9.619  3.4222  0.6994 -0.8209
  113OSM   C15S11779   6.290   3.523   9.488  0.1729 -0.0139 -0.3931
  113OSM   H15S11780   6.183   3.505   9.513 -0.5228  3.3875 -0.4372
  113OSM   H15T11781   6.324   3.419   9.468 -0.0418 -0.1305 -0.1475
  113OSM   C16S11782   6.302   3.611   9.359  0.1344  0.5687 -0.1252
  113OSM   H16S11783   6.408   3.643   9.348  0.1713  0.1771 -0.9635
  113OSM   H16T11784   6.245   3.705   9.372  3.1169  2.3416  1.4408
  113OSM   C17S11785   6.253   3.535   9.234  0.2907  0.1799 -0.3997
  113OSM   H17S11786   6.146   3.510   9.251 -0.0631  2.4446  1.2275
  113OSM   H17T11787   6.305   3.437   9.228  0.8585  0.4164  0.4502
  113OSM   C18S11788   6.285   3.602   9.106 -0.1419 -0.8096 -0.1471
  113OSM   H18S11789   6.210   3.682   9.089  0.4612 -0.0317  0.7559
  113OSM   H18T11790   6.302   3.541   9.015 -0.5327 -2.3907  0.8045
  113OSM   H18U11791   6.386   3.646   9.118  0.0369 -0.6708 -1.8635
  113OSM    C1F11792   6.647   3.242  10.596 -0.3017 -0.1242  0.1898
  113OSM     OF11793   6.603   3.126  10.581  0.0717 -0.0607  0.1114
  113OSM    C2F11794   6.765   3.275  10.511 -0.4532 -0.0444  0.3508
  113OSM    H2F11795   6.787   3.183  10.453 -1.8209  0.0257 -0.3025
  113OSM    H2G11796   6.842   3.308  10.584  0.1154 -0.3210 -0.1168
  113OSM    C3F11797   6.744   3.392  10.414  0.1848 -0.0462  0.8639
  113OSM    H3F11798   6.688   3.471  10.468 -1.6896 -0.9498  0.3112
  113OSM    H3G11799   6.672   3.374  10.331 -2.3069  2.2983  2.3770
  113OSM    C4F11800   6.873   3.438  10.346 -0.0689  0.1826  0.3084
  113OSM    H4F11801   6.943   3.470  10.426  2.2005  0.0499 -1.4971
  113OSM    H4G11802   6.853   3.534  10.294 -0.5497 -0.3109 -0.4568
  113OSM    C5F11803   6.939   3.323  10.263  0.2340 -0.7386 -0.4678
  113OSM    H5F11804   6.961   3.230  10.320  0.1718  0.6497  1.9490
  113OSM    H5G11805   7.036   3.371  10.234 -0.6220  1.3314 -0.1048
  113OSM    C6F11806   6.862   3.282  10.144  0.3875 -0.0794 -0.6164
  113OSM    H6F11807   6.766   3.240  10.182  0.4908  1.0804  1.0372
  113OSM    H6G11808   6.911   3.189  10.106  1.5557  1.1937 -2.3940
  113OSM    C7F11809   6.842   3.394  10.043  0.0924  0.6112  0.0505
  113OSM    H7F11810   6.934   3.451  10.016  0.6143  0.5270  1.5885
  113OSM    H7G11811   6.767   3.469  10.077 -0.4282 -0.0581  0.3821
  113OSM    C8F11812   6.775   3.335   9.917  0.5562  0.0748 -0.2096
  113OSM    H8F11813   6.689   3.273   9.949 -0.6418  1.7894  0.0201
  113OSM    H8G11814   6.845   3.270   9.859 -0.1890  1.3238 -2.6510
  113OSM    C9F11815   6.725   3.446   9.825 -0.3701  0.0073 -0.2259
  113OSM    H9F11816   6.657   3.520   9.869  0.1690  0.1469  0.3849
  113OSM   C10F11817   6.754   3.460   9.690  0.0105 -0.2952 -0.6786
  113OSM   H10F11818   6.700   3.546   9.647 -3.3335 -1.0349  1.6992
  113OSM   C11F11819   6.831   3.367   9.604  0.6877 -0.9816 -0.1056
  113OSM   H11F11820   6.897   3.295   9.658  0.4523 -3.6130 -3.0284
  113OSM   H11G11821   6.901   3.426   9.542 -0.5306  0.9208  0.2562
  113OSM   C12F11822   6.737   3.285   9.517 -0.4453 -0.1368 -0.6479
  113OSM   H12F11823   6.653   3.244   9.577 -2.8075  0.5443 -3.2596
  113OSM   H12G11824   6.795   3.206   9.466 -2.3477 -2.7295  0.9655
  113OSM   C13F11825   6.663   3.360   9.401 -0.1965 -0.3636  0.4340
  113OSM   H13F11826   6.738   3.417   9.342 -1.3575  1.4415  0.6145
  113OSM   H13G11827   6.593   3.433   9.446  0.8345  1.5177 -0.8503
  113OSM   C14F11828   6.591   3.275   9.298 -0.0980 -0.2251 -0.3577
  113OSM   H14F11829   6.487   3.266   9.337  0.1611  0.2882  0.4679
  113OSM   H14G11830   6.622   3.169   9.294  0.4371 -0.0308 -1.7431
  113OSM   C15F11831   6.574   3.338   9.156  0.0876 -0.7410  0.2845
  113OSM   H15F11832   6.674   3.342   9.108 -0.1640 -0.5635 -0.2411
  113OSM   H15G11833   6.531   3.439   9.174  1.2589 -0.3932  1.1830
  113OSM   C16F11834   6.489   3.257   9.059  0.4786 -0.3923  0.1163
  113OSM   H16F11835   6.384   3.272   9.094  0.6977 -0.3247  0.7551
  113OSM   H16G11836   6.512   3.149   9.071 -1.5792 -0.7656  1.2236
  113OSM   C17F11837   6.487   3.306   8.916 -0.3268  0.7752 -0.0353
  113OSM   H17F11838   6.582   3.271   8.871 -0.6277  0.6255 -0.5670
  113OSM   H17G11839   6.483   3.417   8.911  1.8639  0.8590 -1.5161
  113OSM   C18F11840   6.377   3.244   8.821  0.8671 -0.1260  0.5212
  113OSM   H18F11841   6.351   3.137   8.833 -1.1933  0.5475  2.7726
  113OSM   H18G11842   6.389   3.271   8.713  0.9969 -2.0092  0.0290
  113OSM   H18H11843   6.282   3.289   8.855 -0.0373  0.0112 -1.9389
  114OSM      N11844   2.631   2.234  11.200  0.3367  0.6603  0.0528
  114OSM    C1511845   2.601   2.269  11.343  0.4659 -0.1602 -0.3137
  114OSM   H15A11846   2.660   2.221  11.419  0.5620 -0.1110 -0.3556
  114OSM   H15B11847   2.503   2.236  11.372  0.0298  0.0730 -1.4377
  114OSM   H15C11848   2.617   2.376  11.353  2.9579 -0.4587 -0.2552
  114OSM    C1411849   2.551   2.306  11.111  0.7021  0.9198  0.5683
  114OSM   H14A11850   2.451   2.270  11.128  1.0646 -0.4440 -0.0406
  114OSM   H14B11851   2.566   2.283  11.007  0.6087  1.0621  0.5243
  114OSM   H14C11852   2.553   2.413  11.120  0.6180  0.9381  0.3710
  114OSM    C1311853   2.765   2.285  11.168  0.4612  0.3482 -0.1868
  114OSM   H13A11854   2.799   2.244  11.074 -2.6238 -1.4389 -0.6201
  114OSM   H13B11855   2.835   2.253  11.244  0.2029 -0.2069 -0.1822
  114OSM   H13C11856   2.767   2.393  11.159  1.2525  0.4842  1.3993
  114OSM    C1211857   2.622   2.076  11.179 -1.0084  0.1520 -0.8294
  114OSM   H12A11858   2.524   2.039  11.206 -0.4186 -0.6156  0.3015
  114OSM   H12B11859   2.699   2.033  11.241 -3.3213 -1.5501  1.0241
  114OSM    C1111860   2.648   2.029  11.035 -0.3539  0.2898  0.5764
  114OSM   H11A11861   2.643   1.918  11.044 -0.3227  0.2403  0.0031
  114OSM   H11B11862   2.754   2.054  11.010 -1.0511  1.7596 -1.0358
  114OSM      P11863   2.428   1.998  10.898 -0.3971  0.3509  0.1262
  114OSM    O1311864   2.378   1.933  11.019  0.1317  0.1691 -0.2714
  114OSM    O1411865   2.334   2.081  10.819  0.2791  0.2950 -0.6873
  114OSM    O1111866   2.487   1.887  10.807 -0.2614  0.9087 -0.6246
  114OSM    O1211867   2.560   2.083  10.929 -0.2536  0.7431 -0.0026
  114OSM    C1S11868   2.550   1.908  10.679 -0.6084  0.1389 -0.2132
  114OSM    H1S11869   2.638   1.975  10.692 -1.3672  0.6813  2.7352
  114OSM    H1T11870   2.481   1.965  10.613 -2.3457  0.4280  1.7408
  114OSM     NF11871   2.658   1.786  10.489  0.3497 -0.0475 -0.3803
  114OSM    HNF11872   2.621   1.781  10.397  0.4521 -0.7074 -0.3869
  114OSM    C2S11873   2.572   1.767  10.606  0.2548 -0.3402  0.1719
  114OSM    H2S11874   2.615   1.694  10.678  0.2758  1.5449  2.1827
  114OSM    C3S11875   2.436   1.704  10.560 -0.4467  0.0793  0.0919
  114OSM    H3S11876   2.385   1.785  10.503 -0.8343  1.0302  1.7060
  114OSM     O311877   2.341   1.661  10.665 -0.0869 -0.2021 -0.3388
  114OSM    HO311878   2.373   1.706  10.743  3.9265  2.1589 -3.0126
  114OSM    C4S11879   2.463   1.579  10.477  0.0599  0.0575 -0.5990
  114OSM    H4S11880   2.531   1.500  10.511 -0.6700 -0.4209 -0.2376
  114OSM    C5S11881   2.418   1.567  10.349  0.0073  0.4395  0.4154
  114OSM    H5S11882   2.339   1.638  10.322  0.4344  1.4145  1.5842
  114OSM    C6S11883   2.434   1.443  10.258 -0.6135  0.0081 -0.1495
  114OSM    H6S11884   2.518   1.468  10.190 -1.1094  2.1031 -0.0639
  114OSM    H6T11885   2.340   1.441  10.200 -0.0450  0.5927 -1.1137
  114OSM    C7S11886   2.451   1.303  10.316 -0.7560 -0.1301 -0.1613
  114OSM    H7S11887   2.380   1.282  10.399 -0.3710 -2.8533 -0.4071
  114OSM    H7T11888   2.552   1.293  10.362 -0.7527 -1.2839 -0.3835
  114OSM    C8S11889   2.415   1.190  10.222  0.4343  0.1446  0.4049
  114OSM    H8S11890   2.313   1.209  10.182 -0.3231 -0.5896  1.9003
  114OSM    H8T11891   2.421   1.093  10.276 -0.9455  0.9921  2.1811
  114OSM    C9S11892   2.510   1.182  10.103 -0.6420 -0.1846 -0.3083
  114OSM    H9S11893   2.593   1.113  10.129 -1.1493 -0.4434  0.6762
  114OSM    H9T11894   2.559   1.282  10.105  0.0082 -0.4927  1.5951
  114OSM   C10S11895   2.439   1.157   9.967  1.0306  0.5199 -0.2371
  114OSM   H10S11896   2.353   1.226   9.952  0.6226  0.4712  1.6052
  114OSM   H10T11897   2.395   1.055   9.963  0.0345  0.9684 -1.4395
  114OSM   C11S11898   2.532   1.153   9.847 -0.3454  1.0359 -0.2699
  114OSM   H11S11899   2.600   1.065   9.842  0.1736  1.4629 -0.8876
  114OSM   H11T11900   2.607   1.234   9.858 -0.7348  1.2331  1.1749
  114OSM   C12S11901   2.465   1.168   9.715 -0.5091  0.5048  0.5637
  114OSM   H12S11902   2.404   1.261   9.710 -2.4656 -0.8069 -1.4024
  114OSM   H12T11903   2.390   1.086   9.719  0.0457 -0.0059  0.6473
  114OSM   C13S11904   2.564   1.164   9.599  0.5464  0.2500 -0.3529
  114OSM   H13S11905   2.640   1.085   9.613  0.9919  0.9521  1.3733
  114OSM   H13T11906   2.616   1.261   9.604  0.0396  0.4995  0.2614
  114OSM   C14S11907   2.504   1.147   9.460  1.0265  0.0651  0.6824
  114OSM   H14S11908   2.464   1.243   9.421  1.5569  0.6078  1.4542
  114OSM   H14T11909   2.421   1.074   9.462  0.5085  0.6515  0.8571
  114OSM   C15S11910   2.605   1.101   9.349  0.3011 -0.2326 -0.1422
  114OSM   H15S11911   2.631   0.995   9.370 -0.2568 -0.2000  0.8122
  114OSM   H15T11912   2.696   1.158   9.374 -0.3699  0.7932  0.0103
  114OSM   C16S11913   2.539   1.111   9.209 -1.0351  0.0081  0.1661
  114OSM   H16S11914   2.517   1.218   9.193  3.3653  1.1227  0.4048
  114OSM   H16T11915   2.441   1.059   9.208 -0.9508 -0.1693 -0.9764
  114OSM   C17S11916   2.630   1.052   9.100  0.2242 -0.3488  0.0408
  114OSM   H17S11917   2.723   1.113   9.097  0.2050 -0.3212  0.0040
  114OSM   H17T11918   2.589   1.070   8.999  0.2275 -0.8948 -0.0606
  114OSM   C18S11919   2.662   0.902   9.105  0.4237  0.1006 -0.2135
  114OSM   H18S11920   2.568   0.845   9.086 -0.6528  1.2600  1.2814
  114OSM   H18T11921   2.705   0.867   9.201  0.0258  0.6748  0.1848
  114OSM   H18U11922   2.744   0.891   9.032  0.0139 -0.9494 -0.5231
  114OSM    C1F11923   2.787   1.822  10.499 -0.7875 -0.2789  0.8541
  114OSM     OF11924   2.846   1.826  10.606 -0.4214  0.1366  0.4980
  114OSM    C2F11925   2.857   1.854  10.370 -0.2938  0.6818  0.3613
  114OSM    H2F11926   2.835   1.958  10.336  3.7695  1.2442 -1.2004
  114OSM    H2G11927   2.818   1.784  10.293 -0.2660  0.9158  0.1300
  114OSM    C3F11928   3.012   1.833  10.380 -0.5380  0.4123 -0.4570
  114OSM    H3F11929   3.031   1.738  10.433 -2.6804 -0.4268 -1.0800
  114OSM    H3G11930   3.057   1.926  10.422 -1.7829  0.4708  0.8317
  114OSM    C4F11931   3.075   1.811  10.240  0.7389  0.3082 -0.2907
  114OSM    H4F11932   3.034   1.714  10.208  1.9162 -0.4922  0.5362
  114OSM    H4G11933   3.186   1.807  10.236  0.6916 -2.1888 -0.3990
  114OSM    C5F11934   3.027   1.923  10.142 -0.6966  0.0710 -0.2230
  114OSM    H5F11935   3.038   2.023  10.190 -0.2981 -0.2009  0.2547
  114OSM    H5G11936   2.921   1.907  10.114 -0.3798 -0.9270 -0.9068
  114OSM    C6F11937   3.098   1.913  10.003 -0.2773  0.3239  0.0139
  114OSM    H6F11938   3.205   1.939  10.014  0.0372 -0.9414  0.0645
  114OSM    H6G11939   3.047   1.984   9.934 -2.2351 -0.6292  0.3855
  114OSM    C7F11940   3.085   1.770   9.931 -0.5119  0.3270 -0.4666
  114OSM    H7F11941   2.987   1.732   9.966  0.5447 -1.6498  0.5374
  114OSM    H7G11942   3.160   1.700   9.974 -1.6393  0.3275  1.6270
  114OSM    C8F11943   3.085   1.759   9.776 -0.0008  0.2617 -0.0204
  114OSM    H8F11944   3.017   1.844   9.755  2.0510  1.5356 -1.9332
  114OSM    H8G11945   3.030   1.667   9.745 -0.9052 -0.1085  2.3877
  114OSM    C9F11946   3.218   1.784   9.707  0.2442  0.2760 -0.5649
  114OSM    H9F11947   3.288   1.838   9.773  1.1899 -0.0596 -1.2601
  114OSM   C10F11948   3.261   1.730   9.591 -0.0684  0.2776  0.4494
  114OSM   H10F11949   3.356   1.774   9.559 -0.4699  1.5747  0.9420
  114OSM   C11F11950   3.180   1.652   9.490 -0.1688 -0.4139 -0.3887
  114OSM   H11F11951   3.074   1.643   9.523 -0.8860 -1.1650 -2.6701
  114OSM   H11G11952   3.225   1.550   9.485 -0.8900 -0.7898  0.5363
  114OSM   C12F11953   3.165   1.708   9.347 -0.0015  0.5950  0.3412
  114OSM   H12F11954   3.255   1.705   9.281  0.1985 -1.5402  0.6330
  114OSM   H12G11955   3.138   1.815   9.345  3.1933  1.5235 -2.3284
  114OSM   C13F11956   3.070   1.610   9.275  0.2912  0.1769 -0.0259
  114OSM   H13F11957   2.966   1.629   9.311 -0.5059  2.0621 -2.9314
  114OSM   H13G11958   3.092   1.506   9.307  0.0315 -0.1960 -1.0232
  114OSM   C14F11959   3.071   1.614   9.117  0.5473  0.3587  0.3647
  114OSM   H14F11960   3.178   1.617   9.089  0.7046 -0.1794  0.9060
  114OSM   H14G11961   3.022   1.709   9.087 -0.9046 -0.6429 -0.5791
  114OSM   C15F11962   3.000   1.486   9.055 -0.1189 -1.1485 -0.7310
  114OSM   H15F11963   2.912   1.466   9.121 -0.9001  0.4243 -1.2651
  114OSM   H15G11964   3.072   1.401   9.054 -0.8176 -1.7837  0.4212
  114OSM   C16F11965   2.964   1.497   8.899 -0.5083 -0.6568 -0.2158
  114OSM   H16F11966   3.062   1.522   8.853 -1.3964 -0.3976 -2.0424
  114OSM   H16G11967   2.898   1.583   8.877  0.6366 -0.1817 -2.0230
  114OSM   C17F11968   2.902   1.368   8.833 -0.9907  0.3471 -0.6693
  114OSM   H17F11969   2.944   1.289   8.898 -0.6387  1.6226  0.7179
  114OSM   H17G11970   2.935   1.352   8.728 -0.6849 -0.9304 -0.3942
  114OSM   C18F11971   2.747   1.376   8.840 -0.2916 -0.1829  0.0703
  114OSM   H18F11972   2.719   1.381   8.947 -0.0826 -0.3720  0.1331
  114OSM   H18G11973   2.704   1.278   8.807  0.8732 -1.5370  2.3367
  114OSM   H18H11974   2.705   1.465   8.789  0.9476  0.5818  0.3715
  115OSM      N11975   6.219   3.924  11.282 -0.6336  0.4506 -0.0856
  115OSM    C1511976   6.279   3.902  11.415  0.0351  0.3321 -0.1365
  115OSM   H15A11977   6.362   3.833  11.416 -0.2192 -0.0304  1.9999
  115OSM   H15B11978   6.196   3.865  11.473 -0.1055  0.4300 -0.2741
  115OSM   H15C11979   6.319   3.993  11.455 -0.8660  0.5677  0.2608
  115OSM    C1411980   6.140   3.802  11.237  0.2211 -0.7555  0.9512
  115OSM   H14A11981   6.191   3.715  11.275 -0.7612 -1.1069  1.4851
  115OSM   H14B11982   6.154   3.795  11.131 -0.0388  0.2407  0.8393
  115OSM   H14C11983   6.039   3.793  11.273 -0.8966 -1.7599 -2.1924
  115OSM    C1311984   6.133   4.042  11.297 -0.5302 -0.0783 -0.0001
  115OSM   H13A11985   6.033   4.019  11.330 -1.3617  1.2215 -1.4660
  115OSM   H13B11986   6.111   4.081  11.199  2.5982  1.3675 -0.2490
  115OSM   H13C11987   6.169   4.130  11.347 -2.6342 -0.8554  3.1564
  115OSM    C1211988   6.338   3.940  11.180  0.5764 -0.2080 -0.3060
  115OSM   H12A11989   6.378   3.843  11.153  0.7555 -0.3930  0.5982
  115OSM   H12B11990   6.427   3.990  11.216  0.5860 -1.1060  0.9866
  115OSM    C1111991   6.302   4.012  11.045  0.0161  0.2824  0.8092
  115OSM   H11A11992   6.212   3.966  11.000  0.7935 -1.7079  1.1982
  115OSM   H11B11993   6.384   3.985  10.975  2.1868 -1.0574  3.6572
  115OSM      P11994   6.398   4.254  11.064  0.0224 -0.0950 -0.3176
  115OSM    O1311995   6.351   4.395  11.067  0.6305 -0.4596 -0.0577
  115OSM    O1411996   6.477   4.222  11.182  0.1929  0.2829 -0.4777
  115OSM    O1111997   6.485   4.224  10.932  1.0185 -0.3110  0.0835
  115OSM    O1211998   6.279   4.151  11.057 -0.6739  0.5568  0.2733
  115OSM    C1S11999   6.410   4.255  10.812  0.2013 -0.0318  0.3876
  115OSM    H1S12000   6.393   4.365  10.809 -0.3810 -0.1111  0.5482
  115OSM    H1T12001   6.319   4.196  10.785 -0.0494  1.1285 -1.4735
  115OSM     NF12002   6.471   4.298  10.575 -0.0382  0.5080 -0.4806
  115OSM    HNF12003   6.427   4.245  10.502 -1.0842  1.3875 -0.5206
  115OSM    C2S12004   6.507   4.228  10.694 -0.1884  0.1240  0.3015
  115OSM    H2S12005   6.609   4.268  10.716 -0.2360  1.5528 -1.8272
  115OSM    C3S12006   6.523   4.070  10.686  0.6648  0.0633 -0.2573
  115OSM    H3S12007   6.420   4.029  10.682  1.2328 -1.2936 -2.0125
  115OSM     O312008   6.582   4.018  10.801 -0.6362 -0.1792 -0.2493
  115OSM    HO312009   6.553   4.081  10.867 -1.0463 -2.9865  2.4381
  115OSM    C4S12010   6.598   4.027  10.560  0.0674 -0.4045  0.0403
  115OSM    H4S12011   6.528   3.980  10.489 -1.1692  0.6023  0.5515
  115OSM    C5S12012   6.726   4.055  10.526  0.4291  0.4554  0.7874
  115OSM    H5S12013   6.792   4.092  10.606 -0.3900 -2.1734  2.8369
  115OSM    C6S12014   6.797   4.023  10.399  0.1815 -0.3555 -0.1253
  115OSM    H6S12015   6.867   3.937  10.406  0.7192  0.1170  0.3771
  115OSM    H6T12016   6.866   4.108  10.380  3.5358 -2.3564  1.9316
  115OSM    C7S12017   6.704   4.005  10.279  1.7021  0.4040 -0.4986
  115OSM    H7S12018   6.647   4.096  10.251  1.9962  0.8250  0.2284
  115OSM    H7T12019   6.631   3.923  10.296  0.8803  1.3872  0.9471
  115OSM    C8S12020   6.782   3.968  10.156 -0.0743 -0.4908  0.5572
  115OSM    H8S12021   6.828   3.867  10.168 -3.4876 -2.6739 -2.4318
  115OSM    H8T12022   6.860   4.045  10.143 -1.3181  1.1182  2.1733
  115OSM    C9S12023   6.687   3.966  10.035 -0.0386  0.2917 -0.6496
  115OSM    H9S12024   6.647   4.069  10.023 -0.5449  0.3915  1.4977
  115OSM    H9T12025   6.603   3.898  10.059 -0.0895 -0.3475 -2.4943
  115OSM   C10S12026   6.760   3.925   9.905 -0.3375 -0.6756  0.1827
  115OSM   H10S12027   6.818   3.830   9.918 -1.0310 -1.1414 -0.0757
  115OSM   H10T12028   6.833   4.008   9.894 -0.5786 -0.5046 -0.1242
  115OSM   C11S12029   6.670   3.911   9.780 -0.2525 -0.0254 -0.5982
  115OSM   H11S12030   6.631   4.013   9.759  0.7625  0.7541  1.0879
  115OSM   H11T12031   6.584   3.849   9.815  0.4573 -0.3365  0.6889
  115OSM   C12S12032   6.736   3.859   9.653 -0.2942  0.0484 -0.0149
  115OSM   H12S12033   6.745   3.750   9.674 -1.7255 -0.7028 -2.7417
  115OSM   H12T12034   6.837   3.904   9.642 -0.4448  0.4337  0.1645
  115OSM   C13S12035   6.650   3.862   9.519  0.5654 -0.3752  0.0459
  115OSM   H13S12036   6.574   3.940   9.539  1.4958  0.8880 -1.1787
  115OSM   H13T12037   6.591   3.767   9.515 -0.0923  0.0241  0.1573
  115OSM   C14S12038   6.732   3.862   9.386 -0.0222  0.0341  0.7217
  115OSM   H14S12039   6.811   3.784   9.392  1.7692  1.7973  1.3685
  115OSM   H14T12040   6.780   3.959   9.361 -0.9223 -0.0805 -1.6925
  115OSM   C15S12041   6.634   3.844   9.264  0.1616  0.0977 -0.6845
  115OSM   H15S12042   6.576   3.939   9.253 -0.7493 -0.5912 -2.1464
  115OSM   H15T12043   6.567   3.761   9.295 -1.4248  1.4045 -0.4178
  115OSM   C16S12044   6.707   3.810   9.137 -0.3581 -0.0472 -0.0092
  115OSM   H16S12045   6.770   3.720   9.156  1.2477  0.3250 -3.0376
  115OSM   H16T12046   6.788   3.884   9.122  0.4027 -1.1497 -1.6662
  115OSM   C17S12047   6.633   3.809   9.014  0.3344 -0.0773 -0.5732
  115OSM   H17S12048   6.551   3.735   9.026  0.0712  0.4326  0.9992
  115OSM   H17T12049   6.703   3.790   8.930  1.5914 -1.3409  0.7203
  115OSM   C18S12050   6.557   3.937   8.982 -0.6636 -0.5381  0.0800
  115OSM   H18S12051   6.611   4.032   9.001 -2.6273  0.9245 -1.1394
  115OSM   H18T12052   6.463   3.942   9.041  0.0766  1.4824  1.1924
  115OSM   H18U12053   6.540   3.938   8.872  1.8600 -0.6266 -0.3709
  115OSM    C1F12054   6.472   4.429  10.558  0.0271 -0.4353  0.3742
  115OSM     OF12055   6.513   4.503  10.641 -0.6628  0.2595 -0.3023
  115OSM    C2F12056   6.411   4.471  10.430  0.1272  0.1682  0.3869
  115OSM    H2F12057   6.300   4.477  10.427  0.2027  4.6598 -0.9004
  115OSM    H2G12058   6.439   4.393  10.356 -0.6820  0.9986 -0.8382
  115OSM    C3F12059   6.462   4.602  10.361 -0.6104  0.1364 -0.8174
  115OSM    H3F12060   6.570   4.619  10.377 -0.9214 -0.4767  2.6679
  115OSM    H3G12061   6.414   4.685  10.418 -0.2800 -0.0521 -0.2567
  115OSM    C4F12062   6.436   4.598  10.209  0.3616 -0.7367 -0.4384
  115OSM    H4F12063   6.329   4.578  10.188  0.1950  1.0720 -1.4945
  115OSM    H4G12064   6.509   4.527  10.164  0.0031 -1.9159  0.7749
  115OSM    C5F12065   6.462   4.739  10.155  0.2571 -0.9596 -0.0848
  115OSM    H5F12066   6.571   4.755  10.172  0.4084 -0.5079 -1.3697
  115OSM    H5G12067   6.402   4.802  10.223 -0.2892 -2.4141  0.8169
  115OSM    C6F12068   6.425   4.768  10.009  0.0309  0.8076  0.0006
  115OSM    H6F12069   6.435   4.877   9.993  0.4175  0.8392  0.4286
  115OSM    H6G12070   6.319   4.748   9.983  0.2369  0.0015 -0.2405
  115OSM    C7F12071   6.518   4.689   9.900  0.4357 -0.9845 -0.1439
  115OSM    H7F12072   6.482   4.585   9.889 -2.2243  0.0850 -2.6327
  115OSM    H7G12073   6.625   4.688   9.933  1.5270 -1.3360 -3.3330
  115OSM    C8F12074   6.515   4.746   9.755 -0.0295  0.3161  0.9330
  115OSM    H8F12075   6.582   4.678   9.699  0.5969  1.4364  0.2985
  115OSM    H8G12076   6.556   4.849   9.750  0.2521  0.1971  0.7858
  115OSM    C9F12077   6.375   4.745   9.693 -0.4205  0.6594 -0.1678
  115OSM    H9F12078   6.291   4.724   9.761  1.1887 -3.3081  0.9441
  115OSM   C10F12079   6.345   4.747   9.558 -0.5234  0.3192 -0.0225
  115OSM   H10F12080   6.242   4.763   9.523 -1.1251  0.3821  1.6990
  115OSM   C11F12081   6.450   4.745   9.444 -0.8741 -0.0317  0.3563
  115OSM   H11F12082   6.458   4.650   9.387  2.6356  0.6241 -0.5005
  115OSM   H11G12083   6.552   4.767   9.482 -1.2481 -0.8230  1.9085
  115OSM   C12F12084   6.422   4.863   9.344  0.3058  0.2530  0.7078
  115OSM   H12F12085   6.417   4.960   9.399 -1.4683  0.7536 -0.2453
  115OSM   H12G12086   6.326   4.845   9.291  1.1874 -2.2492 -0.1519
  115OSM   C13F12087   6.536   4.881   9.252 -0.3133 -0.0528  0.4197
  115OSM   H13F12088   6.576   4.785   9.214  2.2252  2.0164 -2.6343
  115OSM   H13G12089   6.620   4.924   9.310  0.1619  0.5312 -0.6632
  115OSM   C14F12090   6.510   4.983   9.139 -0.3038  0.6949 -1.1460
  115OSM   H14F12091   6.494   5.079   9.192 -4.6266 -0.8198  0.7436
  115OSM   H14G12092   6.408   4.953   9.106 -0.3570 -2.3925  1.3322
  115OSM   C15F12093   6.623   4.978   9.047  0.0113 -0.6390 -0.0806
  115OSM   H15F12094   6.645   4.874   9.016  0.8854  0.3948 -3.3330
  115OSM   H15G12095   6.714   4.997   9.108 -0.4490 -2.0629  1.1062
  115OSM   C16F12096   6.599   5.073   8.935 -0.0293  0.5442  0.4405
  115OSM   H16F12097   6.580   5.177   8.970 -1.7110  0.6482 -0.6566
  115OSM   H16G12098   6.508   5.032   8.886 -1.1390  1.2830  1.7957
  115OSM   C17F12099   6.730   5.078   8.838  0.2245  0.6235 -1.9701
  115OSM   H17F12100   6.821   5.093   8.900 -1.4907 -2.2089  1.6116
  115OSM   H17G12101   6.733   5.158   8.761  0.6976  1.2740 -1.2887
  115OSM   C18F12102   6.766   4.941   8.775  0.4135  0.1122 -0.1334
  115OSM   H18F12103   6.856   4.958   8.713  0.5948 -0.6503 -0.0900
  115OSM   H18G12104   6.681   4.898   8.718  0.8392 -1.3078  0.2589
  115OSM   H18H12105   6.789   4.866   8.853 -0.9570 -1.4014 -1.1237
  116OSM      N12106   1.018   2.702  11.192 -0.3228 -0.3823  0.3066
  116OSM    C1512107   1.012   2.566  11.258 -0.1101  0.9979  0.1357
  116OSM   H15A12108   1.086   2.557  11.336  0.8214 -2.2459 -0.9556
  116OSM   H15B12109   1.043   2.487  11.191  1.3680  1.3955  0.3181
  116OSM   H15C12110   0.917   2.550  11.307 -0.9690 -0.5996 -1.8853
  116OSM    C1412111   0.909   2.699  11.078 -0.0811 -0.4951  0.2765
  116OSM   H14A12112   0.819   2.660  11.124 -0.3578  1.2582  1.3045
  116OSM   H14B12113   0.935   2.630  11.000 -0.8009  1.0393 -1.3997
  116OSM   H14C12114   0.900   2.800  11.042  0.5749 -0.1231  1.1289
  116OSM    C1312115   0.986   2.806  11.293 -0.1828 -0.6934  0.2084
  116OSM   H13A12116   1.060   2.822  11.370 -0.5453  0.0005  0.4185
  116OSM   H13B12117   0.897   2.786  11.350  0.4592 -0.6040  1.2672
  116OSM   H13C12118   0.969   2.901  11.245 -1.9671 -1.0393  0.0936
  116OSM    C1212119   1.151   2.731  11.124 -0.0713  0.0684  0.1481
  116OSM   H12A12120   1.148   2.675  11.032 -1.1576 -4.4239  2.5723
  116OSM   H12B12121   1.227   2.673  11.175  0.5668 -0.7572 -1.6585
  116OSM    C1112122   1.196   2.879  11.105  0.4673 -0.4614  0.0784
  116OSM   H11A12123   1.276   2.867  11.028  1.0095  2.5525  0.0728
  116OSM   H11B12124   1.246   2.921  11.195  0.3253 -1.0270  0.4281
  116OSM      P12125   1.087   3.050  10.931  0.1299  0.2733  0.2521
  116OSM    O1312126   0.961   3.043  10.854 -0.2471 -0.0716 -0.3864
  116OSM    O1412127   1.131   3.185  10.967 -0.0760 -0.6318 -0.5054
  116OSM    O1112128   1.201   2.996  10.841  0.6133  0.1217 -0.4254
  116OSM    O1212129   1.088   2.960  11.061 -0.4970 -0.0385  0.0035
  116OSM    C1S12130   1.181   2.878  10.766 -0.2754  0.9296 -0.0375
  116OSM    H1S12131   1.076   2.842  10.769 -0.0624  0.3634  1.1656
  116OSM    H1T12132   1.253   2.800  10.801  0.0139  0.2311 -2.0549
  116OSM     NF12133   1.192   2.786  10.537 -0.2945  0.1855 -1.0183
  116OSM    HNF12134   1.268   2.724  10.520  1.3915  1.0895  2.3915
  116OSM    C2S12135   1.220   2.898  10.619  0.8750 -0.2422 -0.4970
  116OSM    H2S12136   1.159   2.984  10.585 -2.6053 -2.5919 -0.7000
  116OSM    C3S12137   1.373   2.945  10.624 -0.0251  0.6600  0.6280
  116OSM    H3S12138   1.429   2.865  10.678 -0.4554  0.5127  0.8579
  116OSM     O312139   1.385   3.065  10.699  0.0969  0.4268 -0.2238
  116OSM    HO312140   1.306   3.062  10.753  0.9355  2.1471  1.2135
  116OSM    C4S12141   1.430   2.948  10.486  0.2097 -0.0761  1.1011
  116OSM    H4S12142   1.360   2.997  10.417  0.9639 -0.0237  0.3585
  116OSM    C5S12143   1.545   2.898  10.435 -0.3183 -0.2682 -0.4420
  116OSM    H5S12144   1.617   2.840  10.495 -0.3526 -0.0307 -0.1690
  116OSM    C6S12145   1.583   2.913  10.292 -0.1723 -0.7927 -0.0386
  116OSM    H6S12146   1.692   2.903  10.272 -0.0348  2.1383 -1.3079
  116OSM    H6T12147   1.568   3.023  10.281 -2.9930 -1.0111  1.0493
  116OSM    C7S12148   1.508   2.827  10.196  0.0067 -0.5776  0.5627
  116OSM    H7S12149   1.399   2.843  10.209 -0.3482 -2.2513 -0.1213
  116OSM    H7T12150   1.509   2.717  10.212 -2.1030 -1.2172 -2.5784
  116OSM    C8S12151   1.553   2.846  10.055 -0.6014  0.0206 -0.2575
  116OSM    H8S12152   1.653   2.801  10.037 -1.6978 -2.2221 -1.0781
  116OSM    H8T12153   1.566   2.955  10.037  0.5332  0.2355  1.5693
  116OSM    C9S12154   1.466   2.787   9.948  0.3353  0.0612  0.3995
  116OSM    H9S12155   1.358   2.815   9.951 -0.1195 -1.4426 -0.5270
  116OSM    H9T12156   1.475   2.677   9.938 -0.2515  0.1312 -1.3700
  116OSM   C10S12157   1.507   2.843   9.807 -0.5783  0.1946 -0.5953
  116OSM   H10S12158   1.614   2.816   9.797 -0.1437 -0.7872  4.1271
  116OSM   H10T12159   1.497   2.953   9.816  0.2549  0.2930 -0.8399
  116OSM   C11S12160   1.419   2.790   9.696  0.5485  0.5090 -0.3648
  116OSM   H11S12161   1.319   2.831   9.723 -0.1125 -1.4890  0.4592
  116OSM   H11T12162   1.411   2.680   9.681 -0.8845  0.6511 -0.7731
  116OSM   C12S12163   1.449   2.846   9.558 -0.0576 -1.0221 -0.2587
  116OSM   H12S12164   1.549   2.811   9.525 -0.8610 -2.3833 -1.3682
  116OSM   H12T12165   1.444   2.957   9.567 -1.4698 -1.1670  1.2275
  116OSM   C13S12166   1.337   2.796   9.459 -0.2063 -0.4911  0.1015
  116OSM   H13S12167   1.240   2.764   9.503 -0.9927 -0.6863 -1.6864
  116OSM   H13T12168   1.363   2.699   9.411 -1.2808 -1.9586  2.2909
  116OSM   C14S12169   1.309   2.908   9.355 -0.5425 -0.5244 -0.5203
  116OSM   H14S12170   1.380   2.991   9.376  0.2489 -1.1127 -0.8433
  116OSM   H14T12171   1.210   2.958   9.367  0.1206  0.5172  0.8247
  116OSM   C15S12172   1.326   2.846   9.215 -1.1998 -0.3017 -0.0386
  116OSM   H15S12173   1.255   2.761   9.207 -3.2200  1.4238 -1.6320
  116OSM   H15T12174   1.429   2.809   9.196 -0.1209  1.2480  2.3076
  116OSM   C16S12175   1.296   2.951   9.111  0.2990  0.1040  0.2819
  116OSM   H16S12176   1.359   3.038   9.142 -2.0548  1.9684  0.1357
  116OSM   H16T12177   1.191   2.980   9.129  0.1443  1.5171 -2.4145
  116OSM   C17S12178   1.321   2.919   8.965 -0.4647 -0.1753  0.4810
  116OSM   H17S12179   1.431   2.901   8.961 -0.1440  1.7113 -0.3537
  116OSM   H17T12180   1.305   3.000   8.891  0.4874 -1.4110 -1.1435
  116OSM   C18S12181   1.251   2.788   8.915 -0.4392  0.4161  0.1835
  116OSM   H18S12182   1.145   2.765   8.941 -0.9938  1.4501 -1.0354
  116OSM   H18T12183   1.294   2.699   8.965 -0.4503 -0.2648 -0.9733
  116OSM   H18U12184   1.254   2.773   8.805 -1.0232  0.4301  0.1612
  116OSM    C1F12185   1.069   2.741  10.513  0.5946 -0.8850 -0.0626
  116OSM     OF12186   0.966   2.801  10.557 -0.6368 -0.1084  0.1867
  116OSM    C2F12187   1.066   2.622  10.429 -0.4752 -0.3778  0.1834
  116OSM    H2F12188   0.964   2.595  10.394  0.1301 -1.9326 -0.4820
  116OSM    H2G12189   1.108   2.538  10.489 -1.2429  0.3649  1.8096
  116OSM    C3F12190   1.146   2.636  10.297  0.5999 -0.4469  0.3372
  116OSM    H3F12191   1.254   2.660  10.307  0.9387 -2.2495  1.4970
  116OSM    H3G12192   1.091   2.716  10.243 -0.0839 -1.5127 -0.5698
  116OSM    C4F12193   1.158   2.507  10.216 -0.2995 -0.1405 -0.6626
  116OSM    H4F12194   1.057   2.467  10.195 -0.1434 -0.7269 -0.3257
  116OSM    H4G12195   1.222   2.434  10.270  0.1861 -0.9270 -2.2512
  116OSM    C5F12196   1.242   2.533  10.085  0.2197 -0.1939 -0.4484
  116OSM    H5F12197   1.350   2.554  10.102  0.3171  0.9148 -2.1578
  116OSM    H5G12198   1.200   2.626  10.042 -0.1893 -0.7517 -1.2742
  116OSM    C6F12199   1.221   2.426   9.974  0.0327 -0.0911  0.0703
  116OSM    H6F12200   1.253   2.328  10.017 -1.1587  0.7106  3.0004
  116OSM    H6G12201   1.296   2.447   9.894 -0.8870  2.2592 -0.2542
  116OSM    C7F12202   1.074   2.409   9.917 -0.0546  0.3163 -0.0391
  116OSM    H7F12203   1.043   2.507   9.874 -0.5722  1.0074  1.8327
  116OSM    H7G12204   0.997   2.374   9.989 -1.4254  0.1575 -1.5128
  116OSM    C8F12205   1.052   2.308   9.801  0.0117 -0.5264  0.6958
  116OSM    H8F12206   1.129   2.332   9.724 -0.3307 -1.4306  0.0556
  116OSM    H8G12207   0.950   2.340   9.770  0.0413 -0.4205  0.7073
  116OSM    C9F12208   1.068   2.162   9.828  0.3069  0.5638  0.1660
  116OSM    H9F12209   0.997   2.117   9.899  1.9086 -2.5811 -0.0404
  116OSM   C10F12210   1.162   2.070   9.786 -0.6418  0.1300 -0.3116
  116OSM   H10F12211   1.143   1.963   9.807  1.7307 -0.2934 -0.0302
  116OSM   C11F12212   1.278   2.103   9.697 -0.0668  0.4360 -0.1638
  116OSM   H11F12213   1.362   2.037   9.727 -0.7625 -0.6067 -0.4700
  116OSM   H11G12214   1.309   2.209   9.715  1.0052  0.4398 -1.8556
  116OSM   C12F12215   1.247   2.096   9.546 -0.0692  0.0435 -0.4354
  116OSM   H12F12216   1.348   2.091   9.498 -0.3951 -2.2495 -1.0066
  116OSM   H12G12217   1.184   2.185   9.527 -1.3091 -0.4259  1.2851
  116OSM   C13F12218   1.172   1.964   9.504 -0.6396 -0.0045 -0.0021
  116OSM   H13F12219   1.082   1.952   9.568 -1.0971 -0.0134 -0.6369
  116OSM   H13G12220   1.244   1.886   9.537 -1.3979 -0.4555  0.6354
  116OSM   C14F12221   1.139   1.967   9.354  0.1219  0.4868 -0.3508
  116OSM   H14F12222   1.229   2.004   9.299 -0.8389  2.5618 -0.6495
  116OSM   H14G12223   1.056   2.040   9.343  0.6980  1.0124 -1.4299
  116OSM   C15F12224   1.101   1.833   9.297  0.3140  0.5160 -0.0188
  116OSM   H15F12225   0.995   1.813   9.325 -0.0583  0.5593 -1.3237
  116OSM   H15G12226   1.155   1.756   9.356 -1.1899 -1.0873 -0.6261
  116OSM   C16F12227   1.107   1.821   9.147  0.3927  0.6122  0.1070
  116OSM   H16F12228   1.210   1.842   9.110  0.3126 -0.6545 -0.9213
  116OSM   H16G12229   1.040   1.898   9.103  0.8365  1.3234  0.6426
  116OSM   C17F12230   1.059   1.689   9.090 -0.6044 -0.1864 -0.1747
  116OSM   H17F12231   0.948   1.685   9.087 -0.6319  0.5065 -0.1354
  116OSM   H17G12232   1.081   1.597   9.148  0.6408 -1.6895 -2.8309
  116OSM   C18F12233   1.117   1.659   8.948  0.2954 -0.3419  0.6016
  116OSM   H18F12234   1.226   1.659   8.971  0.5358  2.8091 -0.1568
  116OSM   H18G12235   1.089   1.738   8.876  0.6345 -0.6818  0.0851
  116OSM   H18H12236   1.090   1.560   8.906  2.2828 -0.3913 -0.7092
  117OSM      N12237   0.123   1.846  11.143 -0.0912 -0.4127 -0.1428
  117OSM    C1512238  -0.022   1.835  11.184 -0.4099 -0.2532  1.0617
  117OSM   H15A12239  -0.080   1.919  11.147 -1.1957 -2.5058 -3.4613
  117OSM   H15B12240  -0.030   1.836  11.292 -0.9028  1.5401  1.0505
  117OSM   H15C12241  -0.069   1.747  11.143  1.2995 -0.4218 -0.6631
  117OSM    C1412242   0.180   1.972  11.199  0.3915 -0.1823  0.3725
  117OSM   H14A12243   0.257   2.009  11.134 -1.1799 -0.4192 -1.7486
  117OSM   H14B12244   0.197   1.973  11.305  1.5064 -1.1350  0.2124
  117OSM   H14C12245   0.107   2.051  11.183  2.3912  1.7729  0.3495
  117OSM    C1312246   0.198   1.732  11.193  0.0080 -0.0180  0.0531
  117OSM   H13A12247   0.303   1.749  11.175 -0.2074 -0.2703 -1.5606
  117OSM   H13B12248   0.170   1.637  11.150 -1.2632  0.3483  0.0058
  117OSM   H13C12249   0.182   1.720  11.299 -0.4444  0.2476  0.0215
  117OSM    C1212250   0.130   1.849  10.984  0.0414 -0.1395 -0.3684
  117OSM   H12A12251   0.058   1.925  10.955  1.0361  1.0072  0.1037
  117OSM   H12B12252   0.095   1.759  10.935 -2.9618  0.4785  0.4207
  117OSM    C1112253   0.266   1.902  10.927  0.3494  1.0887  0.2660
  117OSM   H11A12254   0.243   1.901  10.818 -3.1772  2.6079  0.8832
  117OSM   H11B12255   0.348   1.827  10.941 -0.5271 -0.3774 -1.9163
  117OSM      P12256   0.443   2.080  10.911 -0.2120 -0.1387 -0.0282
  117OSM    O1312257   0.442   2.220  10.963  0.0575  0.6657  0.3371
  117OSM    O1412258   0.544   1.993  10.970 -0.0397 -0.3549  0.4607
  117OSM    O1112259   0.440   2.072  10.758 -0.4927 -0.3253  0.3451
  117OSM    O1212260   0.300   2.037  10.959  0.2195 -0.1981 -0.1007
  117OSM    C1S12261   0.326   2.117  10.682 -0.2725  0.9394 -0.4880
  117OSM    H1S12262   0.309   2.225  10.699 -0.7259  0.6865  0.8016
  117OSM    H1T12263   0.229   2.067  10.705 -0.2694 -1.0189 -4.1208
  117OSM     NF12264   0.236   2.161  10.459  0.1415 -0.7394 -0.1098
  117OSM    HNF12265   0.180   2.086  10.424  0.7555 -1.5731  0.6479
  117OSM    C2S12266   0.352   2.098  10.527  0.2614 -0.0436 -0.2931
  117OSM    H2S12267   0.440   2.160  10.499 -1.4375  1.4241 -2.6795
  117OSM    C3S12268   0.369   1.949  10.484  0.2236 -0.6178  0.2457
  117OSM    H3S12269   0.271   1.899  10.499 -0.9092  1.1093 -1.0217
  117OSM     O312270   0.455   1.875  10.570  0.3026 -0.1772  0.2464
  117OSM    HO312271   0.476   1.941  10.637  0.3950  0.2109 -0.1645
  117OSM    C4S12272   0.403   1.939  10.336  0.2662 -0.2649  0.5281
  117OSM    H4S12273   0.323   1.897  10.275  1.7913  1.5680 -3.0742
  117OSM    C5S12274   0.524   1.963  10.282  0.0356 -0.3658 -0.1737
  117OSM    H5S12275   0.611   1.992  10.343 -0.1615 -2.3076  1.1103
  117OSM    C6S12276   0.561   1.962  10.142  0.1213  0.3199  0.3726
  117OSM    H6S12277   0.640   1.886  10.121 -1.6041 -1.0347 -1.5897
  117OSM    H6T12278   0.608   2.059  10.112  3.2070 -0.7452  1.3137
  117OSM    C7S12279   0.439   1.953  10.038 -0.6332 -0.2918  0.2832
  117OSM    H7S12280   0.382   2.045  10.063 -0.1207 -0.6221  2.9398
  117OSM    H7T12281   0.385   1.859  10.061 -1.0224  0.1423  1.1883
  117OSM    C8S12282   0.485   1.941   9.886 -0.0116  0.0945  1.0938
  117OSM    H8S12283   0.395   1.911   9.828  1.1680 -0.3789 -0.5492
  117OSM    H8T12284   0.564   1.864   9.875 -1.3401 -1.2322  0.5400
  117OSM    C9S12285   0.547   2.066   9.826 -0.6972  0.0938  0.3872
  117OSM    H9S12286   0.605   2.118   9.905 -0.4396 -1.1084  1.0199
  117OSM    H9T12287   0.462   2.128   9.791 -0.0250 -0.0812 -1.7413
  117OSM   C10S12288   0.648   2.034   9.714  0.5707  0.3930  0.1806
  117OSM   H10S12289   0.728   1.972   9.759  0.2868 -0.6582 -0.7296
  117OSM   H10T12290   0.672   2.133   9.671 -0.8118  0.1172 -1.3408
  117OSM   C11S12291   0.582   1.972   9.587  0.4887 -0.2105 -0.2022
  117OSM   H11S12292   0.502   2.040   9.550  0.7391  0.2639  0.1166
  117OSM   H11T12293   0.529   1.882   9.624 -1.7659  0.1087 -2.3814
  117OSM   C12S12294   0.676   1.929   9.478  0.3308 -0.2261  0.1444
  117OSM   H12S12295   0.630   1.864   9.401  0.8543  0.5041 -0.7956
  117OSM   H12T12296   0.765   1.872   9.514  0.6933 -2.7908 -4.0992
  117OSM   C13S12297   0.740   2.052   9.404 -0.3832  0.0155 -0.6501
  117OSM   H13S12298   0.820   2.099   9.465 -1.8219  1.0032  0.5430
  117OSM   H13T12299   0.655   2.123   9.398  0.7598  1.4735 -0.2162
  117OSM   C14S12300   0.770   2.029   9.262 -0.0717 -0.3198  0.2752
  117OSM   H14S12301   0.687   1.987   9.201 -2.3627  0.3904  2.6951
  117OSM   H14T12302   0.849   1.951   9.252 -0.0239 -0.0207 -2.5727
  117OSM   C15S12303   0.821   2.150   9.183  0.3083 -0.1019 -0.6441
  117OSM   H15S12304   0.929   2.164   9.206 -0.2772  2.8310  0.6884
  117OSM   H15T12305   0.781   2.244   9.226  1.1170 -0.4742  1.0081
  117OSM   C16S12306   0.780   2.144   9.035 -0.6299  0.0459 -0.9412
  117OSM   H16S12307   0.836   2.065   8.982  2.0508  1.6979 -0.7394
  117OSM   H16T12308   0.819   2.234   8.983  0.5268 -1.0175 -1.9878
  117OSM   C17S12309   0.629   2.135   9.003 -0.0132  0.4879 -0.4754
  117OSM   H17S12310   0.567   2.210   9.057  0.3295  1.7282 -1.7426
  117OSM   H17T12311   0.581   2.036   9.018 -1.1098  0.8711 -1.3662
  117OSM   C18S12312   0.600   2.175   8.857  0.2786 -0.4368 -0.1626
  117OSM   H18S12313   0.492   2.198   8.841 -0.1198 -0.3092  2.2937
  117OSM   H18T12314   0.627   2.097   8.783  1.1155  0.4591 -0.8224
  117OSM   H18U12315   0.660   2.265   8.830  0.0311 -0.4215 -0.6719
  117OSM    C1F12316   0.202   2.290  10.458 -0.2051 -0.2013 -0.5541
  117OSM     OF12317   0.273   2.379  10.515  0.3349  0.5701 -0.2631
  117OSM    C2F12318   0.070   2.329  10.392 -0.0396  0.6216  0.0160
  117OSM    H2F12319   0.004   2.378  10.467 -2.3282  0.2913 -1.6817
  117OSM    H2G12320   0.020   2.234  10.363 -1.0930  0.7670  1.2491
  117OSM    C3F12321   0.098   2.420  10.269  0.6534 -0.2350 -0.0103
  117OSM    H3F12322   0.151   2.515  10.294  0.6102 -0.1162 -0.3599
  117OSM    H3G12323  -0.005   2.448  10.239  0.4699  0.4685  1.1850
  117OSM    C4F12324   0.153   2.361  10.140  0.6659 -0.3573 -0.1087
  117OSM    H4F12325   0.087   2.283  10.096 -0.7446  2.2123 -2.8651
  117OSM    H4G12326   0.258   2.329  10.155  0.6242 -1.1726 -1.4371
  117OSM    C5F12327   0.172   2.459  10.023  0.0029  0.9027 -0.6361
  117OSM    H5F12328   0.249   2.535  10.048  0.7994  0.1846 -0.8448
  117OSM    H5G12329   0.076   2.513  10.009 -0.5922  0.1838  0.4555
  117OSM    C6F12330   0.205   2.372   9.898  0.0998 -0.1449 -0.4098
  117OSM    H6F12331   0.134   2.290   9.871 -0.9211  1.5202 -3.2102
  117OSM    H6G12332   0.303   2.326   9.922  1.5383  1.3568 -2.9278
  117OSM    C7F12333   0.222   2.454   9.772 -0.1456  0.4641  0.0464
  117OSM    H7F12334   0.283   2.547   9.779 -0.0961  0.5909 -1.5847
  117OSM    H7G12335   0.127   2.507   9.750  0.7185  1.8765 -0.4202
  117OSM    C8F12336   0.264   2.376   9.641  0.3001 -0.2685  0.7476
  117OSM    H8F12337   0.221   2.433   9.555  1.1856 -1.1297 -0.2918
  117OSM    H8G12338   0.202   2.284   9.638 -0.3395  0.1522  0.8737
  117OSM    C9F12339   0.412   2.355   9.625 -0.3188 -0.1991 -0.6326
  117OSM    H9F12340   0.469   2.358   9.719  0.1539 -1.5101 -0.8689
  117OSM   C10F12341   0.486   2.336   9.515 -0.2605 -0.2810  0.0673
  117OSM   H10F12342   0.592   2.308   9.526  0.4183  0.5453 -3.3382
  117OSM   C11F12343   0.439   2.332   9.370  0.0228 -0.2887 -0.3043
  117OSM   H11F12344   0.351   2.265   9.357 -0.9140  0.9094 -0.3227
  117OSM   H11G12345   0.529   2.297   9.316  1.9950  0.9724  1.9781
  117OSM   C12F12346   0.403   2.466   9.302 -0.3701 -0.0005  0.7921
  117OSM   H12F12347   0.504   2.513   9.307 -0.1462 -0.2925 -0.6446
  117OSM   H12G12348   0.332   2.523   9.365 -1.3007 -0.2286 -0.0188
  117OSM   C13F12349   0.381   2.462   9.150  0.6048  0.2636  0.1043
  117OSM   H13F12350   0.467   2.406   9.108 -0.2058  0.4516 -1.9007
  117OSM   H13G12351   0.376   2.562   9.103  2.0239  0.1720 -0.2799
  117OSM   C14F12352   0.253   2.374   9.120 -0.4628 -0.1671 -0.8165
  117OSM   H14F12353   0.169   2.418   9.178 -1.2782 -1.3059 -1.1037
  117OSM   H14G12354   0.272   2.268   9.149 -2.2417 -1.4601 -3.8596
  117OSM   C15F12355   0.209   2.353   8.975  0.4374  0.1783 -0.0448
  117OSM   H15F12356   0.297   2.332   8.911 -0.2981 -1.1146 -0.6868
  117OSM   H15G12357   0.161   2.449   8.947  0.2747 -0.2464 -1.2780
  117OSM   C16F12358   0.099   2.251   8.949 -0.3312 -0.7733 -0.3530
  117OSM   H16F12359   0.010   2.286   9.007  1.0679 -0.1148  1.4936
  117OSM   H16G12360   0.117   2.152   8.995  0.0599 -0.7531 -0.4624
  117OSM   C17F12361   0.066   2.238   8.802  0.8182 -0.2628  0.4497
  117OSM   H17F12362   0.155   2.203   8.746 -0.4169  1.1158 -2.5822
  117OSM   H17G12363   0.038   2.340   8.768  3.1829  0.4538  0.4683
  117OSM   C18F12364  -0.059   2.151   8.779 -0.0980  0.0686  0.3212
  117OSM   H18F12365  -0.149   2.198   8.823 -0.9590  1.1221 -2.3836
  117OSM   H18G12366  -0.033   2.053   8.824  1.7977  0.0695 -0.7015
  117OSM   H18H12367  -0.072   2.130   8.671  0.8116  2.4624 -0.3253
  118OSM      N12368   0.080   4.299  10.917 -0.1282  0.6630 -0.4179
  118OSM    C1512369  -0.012   4.332  11.024 -0.5236 -0.3206  0.2508
  118OSM   H15A12370   0.025   4.423  11.068  0.6906 -1.1559  1.0397
  118OSM   H15B12371  -0.024   4.258  11.102  1.6141 -1.7482 -0.6791
  118OSM   H15C12372  -0.113   4.350  10.991 -1.0879 -0.3374  1.8648
  118OSM    C1412373   0.048   4.168  10.862 -0.4228 -0.6453  1.1375
  118OSM   H14A12374   0.135   4.150  10.801  0.0813  4.1313  0.0269
  118OSM   H14B12375  -0.036   4.168  10.794  0.4426  0.8580 -0.0025
  118OSM   H14C12376   0.029   4.087  10.931 -4.6983 -1.6745 -0.9020
  118OSM    C1312377   0.085   4.409  10.816  0.4718 -0.0578  0.1961
  118OSM   H13A12378   0.160   4.386  10.742  1.5297  1.8950  0.5784
  118OSM   H13B12379   0.110   4.509  10.847  0.0915 -0.3262  1.4000
  118OSM   H13C12380  -0.008   4.415  10.761  0.0749 -0.5491  0.8060
  118OSM    C1212381   0.223   4.287  10.989  0.6373 -0.2866  0.0569
  118OSM   H12A12382   0.214   4.201  11.054  2.3182 -0.1522  0.5200
  118OSM   H12B12383   0.244   4.382  11.035  0.4607 -0.4037  0.3857
  118OSM    C1112384   0.341   4.258  10.896  0.1189 -0.0535  0.2587
  118OSM   H11A12385   0.434   4.293  10.945  1.3590 -0.0066 -1.9607
  118OSM   H11B12386   0.330   4.326  10.809 -1.6606  0.2848  0.7113
  118OSM      P12387   0.421   4.020  10.940  0.0063 -0.2787  0.0137
  118OSM    O1312388   0.435   4.076  11.080  0.7010 -0.1078  0.0861
  118OSM    O1412389   0.357   3.890  10.927  0.2885 -0.0153 -0.8363
  118OSM    O1112390   0.562   4.021  10.869  0.1921 -0.1299  0.1001
  118OSM    O1212391   0.339   4.120  10.846 -0.2556 -0.1398 -0.4872
  118OSM    C1S12392   0.577   3.970  10.733  0.1358  0.3216 -0.7782
  118OSM    H1S12393   0.487   3.913  10.700  0.5966 -0.0149 -1.4723
  118OSM    H1T12394   0.672   3.913  10.741  1.0322  1.8549  0.1193
  118OSM     NF12395   0.602   4.034  10.490 -0.2629 -0.0555  0.0534
  118OSM    HNF12396   0.685   4.003  10.444  0.0043 -0.5415  0.8335
  118OSM    C2S12397   0.604   4.087  10.627 -0.0328  0.6653 -0.4901
  118OSM    H2S12398   0.515   4.153  10.639 -1.8104 -1.4537 -1.1187
  118OSM    C3S12399   0.733   4.161  10.659  0.1863  0.5021 -0.3401
  118OSM    H3S12400   0.808   4.079  10.646  0.0161  0.5479 -1.7296
  118OSM     O312401   0.738   4.217  10.793 -0.0244  0.4649 -0.4798
  118OSM    HO312402   0.672   4.161  10.834 -1.0210  0.9405 -1.3670
  118OSM    C4S12403   0.753   4.272  10.571  0.3800  0.0919  0.1278
  118OSM    H4S12404   0.673   4.347  10.584  0.2189 -0.0840  0.1446
  118OSM    C5S12405   0.846   4.286  10.477 -0.0408 -0.3592  0.2158
  118OSM    H5S12406   0.910   4.199  10.455 -0.7089 -0.4091 -1.6241
  118OSM    C6S12407   0.880   4.390  10.374 -0.2840  0.3739  0.1783
  118OSM    H6S12408   0.984   4.426  10.388  0.7269 -2.1462 -0.3983
  118OSM    H6T12409   0.800   4.467  10.374 -0.5321  0.2328  3.0693
  118OSM    C7S12410   0.870   4.332  10.229  0.3256  0.3468 -0.0671
  118OSM    H7S12411   0.776   4.273  10.225  0.8125 -0.4170 -2.9556
  118OSM    H7T12412   0.950   4.257  10.217 -1.8319 -1.7271 -2.7450
  118OSM    C8S12413   0.863   4.442  10.121  0.4812 -0.9081 -0.1366
  118OSM    H8S12414   0.774   4.509  10.119  2.8416  2.4703 -1.1841
  118OSM    H8T12415   0.845   4.379  10.031  2.5889 -0.7596 -0.7215
  118OSM    C9S12416   0.989   4.524  10.121  0.5011  0.3784 -0.5088
  118OSM    H9S12417   1.080   4.470  10.152 -0.6767 -0.4395  1.7309
  118OSM    H9T12418   0.973   4.610  10.191 -0.8651  0.4032 -0.8270
  118OSM   C10S12419   1.010   4.568   9.977 -0.0812 -0.3943  0.2481
  118OSM   H10S12420   1.089   4.646   9.965 -0.6799 -0.1103 -2.6594
  118OSM   H10T12421   0.917   4.622   9.948 -0.3464  0.1729  2.0194
  118OSM   C11S12422   1.054   4.479   9.864 -0.2494  0.3121  1.0128
  118OSM   H11S12423   0.972   4.409   9.836 -0.2054  0.8482 -0.5369
  118OSM   H11T12424   1.146   4.430   9.901  0.4502  0.6774 -0.1890
  118OSM   C12S12425   1.107   4.575   9.748  0.4649  0.3041  0.2658
  118OSM   H12S12426   1.191   4.642   9.772  0.4383  0.5964 -0.4217
  118OSM   H12T12427   1.018   4.633   9.716 -0.7695 -1.8077 -0.3640
  118OSM   C13S12428   1.151   4.493   9.620  0.2645 -0.1466 -0.3907
  118OSM   H13S12429   1.075   4.416   9.595 -0.1161  1.1308 -3.6115
  118OSM   H13T12430   1.239   4.432   9.649 -0.5616 -0.7127  1.0749
  118OSM   C14S12431   1.163   4.576   9.493 -0.1528  0.0595  0.0201
  118OSM   H14S12432   1.241   4.531   9.428  0.1981  1.4826 -0.5910
  118OSM   H14T12433   1.195   4.680   9.515  1.2338 -0.0877 -1.1387
  118OSM   C15S12434   1.035   4.587   9.410 -0.5488  0.2856 -0.1577
  118OSM   H15S12435   0.968   4.652   9.471 -0.8442  0.1875 -0.3758
  118OSM   H15T12436   0.997   4.484   9.393  1.3048 -0.5183  0.3784
  118OSM   C16S12437   1.048   4.667   9.276  0.3847  0.9541 -0.0366
  118OSM   H16S12438   1.122   4.749   9.284  2.0533 -0.4263 -0.4467
  118OSM   H16T12439   0.948   4.710   9.258 -0.9738 -1.7818  0.3915
  118OSM   C17S12440   1.102   4.588   9.160  0.1823 -0.0128 -0.0718
  118OSM   H17S12441   1.201   4.540   9.174 -0.0054 -0.5455 -0.5279
  118OSM   H17T12442   1.128   4.656   9.076  1.3620 -0.1622  0.1612
  118OSM   C18S12443   1.011   4.482   9.105  0.7221  0.3956  0.6992
  118OSM   H18S12444   1.059   4.406   9.040 -0.0524  1.1010 -0.7452
  118OSM   H18T12445   0.927   4.526   9.046  0.3888 -1.2709 -0.1210
  118OSM   H18U12446   0.974   4.432   9.197  0.7510  1.7812  1.4996
  118OSM    C1F12447   0.485   4.005  10.441  0.3402 -0.5276 -0.6061
  118OSM     OF12448   0.385   4.077  10.477 -0.2947 -0.0077 -0.0915
  118OSM    C2F12449   0.476   3.894  10.335  0.2766  0.5287 -0.5503
  118OSM    H2F12450   0.523   3.805  10.382 -1.4417 -0.7983 -1.2539
  118OSM    H2G12451   0.541   3.931  10.253  1.3009  0.4988  0.2173
  118OSM    C3F12452   0.335   3.859  10.294  0.4948  0.2032 -0.0856
  118OSM    H3F12453   0.295   3.948  10.242 -3.1184 -0.5363  1.1260
  118OSM    H3G12454   0.273   3.853  10.386  2.2929 -0.9670  1.1190
  118OSM    C4F12455   0.328   3.730  10.206 -0.5208 -0.7874  0.5957
  118OSM    H4F12456   0.222   3.696  10.207 -0.1770 -2.1016 -1.5079
  118OSM    H4G12457   0.384   3.654  10.264 -0.2396 -0.3401  0.9109
  118OSM    C5F12458   0.399   3.756  10.076 -0.5105  0.1259 -0.1917
  118OSM    H5F12459   0.508   3.763  10.095 -0.7671 -0.4561  1.7569
  118OSM    H5G12460   0.368   3.853  10.034  0.1080  0.1208 -0.6782
  118OSM    C6F12461   0.374   3.651   9.965  0.2783 -0.0432 -0.0226
  118OSM    H6F12462   0.267   3.640   9.936  0.0617 -1.0519  1.1128
  118OSM    H6G12463   0.403   3.547   9.990 -1.6186 -0.9036 -1.1702
  118OSM    C7F12464   0.447   3.692   9.832 -0.1157 -0.0677 -0.8451
  118OSM    H7F12465   0.557   3.677   9.839  0.3526  3.1758  0.7384
  118OSM    H7G12466   0.428   3.800   9.811 -1.4881 -0.0926  0.1482
  118OSM    C8F12467   0.384   3.622   9.705 -0.2572 -0.3961  0.3455
  118OSM    H8F12468   0.427   3.670   9.615  1.9243 -1.1285  0.9350
  118OSM    H8G12469   0.275   3.637   9.695 -0.3422 -1.1967 -0.0480
  118OSM    C9F12470   0.420   3.470   9.717  0.1998 -0.2876  0.6101
  118OSM    H9F12471   0.371   3.424   9.804  0.9535  0.0230  1.1989
  118OSM   C10F12472   0.513   3.401   9.643  1.0341 -0.6060  1.3388
  118OSM   H10F12473   0.531   3.296   9.667 -0.2519 -0.9892  0.7453
  118OSM   C11F12474   0.581   3.470   9.529  0.5072 -0.1412  0.9555
  118OSM   H11F12475   0.679   3.423   9.509  2.7138  2.9117  3.4730
  118OSM   H11G12476   0.599   3.576   9.560 -1.2321 -0.0213  1.6638
  118OSM   C12F12477   0.504   3.463   9.396  0.6793  0.1267  0.0986
  118OSM   H12F12478   0.558   3.531   9.326  0.3250 -1.0700 -1.3900
  118OSM   H12G12479   0.403   3.508   9.409  0.6361 -0.2186  0.9637
  118OSM   C13F12480   0.478   3.329   9.333 -0.0449 -0.1744 -0.1988
  118OSM   H13F12481   0.430   3.262   9.407  2.3409 -2.2743 -0.3894
  118OSM   H13G12482   0.574   3.289   9.293 -0.3578  0.8821 -2.1455
  118OSM   C14F12483   0.387   3.333   9.211 -0.4619  0.0417 -0.1045
  118OSM   H14F12484   0.397   3.423   9.147  0.9635 -1.1622 -1.6714
  118OSM   H14G12485   0.284   3.325   9.251 -1.0167 -0.8204 -1.6121
  118OSM   C15F12486   0.420   3.209   9.124 -0.2722  0.0658 -0.4302
  118OSM   H15F12487   0.374   3.117   9.168 -2.5986  1.4106  0.1441
  118OSM   H15G12488   0.528   3.187   9.110  0.3297  0.8204  2.4157
  118OSM   C16F12489   0.361   3.232   8.981 -0.4680 -0.7780 -0.6217
  118OSM   H16F12490   0.404   3.327   8.943 -3.1825  0.6367 -0.3458
  118OSM   H16G12491   0.251   3.235   8.973 -0.4551 -1.3456 -1.0958
  118OSM   C17F12492   0.388   3.117   8.878 -0.7932 -0.0060 -0.1577
  118OSM   H17F12493   0.347   3.144   8.778  0.3126 -0.4102 -0.7409
  118OSM   H17G12494   0.341   3.028   8.926 -0.9685  0.7255  1.0752
  118OSM   C18F12495   0.534   3.082   8.858 -0.1720 -1.1653 -0.2996
  118OSM   H18F12496   0.590   3.078   8.954  0.9111  3.0384 -0.5501
  118OSM   H18G12497   0.586   3.162   8.801  2.3545 -0.6604  2.4996
  118OSM   H18H12498   0.548   2.985   8.805  0.1542 -0.0855 -2.2852
  119OSM      N12499   6.231   2.246  11.164  0.1084 -0.2071  0.3049
  119OSM    C1512500   6.198   2.099  11.177 -1.0897  0.0040  0.0497
  119OSM   H15A12501   6.092   2.080  11.167 -0.7368 -1.4458 -1.5486
  119OSM   H15B12502   6.241   2.062  11.269 -0.6107 -1.9572 -0.8862
  119OSM   H15C12503   6.253   2.044  11.102  0.4074 -2.0124  2.4386
  119OSM    C1412504   6.146   2.321  11.269  0.2966 -0.3897 -0.1051
  119OSM   H14A12505   6.165   2.289  11.371 -1.3939  0.2396  0.4362
  119OSM   H14B12506   6.042   2.296  11.258  0.0692  0.7530 -0.6697
  119OSM   H14C12507   6.149   2.429  11.265 -1.4611 -0.3386 -1.1903
  119OSM    C1312508   6.373   2.253  11.208 -0.1841  0.2119  0.1273
  119OSM   H13A12509   6.387   2.356  11.238  1.2646 -0.2127  0.9864
  119OSM   H13B12510   6.430   2.226  11.120 -0.6824  1.0737 -0.4753
  119OSM   H13C12511   6.394   2.189  11.293  0.1702  1.5146  1.0522
  119OSM    C1212512   6.201   2.293  11.018  0.0358 -0.3403 -0.1266
  119OSM   H12A12513   6.113   2.242  10.980  0.3591 -0.9759 -0.0322
  119OSM   H12B12514   6.285   2.265  10.957 -0.4504  0.7344 -1.3306
  119OSM    C1112515   6.166   2.443  11.002 -0.2829  0.0692  0.4365
  119OSM   H11A12516   6.075   2.462  11.063 -0.3872 -1.3610  0.7607
  119OSM   H11B12517   6.139   2.454  10.895 -0.4075 -2.4722  0.1528
  119OSM      P12518   6.407   2.550  10.966 -0.1479  0.0134 -0.1070
  119OSM    O1312519   6.500   2.602  11.069 -0.1296 -0.0695 -0.1330
  119OSM    O1412520   6.454   2.433  10.896 -0.4625  0.2710  0.7554
  119OSM    O1112521   6.387   2.673  10.861  0.4832 -0.3615 -0.3043
  119OSM    O1212522   6.267   2.539  11.035  0.8941  0.2670 -0.7087
  119OSM    C1S12523   6.476   2.777  10.845 -0.3341  0.1090  0.3251
  119OSM    H1S12524   6.556   2.775  10.922  0.0800 -1.3351 -0.1065
  119OSM    H1T12525   6.416   2.870  10.851 -1.3935 -0.3409 -2.2749
  119OSM     NF12526   6.644   2.868  10.698  0.2797 -0.2398  0.3011
  119OSM    HNF12527   6.629   2.950  10.644  0.1321 -0.2227  0.3684
  119OSM    C2S12528   6.535   2.771  10.705 -0.0727 -0.6802  0.0197
  119OSM    H2S12529   6.588   2.675  10.685  0.8553 -0.0743 -0.5388
  119OSM    C3S12530   6.432   2.793  10.593  0.0448  0.5685  0.0911
  119OSM    H3S12531   6.412   2.902  10.602 -0.0617  0.4469  1.5548
  119OSM     O312532   6.311   2.717  10.611 -0.2142  0.6253 -0.3058
  119OSM    HO312533   6.321   2.704  10.705  0.1031  2.0832 -0.1045
  119OSM    C4S12534   6.490   2.770  10.455  0.6890  1.7602 -0.3414
  119OSM    H4S12535   6.512   2.861  10.398  1.3638  1.3053 -0.8210
  119OSM    C5S12536   6.514   2.653  10.398 -0.3592 -0.1791  0.0310
  119OSM    H5S12537   6.491   2.565  10.460 -1.2168 -0.4363 -0.6225
  119OSM    C6S12538   6.570   2.651  10.263 -1.0039 -0.4039  0.2153
  119OSM    H6S12539   6.681   2.649  10.266 -1.0013 -1.4796  0.0102
  119OSM    H6T12540   6.532   2.739  10.207 -2.1845 -1.5901 -0.9351
  119OSM    C7S12541   6.533   2.522  10.196  0.2858  0.4097  0.1247
  119OSM    H7S12542   6.422   2.515  10.193  0.3046  0.3174 -0.4657
  119OSM    H7T12543   6.575   2.438  10.255  0.3612  0.3029 -0.0774
  119OSM    C8S12544   6.591   2.502  10.060  0.1639 -0.4291  0.6982
  119OSM    H8S12545   6.702   2.513  10.061  0.2327 -0.7308 -0.6348
  119OSM    H8T12546   6.558   2.580   9.987 -0.8177 -0.5883  0.9590
  119OSM    C9S12547   6.560   2.377   9.974  0.4371 -0.4350 -0.7310
  119OSM    H9S12548   6.451   2.372   9.953  0.3229  1.7626 -0.9350
  119OSM    H9T12549   6.589   2.293  10.040  0.2920  1.2672  1.6654
  119OSM   C10S12550   6.625   2.363   9.840 -0.3337  0.6796  0.1707
  119OSM   H10S12551   6.733   2.384   9.848  0.1738 -2.0601  1.7139
  119OSM   H10T12552   6.582   2.436   9.768 -0.3295  0.0429 -0.4902
  119OSM   C11S12553   6.589   2.229   9.782  0.8550  0.0430  0.8231
  119OSM   H11S12554   6.480   2.218   9.796  0.4867  0.1248 -1.6587
  119OSM   H11T12555   6.636   2.140   9.829  2.0032 -1.3381 -2.6087
  119OSM   C12S12556   6.618   2.221   9.627 -0.1828 -0.2813  0.5855
  119OSM   H12S12557   6.728   2.208   9.623  0.2196  1.7018  3.0288
  119OSM   H12T12558   6.589   2.318   9.580 -0.7773 -0.1898  1.1232
  119OSM   C13S12559   6.530   2.118   9.560  0.5057 -0.5249  0.0583
  119OSM   H13S12560   6.429   2.164   9.549 -0.1758 -1.8804  0.3823
  119OSM   H13T12561   6.515   2.024   9.617 -3.0741 -0.9579 -1.2771
  119OSM   C14S12562   6.574   2.080   9.412  0.4940 -0.2648  0.4821
  119OSM   H14S12563   6.672   2.029   9.428  1.1067 -0.1634 -2.3811
  119OSM   H14T12564   6.610   2.169   9.356  0.4284 -0.2841  0.4085
  119OSM   C15S12565   6.479   1.987   9.341 -0.7910 -0.0890 -0.3025
  119OSM   H15S12566   6.384   2.046   9.340 -0.0041  1.3694  2.1235
  119OSM   H15T12567   6.467   1.897   9.404  0.7312  0.2513  0.5034
  119OSM   C16S12568   6.514   1.953   9.195  0.3838  0.0659  0.5577
  119OSM   H16S12569   6.478   1.854   9.160 -0.1206  1.5912 -3.8137
  119OSM   H16T12570   6.624   1.947   9.186  0.3138  0.4761 -0.6221
  119OSM   C17S12571   6.466   2.053   9.084  0.0194 -1.3647  0.1375
  119OSM   H17S12572   6.514   2.152   9.100 -0.7212 -1.1229  0.9394
  119OSM   H17T12573   6.357   2.075   9.092 -0.1899 -2.0957 -0.5427
  119OSM   C18S12574   6.499   2.006   8.944 -0.2409  0.2759 -0.2669
  119OSM   H18S12575   6.440   1.913   8.929  2.0918 -1.3760  0.1359
  119OSM   H18T12576   6.608   1.982   8.947 -0.3832 -0.3453  0.0352
  119OSM   H18U12577   6.477   2.082   8.867 -2.3765  0.5817  0.5699
  119OSM    C1F12578   6.762   2.851  10.768 -0.4906  0.6224 -0.1136
  119OSM     OF12579   6.775   2.760  10.851 -0.2200  0.0204  0.3536
  119OSM    C2F12580   6.873   2.956  10.752  1.2101 -0.6584 -0.1352
  119OSM    H2F12581   6.877   3.010  10.849 -1.2412  1.0131 -0.8766
  119OSM    H2G12582   6.835   3.038  10.688 -0.6949 -0.1840  1.4868
  119OSM    C3F12583   7.011   2.895  10.709 -0.6821 -0.5071  0.3390
  119OSM    H3F12584   7.036   2.811  10.777  0.5430 -1.1297 -0.8233
  119OSM    H3G12585   7.093   2.970  10.715 -0.4577 -0.7244  0.0246
  119OSM    C4F12586   7.019   2.842  10.562  0.1155 -0.6616  0.6383
  119OSM    H4F12587   6.966   2.745  10.577 -3.5605  1.0286 -0.2788
  119OSM    H4G12588   7.127   2.832  10.539 -0.0188 -0.0459 -0.3314
  119OSM    C5F12589   6.938   2.940  10.464  0.6970 -0.1082 -0.3016
  119OSM    H5F12590   6.986   3.041  10.463  2.4310 -0.8634  1.1908
  119OSM    H5G12591   6.832   2.953  10.493  0.9347  0.1242  0.5161
  119OSM    C6F12592   6.932   2.902  10.318 -0.0386 -0.1070  0.2042
  119OSM    H6F12593   6.879   2.989  10.274 -1.8038 -0.6076  1.2456
  119OSM    H6G12594   6.863   2.816  10.309 -1.1443  0.9107 -1.7477
  119OSM    C7F12595   7.073   2.880  10.248  1.2115 -0.4194 -0.0273
  119OSM    H7F12596   7.133   2.805  10.303  0.2858  1.1962  3.4876
  119OSM    H7G12597   7.130   2.975  10.249 -0.2806  0.5329 -0.8857
  119OSM    C8F12598   7.048   2.826  10.102 -0.0308  0.5170  0.0778
  119OSM    H8F12599   6.985   2.735  10.111  1.5406 -0.5451  0.8211
  119OSM    H8G12600   7.140   2.781  10.058  0.6750  1.2005  0.8212
  119OSM    C9F12601   6.994   2.934  10.014 -0.2140  0.1346  0.2424
  119OSM    H9F12602   7.067   3.009   9.981 -1.7096  0.4851 -2.6488
  119OSM   C10F12603   6.864   2.940   9.982  0.0212  0.4437  0.9749
  119OSM   H10F12604   6.841   3.014   9.903 -1.3923 -1.8926 -0.9705
  119OSM   C11F12605   6.756   2.845  10.021  0.1294  0.3114 -0.1460
  119OSM   H11F12606   6.701   2.877  10.112  2.6889  0.2692  1.5371
  119OSM   H11G12607   6.784   2.740  10.041 -1.4693  0.1367  1.3373
  119OSM   C12F12608   6.671   2.828   9.894 -0.2631  0.0651  0.0634
  119OSM   H12F12609   6.633   2.923   9.852 -0.2187 -0.4411 -1.1614
  119OSM   H12G12610   6.571   2.789   9.921  0.1963 -0.4744  1.0421
  119OSM   C13F12611   6.740   2.747   9.783  0.6926  0.5307 -0.2353
  119OSM   H13F12612   6.749   2.642   9.817 -1.3050  0.5357  0.4570
  119OSM   H13G12613   6.837   2.797   9.764 -0.8939  2.8741 -3.1381
  119OSM   C14F12614   6.666   2.751   9.651 -0.3957 -0.2112  0.2187
  119OSM   H14F12615   6.678   2.848   9.599 -2.6568 -0.4956 -0.9598
  119OSM   H14G12616   6.561   2.723   9.672 -0.6840  0.0484 -0.8137
  119OSM   C15F12617   6.724   2.637   9.563 -0.2543  0.0609 -0.0709
  119OSM   H15F12618   6.701   2.536   9.602  0.4642 -0.3405 -0.6697
  119OSM   H15G12619   6.833   2.634   9.541  0.6754  1.3349  3.6187
  119OSM   C16F12620   6.659   2.642   9.423 -0.1822  0.4177  0.6467
  119OSM   H16F12621   6.669   2.733   9.359  0.9146 -0.3616 -0.3336
  119OSM   H16G12622   6.548   2.642   9.430 -0.3929  0.4774 -1.7267
  119OSM   C17F12623   6.689   2.517   9.338 -0.2686 -0.7398  0.0745
  119OSM   H17F12624   6.653   2.426   9.391 -0.9378 -0.9425 -0.7105
  119OSM   H17G12625   6.799   2.504   9.332 -0.1229 -0.4832  1.6521
  119OSM   C18F12626   6.630   2.523   9.196 -0.0420  0.8854  0.4273
  119OSM   H18F12627   6.647   2.425   9.145 -2.2015 -0.2594  1.7572
  119OSM   H18G12628   6.681   2.598   9.133  0.3396 -1.1428 -1.8184
  119OSM   H18H12629   6.520   2.537   9.202 -0.2430 -0.3978  0.0776
  120OSM      N12630   6.318   6.627  10.476  0.3390 -0.5952 -0.2723
  120OSM    C1512631   6.352   6.678  10.616 -0.6672 -0.5042 -0.2888
  120OSM   H15A12632   6.459   6.684  10.628 -0.1439 -2.6354 -2.9195
  120OSM   H15B12633   6.325   6.616  10.701  3.6118  0.8486  2.4020
  120OSM   H15C12634   6.303   6.774  10.630  1.0255  0.3325  0.1931
  120OSM    C1412635   6.394   6.498  10.457  0.4187 -0.7777 -0.6550
  120OSM   H14A12636   6.368   6.425  10.533 -0.2812 -0.6179 -0.7407
  120OSM   H14B12637   6.501   6.514  10.464 -0.0082  2.5528 -0.2277
  120OSM   H14C12638   6.373   6.464  10.357 -0.1820  2.8210 -1.9000
  120OSM    C1312639   6.172   6.592  10.479 -0.2877 -0.3280  1.1006
  120OSM   H13A12640   6.107   6.676  10.466 -0.4210 -0.6896 -0.9209
  120OSM   H13B12641   6.136   6.530  10.560 -2.7089 -1.5392 -0.7464
  120OSM   H13C12642   6.152   6.537  10.388  0.8552 -1.1216  1.2991
  120OSM    C1212643   6.345   6.732  10.363  0.9699  0.0473 -0.0792
  120OSM   H12A12644   6.300   6.829  10.381  1.5709  0.2326  0.4327
  120OSM   H12B12645   6.302   6.694  10.271 -0.1186 -1.2597  0.9130
  120OSM    C1112646   6.493   6.758  10.330  0.7790 -0.3412  0.0692
  120OSM   H11A12647   6.503   6.834  10.250 -1.3391  0.5516  0.5959
  120OSM   H11B12648   6.536   6.665  10.288 -0.1235 -0.0126 -1.6666
  120OSM      P12649   6.560   6.949  10.500 -0.0689 -0.4477 -0.0913
  120OSM    O1312650   6.444   7.022  10.443  0.2073 -0.1914  0.4839
  120OSM    O1412651   6.583   6.945  10.652 -0.6934 -0.3678  0.1623
  120OSM    O1112652   6.691   7.000  10.422 -0.3811 -0.3029  0.4631
  120OSM    O1212653   6.566   6.798  10.449  0.0260 -0.2001 -0.4693
  120OSM    C1S12654   6.814   6.925  10.434  0.1876  0.5341 -0.2166
  120OSM    H1S12655   6.806   6.851  10.516  2.6055  0.9576  0.4833
  120OSM    H1T12656   6.893   6.999  10.461 -1.0323  1.3494  1.2775
  120OSM     NF12657   6.987   6.784  10.324 -0.2352  0.1991 -0.3323
  120OSM    HNF12658   7.065   6.845  10.325  0.2333 -0.3497  1.5419
  120OSM    C2S12659   6.858   6.851  10.303  0.9822  0.6519  0.0878
  120OSM    H2S12660   6.776   6.778  10.285 -1.4274  3.1035  0.4558
  120OSM    C3S12661   6.846   6.946  10.173 -0.2892  0.6022 -0.0039
  120OSM    H3S12662   6.922   7.025  10.188 -0.3917  0.2484  2.8283
  120OSM     O312663   6.725   7.017  10.147 -0.0727 -0.2548 -0.0185
  120OSM    HO312664   6.674   7.004  10.227  1.1401 -0.9287  0.6669
  120OSM    C4S12665   6.873   6.870  10.044 -0.1341  0.3272  0.0494
  120OSM    H4S12666   6.799   6.790  10.029 -1.2923  1.1634  1.0735
  120OSM    C5S12667   6.970   6.877   9.952  0.0572 -0.5736  0.5212
  120OSM    H5S12668   7.059   6.940   9.967 -0.1812  0.2473 -1.2302
  120OSM    C6S12669   6.973   6.786   9.829  0.6791  0.5063 -0.2528
  120OSM    H6S12670   6.925   6.686   9.824  1.3945  0.2094 -2.1839
  120OSM    H6T12671   7.079   6.762   9.805 -0.5230 -2.7362 -3.1857
  120OSM    C7S12672   6.921   6.858   9.707 -0.1424 -0.0578 -0.1645
  120OSM    H7S12673   6.963   6.802   9.621  2.8233  0.6254  0.7272
  120OSM    H7T12674   6.968   6.959   9.710 -0.5630  0.1747 -1.1754
  120OSM    C8S12675   6.770   6.871   9.702 -0.1216  0.2450 -0.6385
  120OSM    H8S12676   6.740   6.932   9.790 -0.4500 -0.3902 -0.3018
  120OSM    H8T12677   6.716   6.775   9.710  1.0917 -0.4782 -0.8430
  120OSM    C9S12678   6.716   6.947   9.585  0.1767 -0.3161 -0.4661
  120OSM    H9S12679   6.765   7.047   9.596  1.0048 -0.6786 -0.8080
  120OSM    H9T12680   6.606   6.958   9.590  0.0543 -1.6560  0.2107
  120OSM   C10S12681   6.757   6.887   9.451  0.4452 -0.7449 -0.2590
  120OSM   H10S12682   6.738   6.779   9.434 -1.3111 -0.5756  0.4197
  120OSM   H10T12683   6.868   6.901   9.445  0.4573  0.0836  1.4546
  120OSM   C11S12684   6.684   6.965   9.333  0.4071  0.4133 -0.2622
  120OSM   H11S12685   6.708   7.072   9.351  1.3222 -0.0297  1.3829
  120OSM   H11T12686   6.576   6.939   9.336  0.4557  0.2491  0.2532
  120OSM   C12S12687   6.734   6.913   9.199  0.7751  0.0928 -0.2251
  120OSM   H12S12688   6.735   6.802   9.200  1.7778  0.0963  1.3935
  120OSM   H12T12689   6.840   6.944   9.184  0.2758  0.4120 -4.4612
  120OSM   C13S12690   6.651   6.960   9.074 -0.8571  0.7083 -0.3117
  120OSM   H13S12691   6.671   7.068   9.058  0.4568  0.4750 -0.3557
  120OSM   H13T12692   6.546   6.943   9.106 -0.6873 -1.5303 -0.7508
  120OSM   C14S12693   6.687   6.885   8.946 -0.3566  0.1714 -0.1022
  120OSM   H14S12694   6.673   6.778   8.974 -1.0909  0.1045 -0.7003
  120OSM   H14T12695   6.788   6.914   8.910 -1.3067  1.1482 -2.1486
  120OSM   C15S12696   6.605   6.919   8.821 -0.3655 -0.0306  1.0735
  120OSM   H15S12697   6.617   6.840   8.744 -2.2386  1.4139 -0.7960
  120OSM   H15T12698   6.637   7.021   8.790 -1.9853 -0.3972 -2.1213
  120OSM   C16S12699   6.458   6.922   8.844 -0.0305  0.1103 -0.4507
  120OSM   H16S12700   6.423   6.985   8.929 -0.1165 -1.6364  0.8410
  120OSM   H16T12701   6.437   6.820   8.882 -1.5310  0.6675  0.3121
  120OSM   C17S12702   6.376   6.928   8.720 -0.6033 -0.0302 -0.1298
  120OSM   H17S12703   6.387   6.835   8.660  0.9610 -0.7385  1.1568
  120OSM   H17T12704   6.422   6.998   8.647 -0.3362 -0.2276 -0.1513
  120OSM   C18S12705   6.231   6.971   8.751 -0.2631 -0.4995 -0.3919
  120OSM   H18S12706   6.236   7.040   8.838  1.8862 -1.3179  0.1756
  120OSM   H18T12707   6.179   6.887   8.803 -1.1754 -0.7652 -1.6902
  120OSM   H18U12708   6.172   7.008   8.664 -1.1045  0.4506  0.5485
  120OSM    C1F12709   7.001   6.674  10.396  0.7696 -0.2455 -0.3073
  120OSM     OF12710   6.913   6.612  10.452 -0.3378 -0.2240  0.1668
  120OSM    C2F12711   7.144   6.627  10.410  0.5242 -0.6148 -0.1970
  120OSM    H2F12712   7.163   6.622  10.520 -0.4916 -0.4680 -0.0033
  120OSM    H2G12713   7.209   6.706  10.369 -0.7958  1.1115  0.8683
  120OSM    C3F12714   7.161   6.489  10.346  0.1011 -0.0405  0.2152
  120OSM    H3F12715   7.098   6.410  10.392  0.1209 -0.8915 -1.1598
  120OSM    H3G12716   7.266   6.460  10.366  1.2577  3.4171 -0.1528
  120OSM    C4F12717   7.136   6.485  10.195  0.2936  0.0757  0.5133
  120OSM    H4F12718   7.036   6.513  10.158 -0.2086 -2.3018 -0.1114
  120OSM    H4G12719   7.145   6.377  10.167  1.2201  0.2630  0.0388
  120OSM    C5F12720   7.246   6.571  10.131  0.1470 -0.4863 -0.0634
  120OSM    H5F12721   7.346   6.559  10.178  0.5493  1.7889 -0.2224
  120OSM    H5G12722   7.230   6.678  10.155 -0.1952 -0.9290  1.8668
  120OSM    C6F12723   7.264   6.564   9.983  0.3538  0.3558 -0.0774
  120OSM    H6F12724   7.340   6.640   9.956 -0.8310  2.1317  1.3129
  120OSM    H6G12725   7.171   6.587   9.928 -0.0228  0.6697  0.6699
  120OSM    C7F12726   7.321   6.430   9.938  0.1547  0.4117  0.0395
  120OSM    H7F12727   7.254   6.349   9.974 -0.5320  0.4744 -1.0275
  120OSM    H7G12728   7.420   6.421   9.987  1.6826 -1.5897 -3.0730
  120OSM    C8F12729   7.332   6.407   9.785 -0.4451  0.0242 -0.2255
  120OSM    H8F12730   7.228   6.395   9.746 -0.7741 -1.3781  0.9672
  120OSM    H8G12731   7.378   6.307   9.776 -1.1504 -0.2919 -0.4292
  120OSM    C9F12732   7.414   6.506   9.704 -0.0795 -0.4153  1.2342
  120OSM    H9F12733   7.507   6.545   9.748  0.2414  2.6800 -1.8003
  120OSM   C10F12734   7.374   6.562   9.586  0.1663 -0.2888 -0.4773
  120OSM   H10F12735   7.450   6.605   9.520  0.1027 -0.2118 -0.5003
  120OSM   C11F12736   7.246   6.538   9.507  0.1196 -0.8413 -0.0459
  120OSM   H11F12737   7.201   6.639   9.494  1.4158  0.1694  2.6548
  120OSM   H11G12738   7.169   6.477   9.558 -2.2505  2.4921  0.6673
  120OSM   C12F12739   7.277   6.474   9.365  0.1217 -0.1342 -0.3257
  120OSM   H12F12740   7.361   6.405   9.386  1.6198  1.6702 -0.1332
  120OSM   H12G12741   7.307   6.547   9.287 -1.3826 -0.4804 -1.2687
  120OSM   C13F12742   7.164   6.386   9.317  0.2424 -0.1988  0.8643
  120OSM   H13F12743   7.078   6.449   9.286 -0.6244 -1.1666  1.2410
  120OSM   H13G12744   7.127   6.324   9.402  1.6715  0.2228  1.8316
  120OSM   C14F12745   7.191   6.299   9.201 -0.5401 -0.1130  0.2345
  120OSM   H14F12746   7.101   6.238   9.178  0.0834 -0.7913 -0.4568
  120OSM   H14G12747   7.271   6.230   9.233  0.5506  1.3907  0.8784
  120OSM   C15F12748   7.255   6.361   9.078  0.1785  0.0150 -0.0472
  120OSM   H15F12749   7.355   6.407   9.096  0.7088  0.7813 -3.9395
  120OSM   H15G12750   7.186   6.436   9.033 -1.1099 -0.3980  1.2046
  120OSM   C16F12751   7.282   6.251   8.970  0.2573 -0.3646 -0.1823
  120OSM   H16F12752   7.190   6.194   8.949 -0.4995  0.8009 -0.1044
  120OSM   H16G12753   7.355   6.184   9.021  0.1357  0.8323  1.6863
  120OSM   C17F12754   7.345   6.295   8.833  0.3759 -0.2996 -0.2279
  120OSM   H17F12755   7.262   6.332   8.769 -0.6574  0.6435  1.5790
  120OSM   H17G12756   7.385   6.200   8.793  0.7344 -0.4221  0.4184
  120OSM   C18F12757   7.454   6.401   8.849  0.0724 -0.6079  0.7859
  120OSM   H18F12758   7.539   6.369   8.913  1.5853  2.2823  0.3654
  120OSM   H18G12759   7.400   6.487   8.894 -0.2985  0.6960 -1.9340
  120OSM   H18H12760   7.498   6.441   8.755 -1.0015 -0.6113  0.2618
  121OSM      N12761   5.681   3.406  11.123 -0.1320  0.8254 -0.2358
  121OSM    C1512762   5.636   3.298  11.221 -0.3146 -0.9406 -0.4867
  121OSM   H15A12763   5.720   3.244  11.262 -0.2002 -1.2632 -1.1195
  121OSM   H15B12764   5.576   3.225  11.167  1.3549 -2.1342 -0.8381
  121OSM   H15C12765   5.584   3.334  11.308 -2.3051 -0.4765 -1.7875
  121OSM    C1412766   5.554   3.485  11.077 -0.9974  0.6842 -0.6674
  121OSM   H14A12767   5.514   3.533  11.166  1.7172  0.7959  0.5780
  121OSM   H14B12768   5.484   3.421  11.026 -0.8464 -0.8723  0.9708
  121OSM   H14C12769   5.589   3.567  11.017 -0.2734  0.0084 -1.1952
  121OSM    C1312770   5.758   3.498  11.213 -0.5142 -0.2926 -0.1997
  121OSM   H13A12771   5.836   3.445  11.266 -0.5958  0.1088  0.3392
  121OSM   H13B12772   5.688   3.545  11.281  1.0919  3.2293 -0.7611
  121OSM   H13C12773   5.797   3.581  11.155 -0.8731  1.5390  2.0189
  121OSM    C1212774   5.769   3.343  11.020  0.4146  0.4424  0.0894
  121OSM   H12A12775   5.848   3.286  11.068  0.5953 -0.4931 -1.2751
  121OSM   H12B12776   5.811   3.426  10.965 -1.4431  1.2688 -0.1289
  121OSM    C1112777   5.706   3.231  10.926 -0.2639 -0.0338 -0.1031
  121OSM   H11A12778   5.768   3.231  10.834 -0.3791  3.3694 -0.2972
  121OSM   H11B12779   5.607   3.268  10.894 -0.0573  1.6343  1.0273
  121OSM      P12780   5.817   3.025  11.036  0.1777  0.1432 -0.0130
  121OSM    O1312781   5.898   3.090  11.143 -0.8029 -0.3915 -0.5124
  121OSM    O1412782   5.775   2.881  11.060 -0.2560 -0.3195  0.2260
  121OSM    O1112783   5.911   3.031  10.911  0.0112 -0.2009  0.0352
  121OSM    O1212784   5.692   3.109  10.997 -0.1383  0.4421  0.1327
  121OSM    C1S12785   5.865   2.977  10.782 -0.5066  0.6858 -0.0842
  121OSM    H1S12786   5.755   2.978  10.763 -0.1530 -1.2828 -2.9356
  121OSM    H1T12787   5.898   2.871  10.779  0.3330  0.9286  0.2823
  121OSM     NF12788   5.869   3.008  10.535 -0.1139  0.3329  0.9323
  121OSM    HNF12789   5.925   2.942  10.486  0.4268 -1.7435  4.0695
  121OSM    C2S12790   5.935   3.046  10.661 -0.1723 -0.9204  1.1741
  121OSM    H2S12791   5.917   3.154  10.677  1.3168 -0.5472  0.4948
  121OSM    C3S12792   6.091   3.028  10.672 -0.3970 -0.3507  0.2518
  121OSM    H3S12793   6.108   2.920  10.692  0.1538  0.1620  2.8179
  121OSM     O312794   6.147   3.094  10.785  0.4430  0.1902 -0.4269
  121OSM    HO312795   6.067   3.130  10.822 -1.0626 -2.6004 -0.6504
  121OSM    C4S12796   6.158   3.062  10.542  0.0937 -1.5681  0.1916
  121OSM    H4S12797   6.143   2.987  10.463  0.4233 -0.6113 -0.8048
  121OSM    C5S12798   6.233   3.173  10.522 -0.1825  0.0813  0.0221
  121OSM    H5S12799   6.232   3.259  10.591 -0.9118  0.8062 -0.8645
  121OSM    C6S12800   6.312   3.214  10.399  0.1349  0.7741  0.3269
  121OSM    H6S12801   6.421   3.221  10.417  0.1239 -0.2708  0.8698
  121OSM    H6T12802   6.288   3.312  10.352  1.1702  0.1559 -1.6116
  121OSM    C7S12803   6.303   3.110  10.282  0.4552 -0.4316  0.0518
  121OSM    H7S12804   6.197   3.100  10.252  0.3104 -0.0299  0.4428
  121OSM    H7T12805   6.350   3.016  10.319  2.9215 -0.4777 -2.7436
  121OSM    C8S12806   6.386   3.144  10.154 -0.4364  0.4325  0.2674
  121OSM    H8S12807   6.493   3.118  10.140  0.1854  2.7770  0.2349
  121OSM    H8T12808   6.394   3.254  10.141 -2.2354  0.6250  0.5234
  121OSM    C9S12809   6.326   3.088  10.025  0.5488  0.1058 -0.3368
  121OSM    H9S12810   6.220   3.121  10.025  0.0523 -1.1012  2.9238
  121OSM    H9T12811   6.333   2.978  10.028  1.0565  0.1455  0.2845
  121OSM   C10S12812   6.404   3.145   9.903 -0.0364  0.9121 -0.7184
  121OSM   H10S12813   6.501   3.092   9.895  1.0403  2.8606 -1.2842
  121OSM   H10T12814   6.428   3.252   9.919  2.1655  0.0848  2.2922
  121OSM   C11S12815   6.331   3.154   9.773  0.0947 -0.6819 -0.0767
  121OSM   H11S12816   6.351   3.254   9.729 -0.4868 -0.4781  0.1109
  121OSM   H11T12817   6.221   3.161   9.791  0.2322  0.2152  0.4841
  121OSM   C12S12818   6.354   3.035   9.689  0.1660  0.3371  0.3165
  121OSM   H12S12819   6.324   2.944   9.746  0.0983 -0.5286 -1.0507
  121OSM   H12T12820   6.465   3.038   9.679  0.0329  1.3363 -1.2113
  121OSM   C13S12821   6.297   3.039   9.551  0.8700 -0.1480 -0.2214
  121OSM   H13S12822   6.285   3.143   9.513  0.5210  0.2438  0.9167
  121OSM   H13T12823   6.195   2.994   9.547  1.5329 -1.6340 -1.4409
  121OSM   C14S12824   6.373   2.953   9.442  0.0859  0.4041  0.0769
  121OSM   H14S12825   6.365   2.844   9.464 -1.0601  0.4821  0.1011
  121OSM   H14T12826   6.478   2.986   9.453  0.1442 -0.5473  3.2497
  121OSM   C15S12827   6.309   2.981   9.308 -0.1463  0.9007 -0.3100
  121OSM   H15S12828   6.323   3.090   9.291 -0.0848  0.9890  0.2762
  121OSM   H15T12829   6.199   2.974   9.306 -0.3490  3.2437 -0.0906
  121OSM   C16S12830   6.367   2.895   9.194 -1.0344  0.7618 -0.0701
  121OSM   H16S12831   6.344   2.789   9.213  1.5023  0.1516 -0.0766
  121OSM   H16T12832   6.477   2.916   9.192 -1.2440  2.1664  0.9581
  121OSM   C17S12833   6.303   2.924   9.059  0.0541 -0.3055  0.7420
  121OSM   H17S12834   6.310   3.032   9.032 -1.4658 -0.6062 -1.0604
  121OSM   H17T12835   6.194   2.904   9.061 -0.8389  3.6508  0.6680
  121OSM   C18S12836   6.388   2.845   8.962 -0.4077  0.0155  0.0056
  121OSM   H18S12837   6.339   2.845   8.862 -0.8710 -0.1603  0.2309
  121OSM   H18T12838   6.420   2.742   8.988  1.4810 -0.3495 -3.1631
  121OSM   H18U12839   6.487   2.895   8.953 -0.6864  0.7455  0.8376
  121OSM    C1F12840   5.742   3.024  10.502 -0.3220  0.6216 -0.1542
  121OSM     OF12841   5.681   3.109  10.559  0.6100  0.2569  0.3105
  121OSM    C2F12842   5.677   2.922  10.401  0.4688 -0.1347  0.8330
  121OSM    H2F12843   5.606   2.873  10.469  0.3250 -2.3135 -0.7767
  121OSM    H2G12844   5.749   2.846  10.362  0.8770 -0.4460  2.1391
  121OSM    C3F12845   5.607   3.006  10.287 -0.6250  0.8848  0.5444
  121OSM    H3F12846   5.691   3.064  10.245  0.9705 -1.1376  0.8310
  121OSM    H3G12847   5.531   3.075  10.331 -2.8778 -1.2112  0.1971
  121OSM    C4F12848   5.544   2.915  10.184 -0.4105 -0.1868 -0.1359
  121OSM    H4F12849   5.452   2.869  10.227  0.0864 -2.3714 -1.2506
  121OSM    H4G12850   5.595   2.824  10.146  0.0877 -0.6868  1.6438
  121OSM    C5F12851   5.509   3.010  10.063  0.1102 -0.0063 -0.0416
  121OSM    H5F12852   5.592   3.083  10.053 -0.0798  0.3944  1.2419
  121OSM    H5G12853   5.419   3.071  10.083  0.4039 -0.1424  1.8262
  121OSM    C6F12854   5.502   2.941   9.926  0.0563  0.6822  0.2283
  121OSM    H6F12855   5.429   2.857   9.927  2.3433 -1.6227 -2.9431
  121OSM    H6G12856   5.602   2.893   9.928 -0.0490  0.4631  2.7058
  121OSM    C7F12857   5.486   3.034   9.810  0.4320 -0.6729 -0.1937
  121OSM    H7F12858   5.532   3.133   9.831  0.7371 -0.7514 -0.4926
  121OSM    H7G12859   5.377   3.058   9.809 -0.3431 -3.7513  1.0233
  121OSM    C8F12860   5.535   2.975   9.680 -0.3484  0.3453 -0.5588
  121OSM    H8F12861   5.469   2.886   9.677  1.4997 -1.0764 -0.3130
  121OSM    H8G12862   5.642   2.949   9.690 -0.5789 -0.1548  0.9655
  121OSM    C9F12863   5.516   3.072   9.567  0.0218  0.2488  0.2847
  121OSM    H9F12864   5.451   3.160   9.582 -1.4110 -0.4846 -1.2504
  121OSM   C10F12865   5.568   3.048   9.442  0.9147 -0.3272 -0.9227
  121OSM   H10F12866   5.551   3.134   9.375 -0.1210 -1.3344 -2.0062
  121OSM   C11F12867   5.649   2.935   9.400  0.1186  0.1039 -0.4915
  121OSM   H11F12868   5.657   2.858   9.480  0.4918  0.5343 -0.1115
  121OSM   H11G12869   5.752   2.974   9.389  0.4839 -1.1701 -1.7253
  121OSM   C12F12870   5.605   2.861   9.268 -0.2308  0.0069  0.2095
  121OSM   H12F12871   5.690   2.800   9.232  1.7535  1.8234  1.5616
  121OSM   H12G12872   5.589   2.944   9.196  1.9996  1.5683  1.3887
  121OSM   C13F12873   5.479   2.780   9.269 -0.7844 -0.2204 -0.4070
  121OSM   H13F12874   5.394   2.832   9.319 -0.3476 -0.0747  0.2006
  121OSM   H13G12875   5.478   2.687   9.331  0.1746 -0.6535 -1.0230
  121OSM   C14F12876   5.440   2.751   9.123 -0.1459  0.0406 -0.3856
  121OSM   H14F12877   5.514   2.686   9.071  0.4518  1.5113 -1.4558
  121OSM   H14G12878   5.420   2.843   9.064 -1.3891 -1.1940 -2.0009
  121OSM   C15F12879   5.309   2.675   9.111  0.4567  0.4536 -0.2874
  121OSM   H15F12880   5.226   2.710   9.176  0.0405  1.0447 -1.1098
  121OSM   H15G12881   5.324   2.568   9.133  0.0705  0.6570  1.0344
  121OSM   C16F12882   5.262   2.697   8.963  0.0400  0.4530 -0.2293
  121OSM   H16F12883   5.264   2.804   8.935  1.6915  0.8577  1.2609
  121OSM   H16G12884   5.155   2.668   8.953 -0.4494  2.0567  0.1287
  121OSM   C17F12885   5.344   2.613   8.868 -1.0606  0.2636 -1.2815
  121OSM   H17F12886   5.375   2.522   8.923  0.1995 -1.1116 -4.0969
  121OSM   H17G12887   5.442   2.657   8.839 -0.2979 -1.8413 -2.0701
  121OSM   C18F12888   5.272   2.561   8.748  0.3148 -0.6579 -0.3433
  121OSM   H18F12889   5.187   2.505   8.791 -0.7012 -0.0812 -1.5311
  121OSM   H18G12890   5.339   2.495   8.689 -1.2837 -2.6803 -0.0086
  121OSM   H18H12891   5.242   2.641   8.677  1.8337 -1.5572 -2.0899
  122OSM      N12892   6.343   1.039  10.720  0.5035  0.9077 -0.2047
  122OSM    C1512893   6.365   1.170  10.643  0.7516  0.6502 -0.2600
  122OSM   H15A12894   6.430   1.161  10.558 -0.1612  2.3909 -1.2037
  122OSM   H15B12895   6.406   1.239  10.715 -0.4205 -1.2534  2.4108
  122OSM   H15C12896   6.263   1.197  10.616  0.5210  0.1707  0.1190
  122OSM    C1412897   6.471   0.999  10.785  0.0795  0.1224 -0.3880
  122OSM   H14A12898   6.459   0.899  10.824  2.7689 -0.0374  0.2424
  122OSM   H14B12899   6.499   1.064  10.868 -0.2345  0.2804 -0.4077
  122OSM   H14C12900   6.561   0.984  10.726  1.5267 -0.9323  1.9119
  122OSM    C1312901   6.249   1.067  10.836 -0.0343  0.2457 -0.2398
  122OSM   H13A12902   6.152   1.103  10.805  0.3338 -0.1877 -1.9530
  122OSM   H13B12903   6.300   1.142  10.895 -0.7487  0.6437 -0.1082
  122OSM   H13C12904   6.236   0.979  10.896  0.1301 -0.4935 -1.2710
  122OSM    C1212905   6.295   0.930  10.626  0.0446 -0.0663  0.2686
  122OSM   H12A12906   6.365   0.908  10.547  0.8975  0.0738  0.9765
  122OSM   H12B12907   6.207   0.969  10.577  1.4107 -0.6689 -2.8811
  122OSM    C1112908   6.258   0.789  10.686  0.4875  0.9101 -0.3242
  122OSM   H11A12909   6.210   0.725  10.610 -4.3583  2.9518  0.6737
  122OSM   H11B12910   6.186   0.812  10.767  1.0789  1.8996 -0.0652
  122OSM      P12911   6.490   0.660  10.669  0.5591  0.0729  0.2164
  122OSM    O1312912   6.615   0.667  10.747  0.8601  0.2666 -0.7157
  122OSM    O1412913   6.443   0.524  10.633  0.6045  0.2098  0.4491
  122OSM    O1112914   6.509   0.738  10.540  0.1132  0.2707 -0.3921
  122OSM    O1212915   6.369   0.730  10.745 -1.0822 -0.1681 -0.1605
  122OSM    C1S12916   6.572   0.677  10.429 -0.7422  0.5817  0.2311
  122OSM    H1S12917   6.553   0.568  10.424 -2.5847  0.7379  2.4519
  122OSM    H1T12918   6.682   0.692  10.434 -0.5066 -0.1240 -1.8284
  122OSM     NF12919   6.536   0.675  10.181  0.3348  0.1110 -0.2846
  122OSM    HNF12920   6.615   0.689  10.122  0.0488 -1.4368 -1.0685
  122OSM    C2S12921   6.518   0.757  10.300  0.0900  0.8109 -0.0650
  122OSM    H2S12922   6.409   0.769  10.315  0.0714 -1.8341  3.3021
  122OSM    C3S12923   6.584   0.897  10.292  0.0221  0.4894 -1.0648
  122OSM    H3S12924   6.692   0.878  10.279  0.1557  0.5108 -0.1045
  122OSM     O312925   6.570   0.974  10.411 -0.4195 -0.4902  0.3379
  122OSM    HO312926   6.561   0.903  10.475  1.0023 -1.3350 -0.3550
  122OSM    C4S12927   6.529   0.974  10.183 -0.1033  0.2889  0.4705
  122OSM    H4S12928   6.432   1.022  10.201 -0.5249  0.1179 -1.1362
  122OSM    C5S12929   6.604   1.021  10.077  0.4523  0.4844 -0.0323
  122OSM    H5S12930   6.710   0.992  10.069 -0.4424 -4.2148  2.0595
  122OSM    C6S12931   6.550   1.114   9.974  0.3614  0.6161  0.5479
  122OSM    H6S12932   6.460   1.166  10.013  0.5491 -0.0524  1.9099
  122OSM    H6T12933   6.523   1.058   9.882  0.3807  0.6903  0.4959
  122OSM    C7S12934   6.629   1.239   9.930 -0.9744 -0.2306  0.2135
  122OSM    H7S12935   6.649   1.310  10.013  0.5419  1.4523 -1.5053
  122OSM    H7T12936   6.566   1.291   9.854 -1.4718 -0.8750  0.1793
  122OSM    C8S12937   6.768   1.206   9.863  0.7051 -0.2920 -0.7506
  122OSM    H8S12938   6.836   1.185   9.948  0.8381 -0.5099 -0.9065
  122OSM    H8T12939   6.803   1.295   9.806  1.4505  0.9668  1.5621
  122OSM    C9S12940   6.766   1.086   9.771  0.8834 -0.1626 -0.1288
  122OSM    H9S12941   6.678   1.110   9.709  1.5085 -0.9927 -1.3823
  122OSM    H9T12942   6.752   0.985   9.815 -0.7750 -0.3552 -1.0272
  122OSM   C10S12943   6.903   1.089   9.702 -0.5869 -0.4002  0.3001
  122OSM   H10S12944   6.977   1.098   9.785 -1.3802  0.0674  0.9774
  122OSM   H10T12945   6.911   1.179   9.637 -0.9600 -1.4364 -1.2200
  122OSM   C11S12946   6.933   0.965   9.615 -0.6240 -0.0782  0.1966
  122OSM   H11S12947   6.867   0.958   9.526  0.1480 -0.2276 -0.3650
  122OSM   H11T12948   6.927   0.876   9.680 -1.3519  1.0892  1.8064
  122OSM   C12S12949   7.069   0.969   9.567 -0.6099 -0.0499  0.4211
  122OSM   H12S12950   7.094   0.873   9.516  2.0792  0.6969  0.1850
  122OSM   H12T12951   7.148   1.000   9.638  1.4732  1.2775 -2.2813
  122OSM   C13S12952   7.093   1.074   9.456 -0.5619  0.1827  0.2492
  122OSM   H13S12953   7.117   1.169   9.507  0.2897  0.8955 -1.3823
  122OSM   H13T12954   6.997   1.097   9.404 -0.0110 -0.1760 -0.9803
  122OSM   C14S12955   7.187   1.040   9.342 -0.7462  0.3646  0.3974
  122OSM   H14S12956   7.270   0.978   9.382 -1.0729  0.1899  0.8079
  122OSM   H14T12957   7.229   1.134   9.299  2.4123 -1.3362 -0.5592
  122OSM   C15S12958   7.113   0.948   9.239  0.1093  0.3222  0.1698
  122OSM   H15S12959   7.009   0.977   9.214 -0.9960 -1.1952  2.5652
  122OSM   H15T12960   7.091   0.859   9.302  1.2285  1.1476  1.8155
  122OSM   C16S12961   7.197   0.929   9.114  0.5542  0.4360 -0.5491
  122OSM   H16S12962   7.305   0.923   9.136  0.2775  1.0670  1.0983
  122OSM   H16T12963   7.192   1.032   9.073  2.7293  1.6632  1.9524
  122OSM   C17S12964   7.142   0.817   9.021  0.2723 -0.0840 -0.4186
  122OSM   H17S12965   7.035   0.845   9.007 -0.1893 -0.7801  1.3734
  122OSM   H17T12966   7.153   0.725   9.083 -1.5918 -0.9517 -1.3010
  122OSM   C18S12967   7.225   0.803   8.892  0.4842  0.3154 -0.3086
  122OSM   H18S12968   7.214   0.698   8.857 -0.9314  0.3787 -0.0970
  122OSM   H18T12969   7.330   0.827   8.920  0.5760  0.4694 -0.7852
  122OSM   H18U12970   7.188   0.868   8.810  0.3134  0.7215  0.0864
  122OSM    C1F12971   6.460   0.567  10.148  0.8486 -0.4232 -0.0001
  122OSM     OF12972   6.361   0.526  10.209 -0.2686  0.4166 -0.4330
  122OSM    C2F12973   6.511   0.493  10.026 -0.1416  0.4114 -0.0476
  122OSM    H2F12974   6.433   0.421   9.992 -0.0959  1.1473 -1.8217
  122OSM    H2G12975   6.601   0.433  10.049 -0.3681 -0.6629 -1.7350
  122OSM    C3F12976   6.562   0.573   9.904  0.3739 -0.3658  0.9777
  122OSM    H3F12977   6.588   0.496   9.829 -0.7535 -0.2586  0.4536
  122OSM    H3G12978   6.654   0.629   9.930 -0.9516  1.0098  3.0710
  122OSM    C4F12979   6.451   0.664   9.848  0.3537  0.0292  0.4299
  122OSM    H4F12980   6.428   0.743   9.922 -0.7933  0.4245 -0.3198
  122OSM    H4G12981   6.353   0.611   9.840  0.3419 -0.0949  1.3184
  122OSM    C5F12982   6.492   0.714   9.707  0.1426 -0.3570  0.3721
  122OSM    H5F12983   6.516   0.623   9.647 -0.3082  0.1534 -0.6033
  122OSM    H5G12984   6.588   0.768   9.715 -0.0501  0.2626 -1.1457
  122OSM    C6F12985   6.396   0.807   9.627 -0.2064 -0.1442 -0.4459
  122OSM    H6F12986   6.396   0.908   9.674  0.9078  0.2488 -1.2437
  122OSM    H6G12987   6.295   0.762   9.626  0.0686 -0.9491  2.1719
  122OSM    C7F12988   6.435   0.828   9.480  0.5350  0.2839  0.5753
  122OSM    H7F12989   6.347   0.866   9.423  0.3743  0.3909  0.8912
  122OSM    H7G12990   6.464   0.727   9.443  4.1247  1.3148  0.2875
  122OSM    C8F12991   6.562   0.912   9.462 -0.0228 -0.0201  0.6974
  122OSM    H8F12992   6.638   0.872   9.533  1.7438  4.4983  1.6666
  122OSM    H8G12993   6.542   1.014   9.500 -1.2156  0.4125 -0.9738
  122OSM    C9F12994   6.634   0.902   9.331  0.1154 -0.4224  0.1181
  122OSM    H9F12995   6.651   0.796   9.308 -0.1579 -1.0698  2.6690
  122OSM   C10F12996   6.664   1.000   9.247 -0.7236 -0.2241  0.0277
  122OSM   H10F12997   6.720   0.975   9.156 -1.5247  0.3228 -0.6321
  122OSM   C11F12998   6.636   1.147   9.280 -0.1238  0.4752 -0.2223
  122OSM   H11F12999   6.732   1.203   9.285  0.6267 -0.8041  0.2989
  122OSM   H11G13000   6.585   1.162   9.377  4.0602 -0.0718  2.3024
  122OSM   C12F13001   6.559   1.211   9.166  0.1151  0.0335 -0.1685
  122OSM   H12F13002   6.461   1.162   9.150  0.5299 -0.9301  0.1333
  122OSM   H12G13003   6.606   1.200   9.066 -0.5533  0.7204 -0.5702
  122OSM   C13F13004   6.530   1.361   9.185 -0.1177  0.4886 -0.2253
  122OSM   H13F13005   6.566   1.394   9.285 -1.9184 -0.1098  0.6728
  122OSM   H13G13006   6.424   1.388   9.165 -0.7970  0.0568  2.3568
  122OSM   C14F13007   6.610   1.447   9.088 -0.3729  0.3719 -0.0041
  122OSM   H14F13008   6.604   1.411   8.983 -2.4702  3.0370 -0.9304
  122OSM   H14G13009   6.719   1.438   9.105 -0.6549  1.6186  2.9815
  122OSM   C15F13010   6.584   1.599   9.091  0.5891  0.3750 -0.5056
  122OSM   H15F13011   6.590   1.625   9.199 -1.6026 -2.4048  0.4160
  122OSM   H15G13012   6.477   1.617   9.067  0.1838 -1.1334  0.0416
  122OSM   C16F13013   6.676   1.676   8.999 -0.1600  0.1301  0.0438
  122OSM   H16F13014   6.781   1.640   9.006 -0.5854 -1.1388  0.2466
  122OSM   H16G13015   6.677   1.783   9.028 -3.7779  0.0013  1.1577
  122OSM   C17F13016   6.636   1.670   8.850 -0.1358 -0.4240  0.4824
  122OSM   H17F13017   6.540   1.725   8.837 -0.3980 -0.9855 -0.0317
  122OSM   H17G13018   6.619   1.568   8.810 -0.9454 -0.0799 -0.1091
  122OSM   C18F13019   6.734   1.747   8.759  0.9664  0.2716 -0.8711
  122OSM   H18F13020   6.780   1.831   8.815 -3.1119  1.9030  0.3832
  122OSM   H18G13021   6.682   1.795   8.673 -0.8813 -1.4866 -0.8266
  122OSM   H18H13022   6.823   1.688   8.728  1.2750 -0.3569  1.0681
  123OSM      N13023   3.203   6.379   6.149  0.0608  0.2614  0.5537
  123OSM    C1513024   3.259   6.392   6.292  0.0625  0.7358  0.4017
  123OSM   H15A13025   3.316   6.306   6.322 -0.6213  0.4231  0.8071
  123OSM   H15B13026   3.177   6.402   6.361  0.4190  1.2908  0.7590
  123OSM   H15C13027   3.319   6.482   6.304  0.5844  0.5176 -0.4318
  123OSM    C1413028   3.309   6.376   6.051 -0.2830  0.2741  0.1723
  123OSM   H14A13029   3.278   6.357   5.949  1.9512  2.4649 -1.0027
  123OSM   H14B13030   3.384   6.303   6.077 -0.5961  0.2257  0.9722
  123OSM   H14C13031   3.365   6.468   6.048 -0.1660  0.1738 -2.1570
  123OSM    C1313032   3.137   6.243   6.143  0.1022 -0.5139  0.1212
  123OSM   H13A13033   3.193   6.171   6.201  2.1256  0.7848 -0.1143
  123OSM   H13B13034   3.137   6.208   6.041  1.5975 -0.9630  0.2530
  123OSM   H13C13035   3.035   6.248   6.178  0.8541  0.8108  2.3593
  123OSM    C1213036   3.095   6.481   6.117  0.0375 -0.8614 -0.0515
  123OSM   H12A13037   3.048   6.450   6.025 -0.8069 -3.0866  1.0561
  123OSM   H12B13038   3.136   6.580   6.101 -1.9153  0.2209  1.2418
  123OSM    C1113039   2.981   6.497   6.221 -0.2353 -0.4041 -0.4636
  123OSM   H11A13040   2.915   6.581   6.190 -0.7560 -0.4382  0.5202
  123OSM   H11B13041   3.019   6.526   6.322  0.2653 -1.5531 -0.3045
  123OSM      P13042   2.801   6.352   6.123  0.1251  0.2464  0.1499
  123OSM    O1313043   2.817   6.447   6.012  0.9655  0.8112 -0.2943
  123OSM    O1413044   2.816   6.209   6.087 -0.5365  0.2235 -0.2941
  123OSM    O1113045   2.662   6.368   6.184 -0.0661  0.4936 -0.5936
  123OSM    O1213046   2.899   6.382   6.242 -0.3839  0.1568 -0.5865
  123OSM    C1S13047   2.616   6.327   6.310  0.1422 -0.6785 -0.5508
  123OSM    H1S13048   2.693   6.258   6.352 -2.0597 -1.3250  2.8624
  123OSM    H1T13049   2.520   6.273   6.305  0.0697 -0.4720 -1.5170
  123OSM     NF13050   2.560   6.392   6.538  0.4828  0.1274 -0.1122
  123OSM    HNF13051   2.466   6.372   6.566 -0.9579  0.8121 -3.9049
  123OSM    C2S13052   2.593   6.447   6.411  0.8696 -0.5612 -0.5059
  123OSM    H2S13053   2.684   6.511   6.412 -0.3377  1.2628 -1.2966
  123OSM    C3S13054   2.489   6.539   6.355  0.6988  0.6022 -0.0638
  123OSM    H3S13055   2.399   6.483   6.322  1.4318 -1.4794  1.2800
  123OSM     O313056   2.541   6.600   6.237  0.8969 -0.1685 -0.3360
  123OSM    HO313057   2.602   6.533   6.207 -1.3143 -2.0242 -0.9564
  123OSM    C4S13058   2.460   6.646   6.451 -0.3887  0.5034  0.4942
  123OSM    H4S13059   2.528   6.731   6.466 -0.4339  0.8591 -1.1394
  123OSM    C5S13060   2.345   6.651   6.508  1.0559  0.1780 -0.0578
  123OSM    H5S13061   2.269   6.573   6.494  0.8203  0.4635 -0.3765
  123OSM    C6S13062   2.320   6.768   6.603 -0.4723 -0.5463  0.9167
  123OSM    H6S13063   2.218   6.808   6.588 -0.8922 -1.8350  0.1563
  123OSM    H6T13064   2.390   6.852   6.585 -0.8975 -0.5068 -0.6733
  123OSM    C7S13065   2.311   6.720   6.748  0.4117  0.0164 -0.8984
  123OSM    H7S13066   2.210   6.678   6.766  0.2824  0.1200 -1.3587
  123OSM    H7T13067   2.309   6.815   6.805 -1.0269 -0.9023  0.6619
  123OSM    C8S13068   2.433   6.633   6.789  0.3302  0.2404 -0.0353
  123OSM    H8S13069   2.528   6.661   6.739 -0.2300  0.6522 -0.9032
  123OSM    H8T13070   2.412   6.531   6.748 -2.0674  0.6815 -0.0375
  123OSM    C9S13071   2.470   6.651   6.933 -1.0781  0.1482 -0.6548
  123OSM    H9S13072   2.392   6.615   7.004 -1.2797  0.8379 -0.5244
  123OSM    H9T13073   2.474   6.760   6.954 -2.3404  0.2306 -0.8031
  123OSM   C10S13074   2.613   6.582   6.973 -0.0638  0.1920  0.4978
  123OSM   H10S13075   2.695   6.633   6.919 -2.0456  1.6010 -1.3256
  123OSM   H10T13076   2.600   6.474   6.951 -2.1965 -0.2023  3.1181
  123OSM   C11S13077   2.656   6.570   7.122 -0.4401  0.0298  0.2955
  123OSM   H11S13078   2.753   6.515   7.118 -0.8973 -0.7554 -0.1268
  123OSM   H11T13079   2.584   6.512   7.182 -0.2087 -0.9152 -0.3134
  123OSM   C12S13080   2.687   6.706   7.188  0.4931  0.2537 -0.4698
  123OSM   H12S13081   2.591   6.756   7.214  1.8945  3.0106 -0.1530
  123OSM   H12T13082   2.734   6.772   7.111  2.3567 -0.8606 -0.3381
  123OSM   C13S13083   2.775   6.684   7.310  0.0943 -0.4845 -0.4175
  123OSM   H13S13084   2.882   6.671   7.283  0.3118  0.8152 -0.2436
  123OSM   H13T13085   2.744   6.597   7.370  1.7089  0.2550  1.6054
  123OSM   C14S13086   2.770   6.804   7.410 -0.2648 -0.1258  0.5232
  123OSM   H14S13087   2.668   6.810   7.455 -0.2933  1.1729  0.3123
  123OSM   H14T13088   2.779   6.901   7.357  1.6984 -0.3591  0.3674
  123OSM   C15S13089   2.884   6.796   7.509  0.1732 -0.4114  0.0772
  123OSM   H15S13090   2.982   6.778   7.460  1.2303  4.1869  0.0509
  123OSM   H15T13091   2.854   6.712   7.575  0.0793  0.5468  1.2891
  123OSM   C16S13092   2.891   6.923   7.589  0.5148 -0.1104 -0.6056
  123OSM   H16S13093   2.789   6.947   7.629  1.0918  0.5408  0.5394
  123OSM   H16T13094   2.929   7.003   7.522  2.1964  2.5176  3.0857
  123OSM   C17S13095   2.987   6.910   7.706  0.0567 -0.1735 -0.3719
  123OSM   H17S13096   3.075   6.849   7.676 -0.2851 -0.7361 -0.2428
  123OSM   H17T13097   2.944   6.843   7.783  1.0550 -1.0818 -0.5846
  123OSM   C18S13098   3.029   7.043   7.769  0.3418 -0.1293  0.2679
  123OSM   H18S13099   3.093   7.040   7.860  0.9138  2.9356  0.0678
  123OSM   H18T13100   2.946   7.115   7.784  0.6367  0.0526  1.0979
  123OSM   H18U13101   3.094   7.094   7.695  0.2749  2.1845  1.7170
  123OSM    C1F13102   2.648   6.334   6.616  0.3715 -0.3443 -0.1542
  123OSM     OF13103   2.768   6.357   6.602  0.4442  0.5054 -0.7406
  123OSM    C2F13104   2.593   6.255   6.733 -0.2913  0.4197 -0.3298
  123OSM    H2F13105   2.496   6.218   6.693 -0.9002  1.0134  0.5386
  123OSM    H2G13106   2.578   6.315   6.825 -0.8950  0.1303 -0.2307
  123OSM    C3F13107   2.664   6.123   6.779 -0.0408  0.6301 -0.2743
  123OSM    H3F13108   2.761   6.155   6.823 -0.0640 -1.4156  1.4306
  123OSM    H3G13109   2.673   6.059   6.689 -2.3551 -0.1637 -0.0151
  123OSM    C4F13110   2.605   6.047   6.895 -0.1871  0.6854  0.7638
  123OSM    H4F13111   2.680   5.967   6.916 -1.5837 -0.9307 -0.1501
  123OSM    H4G13112   2.517   5.993   6.855  0.9362  0.0640 -0.9744
  123OSM    C5F13113   2.583   6.133   7.019  0.2358  0.5545  0.2004
  123OSM    H5F13114   2.535   6.230   6.992 -0.5718 -0.0667 -0.6908
  123OSM    H5G13115   2.686   6.156   7.053  1.5481 -5.2242  1.2668
  123OSM    C6F13116   2.519   6.066   7.140 -0.0325  0.1174 -0.5348
  123OSM    H6F13117   2.572   5.970   7.158 -0.5546  0.1045  1.0539
  123OSM    H6G13118   2.411   6.046   7.125 -0.0083 -0.5115  0.0789
  123OSM    C7F13119   2.541   6.144   7.278  0.6124  0.4709  0.9269
  123OSM    H7F13120   2.506   6.246   7.250 -0.6528 -0.3473 -0.7021
  123OSM    H7G13121   2.650   6.143   7.302  0.8626 -0.4468 -0.1218
  123OSM    C8F13122   2.447   6.099   7.401  0.2401  0.0153  0.5253
  123OSM    H8F13123   2.344   6.107   7.361  0.8896 -1.1840 -1.5756
  123OSM    H8G13124   2.457   6.169   7.486 -2.1087  0.3508  0.5895
  123OSM    C9F13125   2.459   5.952   7.442 -0.0414 -0.7210  0.1259
  123OSM    H9F13126   2.475   5.876   7.364 -0.3998 -0.7695  0.1015
  123OSM   C10F13127   2.469   5.915   7.571 -0.1361 -0.4383 -0.7232
  123OSM   H10F13128   2.487   5.808   7.589  0.3902 -0.3799 -0.8927
  123OSM   C11F13129   2.469   5.999   7.693 -0.1574 -0.0957 -0.6665
  123OSM   H11F13130   2.364   6.034   7.699  0.4264  2.3161 -2.7546
  123OSM   H11G13131   2.535   6.089   7.691  1.2203 -1.0015  1.0569
  123OSM   C12F13132   2.502   5.908   7.815 -0.4894 -0.0238  0.0735
  123OSM   H12F13133   2.599   5.854   7.805 -1.1703 -1.5766  1.2675
  123OSM   H12G13134   2.425   5.829   7.827 -0.5404 -0.1641 -1.0829
  123OSM   C13F13135   2.486   5.983   7.950 -0.2093  0.0010 -0.1850
  123OSM   H13F13136   2.380   6.017   7.952  0.7870  4.4054 -3.9889
  123OSM   H13G13137   2.545   6.077   7.942  0.8461 -0.6236  0.1416
  123OSM   C14F13138   2.537   5.914   8.079 -0.1228 -0.4966  0.8026
  123OSM   H14F13139   2.643   5.886   8.060  0.6636  1.2219  2.3575
  123OSM   H14G13140   2.472   5.824   8.090  0.3814 -0.9905 -0.1178
  123OSM   C15F13141   2.527   6.018   8.187  0.4391 -0.9474 -0.0995
  123OSM   H15F13142   2.424   6.059   8.175  2.0156  2.5774 -3.6656
  123OSM   H15G13143   2.585   6.110   8.167  0.2150 -0.3115  1.9228
  123OSM   C16F13144   2.560   5.972   8.331  0.5822  0.0957  0.0955
  123OSM   H16F13145   2.502   5.879   8.351 -0.1889  0.5954  0.2355
  123OSM   H16G13146   2.525   6.053   8.398  0.4788  0.3111 -0.2162
  123OSM   C17F13147   2.711   5.968   8.362  0.2389 -0.0393 -0.3238
  123OSM   H17F13148   2.753   6.065   8.326 -1.8279  0.2888 -2.0655
  123OSM   H17G13149   2.761   5.904   8.287  0.0571  0.1265 -0.5920
  123OSM   C18F13150   2.744   5.926   8.508 -0.2771 -0.5730 -0.3687
  123OSM   H18F13151   2.844   5.967   8.533 -0.2500 -1.2802  0.7624
  123OSM   H18G13152   2.748   5.817   8.525 -5.4127 -0.9928 -0.1424
  123OSM   H18H13153   2.666   5.962   8.579  0.4420  0.5887 -0.1282
  124OSM      N13154   6.744   4.107   5.970 -0.4502  0.5986  0.0354
  124OSM    C1513155   6.661   4.130   5.859 -0.0159 -0.8742  0.3343
  124OSM   H15A13156   6.714   4.134   5.765  0.9582  1.5927  0.9274
  124OSM   H15B13157   6.609   4.225   5.867  0.5722 -0.5310  0.0986
  124OSM   H15C13158   6.589   4.052   5.837  2.4074 -2.3227 -3.3626
  124OSM    C1413159   6.809   3.971   5.936 -0.0286 -0.1151 -0.3522
  124OSM   H14A13160   6.882   3.938   6.008  0.2451 -0.7921 -0.9259
  124OSM   H14B13161   6.859   3.980   5.841 -1.1666 -2.5753 -1.2805
  124OSM   H14C13162   6.734   3.894   5.924  1.9401 -2.3303  0.7553
  124OSM    C1313163   6.850   4.207   5.964 -0.2031 -0.4378  0.0368
  124OSM   H13A13164   6.910   4.196   5.875  2.1670  2.7307  1.0342
  124OSM   H13B13165   6.924   4.194   6.042 -1.3662 -1.7358  0.9787
  124OSM   H13C13166   6.811   4.308   5.968  0.4963 -0.2006  1.7800
  124OSM    C1213167   6.682   4.111   6.107  0.3884 -0.1535  0.7002
  124OSM   H12A13168   6.608   4.032   6.106 -0.3343  0.3954 -2.4394
  124OSM   H12B13169   6.622   4.202   6.108  1.1273  0.4408 -1.7767
  124OSM    C1113170   6.764   4.104   6.234  0.7814  0.6072  0.4180
  124OSM   H11A13171   6.690   4.099   6.317  1.1060  1.6237  0.7872
  124OSM   H11B13172   6.830   4.192   6.250  2.1889 -0.3264 -0.0814
  124OSM      P13173   6.822   3.852   6.308  0.2357  0.1566 -0.0169
  124OSM    O1313174   6.678   3.817   6.312 -0.3102 -0.6889  0.0038
  124OSM    O1413175   6.920   3.756   6.249 -0.0969 -0.0162  0.1576
  124OSM    O1113176   6.862   3.876   6.458  0.8950  0.3737  0.8016
  124OSM    O1213177   6.855   3.994   6.244  0.6308 -0.0118 -0.3551
  124OSM    C1S13178   6.955   3.979   6.491  0.0774 -0.0833  0.4009
  124OSM    H1S13179   6.904   4.078   6.491  0.2252  0.0544 -2.4290
  124OSM    H1T13180   7.053   3.972   6.439 -0.3961 -0.5236 -0.4362
  124OSM     NF13181   7.075   4.073   6.702  0.5947  0.1973 -0.2505
  124OSM    HNF13182   7.164   4.057   6.745 -0.3534 -0.3327  1.5970
  124OSM    C2S13183   7.005   3.955   6.646  0.7340  0.0412  0.6163
  124OSM    H2S13184   6.908   3.932   6.695  1.4481 -2.3579  1.0456
  124OSM    C3S13185   7.091   3.822   6.650  1.0554  0.2778  0.9862
  124OSM    H3S13186   7.187   3.836   6.596 -0.9411  0.8225 -2.7412
  124OSM     O313187   7.033   3.706   6.576 -0.4033  0.8517 -0.3862
  124OSM    HO313188   6.956   3.745   6.534 -0.1929  0.7199 -0.9040
  124OSM    C4S13189   7.117   3.795   6.792 -0.3290  0.2541  0.5613
  124OSM    H4S13190   7.221   3.820   6.819 -1.2460  2.3889  2.4629
  124OSM    C5S13191   7.044   3.725   6.880 -0.2510  0.5213 -0.3336
  124OSM    H5S13192   6.943   3.696   6.849  0.9249 -1.3982 -2.7884
  124OSM    C6S13193   7.071   3.677   7.024 -0.5940 -0.0185 -0.3677
  124OSM    H6S13194   7.127   3.583   7.010 -1.2993 -0.2831 -1.5239
  124OSM    H6T13195   6.971   3.659   7.069 -0.2589  1.6603  1.1833
  124OSM    C7S13196   7.163   3.760   7.114  0.0120 -0.0682 -0.0104
  124OSM    H7S13197   7.120   3.860   7.136 -0.2073  0.0186 -0.8268
  124OSM    H7T13198   7.249   3.785   7.049  1.2462 -1.8081  0.8792
  124OSM    C8S13199   7.222   3.683   7.232  0.1615 -0.5817  0.5718
  124OSM    H8S13200   7.300   3.611   7.198 -1.7997 -2.7759  0.3828
  124OSM    H8T13201   7.145   3.612   7.271  0.3937 -1.9022 -1.2253
  124OSM    C9S13202   7.266   3.775   7.340 -0.0937 -0.6309 -0.1890
  124OSM    H9S13203   7.185   3.847   7.364  1.9787  0.9923  2.5249
  124OSM    H9T13204   7.349   3.835   7.296  0.2550  0.2378  1.5653
  124OSM   C10S13205   7.308   3.698   7.466 -0.1878  0.0012  0.4474
  124OSM   H10S13206   7.388   3.626   7.439 -0.4063  0.4991 -1.7211
  124OSM   H10T13207   7.221   3.644   7.511 -0.3993 -0.1938 -0.1861
  124OSM   C11S13208   7.353   3.793   7.584  0.8315  0.2129 -0.0139
  124OSM   H11S13209   7.264   3.843   7.629 -1.4504 -3.4299 -0.0633
  124OSM   H11T13210   7.422   3.859   7.528  0.1864  1.0320  0.1397
  124OSM   C12S13211   7.445   3.729   7.684  0.9741  0.2832  0.3140
  124OSM   H12S13212   7.500   3.648   7.631 -0.4876 -0.7767  0.3469
  124OSM   H12T13213   7.392   3.668   7.760  1.0834 -0.8231 -0.4607
  124OSM   C13S13214   7.545   3.819   7.760  0.2315 -0.0459 -0.4155
  124OSM   H13S13215   7.489   3.906   7.800 -1.2996 -0.3073 -1.8903
  124OSM   H13T13216   7.623   3.852   7.688  2.0097  0.8364  1.7696
  124OSM   C14S13217   7.607   3.748   7.882  0.1672  1.0788  0.1761
  124OSM   H14S13218   7.663   3.667   7.831 -0.6227  0.3689  0.4172
  124OSM   H14T13219   7.528   3.695   7.940  1.0709  1.2165  1.5985
  124OSM   C15S13220   7.690   3.828   7.978  0.0684 -0.3906 -0.4710
  124OSM   H15S13221   7.704   3.779   8.077 -1.8599 -1.2459 -0.5758
  124OSM   H15T13222   7.629   3.919   7.994  0.1403 -0.2132 -1.1820
  124OSM   C16S13223   7.830   3.869   7.915 -0.3574  0.3934 -0.5419
  124OSM   H16S13224   7.831   3.975   7.947  0.8793 -0.0960  1.2448
  124OSM   H16T13225   7.830   3.867   7.804  0.3337 -0.7464 -0.5407
  124OSM   C17S13226   7.949   3.779   7.960  0.4518 -0.2888  0.0410
  124OSM   H17S13227   8.042   3.804   7.903  1.2796 -0.3253  1.3297
  124OSM   H17T13228   7.914   3.678   7.929  1.7866 -0.9033  0.4640
  124OSM   C18S13229   7.991   3.768   8.105  0.6098  0.0707 -0.2747
  124OSM   H18S13230   7.902   3.724   8.153  1.3683 -3.0822 -1.5369
  124OSM   H18T13231   8.014   3.872   8.140 -2.0615  0.0197  1.9677
  124OSM   H18U13232   8.078   3.700   8.120 -1.6445 -2.4846  2.4531
  124OSM    C1F13233   7.020   4.199   6.709  0.7887  0.4211  0.3308
  124OSM     OF13234   6.910   4.221   6.670  0.4675 -0.2345 -0.1809
  124OSM    C2F13235   7.107   4.311   6.764  0.3191  0.3290 -0.6163
  124OSM    H2F13236   7.104   4.405   6.706  0.8085 -0.3834 -1.8371
  124OSM    H2G13237   7.209   4.269   6.758 -0.7348 -2.4581 -0.8475
  124OSM    C3F13238   7.080   4.341   6.913 -0.5485 -0.1566  0.4501
  124OSM    H3F13239   6.973   4.361   6.937 -0.8602  0.5923 -1.3990
  124OSM    H3G13240   7.143   4.428   6.942  0.2920 -1.1961  1.8499
  124OSM    C4F13241   7.120   4.227   7.013 -0.5463  0.2910  0.2838
  124OSM    H4F13242   7.217   4.192   6.971 -0.0010  1.8637  0.1704
  124OSM    H4G13243   7.048   4.143   7.013 -0.3367  0.0792  2.2496
  124OSM    C5F13244   7.131   4.287   7.156 -0.3659  0.1535 -0.0966
  124OSM    H5F13245   7.075   4.383   7.159 -2.6182 -0.9640 -2.1649
  124OSM    H5G13246   7.236   4.320   7.168 -0.0158 -0.5218 -1.1152
  124OSM    C6F13247   7.086   4.186   7.266 -0.4180 -0.0241  0.0093
  124OSM    H6F13248   7.122   4.081   7.252  1.0125  0.5869 -1.2589
  124OSM    H6G13249   6.976   4.197   7.265 -0.3555  1.0956  1.6414
  124OSM    C7F13250   7.144   4.228   7.407  0.3652  0.3001  0.3452
  124OSM    H7F13251   7.067   4.301   7.440 -0.1094  1.4248 -2.8209
  124OSM    H7G13252   7.231   4.295   7.389  0.9426 -0.6201 -0.4044
  124OSM    C8F13253   7.164   4.117   7.510 -0.1866 -0.9048  0.4567
  124OSM    H8F13254   7.257   4.132   7.569 -0.3054 -3.3372  1.3826
  124OSM    H8G13255   7.190   4.025   7.453 -2.0070 -1.1786  0.0024
  124OSM    C9F13256   7.041   4.083   7.586  0.3496  0.0049  0.0971
  124OSM    H9F13257   6.959   4.045   7.524  1.0303 -1.5004  0.0791
  124OSM   C10F13258   7.021   4.089   7.722 -0.1453  0.0772  0.5079
  124OSM   H10F13259   6.924   4.073   7.771 -0.4962  0.6092 -0.0042
  124OSM   C11F13260   7.129   4.136   7.819  0.5669  0.2969 -0.1120
  124OSM   H11F13261   7.096   4.222   7.880  0.2581  1.2312 -1.5372
  124OSM   H11G13262   7.221   4.159   7.762  0.5740  1.1776  0.2414
  124OSM   C12F13263   7.177   4.026   7.917 -0.9011 -0.2830 -0.0512
  124OSM   H12F13264   7.219   3.945   7.854  1.2008  0.9456 -0.3176
  124OSM   H12G13265   7.089   3.980   7.966 -0.0997 -0.1426  1.6044
  124OSM   C13F13266   7.276   4.072   8.025 -0.1276  0.2386  0.6827
  124OSM   H13F13267   7.364   4.127   7.984 -0.6629  2.6094  2.4613
  124OSM   H13G13268   7.318   3.980   8.071 -1.5889 -2.2689 -2.5760
  124OSM   C14F13269   7.212   4.165   8.125 -0.2298  0.5325 -0.2998
  124OSM   H14F13270   7.115   4.118   8.153  0.1978 -0.7848 -0.9559
  124OSM   H14G13271   7.182   4.261   8.077  2.0609  1.3439 -0.2627
  124OSM   C15F13272   7.300   4.196   8.248  0.2784 -0.0281  0.1878
  124OSM   H15F13273   7.402   4.231   8.220  0.3372 -0.4174 -0.0894
  124OSM   H15G13274   7.318   4.101   8.303 -0.1123 -0.6182 -0.6820
  124OSM   C16F13275   7.241   4.298   8.346 -0.0330 -0.7209 -0.9366
  124OSM   H16F13276   7.173   4.234   8.406  0.5151 -1.4065 -1.0380
  124OSM   H16G13277   7.179   4.371   8.290  0.3606  0.5590  0.2662
  124OSM   C17F13278   7.331   4.368   8.446 -0.5251  0.0220  0.1261
  124OSM   H17F13279   7.271   4.427   8.518  0.9942  0.5960  0.9596
  124OSM   H17G13280   7.389   4.441   8.384 -0.0922  1.2723  1.9209
  124OSM   C18F13281   7.430   4.274   8.521 -0.4246 -0.1330 -0.3705
  124OSM   H18F13282   7.507   4.225   8.457 -0.1056 -1.4300  0.9588
  124OSM   H18G13283   7.373   4.198   8.578 -0.8139  2.4274  2.9743
  124OSM   H18H13284   7.483   4.325   8.604 -1.0072 -0.1089 -0.0113
  125OSM      N13285   6.449   5.946   6.369  0.3640  0.7151 -0.7460
  125OSM    C1513286   6.346   5.970   6.473 -0.6750  1.2405 -0.2312
  125OSM   H15A13287   6.269   5.894   6.472 -0.4580  1.0198 -0.2926
  125OSM   H15B13288   6.296   6.064   6.457 -1.0649  1.6812  2.8959
  125OSM   H15C13289   6.382   5.970   6.575  1.1991  0.5396 -0.8428
  125OSM    C1413290   6.499   5.800   6.376  0.2285 -0.0277 -0.3859
  125OSM   H14A13291   6.578   5.786   6.303 -0.1309 -0.6999 -0.6600
  125OSM   H14B13292   6.420   5.727   6.368 -0.2302  0.3741  0.3742
  125OSM   H14C13293   6.537   5.779   6.475 -1.3931  2.6464  0.9050
  125OSM    C1313294   6.381   5.969   6.235  0.3697  0.5171  0.1834
  125OSM   H13A13295   6.341   6.069   6.228 -1.5771 -0.0465  2.2723
  125OSM   H13B13296   6.290   5.914   6.217  0.7053  0.7134 -2.7075
  125OSM   H13C13297   6.442   5.942   6.149  0.0361 -1.9493  0.6512
  125OSM    C1213298   6.561   6.047   6.392 -0.0701 -0.7205 -0.1792
  125OSM   H12A13299   6.600   6.044   6.492  2.1089  0.0862 -0.9461
  125OSM   H12B13300   6.527   6.149   6.382 -3.1586 -1.5026  0.9985
  125OSM    C1113301   6.676   6.028   6.298 -0.2660 -0.9983 -0.0751
  125OSM   H11A13302   6.648   6.032   6.190  3.1067  2.4136 -1.0505
  125OSM   H11B13303   6.729   5.932   6.310 -0.9949 -1.3662  0.2745
  125OSM      P13304   6.911   6.128   6.383 -0.0188 -0.2919  0.0883
  125OSM    O1313305   6.942   5.983   6.394  0.4836 -0.4172  0.2802
  125OSM    O1413306   7.016   6.213   6.322  0.3621  0.3328  0.0438
  125OSM    O1113307   6.871   6.186   6.526  0.6132 -0.3666  0.1737
  125OSM    O1213308   6.770   6.143   6.303 -0.1901  0.1627  0.1877
  125OSM    C1S13309   6.797   6.312   6.522  0.2101  0.2082 -0.6345
  125OSM    H1S13310   6.687   6.297   6.514  0.5062 -2.6507 -0.1870
  125OSM    H1T13311   6.834   6.382   6.443  0.5614 -1.0468 -1.6062
  125OSM     NF13312   6.747   6.499   6.691  0.0942  0.0189  0.2689
  125OSM    HNF13313   6.792   6.587   6.673 -0.2936  0.4951  1.5374
  125OSM    C2S13314   6.829   6.380   6.665  0.1600  0.2721  0.0002
  125OSM    H2S13315   6.794   6.298   6.731 -0.6843  0.5241 -0.1227
  125OSM    C3S13316   6.986   6.407   6.677 -0.2959  0.1321 -0.3588
  125OSM    H3S13317   7.012   6.483   6.600 -1.5424  0.7492 -0.1897
  125OSM     O313318   7.077   6.298   6.662  0.0776 -0.0608  0.1723
  125OSM    HO313319   7.027   6.229   6.618 -0.4728 -0.1760  0.9565
  125OSM    C4S13320   7.012   6.471   6.812 -0.0287 -0.3931 -0.3885
  125OSM    H4S13321   7.014   6.580   6.800  1.3861 -0.4737 -1.0809
  125OSM    C5S13322   7.020   6.405   6.929 -0.3870 -0.7280 -0.5592
  125OSM    H5S13323   7.005   6.297   6.943 -0.4899 -0.8030 -1.1918
  125OSM    C6S13324   7.024   6.481   7.059  0.4791 -0.3834 -0.0495
  125OSM    H6S13325   7.052   6.588   7.045 -2.1711  0.4271  0.3134
  125OSM    H6T13326   7.097   6.444   7.134 -0.8809  0.9322  2.0301
  125OSM    C7S13327   6.884   6.458   7.124 -0.1029 -0.4548 -0.1554
  125OSM    H7S13328   6.868   6.349   7.138 -0.4820 -0.4738 -0.7148
  125OSM    H7T13329   6.799   6.500   7.066 -0.3635 -0.2334  0.3785
  125OSM    C8S13330   6.877   6.527   7.258 -0.3891 -0.1419 -0.8028
  125OSM    H8S13331   6.896   6.636   7.251  0.4212 -0.0848  1.4970
  125OSM    H8T13332   6.956   6.485   7.324  0.8413  3.2803  0.1387
  125OSM    C9S13333   6.747   6.510   7.333  0.7114 -0.3838  0.0548
  125OSM    H9S13334   6.729   6.400   7.339  0.7699 -0.3332  1.5009
  125OSM    H9T13335   6.675   6.565   7.268  2.6765  2.1277 -0.1198
  125OSM   C10S13336   6.749   6.569   7.474  0.3096 -0.7709 -0.1313
  125OSM   H10S13337   6.788   6.672   7.466 -0.2698 -0.2539  2.8394
  125OSM   H10T13338   6.824   6.521   7.541  0.7122 -2.0366 -1.4238
  125OSM   C11S13339   6.611   6.577   7.543 -0.2826 -0.1195  0.2271
  125OSM   H11S13340   6.561   6.480   7.560 -4.4936  2.1039  1.9669
  125OSM   H11T13341   6.545   6.632   7.472  2.1995  0.3387 -1.8989
  125OSM   C12S13342   6.625   6.658   7.668 -0.1386  0.7339 -0.3071
  125OSM   H12S13343   6.644   6.767   7.670  2.3956  0.3945  2.6208
  125OSM   H12T13344   6.717   6.619   7.716 -0.7804  0.1587  0.4837
  125OSM   C13S13345   6.503   6.625   7.753  0.1841 -1.0263 -0.2931
  125OSM   H13S13346   6.498   6.518   7.781  2.1596 -0.7518  1.3934
  125OSM   H13T13347   6.411   6.671   7.709 -1.9890 -2.2045  2.6977
  125OSM   C14S13348   6.515   6.696   7.899  0.4990 -0.4689  0.2090
  125OSM   H14S13349   6.503   6.803   7.874  0.1123 -0.6961 -0.5981
  125OSM   H14T13350   6.616   6.668   7.939  0.2089 -0.0255  1.2997
  125OSM   C15S13351   6.419   6.644   8.003 -0.0679 -0.0349  0.0472
  125OSM   H15S13352   6.436   6.536   8.018  0.6455  0.2264  1.2253
  125OSM   H15T13353   6.311   6.665   7.983 -0.2722  0.7012  1.7696
  125OSM   C16S13354   6.439   6.712   8.142  1.1690 -0.2644 -0.4878
  125OSM   H16S13355   6.407   6.818   8.140 -1.0647 -0.8925 -0.3596
  125OSM   H16T13356   6.544   6.712   8.179  1.3135  1.5785 -0.8088
  125OSM   C17S13357   6.353   6.652   8.251 -0.3371  0.7500 -0.9592
  125OSM   H17S13358   6.363   6.541   8.243  0.5095  0.7250  0.1306
  125OSM   H17T13359   6.250   6.690   8.234 -0.9325 -0.9742 -1.5000
  125OSM   C18S13360   6.381   6.704   8.402 -0.1508 -1.0706 -0.4543
  125OSM   H18S13361   6.396   6.814   8.398 -1.4948 -0.7905  1.1097
  125OSM   H18T13362   6.478   6.663   8.438  0.3123  0.2091 -0.1858
  125OSM   H18U13363   6.302   6.690   8.478  0.8404 -1.8589  0.4703
  125OSM    C1F13364   6.615   6.491   6.718  0.2391  0.5126  0.2304
  125OSM     OF13365   6.554   6.384   6.735 -0.6086 -0.5486  0.2402
  125OSM    C2F13366   6.528   6.617   6.719  0.0814 -0.4231  0.4376
  125OSM    H2F13367   6.504   6.642   6.614  1.1139  1.3356  0.5904
  125OSM    H2G13368   6.598   6.693   6.760 -0.7270 -0.4676  1.9867
  125OSM    C3F13369   6.397   6.602   6.796  0.0354  0.2753 -0.0274
  125OSM    H3F13370   6.423   6.568   6.899 -0.5084  2.9847  1.0927
  125OSM    H3G13371   6.337   6.522   6.748 -0.4803 -0.2023  1.3493
  125OSM    C4F13372   6.324   6.736   6.805 -0.3075 -0.7404  0.0188
  125OSM    H4F13373   6.306   6.772   6.702 -1.8151 -2.0099 -0.1977
  125OSM    H4G13374   6.390   6.809   6.856 -0.5282 -0.5606  0.0493
  125OSM    C5F13375   6.198   6.737   6.886 -0.1389  0.8435  0.0873
  125OSM    H5F13376   6.123   6.685   6.822  1.2945 -0.0666 -0.8983
  125OSM    H5G13377   6.160   6.842   6.894 -3.9858 -0.1905 -1.8231
  125OSM    C6F13378   6.199   6.669   7.029  0.0840 -0.0744  0.5435
  125OSM    H6F13379   6.248   6.571   7.010 -2.5289 -1.3197 -0.2487
  125OSM    H6G13380   6.093   6.644   7.051  0.3093 -2.2746 -0.6066
  125OSM    C7F13381   6.281   6.750   7.125 -0.1443 -0.3621 -0.8733
  125OSM    H7F13382   6.248   6.856   7.121 -0.2342 -0.1859  2.2002
  125OSM    H7G13383   6.386   6.739   7.091  0.1816  1.7015 -0.6744
  125OSM    C8F13384   6.273   6.698   7.269  0.2546 -0.5114 -0.5425
  125OSM    H8F13385   6.360   6.742   7.322  1.4559 -2.8395 -0.4694
  125OSM    H8G13386   6.296   6.589   7.262 -0.5147 -0.7364  0.1825
  125OSM    C9F13387   6.145   6.710   7.350 -0.5694  0.9325  1.4147
  125OSM    H9F13388   6.057   6.662   7.307  0.2227 -0.4903  1.3331
  125OSM   C10F13389   6.129   6.783   7.454  0.5792 -0.9570 -0.5759
  125OSM   H10F13390   6.025   6.809   7.480  1.1532  0.2874  0.6379
  125OSM   C11F13391   6.235   6.861   7.522 -0.3860 -0.4381  0.1116
  125OSM   H11F13392   6.289   6.925   7.449 -0.9131 -0.2227 -0.0864
  125OSM   H11G13393   6.319   6.798   7.561 -0.9621 -2.2662 -1.4549
  125OSM   C12F13394   6.174   6.945   7.645 -0.1232 -0.3773  0.4912
  125OSM   H12F13395   6.090   7.008   7.610 -0.2353 -0.1509  1.1666
  125OSM   H12G13396   6.250   7.019   7.677  0.1546 -1.2152  1.8303
  125OSM   C13F13397   6.119   6.853   7.754  0.0280 -0.4282 -0.4032
  125OSM   H13F13398   6.205   6.795   7.794 -1.2947 -1.5859  0.8835
  125OSM   H13G13399   6.041   6.783   7.718  0.1894 -0.0703 -1.4739
  125OSM   C14F13400   6.043   6.930   7.861  0.2186  0.3112 -0.1711
  125OSM   H14F13401   5.944   6.963   7.823 -0.5336  0.3453  1.7183
  125OSM   H14G13402   6.106   7.019   7.885 -0.6132  1.3388 -1.6235
  125OSM   C15F13403   6.015   6.846   7.990  0.0692 -0.2204 -0.2077
  125OSM   H15F13404   5.991   6.921   8.068 -1.7018  1.1048 -1.9123
  125OSM   H15G13405   6.111   6.799   8.020 -1.9975 -3.4020  2.0234
  125OSM   C16F13406   5.913   6.737   7.975  0.0769 -0.0105  0.2968
  125OSM   H16F13407   5.957   6.671   7.898 -3.1293 -1.0409 -0.8091
  125OSM   H16G13408   5.812   6.761   7.933 -0.0013 -0.3281  0.3026
  125OSM   C17F13409   5.892   6.680   8.113 -0.2377  0.5168 -0.1546
  125OSM   H17F13410   5.854   6.757   8.184  0.9043  1.0134 -0.0667
  125OSM   H17G13411   5.994   6.647   8.139  0.0155 -0.3357 -2.1054
  125OSM   C18F13412   5.800   6.555   8.117  0.8720 -0.5461 -0.4377
  125OSM   H18F13413   5.693   6.582   8.100  0.6310 -0.4880  1.0096
  125OSM   H18G13414   5.788   6.512   8.219 -2.9215  2.3967  0.6154
  125OSM   H18H13415   5.830   6.480   8.042 -0.8186  0.7459 -2.5421
  126OSM      N13416   4.071   6.148   6.394 -0.0076 -0.2773  0.3541
  126OSM    C1513417   4.037   6.241   6.276  0.1095 -0.7886  0.2590
  126OSM   H15A13418   3.939   6.286   6.280  1.2157  1.9460 -0.8124
  126OSM   H15B13419   4.059   6.189   6.184  2.0965  0.9293 -0.3066
  126OSM   H15C13420   4.100   6.329   6.284  2.3416 -2.4038  1.7499
  126OSM    C1413421   4.044   6.216   6.526 -0.7064  0.2312 -0.0083
  126OSM   H14A13422   4.125   6.282   6.554 -0.5193 -0.2309  0.5679
  126OSM   H14B13423   4.037   6.134   6.596  1.8669 -1.6941 -1.8333
  126OSM   H14C13424   3.948   6.263   6.520 -0.6446  0.3836  0.1834
  126OSM    C1313425   3.987   6.020   6.385  0.4814 -0.0774 -0.1587
  126OSM   H13A13426   3.889   6.046   6.423  0.4615 -2.5545  1.7373
  126OSM   H13B13427   4.031   5.941   6.443  0.8930  0.2061 -0.0820
  126OSM   H13C13428   3.991   5.979   6.285  2.1249 -1.7295  0.5280
  126OSM    C1213429   4.215   6.105   6.378  0.2097 -0.0473  0.2365
  126OSM   H12A13430   4.231   6.046   6.288  3.4853 -1.8391  1.8190
  126OSM   H12B13431   4.246   6.039   6.457  1.1380  1.4468  1.1752
  126OSM    C1113432   4.312   6.223   6.384 -0.1076  0.6003 -0.2042
  126OSM   H11A13433   4.274   6.310   6.327 -0.0182  1.1477  0.5572
  126OSM   H11B13434   4.413   6.202   6.342 -0.1394  0.3493 -0.1572
  126OSM      P13435   4.403   6.180   6.625  0.0407  0.1036 -0.1433
  126OSM    O1313436   4.358   6.044   6.623 -0.1430  0.2748  0.8990
  126OSM    O1413437   4.546   6.211   6.630  0.0163  0.5367  0.4834
  126OSM    O1113438   4.334   6.258   6.752  0.0107  0.4695 -0.3137
  126OSM    O1213439   4.330   6.272   6.513 -0.6073  0.3727 -0.2654
  126OSM    C1S13440   4.259   6.189   6.856 -0.2434  0.1478  0.4460
  126OSM    H1S13441   4.234   6.082   6.836 -0.8344  0.3885 -0.0927
  126OSM    H1T13442   4.166   6.246   6.875  0.0315  1.5040 -1.9715
  126OSM     NF13443   4.289   6.120   7.088 -0.2989 -0.5519 -0.3980
  126OSM    HNF13444   4.211   6.155   7.139  0.9166 -0.0032  1.1647
  126OSM    C2S13445   4.345   6.203   6.986 -0.1799 -0.4794  0.1743
  126OSM    H2S13446   4.449   6.169   6.966  1.5803  2.5292  3.1097
  126OSM    C3S13447   4.362   6.357   7.038 -0.7656  0.3301  0.1252
  126OSM    H3S13448   4.259   6.399   7.048 -0.0699  2.1876 -0.0955
  126OSM     O313449   4.399   6.445   6.930 -0.5586 -0.8096  0.2342
  126OSM    HO313450   4.379   6.395   6.851  0.8949  1.2381 -1.5294
  126OSM    C4S13451   4.458   6.377   7.143 -0.1043  0.0196 -0.5232
  126OSM    H4S13452   4.563   6.367   7.112  0.0491  1.9679 -0.7712
  126OSM    C5S13453   4.427   6.422   7.266 -0.2568  0.4790 -0.0480
  126OSM    H5S13454   4.322   6.453   7.283 -0.4127  0.0433 -0.2056
  126OSM    C6S13455   4.523   6.456   7.377  0.0695 -0.1550 -0.7361
  126OSM    H6S13456   4.477   6.547   7.421 -4.3534 -2.0793 -0.8293
  126OSM    H6T13457   4.627   6.476   7.342  0.0403 -0.5419 -1.0489
  126OSM    C7S13458   4.551   6.350   7.490 -0.3173 -0.1105 -0.0939
  126OSM    H7S13459   4.464   6.283   7.501  0.5173 -1.0930  0.7216
  126OSM    H7T13460   4.565   6.412   7.581  0.2031 -0.8098  0.3126
  126OSM    C8S13461   4.681   6.273   7.472  0.6810  0.1488  0.1087
  126OSM    H8S13462   4.722   6.241   7.570  0.0012  1.1925  0.7493
  126OSM    H8T13463   4.752   6.345   7.427 -1.4726  1.2914 -1.6449
  126OSM    C9S13464   4.679   6.153   7.367  0.0698  0.2778 -0.4441
  126OSM    H9S13465   4.626   6.190   7.277  2.7416  1.2415 -1.7105
  126OSM    H9T13466   4.625   6.065   7.410 -1.7484  0.7617 -1.6349
  126OSM   C10S13467   4.819   6.106   7.329 -0.6305  0.9273  0.0499
  126OSM   H10S13468   4.894   6.111   7.411 -1.8184 -0.8691  1.3165
  126OSM   H10T13469   4.866   6.163   7.246  1.0429  1.1185  1.0889
  126OSM   C11S13470   4.816   5.966   7.278  0.0998  0.1686 -0.7870
  126OSM   H11S13471   4.729   5.962   7.209 -1.1259  2.1254  0.5576
  126OSM   H11T13472   4.786   5.894   7.357 -2.1218  3.3632  1.5118
  126OSM   C12S13473   4.946   5.921   7.217  0.4342  0.1050 -0.3830
  126OSM   H12S13474   4.990   6.002   7.155  1.3486 -0.6558 -0.7417
  126OSM   H12T13475   4.932   5.844   7.138  1.6016  0.8201 -1.3153
  126OSM   C13S13476   5.046   5.876   7.317  0.2809  0.1382 -0.4852
  126OSM   H13S13477   5.058   5.769   7.343  1.9647  0.3031 -0.4927
  126OSM   H13T13478   5.028   5.919   7.418  2.2186 -1.1926  0.5053
  126OSM   C14S13479   5.181   5.907   7.266  0.7220 -0.4719  0.1361
  126OSM   H14S13480   5.197   6.015   7.245  0.1483 -0.4417 -0.1433
  126OSM   H14T13481   5.188   5.865   7.164 -2.1554  0.7986 -0.6814
  126OSM   C15S13482   5.299   5.854   7.346 -0.6260  0.3094  0.0236
  126OSM   H15S13483   5.399   5.884   7.306 -0.0114  1.4373  2.2581
  126OSM   H15T13484   5.289   5.744   7.330 -4.3465  0.9360 -3.5050
  126OSM   C16S13485   5.298   5.872   7.495 -0.2482  0.2517 -0.7138
  126OSM   H16S13486   5.381   5.809   7.535  0.9528  1.4649 -1.2022
  126OSM   H16T13487   5.208   5.822   7.536 -0.1073  0.4275 -0.1842
  126OSM   C17S13488   5.324   6.012   7.551 -0.0639  0.2154  0.0369
  126OSM   H17S13489   5.279   6.093   7.490  1.2670  1.5731  0.7919
  126OSM   H17T13490   5.433   6.034   7.551  0.8219 -3.5133 -1.4549
  126OSM   C18S13491   5.280   6.035   7.692 -0.0036  0.5393 -0.0922
  126OSM   H18S13492   5.169   6.035   7.694 -0.0697  1.2670 -1.9463
  126OSM   H18T13493   5.311   6.125   7.749  3.3951 -1.2857  1.1971
  126OSM   H18U13494   5.317   5.954   7.759  1.8372  0.1961 -1.4527
  126OSM    C1F13495   4.301   5.989   7.088 -0.0949 -0.4154 -0.7840
  126OSM     OF13496   4.384   5.937   7.017 -0.4433 -0.5889 -0.0778
  126OSM    C2F13497   4.190   5.913   7.164  0.5844  0.2147 -0.6216
  126OSM    H2F13498   4.166   5.827   7.097  0.4000 -1.1957  1.1901
  126OSM    H2G13499   4.101   5.980   7.159  1.0712  0.8821 -0.4323
  126OSM    C3F13500   4.224   5.868   7.306  0.1853 -0.0117  0.9006
  126OSM    H3F13501   4.310   5.798   7.303  0.3879  0.2419  0.7577
  126OSM    H3G13502   4.133   5.814   7.338 -0.4046  0.7132  0.4722
  126OSM    C4F13503   4.260   5.981   7.402  0.4103  0.3869  0.4839
  126OSM    H4F13504   4.169   6.043   7.420 -0.8127 -1.8167  2.5181
  126OSM    H4G13505   4.336   6.052   7.363 -1.1432  1.8880  0.0626
  126OSM    C5F13506   4.295   5.931   7.545 -0.5637  0.0202  0.0062
  126OSM    H5F13507   4.387   5.868   7.542  0.8634  2.0015  0.3915
  126OSM    H5G13508   4.208   5.871   7.580 -1.2759  1.4284  0.6929
  126OSM    C6F13509   4.311   6.045   7.645 -0.6368  0.4065  0.2069
  126OSM    H6F13510   4.226   6.116   7.644 -0.1834  0.9724  0.9917
  126OSM    H6G13511   4.401   6.101   7.611 -0.3207  1.0809  2.0399
  126OSM    C7F13512   4.354   6.014   7.790  0.1575 -0.2964  0.3788
  126OSM    H7F13513   4.449   5.958   7.778  1.3543  1.3680  1.6387
  126OSM    H7G13514   4.285   5.938   7.832 -0.5465  0.0442 -0.1318
  126OSM    C8F13515   4.371   6.140   7.874 -0.5523  0.1220  0.2716
  126OSM    H8F13516   4.285   6.202   7.843 -1.3340 -1.9126 -1.9209
  126OSM    H8G13517   4.462   6.185   7.828  1.2603 -2.3126  1.2067
  126OSM    C9F13518   4.396   6.127   8.027  0.2154 -1.0060  0.4448
  126OSM    H9F13519   4.502   6.111   8.048  0.2918 -0.3062  0.6124
  126OSM   C10F13520   4.306   6.127   8.123 -0.5900 -0.0683  0.4052
  126OSM   H10F13521   4.341   6.127   8.227  0.7511 -0.3441 -0.0253
  126OSM   C11F13522   4.157   6.159   8.105 -0.9577 -0.3957  0.9065
  126OSM   H11F13523   4.098   6.068   8.125 -0.4663 -0.4558  2.2046
  126OSM   H11G13524   4.136   6.205   8.006  1.6825 -1.3150 -0.1885
  126OSM   C12F13525   4.114   6.264   8.217 -0.0747 -0.7139  0.0761
  126OSM   H12F13526   4.164   6.243   8.314  2.3150  2.0755 -0.4001
  126OSM   H12G13527   4.005   6.268   8.236 -0.1821  2.7127 -0.6066
  126OSM   C13F13528   4.165   6.405   8.181 -0.8373 -0.4249 -0.5294
  126OSM   H13F13529   4.094   6.452   8.109 -1.1554 -1.6737 -1.0498
  126OSM   H13G13530   4.262   6.400   8.128 -0.1578 -0.1060  0.6597
  126OSM   C14F13531   4.184   6.499   8.303  0.2319 -0.1775 -0.4018
  126OSM   H14F13532   4.249   6.450   8.379 -1.0233  0.1974  0.9432
  126OSM   H14G13533   4.092   6.533   8.354 -0.1088 -0.2899 -0.9292
  126OSM   C15F13534   4.261   6.632   8.270  0.2891 -1.0668 -0.2138
  126OSM   H15F13535   4.196   6.678   8.192  0.7643 -1.2003 -0.6906
  126OSM   H15G13536   4.366   6.624   8.234  1.3560 -0.0072  2.4523
  126OSM   C16F13537   4.276   6.727   8.394  0.5263 -0.9459  0.2213
  126OSM   H16F13538   4.345   6.806   8.356 -1.4777  1.3432  1.0963
  126OSM   H16G13539   4.315   6.672   8.482 -1.1174 -1.4104  0.6809
  126OSM   C17F13540   4.148   6.802   8.429 -0.9812 -0.0532 -0.0484
  126OSM   H17F13541   4.078   6.719   8.454 -1.0645 -0.1364 -0.5356
  126OSM   H17G13542   4.120   6.843   8.329  2.0576 -1.4146 -1.5857
  126OSM   C18F13543   4.172   6.908   8.530  0.6722 -0.2363 -0.3692
  126OSM   H18F13544   4.252   6.975   8.492  2.6324 -1.2393  1.7093
  126OSM   H18G13545   4.219   6.877   8.626  3.6983 -0.0243 -1.6850
  126OSM   H18H13546   4.079   6.963   8.557  0.4142 -0.9974  0.3688
  127OSM      N13547   6.224   4.638   6.091 -0.3412 -0.2985  0.4647
  127OSM    C1513548   6.265   4.781   6.095  0.0100 -0.0832  0.4337
  127OSM   H15A13549   6.259   4.812   5.992 -2.9577  0.6880  0.7503
  127OSM   H15B13550   6.365   4.792   6.135  0.1054 -2.5812  1.0393
  127OSM   H15C13551   6.198   4.850   6.145  1.3279  0.6733  1.2426
  127OSM    C1413552   6.337   4.562   6.023  0.2748 -0.1528  0.5823
  127OSM   H14A13553   6.432   4.564   6.075  1.0343  1.0834 -0.7753
  127OSM   H14B13554   6.341   4.590   5.919 -0.4639  1.3537  0.9324
  127OSM   H14C13555   6.318   4.456   6.026  2.1811 -0.5177  0.8799
  127OSM    C1313556   6.225   4.585   6.235  0.3311  0.0624  0.2408
  127OSM   H13A13557   6.315   4.613   6.289  1.5401  1.3019 -2.2248
  127OSM   H13B13558   6.230   4.478   6.222  1.1979  0.3067 -2.0325
  127OSM   H13C13559   6.133   4.618   6.279  1.3697  0.9246  1.8524
  127OSM    C1213560   6.086   4.605   6.020 -0.0853 -0.1912 -0.0723
  127OSM   H12A13561   6.082   4.497   6.025 -0.5533 -0.1101  2.7655
  127OSM   H12B13562   6.083   4.642   5.918 -1.8943  0.7291  0.2810
  127OSM    C1113563   5.956   4.656   6.076  0.1926 -0.5401 -0.0871
  127OSM   H11A13564   5.928   4.596   6.165 -0.9078  0.7845  0.5048
  127OSM   H11B13565   5.878   4.629   6.002 -2.2378 -0.3392  2.2627
  127OSM      P13566   5.828   4.859   6.168 -0.3555  0.3395  0.1432
  127OSM    O1313567   5.829   5.003   6.138 -0.4444  0.4934 -0.2225
  127OSM    O1413568   5.699   4.788   6.142 -0.3762 -0.1926  0.3405
  127OSM    O1113569   5.867   4.844   6.318 -0.0845  0.3804 -0.1967
  127OSM    O1213570   5.953   4.801   6.096  0.1044  0.0277  0.0487
  127OSM    C1S13571   5.974   4.928   6.371  0.3223  0.7812 -0.3129
  127OSM    H1S13572   5.963   5.035   6.341 -0.0685  0.6388 -0.7009
  127OSM    H1T13573   6.073   4.895   6.332 -0.0967 -0.0872 -0.6724
  127OSM     NF13574   6.060   4.995   6.599 -0.2236 -0.8609  0.0074
  127OSM    HNF13575   6.131   4.965   6.662  1.0286  0.9778 -0.4630
  127OSM    C2S13576   5.975   4.907   6.527 -0.1099  0.3402  1.2862
  127OSM    H2S13577   5.870   4.927   6.558 -0.8096 -0.1087 -0.6739
  127OSM    C3S13578   6.018   4.760   6.570 -0.0914 -0.2562  0.9262
  127OSM    H3S13579   6.127   4.745   6.551 -0.0090 -0.5948  1.6415
  127OSM     O313580   5.970   4.648   6.498  0.0361  0.4440  0.2570
  127OSM    HO313581   5.943   4.693   6.418  0.3428  0.2535  0.0425
  127OSM    C4S13582   5.992   4.744   6.719  0.0454 -0.0313 -0.5419
  127OSM    H4S13583   6.057   4.805   6.783 -1.0249  0.6485 -0.0737
  127OSM    C5S13584   5.910   4.661   6.783 -0.5763  0.5644  1.2085
  127OSM    H5S13585   5.860   4.582   6.725  1.5694  2.1081 -3.2098
  127OSM    C6S13586   5.897   4.649   6.926 -0.4153  0.5991  0.1421
  127OSM    H6S13587   5.797   4.678   6.965 -1.2356 -0.7469 -0.8800
  127OSM    H6T13588   5.966   4.719   6.979  1.1428 -0.0329 -0.9857
  127OSM    C7S13589   5.938   4.507   6.987  0.0414 -0.3134 -0.2140
  127OSM    H7S13590   6.044   4.479   6.970 -0.4679 -1.8689 -1.0112
  127OSM    H7T13591   5.872   4.433   6.938  1.9124 -1.2821 -1.3764
  127OSM    C8S13592   5.911   4.504   7.143 -0.1876 -0.2580 -0.2684
  127OSM    H8S13593   5.805   4.535   7.153 -0.5394 -1.7299  1.0949
  127OSM    H8T13594   5.974   4.575   7.200 -0.8909  0.0758  0.1130
  127OSM    C9S13595   5.924   4.373   7.223 -0.5300  0.3716 -0.1788
  127OSM    H9S13596   6.030   4.340   7.223 -1.0568 -1.4686 -1.0698
  127OSM    H9T13597   5.873   4.288   7.173 -2.4030  0.0180  2.1381
  127OSM   C10S13598   5.870   4.378   7.368 -0.0034  0.0267  0.5825
  127OSM   H10S13599   5.760   4.362   7.365  0.2581 -2.6291  2.1140
  127OSM   H10T13600   5.890   4.476   7.417 -1.5624  1.4486 -1.4601
  127OSM   C11S13601   5.928   4.261   7.458 -0.0557 -0.2886 -0.0417
  127OSM   H11S13602   6.037   4.278   7.461 -0.3530  1.9241 -0.0051
  127OSM   H11T13603   5.902   4.168   7.403 -0.8873  0.8026 -1.5893
  127OSM   C12S13604   5.895   4.274   7.603  0.6727 -0.3589  0.3146
  127OSM   H12S13605   5.790   4.238   7.611  0.0295  1.2169 -0.5634
  127OSM   H12T13606   5.906   4.378   7.641  2.3507  0.6985 -2.7675
  127OSM   C13S13607   6.008   4.215   7.685 -0.9090 -0.2835  0.0353
  127OSM   H13S13608   6.090   4.289   7.683 -1.5245  0.4170  0.4340
  127OSM   H13T13609   6.028   4.119   7.632 -1.6535 -0.4339  0.0160
  127OSM   C14S13610   5.966   4.191   7.832  0.4593  0.6907  0.5852
  127OSM   H14S13611   5.903   4.100   7.845  1.1907  0.2333  1.0093
  127OSM   H14T13612   5.906   4.280   7.858 -1.1981 -0.2721  0.1669
  127OSM   C15S13613   6.085   4.176   7.924  0.1032  0.6861 -0.0435
  127OSM   H15S13614   6.136   4.273   7.907  0.9226  0.0650 -1.3038
  127OSM   H15T13615   6.159   4.102   7.885  1.5196  1.8152  0.4451
  127OSM   C16S13616   6.040   4.178   8.063 -0.5407  0.5012  0.5914
  127OSM   H16S13617   5.976   4.088   8.068  2.8020 -2.2992 -1.7372
  127OSM   H16T13618   6.000   4.278   8.092 -0.8044  0.5405  0.0915
  127OSM   C17S13619   6.168   4.158   8.149 -0.2268  0.4348 -0.0551
  127OSM   H17S13620   6.235   4.247   8.144 -0.7558  0.9165  1.1907
  127OSM   H17T13621   6.231   4.076   8.107  0.5599  1.7294 -1.5388
  127OSM   C18S13622   6.145   4.139   8.301  0.0707 -0.3471  0.0161
  127OSM   H18S13623   6.096   4.234   8.332 -0.6806 -0.4604 -0.8093
  127OSM   H18T13624   6.241   4.121   8.354  1.1718  1.9255 -1.0420
  127OSM   H18U13625   6.062   4.066   8.298 -0.8303  0.5763  1.3932
  127OSM    C1F13626   6.029   5.130   6.605  0.7393 -0.0795 -0.1199
  127OSM     OF13627   5.931   5.172   6.543 -0.3073  0.0450 -0.1468
  127OSM    C2F13628   6.117   5.221   6.688 -0.2702 -0.2439 -0.9078
  127OSM    H2F13629   6.158   5.301   6.623  2.0886 -0.8448 -0.2675
  127OSM    H2G13630   6.208   5.160   6.705  0.2916  0.3274 -1.8279
  127OSM    C3F13631   6.035   5.268   6.805 -0.6212  0.1196 -0.4021
  127OSM    H3F13632   6.009   5.180   6.867  0.2585 -0.5870 -1.0158
  127OSM    H3G13633   5.940   5.309   6.764 -0.7846 -0.3786 -0.5264
  127OSM    C4F13634   6.122   5.364   6.898  0.0085  0.2255 -0.1571
  127OSM    H4F13635   6.186   5.436   6.842  0.3227  0.1215  0.0664
  127OSM    H4G13636   6.185   5.301   6.964 -1.4131 -0.0595  0.9704
  127OSM    C5F13637   6.029   5.441   7.002 -0.1918 -1.1491 -0.0949
  127OSM    H5F13638   5.965   5.367   7.056  1.6402 -0.7021  2.9373
  127OSM    H5G13639   5.979   5.520   6.942  0.4879  0.7830  1.7446
  127OSM    C6F13640   6.103   5.527   7.107 -0.3556  0.0040  0.6920
  127OSM    H6F13641   6.025   5.557   7.181  1.3245 -1.6514  3.2824
  127OSM    H6G13642   6.158   5.612   7.060 -2.4095  0.4198 -1.1094
  127OSM    C7F13643   6.214   5.448   7.193  0.4217 -0.1009 -0.1966
  127OSM    H7F13644   6.295   5.431   7.119 -0.6118  0.2346 -1.4203
  127OSM    H7G13645   6.173   5.345   7.200  0.1320  0.0254 -0.0236
  127OSM    C8F13646   6.246   5.503   7.332  0.5196  0.0887  0.5170
  127OSM    H8F13647   6.149   5.486   7.385  0.0344 -0.8817 -0.6291
  127OSM    H8G13648   6.248   5.614   7.329 -0.4048  0.0987 -1.6831
  127OSM    C9F13649   6.366   5.438   7.386 -0.3049  0.6117  0.5960
  127OSM    H9F13650   6.445   5.421   7.311 -0.5850 -3.4836  1.0275
  127OSM   C10F13651   6.388   5.404   7.516  0.8277 -0.1503 -0.5576
  127OSM   H10F13652   6.476   5.344   7.545  1.0352 -0.0425 -0.9524
  127OSM   C11F13653   6.277   5.428   7.615  0.3939  0.1596 -0.5748
  127OSM   H11F13654   6.192   5.363   7.583 -0.3168  1.8148 -2.2340
  127OSM   H11G13655   6.227   5.526   7.600 -0.4625 -0.3124 -0.8839
  127OSM   C12F13656   6.315   5.404   7.764  0.5037  0.1407  0.6928
  127OSM   H12F13657   6.398   5.471   7.798 -0.2152  1.4631 -0.0566
  127OSM   H12G13658   6.351   5.299   7.771  0.2137 -0.0438 -0.5325
  127OSM   C13F13659   6.195   5.426   7.859  0.2511 -0.1496  0.2052
  127OSM   H13F13660   6.110   5.364   7.824 -0.0464  0.6896 -0.6064
  127OSM   H13G13661   6.165   5.532   7.850 -1.1145 -0.4810  0.7091
  127OSM   C14F13662   6.232   5.398   8.007  0.1415 -0.0999  0.6734
  127OSM   H14F13663   6.318   5.466   8.031  0.1856 -0.0100  0.2700
  127OSM   H14G13664   6.278   5.298   8.020  2.4182  0.6783 -0.6806
  127OSM   C15F13665   6.126   5.424   8.111  0.3109 -0.0149  0.4897
  127OSM   H15F13666   6.037   5.385   8.058  0.0286  0.5678  0.5296
  127OSM   H15G13667   6.119   5.534   8.129 -0.5114  0.2545 -1.2316
  127OSM   C16F13668   6.144   5.336   8.245  0.0115 -0.7385  0.2150
  127OSM   H16F13669   6.239   5.369   8.293 -1.0093  1.5717  0.7658
  127OSM   H16G13670   6.149   5.227   8.224  0.6479 -0.6677 -0.0410
  127OSM   C17F13671   6.033   5.351   8.347  0.1477 -0.2395 -0.5162
  127OSM   H17F13672   6.015   5.261   8.409 -3.6525  0.3439 -0.5319
  127OSM   H17G13673   5.934   5.366   8.298 -2.4138 -1.2119  3.8329
  127OSM   C18F13674   6.060   5.467   8.440  0.3983  0.2700 -0.0771
  127OSM   H18F13675   6.068   5.564   8.387  0.0674 -0.6407 -1.8878
  127OSM   H18G13676   6.151   5.460   8.503  0.0343  1.4742  0.6126
  127OSM   H18H13677   5.968   5.482   8.500 -0.0319 -1.3763 -0.2655
  128OSM      N13678   0.592   0.694   6.109  0.4037  0.2007 -0.7617
  128OSM    C1513679   0.630   0.775   6.228  0.9081  0.4628  0.0448
  128OSM   H15A13680   0.574   0.867   6.222  1.3674  0.8713  1.4758
  128OSM   H15B13681   0.733   0.805   6.223  0.7269  1.0932  0.0414
  128OSM   H15C13682   0.601   0.720   6.317 -3.5784  0.7655 -0.9955
  128OSM    C1413683   0.592   0.776   5.989 -0.7268 -0.2615  0.3092
  128OSM   H14A13684   0.538   0.718   5.915 -0.2091 -0.3157 -0.0245
  128OSM   H14B13685   0.687   0.814   5.956 -1.1324  0.7167  0.2441
  128OSM   H14C13686   0.540   0.870   6.000 -0.5216 -0.3323  2.3677
  128OSM    C1313687   0.692   0.578   6.092 -0.5831 -0.4053  0.2849
  128OSM   H13A13688   0.706   0.526   6.186  1.5713  0.1288  0.3152
  128OSM   H13B13689   0.782   0.623   6.055 -1.7422  1.0223 -0.9236
  128OSM   H13C13690   0.659   0.518   6.008 -1.0144  0.4085 -0.1415
  128OSM    C1213691   0.452   0.635   6.115  0.8411  0.1259 -0.2060
  128OSM   H12A13692   0.375   0.710   6.125  1.3186  0.4175  1.7405
  128OSM   H12B13693   0.446   0.576   6.206  1.4845 -2.4888 -1.7482
  128OSM    C1113694   0.413   0.528   6.013  0.1452  0.3312  0.8565
  128OSM   H11A13695   0.450   0.562   5.913  0.9531 -0.1316  0.9947
  128OSM   H11B13696   0.303   0.514   6.001  0.2951  1.2854 -2.9665
  128OSM      P13697   0.423   0.305   6.148 -0.0711 -0.4714  0.2111
  128OSM    O1313698   0.292   0.241   6.103 -0.5685  0.0519 -0.0150
  128OSM    O1413699   0.538   0.225   6.180 -0.0459  0.2518  0.0735
  128OSM    O1113700   0.383   0.399   6.268 -0.7176 -0.0040  0.2270
  128OSM    O1213701   0.471   0.402   6.030 -0.4585 -0.0743  0.9985
  128OSM    C1S13702   0.475   0.398   6.379 -0.0385  0.2275 -0.5145
  128OSM    H1S13703   0.584   0.417   6.368  0.0806  1.2578  1.7782
  128OSM    H1T13704   0.480   0.296   6.422 -0.6669 -0.2915 -1.6514
  128OSM     NF13705   0.508   0.473   6.605  0.5868 -0.0430 -0.0168
  128OSM    HNF13706   0.509   0.389   6.658  4.0042  1.2217  2.2779
  128OSM    C2S13707   0.409   0.483   6.497  0.0431 -0.0178 -0.0342
  128OSM    H2S13708   0.396   0.583   6.450 -0.1901 -0.3863 -0.7605
  128OSM    C3S13709   0.276   0.417   6.527  0.0780  0.8591  0.7371
  128OSM    H3S13710   0.292   0.309   6.546  0.8058  0.3832 -2.1538
  128OSM     O313711   0.179   0.427   6.418  0.4780 -0.1793  0.0081
  128OSM    HO313712   0.227   0.442   6.337  0.0970  1.1345 -0.0073
  128OSM    C4S13713   0.215   0.465   6.657  0.1156 -0.7001 -0.4448
  128OSM    H4S13714   0.239   0.397   6.740 -0.5402 -2.8879 -1.9561
  128OSM    C5S13715   0.150   0.586   6.683  1.0477 -0.0996 -0.1212
  128OSM    H5S13716   0.131   0.653   6.598  0.4330 -0.6607 -0.4352
  128OSM    C6S13717   0.103   0.627   6.821  0.5624  0.1857  0.1106
  128OSM    H6S13718  -0.007   0.642   6.826  0.2193 -2.3507  1.7158
  128OSM    H6T13719   0.152   0.725   6.841  0.9005  0.0667 -0.1405
  128OSM    C7S13720   0.117   0.526   6.934 -0.0282  0.0661  0.1521
  128OSM    H7S13721   0.224   0.496   6.935  0.1053  0.4916 -0.4760
  128OSM    H7T13722   0.050   0.440   6.913 -1.7958  1.3988  0.0863
  128OSM    C8S13723   0.078   0.614   7.063 -0.7625 -0.3076  0.0598
  128OSM    H8S13724  -0.031   0.633   7.055 -0.8370 -1.0812 -0.8805
  128OSM    H8T13725   0.128   0.713   7.070 -1.3397  0.0286 -0.4555
  128OSM    C9S13726   0.091   0.552   7.206 -1.1133 -0.0245  0.0808
  128OSM    H9S13727   0.012   0.474   7.213 -0.7137 -0.6931 -2.1562
  128OSM    H9T13728   0.069   0.625   7.287  2.8747  0.8118  0.6146
  128OSM   C10S13729   0.231   0.487   7.224  0.6616  0.1163 -0.7014
  128OSM   H10S13730   0.306   0.568   7.220 -0.7439  1.5415  0.5697
  128OSM   H10T13731   0.242   0.410   7.145  1.7354  0.1564 -0.6069
  128OSM   C11S13732   0.239   0.403   7.358 -0.4905 -0.1099  0.0245
  128OSM   H11S13733   0.344   0.368   7.348  0.3618  2.0767  0.6940
  128OSM   H11T13734   0.176   0.312   7.350  1.3545 -1.5715  1.4194
  128OSM   C12S13735   0.207   0.483   7.479 -0.1398 -0.5970 -0.3278
  128OSM   H12S13736   0.100   0.503   7.496  0.1019 -0.1834  0.7780
  128OSM   H12T13737   0.252   0.584   7.474 -0.3746 -0.5431 -1.4787
  128OSM   C13S13738   0.257   0.418   7.612  0.8054  0.5518  0.0490
  128OSM   H13S13739   0.230   0.494   7.689  1.6791 -0.0824  0.9933
  128OSM   H13T13740   0.367   0.409   7.615  0.8694  0.7923 -1.0892
  128OSM   C14S13741   0.200   0.273   7.630 -0.6054 -0.9505  0.9851
  128OSM   H14S13742   0.262   0.216   7.557  0.9008  0.9780  0.6859
  128OSM   H14T13743   0.093   0.272   7.601 -0.2765  0.3148 -0.4143
  128OSM   C15S13744   0.206   0.222   7.774  0.4695  0.2491 -0.1524
  128OSM   H15S13745   0.193   0.302   7.850  0.3382  0.5200 -0.4582
  128OSM   H15T13746   0.311   0.190   7.794  0.3029  0.0321  0.3840
  128OSM   C16S13747   0.103   0.109   7.789  0.3396 -0.4916 -0.4002
  128OSM   H16S13748   0.144   0.031   7.720  0.1938 -0.3480 -0.6494
  128OSM   H16T13749   0.011   0.147   7.741 -0.5851 -0.6524  1.1816
  128OSM   C17S13750   0.084   0.062   7.940  0.5010 -0.8390 -0.4928
  128OSM   H17S13751   0.186   0.029   7.968  1.0349  1.2399  0.2437
  128OSM   H17T13752   0.009  -0.019   7.945 -1.9693  1.3001 -0.6902
  128OSM   C18S13753   0.029   0.177   8.036  0.0418  0.7136 -0.0074
  128OSM   H18S13754  -0.070   0.200   7.993  0.3458  0.4442 -0.8676
  128OSM   H18T13755   0.083   0.274   8.043  1.4393 -0.0926  0.7343
  128OSM   H18U13756   0.012   0.135   8.138  1.0882 -0.8519 -0.4415
  128OSM    C1F13757   0.618   0.545   6.597  0.4157  0.5332  0.2551
  128OSM     OF13758   0.633   0.633   6.508 -0.0946  0.3494  0.0865
  128OSM    C2F13759   0.719   0.528   6.698  0.0663  0.2663  0.6623
  128OSM    H2F13760   0.818   0.518   6.650 -0.2621 -1.9668  0.3388
  128OSM    H2G13761   0.706   0.431   6.751 -0.2445 -0.3360 -0.4911
  128OSM    C3F13762   0.721   0.641   6.804 -0.2126 -0.4001  0.2555
  128OSM    H3F13763   0.761   0.734   6.759  0.4110 -0.9327 -0.3070
  128OSM    H3G13764   0.796   0.620   6.883  0.2063 -0.0260 -0.0348
  128OSM    C4F13765   0.584   0.665   6.867  0.2703  0.0813  0.5009
  128OSM    H4F13766   0.524   0.573   6.882  0.8341 -0.0739  1.9322
  128OSM    H4G13767   0.537   0.732   6.791  1.3222  1.7664  1.2782
  128OSM    C5F13768   0.588   0.733   7.005 -0.0918 -0.2919  0.6000
  128OSM    H5F13769   0.483   0.767   7.018 -0.5547 -1.0668 -0.8796
  128OSM    H5G13770   0.663   0.814   7.000 -0.4855  0.1799  2.0439
  128OSM    C6F13771   0.620   0.627   7.118 -0.1816 -0.3301 -0.1596
  128OSM    H6F13772   0.703   0.561   7.086  0.0681  0.1346 -0.4795
  128OSM    H6G13773   0.535   0.557   7.132  0.1477 -0.7168 -0.0729
  128OSM    C7F13774   0.648   0.706   7.246  0.0407  0.6712 -0.3697
  128OSM    H7F13775   0.557   0.762   7.274  0.0917 -0.6864  2.8928
  128OSM    H7G13776   0.731   0.778   7.230 -0.0549  0.5156 -1.7492
  128OSM    C8F13777   0.680   0.608   7.360  0.0181  0.6295 -0.0721
  128OSM    H8F13778   0.747   0.536   7.310  0.9850  1.0853  0.5505
  128OSM    H8G13779   0.582   0.566   7.391 -1.1242  1.6107 -2.1091
  128OSM    C9F13780   0.749   0.663   7.483  0.6214 -0.1251 -0.9899
  128OSM    H9F13781   0.836   0.728   7.460 -0.1606  0.8398 -1.3074
  128OSM   C10F13782   0.708   0.645   7.611 -0.4064 -0.0366 -0.2458
  128OSM   H10F13783   0.771   0.678   7.695 -0.1598 -2.3604  0.5726
  128OSM   C11F13784   0.599   0.552   7.658 -0.1223  0.1282 -0.5219
  128OSM   H11F13785   0.581   0.474   7.581  1.9410 -1.3299  0.3698
  128OSM   H11G13786   0.510   0.614   7.682 -0.4519 -1.0451  1.5227
  128OSM   C12F13787   0.652   0.478   7.782 -0.3647  0.2482  0.4817
  128OSM   H12F13788   0.708   0.548   7.848 -1.4477  0.7618  0.8825
  128OSM   H12G13789   0.728   0.402   7.754 -0.5169 -0.3574  1.6252
  128OSM   C13F13790   0.535   0.439   7.870 -0.3348  0.3398 -0.1226
  128OSM   H13F13791   0.463   0.372   7.818  1.0510 -1.5497  0.2738
  128OSM   H13G13792   0.482   0.535   7.886 -0.9326  0.0597 -0.3992
  128OSM   C14F13793   0.569   0.352   7.993  0.0773  0.2926 -0.2388
  128OSM   H14F13794   0.671   0.347   8.035 -1.4064  1.3559  4.0896
  128OSM   H14G13795   0.544   0.247   7.969  0.3467  0.3091 -0.5873
  128OSM   C15F13796   0.475   0.377   8.111  0.3912 -0.0324 -0.0734
  128OSM   H15F13797   0.476   0.295   8.186 -0.0848 -1.1610 -1.2617
  128OSM   H15G13798   0.370   0.392   8.079 -0.4410 -3.8398  0.3506
  128OSM   C16F13799   0.499   0.512   8.185 -0.6819  0.2850  0.3691
  128OSM   H16F13800   0.513   0.606   8.127 -0.8115  0.9664  1.4169
  128OSM   H16G13801   0.600   0.506   8.229 -0.2175  1.2881 -0.5047
  128OSM   C17F13802   0.406   0.538   8.307 -0.1882  0.4142 -0.1467
  128OSM   H17F13803   0.417   0.458   8.384  0.9632 -0.4315 -1.1385
  128OSM   H17G13804   0.302   0.528   8.269 -0.5637  1.4857  0.5712
  128OSM   C18F13805   0.408   0.669   8.374  0.4168  0.3676 -0.2565
  128OSM   H18F13806   0.510   0.697   8.407 -1.0956  2.5926  3.1908
  128OSM   H18G13807   0.365   0.662   8.476  0.3407  1.3948 -0.2048
  128OSM   H18H13808   0.359   0.753   8.319 -0.1841  0.3000  0.1647
  129OSM      N13809   5.018   4.084   6.225  0.1962 -0.3549 -0.1600
  129OSM    C1513810   5.067   4.049   6.090  0.0690 -0.3951 -0.4700
  129OSM   H15A13811   5.088   4.147   6.050 -2.4963 -0.3126 -1.8063
  129OSM   H15B13812   4.997   3.998   6.025  0.6118 -0.7500 -0.7910
  129OSM   H15C13813   5.161   3.996   6.099  1.1423  1.7771  3.2235
  129OSM    C1413814   5.092   4.204   6.279 -0.4277 -0.0816  0.4004
  129OSM   H14A13815   5.045   4.248   6.366  0.4208  2.2514 -0.2385
  129OSM   H14B13816   5.117   4.285   6.211  0.4305  0.3737  1.2378
  129OSM   H14C13817   5.186   4.171   6.321 -2.3192 -1.6283  3.7708
  129OSM    C1313818   4.865   4.105   6.216  0.0540 -0.4281 -0.2458
  129OSM   H13A13819   4.809   4.019   6.180 -0.8139 -1.1122  2.5049
  129OSM   H13B13820   4.848   4.198   6.164  0.9298  0.5614  1.1845
  129OSM   H13C13821   4.829   4.125   6.315  2.1159  0.0432  0.4539
  129OSM    C1213822   5.042   3.971   6.331  1.2588  0.6390 -0.2145
  129OSM   H12A13823   4.988   3.889   6.287 -0.0339  0.6312  1.2986
  129OSM   H12B13824   4.999   3.997   6.426  1.7958  1.1259 -0.0953
  129OSM    C1113825   5.184   3.922   6.369  0.8150 -0.1534 -0.2046
  129OSM   H11A13826   5.178   3.821   6.416  0.1171 -0.6035 -1.2444
  129OSM   H11B13827   5.237   3.995   6.434  0.8384  1.4806 -1.9849
  129OSM      P13828   5.340   3.787   6.195  0.0771 -0.0951 -0.6068
  129OSM    O1313829   5.256   3.677   6.133 -0.1036  0.0324 -0.5468
  129OSM    O1413830   5.448   3.849   6.110  0.1126 -0.0619  0.1403
  129OSM    O1113831   5.408   3.731   6.322 -0.4100 -0.0700  0.2890
  129OSM    O1213832   5.258   3.910   6.250  0.2631  0.6906 -0.3190
  129OSM    C1S13833   5.521   3.806   6.385 -0.0703 -0.5049 -0.1752
  129OSM    H1S13834   5.497   3.913   6.406  0.7737 -0.5971  1.3726
  129OSM    H1T13835   5.609   3.801   6.318 -1.0165 -3.8768 -1.3484
  129OSM     NF13836   5.655   3.827   6.592  0.2092 -0.2138  0.0237
  129OSM    HNF13837   5.750   3.796   6.604  0.8151  1.1452 -0.9559
  129OSM    C2S13838   5.565   3.735   6.521 -0.3412 -0.0247  0.8502
  129OSM    H2S13839   5.473   3.719   6.580 -0.3658 -1.5618  0.4273
  129OSM    C3S13840   5.628   3.595   6.508 -0.4940 -0.6035 -0.8655
  129OSM    H3S13841   5.714   3.610   6.440  0.4031  1.5318  0.6342
  129OSM     O313842   5.535   3.502   6.452 -0.0184  0.7576  0.7801
  129OSM    HO313843   5.490   3.552   6.385  0.1705  0.2237  0.2443
  129OSM    C4S13844   5.674   3.550   6.649 -0.5676 -0.0293  0.0380
  129OSM    H4S13845   5.776   3.583   6.675  0.0164  0.7420 -2.8871
  129OSM    C5S13846   5.597   3.488   6.747  0.2998 -0.0278  0.2537
  129OSM    H5S13847   5.489   3.482   6.725 -0.1198  1.7279  1.5819
  129OSM    C6S13848   5.637   3.457   6.887 -0.0839  0.0271 -0.1506
  129OSM    H6S13849   5.702   3.368   6.881  0.6862  0.6512 -1.5898
  129OSM    H6T13850   5.541   3.429   6.936  0.3634 -0.7716  0.2775
  129OSM    C7S13851   5.722   3.562   6.958  0.0844  0.0271  0.4678
  129OSM    H7S13852   5.654   3.649   6.971  0.6055  0.4853  0.1696
  129OSM    H7T13853   5.803   3.590   6.887 -1.5621  2.4259 -0.5992
  129OSM    C8S13854   5.770   3.506   7.092 -0.5570 -0.7247  0.0815
  129OSM    H8S13855   5.851   3.568   7.136 -0.9468 -0.8907  1.0639
  129OSM    H8T13856   5.817   3.406   7.082  1.5383  0.2230 -0.1857
  129OSM    C9S13857   5.662   3.511   7.196  0.6471  0.2240 -0.2436
  129OSM    H9S13858   5.575   3.451   7.160 -2.3935  2.5923  2.4652
  129OSM    H9T13859   5.626   3.614   7.218 -1.5045  0.0394 -2.4667
  129OSM   C10S13860   5.719   3.458   7.333 -0.5950  0.0903  0.3374
  129OSM   H10S13861   5.810   3.520   7.348 -1.2874  1.6134 -1.3983
  129OSM   H10T13862   5.749   3.351   7.324 -1.2625 -0.0417 -0.4369
  129OSM   C11S13863   5.620   3.476   7.448 -0.7486 -0.1326 -0.6364
  129OSM   H11S13864   5.517   3.456   7.411 -0.6430  0.7099 -1.4300
  129OSM   H11T13865   5.622   3.581   7.483 -1.9529 -0.5944  0.9249
  129OSM   C12S13866   5.655   3.394   7.577 -0.2639 -0.1929 -0.2188
  129OSM   H12S13867   5.746   3.436   7.625 -0.6135 -1.4164  1.6331
  129OSM   H12T13868   5.674   3.294   7.532 -0.7210  0.8921 -3.0571
  129OSM   C13S13869   5.545   3.390   7.682  0.2600 -0.8019 -0.1860
  129OSM   H13S13870   5.463   3.345   7.623 -0.7981  0.6398  0.1453
  129OSM   H13T13871   5.516   3.491   7.718 -0.8009 -0.9068 -0.7218
  129OSM   C14S13872   5.569   3.298   7.804  0.2293 -0.2426 -0.0949
  129OSM   H14S13873   5.662   3.332   7.855 -0.4061 -0.7906  1.5158
  129OSM   H14T13874   5.601   3.197   7.771 -0.6961 -0.5465 -0.0956
  129OSM   C15S13875   5.450   3.298   7.900  0.4835  0.1371 -0.5470
  129OSM   H15S13876   5.364   3.270   7.835  0.8986  2.3071 -2.1150
  129OSM   H15T13877   5.421   3.397   7.940  0.2383  1.0762 -2.9406
  129OSM   C16S13878   5.453   3.192   8.011 -0.0845  0.2005 -0.5735
  129OSM   H16S13879   5.453   3.092   7.963 -0.9724 -0.1073  0.0326
  129OSM   H16T13880   5.360   3.182   8.072  0.8700 -0.7465  0.7932
  129OSM   C17S13881   5.582   3.191   8.091 -0.4486 -0.3900 -0.1512
  129OSM   H17S13882   5.676   3.202   8.032 -0.8415 -0.3629 -0.7753
  129OSM   H17T13883   5.591   3.102   8.157 -2.8391  0.1812  1.0550
  129OSM   C18S13884   5.569   3.317   8.180 -0.9345 -0.3826  0.0009
  129OSM   H18S13885   5.477   3.302   8.241 -0.0074 -0.1680  1.5238
  129OSM   H18T13886   5.562   3.410   8.120  0.6146  0.4853  1.0704
  129OSM   H18U13887   5.660   3.325   8.244  1.1890  0.1936 -2.8751
  129OSM    C1F13888   5.612   3.948   6.631 -0.1907  0.5630  0.3612
  129OSM     OF13889   5.494   3.983   6.624  0.2537  0.6395 -0.1672
  129OSM    C2F13890   5.710   4.045   6.687  0.4183  0.6429 -0.0439
  129OSM    H2F13891   5.718   4.125   6.611 -0.5293  1.9900  1.2060
  129OSM    H2G13892   5.814   4.007   6.689 -0.0542 -0.7105  0.1522
  129OSM    C3F13893   5.682   4.094   6.829  0.5443  0.3528 -0.3073
  129OSM    H3F13894   5.609   4.178   6.825  0.7697  0.5488 -0.3824
  129OSM    H3G13895   5.772   4.155   6.853 -1.2101  2.4135  1.4765
  129OSM    C4F13896   5.665   3.976   6.934  0.1510  0.3762  0.7162
  129OSM    H4F13897   5.750   3.905   6.918 -1.5529 -1.4041 -1.2410
  129OSM    H4G13898   5.570   3.919   6.918  0.0488 -0.0106  2.5468
  129OSM    C5F13899   5.670   4.026   7.079 -0.4483  0.6901  0.0642
  129OSM    H5F13900   5.595   4.104   7.105  1.1280  1.5477  2.3316
  129OSM    H5G13901   5.765   4.080   7.099 -0.6510  0.6876  1.0696
  129OSM    C6F13902   5.647   3.909   7.177 -0.0661  1.0521  0.2797
  129OSM    H6F13903   5.717   3.827   7.152 -0.6223  0.3053  1.1189
  129OSM    H6G13904   5.544   3.871   7.160  0.1653  0.9967 -1.0706
  129OSM    C7F13905   5.681   3.956   7.322  0.0373 -0.8099  0.9660
  129OSM    H7F13906   5.600   4.029   7.342  1.3627  0.9649  0.1577
  129OSM    H7G13907   5.780   4.007   7.321 -0.1899 -0.3464 -0.5082
  129OSM    C8F13908   5.674   3.853   7.434  0.0396  0.0954 -0.4556
  129OSM    H8F13909   5.754   3.776   7.440  0.4634  0.5388 -0.3421
  129OSM    H8G13910   5.588   3.791   7.401  1.0025 -1.1842 -0.6802
  129OSM    C9F13911   5.662   3.916   7.572 -0.1188 -0.0938 -0.6057
  129OSM    H9F13912   5.579   3.989   7.574 -0.4211 -0.4212  1.5271
  129OSM   C10F13913   5.733   3.901   7.689 -0.5079 -0.2897 -0.0725
  129OSM   H10F13914   5.718   3.949   7.786  0.9035 -1.0243  0.5400
  129OSM   C11F13915   5.848   3.805   7.696  0.4391  0.1428  0.5560
  129OSM   H11F13916   5.931   3.868   7.733  0.1471  0.2964  0.9560
  129OSM   H11G13917   5.880   3.768   7.596  0.2120  1.5072 -0.0310
  129OSM   C12F13918   5.826   3.686   7.791  0.2166 -0.3042  0.4101
  129OSM   H12F13919   5.900   3.604   7.776  0.2562  0.0935 -1.9276
  129OSM   H12G13920   5.729   3.642   7.762  1.3615 -1.0757 -2.7022
  129OSM   C13F13921   5.804   3.716   7.937  0.3811  0.1692 -0.1086
  129OSM   H13F13922   5.731   3.799   7.949  1.7229  1.2709  0.9430
  129OSM   H13G13923   5.903   3.752   7.974  0.2796  0.6698 -0.3151
  129OSM   C14F13924   5.776   3.601   8.035 -0.2766  0.3324  0.3703
  129OSM   H14F13925   5.828   3.512   7.994  0.1603  0.2576  1.0746
  129OSM   H14G13926   5.671   3.566   8.030 -0.0230 -0.4008 -0.0497
  129OSM   C15F13927   5.826   3.624   8.177 -0.1639 -0.3685 -0.5272
  129OSM   H15F13928   5.937   3.618   8.188 -0.0846 -0.6070 -1.3369
  129OSM   H15G13929   5.805   3.537   8.243  0.9401  0.9831  1.6935
  129OSM   C16F13930   5.770   3.753   8.230  0.6183 -0.1524  0.1315
  129OSM   H16F13931   5.662   3.743   8.257  0.2479  0.0069 -1.1985
  129OSM   H16G13932   5.773   3.834   8.154  0.6598 -1.4708 -1.3211
  129OSM   C17F13933   5.856   3.813   8.342  0.3944 -0.3437 -0.4638
  129OSM   H17F13934   5.953   3.853   8.303 -0.9026  3.5521 -0.0988
  129OSM   H17G13935   5.878   3.736   8.420  0.2975  0.4336  0.3463
  129OSM   C18F13936   5.777   3.921   8.417 -0.5316  0.3465 -0.1156
  129OSM   H18F13937   5.841   4.000   8.462 -0.5499  0.9405 -1.0959
  129OSM   H18G13938   5.712   3.887   8.500 -1.1817  1.8978  0.0555
  129OSM   H18H13939   5.714   3.981   8.348  0.5879  0.0628 -1.4222
  130OSM      N13940   2.004   0.012   6.278 -0.0518 -0.1663  0.3240
  130OSM    C1513941   2.023  -0.038   6.415  0.1200 -0.1819  0.5375
  130OSM   H15A13942   1.933  -0.091   6.444 -1.0656  1.1070 -0.6101
  130OSM   H15B13943   2.052   0.034   6.489  0.9763  0.1428 -0.0981
  130OSM   H15C13944   2.104  -0.108   6.405 -0.7550 -1.0163 -1.4494
  130OSM    C1413945   2.148   0.018   6.221  0.1438  0.5846 -0.3687
  130OSM   H14A13946   2.200  -0.075   6.237 -1.2074 -0.5163 -1.9890
  130OSM   H14B13947   2.200   0.099   6.270 -1.1003  1.0358  0.2526
  130OSM   H14C13948   2.149   0.033   6.114 -0.5454 -2.0922 -0.8073
  130OSM    C1313949   1.932  -0.100   6.205  0.3862 -0.2253  0.0719
  130OSM   H13A13950   1.899  -0.065   6.109  1.1677  0.1679 -0.0696
  130OSM   H13B13951   1.846  -0.145   6.252 -0.4837 -0.3567 -1.5887
  130OSM   H13C13952   2.005  -0.175   6.179  0.3459  0.2539 -1.5316
  130OSM    C1213953   1.935   0.147   6.271  0.4250 -0.2577 -0.7285
  130OSM   H12A13954   1.944   0.191   6.173 -0.7339  0.5026 -0.5120
  130OSM   H12B13955   1.994   0.217   6.329  0.9203 -1.0636 -0.2295
  130OSM    C1113956   1.781   0.149   6.312 -0.0835 -0.7472  0.6699
  130OSM   H11A13957   1.755   0.254   6.337 -0.4811 -1.1152  1.8615
  130OSM   H11B13958   1.789   0.102   6.412 -1.6741 -0.0486  1.1620
  130OSM      P13959   1.588  -0.010   6.246 -0.0416 -0.5911  0.1746
  130OSM    O1313960   1.465   0.042   6.186  0.4214 -0.0305 -0.7953
  130OSM    O1413961   1.619  -0.145   6.199  0.3483 -0.7022 -0.2373
  130OSM    O1113962   1.579  -0.009   6.405  0.9622 -0.3262  0.1246
  130OSM    O1213963   1.700   0.093   6.210  0.7094  0.4885  0.0504
  130OSM    C1S13964   1.508   0.108   6.456 -0.7998  0.8573 -0.1571
  130OSM    H1S13965   1.425   0.146   6.394 -1.1670 -0.4631 -0.5018
  130OSM    H1T13966   1.562   0.204   6.469 -0.4467  0.4152  2.1474
  130OSM     NF13967   1.330   0.174   6.625 -0.1440 -0.0846  0.2943
  130OSM    HNF13968   1.345   0.218   6.713  2.0408 -1.0398  0.4738
  130OSM    C2S13969   1.434   0.071   6.591 -0.1234 -0.2730 -0.7127
  130OSM    H2S13970   1.368  -0.018   6.588 -0.2169 -0.1795 -1.5567
  130OSM    C3S13971   1.545   0.063   6.700  0.2692  0.0757  0.6741
  130OSM    H3S13972   1.611   0.152   6.699 -0.9862  1.1151 -2.8041
  130OSM     O313973   1.637  -0.039   6.663 -0.3477  0.2917  0.2748
  130OSM    HO313974   1.614  -0.059   6.572  3.0269 -0.9562 -0.4730
  130OSM    C4S13975   1.481   0.034   6.841  0.0693  0.1577 -0.1256
  130OSM    H4S13976   1.418  -0.055   6.854 -1.3294  1.4196  2.5448
  130OSM    C5S13977   1.480   0.121   6.943  0.2282  0.4458 -0.3490
  130OSM    H5S13978   1.548   0.207   6.952 -1.3490  1.9973 -2.2679
  130OSM    C6S13979   1.410   0.101   7.079  0.2351  0.0436  0.5480
  130OSM    H6S13980   1.321   0.037   7.062  0.5398 -0.6336  1.4534
  130OSM    H6T13981   1.381   0.202   7.117 -0.1640  0.4919 -0.8958
  130OSM    C7S13982   1.496   0.016   7.178  0.9457  0.6722  0.5444
  130OSM    H7S13983   1.599   0.055   7.169  0.5957  1.1389 -2.8035
  130OSM    H7T13984   1.510  -0.089   7.145  2.6194  0.1823  2.6056
  130OSM    C8S13985   1.447   0.039   7.319 -0.1369  0.6061 -0.7946
  130OSM    H8S13986   1.342   0.005   7.330  0.5213 -0.8172  1.9303
  130OSM    H8T13987   1.454   0.147   7.345 -0.9235  0.7712 -1.2550
  130OSM    C9S13988   1.515  -0.048   7.422 -0.3053 -0.3702 -0.8758
  130OSM    H9S13989   1.625  -0.034   7.413 -0.2368 -1.6269 -2.2330
  130OSM    H9T13990   1.502  -0.155   7.396  1.9569 -0.8531 -0.2888
  130OSM   C10S13991   1.463  -0.023   7.565  0.3239 -0.8565  1.0043
  130OSM   H10S13992   1.353  -0.035   7.568  0.1785 -0.7663 -1.6643
  130OSM   H10T13993   1.486   0.082   7.595 -1.5148 -0.4726  1.1890
  130OSM   C11S13994   1.525  -0.130   7.658 -0.0652  0.4045  0.0914
  130OSM   H11S13995   1.635  -0.114   7.655  0.1866 -1.3159 -1.7045
  130OSM   H11T13996   1.499  -0.234   7.631  0.0118  0.7168 -1.2817
  130OSM   C12S13997   1.486  -0.110   7.806 -0.1438 -0.1051 -0.3328
  130OSM   H12S13998   1.375  -0.108   7.808 -0.1872 -1.7681  0.6540
  130OSM   H12T13999   1.532  -0.019   7.850 -0.7485  0.3810 -0.6886
  130OSM   C13S14000   1.534  -0.222   7.898 -0.9875 -0.3816 -0.1085
  130OSM   H13S14001   1.575  -0.305   7.836  1.5831  0.4381  0.3426
  130OSM   H13T14002   1.454  -0.277   7.951  0.3269 -0.4515  1.9219
  130OSM   C14S14003   1.655  -0.189   7.990 -0.3471  0.5296 -0.5083
  130OSM   H14S14004   1.621  -0.109   8.060 -0.3999  0.0409  0.0291
  130OSM   H14T14005   1.729  -0.133   7.928  0.6294  1.6899  1.5944
  130OSM   C15S14006   1.720  -0.302   8.073 -0.1683 -0.2694  0.2085
  130OSM   H15S14007   1.826  -0.293   8.106 -0.4611 -2.3159  1.9100
  130OSM   H15T14008   1.710  -0.395   8.013 -2.5607  0.2854 -0.3491
  130OSM   C16S14009   1.642  -0.347   8.199  0.2927  0.1250 -0.5078
  130OSM   H16S14010   1.681  -0.440   8.245  0.2096  0.4602  0.2578
  130OSM   H16T14011   1.538  -0.365   8.164  0.4757 -1.0418 -0.4983
  130OSM   C17S14012   1.654  -0.243   8.322 -0.5385  0.0959  0.1210
  130OSM   H17S14013   1.589  -0.284   8.403 -1.4903  0.5487 -0.3857
  130OSM   H17T14014   1.601  -0.153   8.284  0.0160  0.8668  1.1323
  130OSM   C18S14015   1.794  -0.187   8.354  0.7354 -0.1066  0.2457
  130OSM   H18S14016   1.833  -0.136   8.264 -0.7365 -2.4482 -1.8341
  130OSM   H18T14017   1.864  -0.269   8.381  1.8756  0.3495 -1.2243
  130OSM   H18U14018   1.784  -0.123   8.445 -1.5640 -0.4378  0.2887
  130OSM    C1F14019   1.216   0.193   6.556  0.8047 -0.2186  0.3329
  130OSM     OF14020   1.196   0.120   6.463  0.5449  0.2464  0.1207
  130OSM    C2F14021   1.117   0.299   6.598 -0.1882 -0.3135 -0.4209
  130OSM    H2F14022   1.015   0.267   6.566 -0.2404  0.1378 -0.7160
  130OSM    H2G14023   1.142   0.386   6.535 -0.3652 -0.0789 -0.1673
  130OSM    C3F14024   1.102   0.342   6.751  1.3064  0.4101 -0.7220
  130OSM    H3F14025   1.039   0.432   6.768  0.8755 -0.1295  0.6461
  130OSM    H3G14026   1.193   0.383   6.800  1.2694 -0.6626  0.2703
  130OSM    C4F14027   1.059   0.223   6.833  0.3514  0.0944 -0.0665
  130OSM    H4F14028   1.149   0.160   6.851 -0.1637 -0.0998  2.1409
  130OSM    H4G14029   0.989   0.164   6.770  0.9190  0.6883 -1.2677
  130OSM    C5F14030   0.993   0.266   6.960  0.3867 -0.2928 -0.9056
  130OSM    H5F14031   0.922   0.193   7.005  0.3606  1.3224  1.8585
  130OSM    H5G14032   0.938   0.358   6.931  0.6537  0.3213  0.4831
  130OSM    C6F14033   1.088   0.295   7.072 -0.1359  0.3400 -0.5305
  130OSM    H6F14034   1.170   0.360   7.037  0.4896 -0.4518 -0.5748
  130OSM    H6G14035   1.134   0.196   7.092 -2.4990 -0.6800  0.2604
  130OSM    C7F14036   1.007   0.330   7.199 -0.3946 -0.2121  0.2478
  130OSM    H7F14037   0.940   0.244   7.224 -3.2044  1.5915 -0.6365
  130OSM    H7G14038   0.936   0.412   7.176 -0.3164 -0.0009  0.7498
  130OSM    C8F14039   1.090   0.385   7.313 -0.1985 -0.4280  0.4217
  130OSM    H8F14040   1.144   0.477   7.281 -2.4643  1.5303  1.8601
  130OSM    H8G14041   1.170   0.312   7.336  2.2179  1.4431 -1.5353
  130OSM    C9F14042   1.006   0.411   7.436 -0.5681 -0.3117  0.2901
  130OSM    H9F14043   0.949   0.502   7.414 -2.2127 -0.5873  2.9601
  130OSM   C10F14044   0.993   0.331   7.544  0.9343  0.0110 -0.7091
  130OSM   H10F14045   0.926   0.363   7.625  0.0475 -0.2846 -1.3134
  130OSM   C11F14046   1.062   0.200   7.575  0.2179 -0.1299 -0.9187
  130OSM   H11F14047   1.144   0.181   7.503 -0.1141  2.0864 -1.9609
  130OSM   H11G14048   0.996   0.111   7.589 -0.4852  0.6771  1.5535
  130OSM   C12F14049   1.129   0.199   7.712  1.0597  0.3735  0.2417
  130OSM   H12F14050   1.178   0.299   7.710  0.8405  0.4716 -0.3956
  130OSM   H12G14051   1.214   0.129   7.723  1.0159 -0.1447 -2.1535
  130OSM   C13F14052   1.025   0.185   7.825  0.2197 -0.4259  0.4103
  130OSM   H13F14053   0.978   0.084   7.821  0.5733 -0.5820  0.1523
  130OSM   H13G14054   0.940   0.256   7.814  0.1212  0.0512  3.3637
  130OSM   C14F14055   1.089   0.213   7.967  0.3425 -0.1820  0.6465
  130OSM   H14F14056   1.134   0.313   7.978  1.2465 -0.4518 -0.5110
  130OSM   H14G14057   1.176   0.144   7.960 -1.0851 -1.9214 -1.3973
  130OSM   C15F14058   1.000   0.164   8.087 -0.0171  0.0374  0.9217
  130OSM   H15F14059   0.970   0.058   8.070 -0.9152  0.4670 -0.3876
  130OSM   H15G14060   0.904   0.220   8.092 -0.1172  0.3617 -2.2342
  130OSM   C16F14061   1.064   0.184   8.215 -0.3599  0.1185 -0.0388
  130OSM   H16F14062   1.109   0.285   8.227  0.2328 -0.3821  2.4656
  130OSM   H16G14063   1.158   0.125   8.219  0.6725  1.7271  0.5137
  130OSM   C17F14064   0.990   0.150   8.346 -0.3493 -0.1598 -0.7772
  130OSM   H17F14065   1.065   0.135   8.426 -1.2953  0.5010  0.2686
  130OSM   H17G14066   0.942   0.050   8.335 -1.7736  0.1724  1.6171
  130OSM   C18F14067   0.887   0.250   8.391  0.3235 -0.1066  0.4216
  130OSM   H18F14068   0.844   0.220   8.489  1.9576  1.2097  1.6086
  130OSM   H18G14069   0.796   0.257   8.328  0.3508 -1.2774  0.2247
  130OSM   H18H14070   0.923   0.355   8.398  1.4899 -0.5253  0.8645
  131OSM      N14071   0.331   1.975   5.922 -0.3311  0.3731 -0.4855
  131OSM    C1514072   0.401   1.844   5.900  0.3560  0.0851 -0.1628
  131OSM   H15A14073   0.421   1.831   5.795 -0.1727 -0.5752 -0.1880
  131OSM   H15B14074   0.347   1.759   5.940 -1.0812  1.0629  0.0672
  131OSM   H15C14075   0.496   1.836   5.950 -0.2449  1.1564  1.2335
  131OSM    C1414076   0.278   1.975   6.060  0.9139  0.3617 -0.1481
  131OSM   H14A14077   0.366   1.970   6.122  1.5228 -1.6932 -1.0891
  131OSM   H14B14078   0.213   1.892   6.083  0.5710  1.3843  3.0508
  131OSM   H14C14079   0.221   2.066   6.074  0.2810 -0.2494  1.5042
  131OSM    C1314080   0.429   2.078   5.904  0.3708 -0.7822  0.2735
  131OSM   H13A14081   0.518   2.063   5.963  0.9707 -1.6782 -0.8267
  131OSM   H13B14082   0.395   2.177   5.931  1.8918 -0.1770  0.0492
  131OSM   H13C14083   0.460   2.079   5.800 -1.7008  1.3539 -0.3981
  131OSM    C1214084   0.218   1.985   5.820  0.2390  0.0300  0.3493
  131OSM   H12A14085   0.145   1.910   5.844 -1.4524  0.7597 -2.1685
  131OSM   H12B14086   0.254   1.956   5.722 -1.5807  1.1361 -0.7009
  131OSM    C1114087   0.142   2.124   5.815  0.7476 -0.1819 -0.0195
  131OSM   H11A14088   0.077   2.120   5.725 -1.3398 -1.5646  1.4471
  131OSM   H11B14089   0.213   2.205   5.791  0.8366 -0.3085 -0.1925
  131OSM      P14090  -0.061   2.078   5.953 -0.3210  0.0938 -0.2609
  131OSM    O1314091  -0.143   2.100   5.834  0.1859  0.0065  0.2597
  131OSM    O1414092  -0.029   1.940   5.993 -0.2540 -0.8141  0.1362
  131OSM    O1114093  -0.129   2.154   6.078  0.0119 -0.9180  0.4051
  131OSM    O1214094   0.068   2.165   5.934  0.0398 -0.1121 -0.1021
  131OSM    C1S14095  -0.158   2.297   6.066 -0.9020 -0.1114 -0.6262
  131OSM    H1S14096  -0.240   2.319   5.995  0.2276  0.2611 -1.8516
  131OSM    H1T14097  -0.069   2.355   6.034  0.3158 -0.6787  1.5672
  131OSM     NF14098  -0.267   2.489   6.193  0.3316  0.3279 -0.0430
  131OSM    HNF14099  -0.211   2.566   6.163  1.5365 -1.0909 -1.5777
  131OSM    C2S14100  -0.200   2.359   6.204 -0.4323  0.5481  0.1159
  131OSM    H2S14101  -0.279   2.295   6.248  0.7973  1.1871  3.5826
  131OSM    C3S14102  -0.079   2.361   6.302 -0.2816  0.1233 -0.0494
  131OSM    H3S14103  -0.025   2.451   6.268 -0.4451  0.5096  0.6906
  131OSM     O314104   0.018   2.251   6.283 -0.3520 -0.1846  0.0917
  131OSM    HO314105  -0.021   2.203   6.210 -4.9907  2.6316  0.2815
  131OSM    C4S14106  -0.129   2.382   6.448  0.4636 -0.4389  1.0230
  131OSM    H4S14107  -0.172   2.483   6.456 -0.8759 -1.0105  1.4007
  131OSM    C5S14108  -0.138   2.298   6.550  0.0383  0.1957  0.8312
  131OSM    H5S14109  -0.117   2.194   6.521  0.0781  0.2445  0.6818
  131OSM    C6S14110  -0.198   2.325   6.679 -1.0842 -0.1150 -0.0273
  131OSM    H6S14111  -0.256   2.420   6.673 -0.0563  0.5985  1.0139
  131OSM    H6T14112  -0.118   2.353   6.751 -2.2408  0.5158  1.0629
  131OSM    C7S14113  -0.281   2.211   6.727  0.1118  0.5083 -0.0148
  131OSM    H7S14114  -0.218   2.121   6.747  0.6066  1.2381  1.9356
  131OSM    H7T14115  -0.355   2.170   6.656  0.1710  0.1755  0.1102
  131OSM    C8S14116  -0.362   2.253   6.852 -0.5115  0.0767  0.2196
  131OSM    H8S14117  -0.452   2.188   6.853 -0.2910 -0.2686  2.3338
  131OSM    H8T14118  -0.405   2.352   6.827 -1.5279 -0.9787 -2.7482
  131OSM    C9S14119  -0.292   2.232   6.989  0.0002  0.1036  0.6447
  131OSM    H9S14120  -0.188   2.272   6.981 -0.4390  1.7651  2.6261
  131OSM    H9T14121  -0.288   2.123   7.009 -0.0072 -0.1449 -0.5936
  131OSM   C10S14122  -0.369   2.296   7.112 -0.1225  0.1599  0.0843
  131OSM   H10S14123  -0.471   2.254   7.124 -0.1831  0.4822  0.7310
  131OSM   H10T14124  -0.373   2.405   7.094 -1.2480 -0.1404 -1.7017
  131OSM   C11S14125  -0.301   2.276   7.253 -0.5639  0.3828 -0.3111
  131OSM   H11S14126  -0.209   2.338   7.249 -0.7523  0.6738 -0.1987
  131OSM   H11T14127  -0.257   2.174   7.248  0.7715  0.8472  1.2563
  131OSM   C12S14128  -0.391   2.289   7.373 -0.0708 -0.1186  0.0061
  131OSM   H12S14129  -0.471   2.212   7.371 -3.3136  2.9687 -3.0386
  131OSM   H12T14130  -0.454   2.380   7.364  0.7500  0.7178  2.1381
  131OSM   C13S14131  -0.306   2.280   7.504  0.0161 -0.3575  0.3711
  131OSM   H13S14132  -0.220   2.350   7.498 -0.1116 -0.3402 -2.3790
  131OSM   H13T14133  -0.258   2.180   7.502  0.8013 -0.0094 -2.8763
  131OSM   C14S14134  -0.381   2.301   7.636  0.6666 -0.3177 -0.4147
  131OSM   H14S14135  -0.467   2.232   7.651  0.6271 -0.0095  0.9566
  131OSM   H14T14136  -0.425   2.403   7.637  0.2844 -0.4647 -1.0962
  131OSM   C15S14137  -0.290   2.286   7.755  0.2091 -0.1645  0.2374
  131OSM   H15S14138  -0.202   2.354   7.764 -0.1535  0.4996 -0.9875
  131OSM   H15T14139  -0.252   2.182   7.748  0.6495  0.0902 -1.5588
  131OSM   C16S14140  -0.359   2.310   7.889 -0.3746 -0.4299 -0.6706
  131OSM   H16S14141  -0.450   2.246   7.889 -0.6887 -0.0041 -1.4750
  131OSM   H16T14142  -0.388   2.417   7.895 -1.0915 -0.5950 -1.0695
  131OSM   C17S14143  -0.270   2.278   8.010  0.0084  0.3466  0.0603
  131OSM   H17S14144  -0.171   2.325   7.989  0.4383 -0.8768 -0.7809
  131OSM   H17T14145  -0.248   2.170   7.997  1.0661  0.5934 -0.2899
  131OSM   C18S14146  -0.337   2.310   8.147 -0.2278 -0.1210  0.7373
  131OSM   H18S14147  -0.350   2.420   8.138  0.1348 -0.1792 -0.7723
  131OSM   H18T14148  -0.255   2.302   8.222  0.9518  1.2037 -0.3564
  131OSM   H18U14149  -0.429   2.253   8.173 -0.8776  0.3057 -0.5643
  131OSM    C1F14150  -0.398   2.499   6.160 -0.6209  0.8084 -0.5820
  131OSM     OF14151  -0.466   2.400   6.123  0.4159 -0.3561  0.0004
  131OSM    C2F14152  -0.459   2.633   6.169  0.2947  0.1675  0.0140
  131OSM    H2F14153  -0.494   2.665   6.069  0.9128 -1.9231 -0.9400
  131OSM    H2G14154  -0.379   2.702   6.204  0.6274  0.3560 -1.0713
  131OSM    C3F14155  -0.582   2.625   6.265  0.0108 -0.2645  0.2999
  131OSM    H3F14156  -0.655   2.547   6.231 -0.3494  1.2113 -2.5928
  131OSM    H3G14157  -0.639   2.720   6.254 -0.2029 -0.1604  2.0771
  131OSM    C4F14158  -0.545   2.613   6.413 -0.2424  0.2297  0.3573
  131OSM    H4F14159  -0.525   2.714   6.457 -0.3261 -0.4492  2.0257
  131OSM    H4G14160  -0.447   2.560   6.418 -0.8633 -0.9750  0.0530
  131OSM    C5F14161  -0.649   2.537   6.501 -0.3117  0.2598  0.4396
  131OSM    H5F14162  -0.684   2.440   6.458  1.5961  0.4880 -1.8339
  131OSM    H5G14163  -0.742   2.597   6.492 -2.3605 -2.6428  0.6609
  131OSM    C6F14164  -0.632   2.521   6.651  0.1127 -0.5328 -0.3491
  131OSM    H6F14165  -0.524   2.503   6.669  0.1332  0.7968  1.0644
  131OSM    H6G14166  -0.704   2.447   6.693 -2.0489  1.4445 -0.4166
  131OSM    C7F14167  -0.673   2.657   6.722  0.3984  0.8335  1.4738
  131OSM    H7F14168  -0.770   2.699   6.689  0.9135  2.4857  1.9674
  131OSM    H7G14169  -0.591   2.729   6.703  1.6549 -0.5254  1.5585
  131OSM    C8F14170  -0.698   2.647   6.874 -0.4245  1.2194  0.5444
  131OSM    H8F14171  -0.742   2.546   6.883  0.2576  0.6063 -2.2370
  131OSM    H8G14172  -0.766   2.725   6.916  0.7553  2.2114  0.6821
  131OSM    C9F14173  -0.563   2.639   6.944 -0.1261  0.3924 -0.1452
  131OSM    H9F14174  -0.475   2.613   6.884 -0.4575  0.5228 -0.6945
  131OSM   C10F14175  -0.537   2.709   7.059  0.1773  0.3434  0.6624
  131OSM   H10F14176  -0.433   2.704   7.095  0.7956 -0.0875 -1.0503
  131OSM   C11F14177  -0.635   2.792   7.132 -0.5621  0.5832 -0.3267
  131OSM   H11F14178  -0.709   2.841   7.065  2.4139  4.6210 -1.0344
  131OSM   H11G14179  -0.582   2.872   7.189 -1.3804  0.6166  0.4129
  131OSM   C12F14180  -0.707   2.699   7.222  0.2600  0.4048 -0.4921
  131OSM   H12F14181  -0.739   2.604   7.173 -0.7427  0.5934 -0.2192
  131OSM   H12G14182  -0.797   2.754   7.259 -0.4008 -1.8676  1.5344
  131OSM   C13F14183  -0.617   2.668   7.348  0.0383 -0.0120 -0.2831
  131OSM   H13F14184  -0.543   2.749   7.365  2.8203 -2.2250 -1.1570
  131OSM   H13G14185  -0.555   2.577   7.335 -0.8853 -0.8599  0.9804
  131OSM   C14F14186  -0.710   2.662   7.475 -0.7980  0.2701 -0.2720
  131OSM   H14F14187  -0.791   2.588   7.460  1.3510 -2.0599 -1.2973
  131OSM   H14G14188  -0.757   2.758   7.504 -1.5289 -0.1924  0.1079
  131OSM   C15F14189  -0.630   2.611   7.602  0.1595 -0.4920  0.0769
  131OSM   H15F14190  -0.523   2.641   7.595  0.2915 -1.0345 -0.2961
  131OSM   H15G14191  -0.615   2.501   7.606 -4.0923 -1.2954 -1.1959
  131OSM   C16F14192  -0.698   2.652   7.729  0.7800 -1.1384 -0.1638
  131OSM   H16F14193  -0.806   2.630   7.723  0.5211  0.4368 -3.3790
  131OSM   H16G14194  -0.706   2.762   7.724  0.8168 -1.1448 -0.3983
  131OSM   C17F14195  -0.615   2.594   7.846  0.0022 -0.1436 -0.1722
  131OSM   H17F14196  -0.514   2.641   7.840  1.1506 -2.4592 -0.2070
  131OSM   H17G14197  -0.607   2.485   7.825  2.6521  0.2992 -1.9340
  131OSM   C18F14198  -0.675   2.619   7.983 -0.0914  0.5228 -0.3845
  131OSM   H18F14199  -0.655   2.718   8.029 -2.4129  1.1281 -0.5483
  131OSM   H18G14200  -0.630   2.542   8.049 -1.7829 -0.3640 -0.2281
  131OSM   H18H14201  -0.783   2.596   7.978  0.2435 -1.1302 -0.6715
  132OSM      N14202   1.110   3.570   6.168 -0.2496 -0.7055  0.0164
  132OSM    C1514203   1.142   3.516   6.020  0.7019 -0.5341 -0.1938
  132OSM   H15A14204   1.094   3.421   6.003 -1.0578  0.0489  1.2021
  132OSM   H15B14205   1.247   3.495   6.009  0.3673 -2.5851  0.2029
  132OSM   H15C14206   1.110   3.583   5.941  1.1067 -1.0982 -0.8484
  132OSM    C1414207   0.970   3.588   6.177  1.1089  0.0176 -0.0186
  132OSM   H14A14208   0.940   3.689   6.151  0.2673 -0.4925 -1.1667
  132OSM   H14B14209   0.917   3.569   6.269  1.2460 -2.3239 -0.3534
  132OSM   H14C14210   0.919   3.511   6.121  0.5787  0.2565  0.1206
  132OSM    C1314211   1.150   3.456   6.256  0.2105  0.3417 -0.4542
  132OSM   H13A14212   1.116   3.362   6.217  0.6263 -1.3545  2.8888
  132OSM   H13B14213   1.112   3.468   6.357  1.7926 -1.2253  0.3880
  132OSM   H13C14214   1.255   3.436   6.272  0.2128 -2.3682 -3.1103
  132OSM    C1214215   1.180   3.710   6.204  0.0409  0.5988 -0.5963
  132OSM   H12A14216   1.184   3.778   6.120 -0.1763 -0.0240 -1.1186
  132OSM   H12B14217   1.286   3.690   6.217  0.4199  2.3301 -0.8686
  132OSM    C1114218   1.123   3.789   6.327  0.1276  0.7174 -0.3078
  132OSM   H11A14219   1.199   3.860   6.366  1.3354 -1.1533  0.9014
  132OSM   H11B14220   1.115   3.715   6.410 -1.4608  0.4262 -0.6752
  132OSM      P14221   0.966   3.974   6.218  0.0227 -0.3017 -0.1642
  132OSM    O1314222   1.004   3.962   6.075 -0.1201  0.2877 -0.0505
  132OSM    O1414223   0.832   4.027   6.254  1.1346 -0.3401  0.0390
  132OSM    O1114224   1.074   4.085   6.276 -0.0838 -0.4750 -0.3662
  132OSM    O1214225   0.996   3.844   6.297  0.5068  0.8704 -0.4180
  132OSM    C1S14226   1.048   4.114   6.418  0.2895  0.4156  0.0492
  132OSM    H1S14227   1.050   4.021   6.478 -1.6166  1.1094  1.3226
  132OSM    H1T14228   0.953   4.166   6.445 -0.0201 -0.5778  0.9445
  132OSM     NF14229   1.150   4.198   6.631 -0.2542 -0.2272  0.5622
  132OSM    HNF14230   1.109   4.277   6.675 -2.5922 -1.5198  0.8710
  132OSM    C2S14231   1.157   4.207   6.485 -0.0473  0.0158 -0.3477
  132OSM    H2S14232   1.258   4.166   6.465  0.2679 -0.1898  1.4255
  132OSM    C3S14233   1.139   4.350   6.424 -0.2506 -0.1917  0.5870
  132OSM    H3S14234   1.043   4.388   6.465 -1.2245 -0.8065 -1.0391
  132OSM     O314235   1.107   4.358   6.285  0.3143 -0.3357  0.7473
  132OSM    HO314236   1.071   4.272   6.261 -0.8813  0.2063  0.4802
  132OSM    C4S14237   1.252   4.438   6.468  0.2488  0.0094  0.2313
  132OSM    H4S14238   1.238   4.456   6.575  0.5190  0.7429  0.1475
  132OSM    C5S14239   1.362   4.491   6.403  0.1221  0.8789 -0.1913
  132OSM    H5S14240   1.389   4.465   6.300 -1.1662  3.5919 -1.2988
  132OSM    C6S14241   1.461   4.587   6.471  0.8179  0.0788  0.3507
  132OSM    H6S14242   1.445   4.684   6.421  0.6486  0.4174  1.0500
  132OSM    H6T14243   1.564   4.563   6.436  1.7872  0.4283  2.7698
  132OSM    C7S14244   1.450   4.597   6.628 -0.4301 -0.7604  0.3801
  132OSM    H7S14245   1.343   4.600   6.658 -0.5207 -0.4801  0.0344
  132OSM    H7T14246   1.503   4.687   6.665 -1.9121  0.2100  0.2552
  132OSM    C8S14247   1.511   4.481   6.699 -0.1794 -0.1202 -0.0674
  132OSM    H8S14248   1.619   4.483   6.676  0.4287  2.3487  2.4728
  132OSM    H8T14249   1.469   4.384   6.663  1.5140 -1.9718  2.5986
  132OSM    C9S14250   1.475   4.483   6.847 -0.3525  0.0114 -0.3548
  132OSM    H9S14251   1.511   4.579   6.891 -0.2114 -0.8828  1.5824
  132OSM    H9T14252   1.535   4.407   6.902 -1.8098 -0.6491  0.3578
  132OSM   C10S14253   1.329   4.458   6.884  0.9826 -0.4007  0.2332
  132OSM   H10S14254   1.311   4.352   6.857  0.4708  0.3548 -2.7774
  132OSM   H10T14255   1.250   4.526   6.847  0.7768 -0.4607  0.5617
  132OSM   C11S14256   1.316   4.467   7.038 -0.3613 -0.4012  0.0318
  132OSM   H11S14257   1.337   4.574   7.059 -1.2434 -0.3926  0.9173
  132OSM   H11T14258   1.395   4.404   7.085 -0.4850  0.0512  0.8557
  132OSM   C12S14259   1.190   4.441   7.111  0.5415 -0.1094  0.2160
  132OSM   H12S14260   1.152   4.337   7.108 -3.0058  1.0537  0.6207
  132OSM   H12T14261   1.109   4.497   7.061 -0.7784 -2.7740 -0.8305
  132OSM   C13S14262   1.190   4.486   7.257 -0.4863 -1.3468 -0.6652
  132OSM   H13S14263   1.238   4.585   7.270 -0.9814 -1.0795 -0.8249
  132OSM   H13T14264   1.260   4.418   7.311  1.0062  0.5418 -0.1205
  132OSM   C14S14265   1.045   4.477   7.317  0.1061 -0.6477 -0.3673
  132OSM   H14S14266   1.017   4.371   7.335 -1.9719  0.1643  1.6562
  132OSM   H14T14267   0.981   4.523   7.239  0.8503  3.3629  1.1532
  132OSM   C15S14268   1.017   4.545   7.447 -0.2011  0.9621  0.5006
  132OSM   H15S14269   0.929   4.495   7.493  0.2285 -1.1591 -0.8378
  132OSM   H15T14270   0.990   4.651   7.427  1.0569  1.0404 -1.0341
  132OSM   C16S14271   1.131   4.549   7.545 -0.0412 -0.5816 -0.4281
  132OSM   H16S14272   1.215   4.615   7.515  0.7068 -0.2577  2.1120
  132OSM   H16T14273   1.176   4.447   7.553  2.4879  0.3460 -1.5755
  132OSM   C17S14274   1.087   4.599   7.691  0.5025 -0.3763  0.3688
  132OSM   H17S14275   1.033   4.515   7.738 -0.3861  0.1673  0.3339
  132OSM   H17T14276   1.019   4.687   7.681 -0.5750 -0.9595  2.2661
  132OSM   C18S14277   1.205   4.642   7.789  0.3177  0.0157  0.1669
  132OSM   H18S14278   1.270   4.552   7.794 -0.2130 -0.3016  2.0575
  132OSM   H18T14279   1.179   4.661   7.895  0.3142  1.7685 -0.1221
  132OSM   H18U14280   1.268   4.723   7.747  1.3472  0.3068  2.1344
  132OSM    C1F14281   1.182   4.088   6.696 -0.9405 -0.1406  0.5667
  132OSM     OF14282   1.233   3.994   6.636 -0.1856 -0.0193 -0.0585
  132OSM    C2F14283   1.158   4.090   6.849 -0.5733 -0.1900 -0.2169
  132OSM    H2F14284   1.053   4.122   6.865 -0.4951 -1.2123  2.8949
  132OSM    H2G14285   1.227   4.168   6.887 -1.3780  0.8622 -0.8302
  132OSM    C3F14286   1.181   3.955   6.919  0.4471 -0.5106 -0.1925
  132OSM    H3F14287   1.281   3.909   6.907 -0.4320 -3.0659  1.4663
  132OSM    H3G14288   1.100   3.884   6.893 -0.1784 -0.2259  0.8807
  132OSM    C4F14289   1.167   3.967   7.067 -0.2278 -1.0445  0.2338
  132OSM    H4F14290   1.161   3.872   7.125 -2.1738  0.0066  1.9335
  132OSM    H4G14291   1.078   4.032   7.084  1.5017  1.3659  0.5155
  132OSM    C5F14292   1.289   4.044   7.128 -0.1619  0.0139  0.2900
  132OSM    H5F14293   1.320   4.130   7.066  0.1692 -0.3799 -0.0975
  132OSM    H5G14294   1.375   3.975   7.122 -0.6511 -0.6028  0.2104
  132OSM    C6F14295   1.269   4.072   7.277 -0.2027  0.3625 -0.2165
  132OSM    H6F14296   1.198   3.994   7.314  1.6409 -0.7142  1.2585
  132OSM    H6G14297   1.201   4.158   7.291 -1.8601 -0.7804 -0.9344
  132OSM    C7F14298   1.399   4.091   7.359 -0.0687  0.4685 -0.4162
  132OSM    H7F14299   1.462   4.162   7.301  0.3236  0.3107 -0.1872
  132OSM    H7G14300   1.453   3.994   7.359  3.6113  2.3656  0.1445
  132OSM    C8F14301   1.385   4.136   7.508  0.1580  0.2685  0.0273
  132OSM    H8F14302   1.356   4.243   7.521 -0.0434  0.0378  1.7041
  132OSM    H8G14303   1.488   4.130   7.550  0.2974  1.9811  0.0018
  132OSM    C9F14304   1.289   4.050   7.578 -0.0441 -0.4360 -0.1620
  132OSM    H9F14305   1.256   3.964   7.517 -1.6585 -0.3713  0.5552
  132OSM   C10F14306   1.238   4.072   7.700 -0.1436 -0.2820  0.0812
  132OSM   H10F14307   1.169   3.997   7.741  0.4205 -1.2311 -0.6590
  132OSM   C11F14308   1.285   4.183   7.789  0.1116 -0.0088 -1.3204
  132OSM   H11F14309   1.214   4.268   7.787  2.0403  1.8910  1.8368
  132OSM   H11G14310   1.383   4.225   7.757  0.4922 -0.7880 -1.2085
  132OSM   C12F14311   1.302   4.134   7.934 -0.0181 -0.6102 -0.4170
  132OSM   H12F14312   1.360   4.040   7.929 -1.6874 -1.6299 -3.7294
  132OSM   H12G14313   1.207   4.104   7.984  0.1883 -0.6766 -0.0624
  132OSM   C13F14314   1.375   4.246   8.002 -0.0804 -0.5984 -0.6498
  132OSM   H13F14315   1.313   4.337   7.984 -1.1121 -1.2423 -0.4096
  132OSM   H13G14316   1.476   4.258   7.957 -0.0933 -1.1833 -0.8336
  132OSM   C14F14317   1.403   4.234   8.152  0.2913 -0.2043  0.0913
  132OSM   H14F14318   1.355   4.142   8.193 -0.9657 -0.2993 -1.4724
  132OSM   H14G14319   1.372   4.331   8.195  2.5871  1.1476 -1.1294
  132OSM   C15F14320   1.549   4.228   8.184  0.6919 -0.2116  0.3592
  132OSM   H15F14321   1.609   4.299   8.124 -1.9761  1.1017 -0.9050
  132OSM   H15G14322   1.587   4.130   8.148  0.1367 -0.2403 -0.1477
  132OSM   C16F14323   1.573   4.249   8.340 -0.2325 -0.0176  0.4410
  132OSM   H16F14324   1.538   4.346   8.382 -0.6349 -0.6469  1.6229
  132OSM   H16G14325   1.682   4.248   8.362 -0.3309  1.6714  1.1380
  132OSM   C17F14326   1.516   4.125   8.416 -0.0021  0.4915  0.6524
  132OSM   H17F14327   1.406   4.125   8.428 -0.2196 -3.2312 -0.3569
  132OSM   H17G14328   1.556   4.117   8.519 -0.0128 -3.6860  0.4647
  132OSM   C18F14329   1.549   3.985   8.353 -0.1282 -0.0465 -0.7072
  132OSM   H18F14330   1.657   3.983   8.325  0.7412 -0.5653  2.3995
  132OSM   H18G14331   1.487   3.971   8.261 -1.1309 -0.0005 -0.0530
  132OSM   H18H14332   1.525   3.910   8.431  0.5953 -0.5902 -0.9962
  133OSM      N14333   1.787   3.390   6.009 -0.1140 -0.6929 -0.2696
  133OSM    C1514334   1.712   3.282   5.944 -0.1537  0.1423  0.1360
  133OSM   H15A14335   1.619   3.318   5.901  0.1749 -0.4593 -1.1073
  133OSM   H15B14336   1.682   3.206   6.014 -2.6174 -0.2433 -1.2176
  133OSM   H15C14337   1.777   3.239   5.870 -0.1711  1.4448 -0.6692
  133OSM    C1414338   1.916   3.333   6.066  0.1531 -0.0045  1.1356
  133OSM   H14A14339   1.982   3.411   6.100  0.9809  1.1679 -2.7225
  133OSM   H14B14340   1.967   3.265   6.000 -1.8498 -2.7257  2.1791
  133OSM   H14C14341   1.884   3.267   6.146 -0.9805  1.0150  1.5559
  133OSM    C1314342   1.804   3.494   5.908 -0.5217  0.1496 -0.1161
  133OSM   H13A14343   1.856   3.459   5.820 -0.0672  0.8168 -0.1211
  133OSM   H13B14344   1.850   3.582   5.950 -0.7795  0.2745 -0.0961
  133OSM   H13C14345   1.712   3.539   5.873  0.2241  1.2440 -0.7370
  133OSM    C1214346   1.699   3.447   6.122  0.5207  0.3248  0.0743
  133OSM   H12A14347   1.682   3.369   6.195 -0.6163 -1.1326 -1.6695
  133OSM   H12B14348   1.605   3.475   6.078  0.1769 -0.0951  0.5265
  133OSM    C1114349   1.764   3.568   6.192  0.0726 -0.3193 -0.0796
  133OSM   H11A14350   1.872   3.567   6.218 -0.0101  3.1527  0.8134
  133OSM   H11B14351   1.710   3.584   6.288 -2.8220  0.3645 -1.7140
  133OSM      P14352   1.618   3.761   6.103  0.2563 -0.1782 -0.2172
  133OSM    O1314353   1.621   3.876   6.010  0.1678  0.0042  0.8014
  133OSM    O1414354   1.496   3.670   6.082  0.0012  0.2049  0.3248
  133OSM    O1114355   1.617   3.821   6.248 -0.1956  0.5749  0.3892
  133OSM    O1214356   1.755   3.677   6.102  0.2572 -0.1353 -0.3523
  133OSM    C1S14357   1.498   3.800   6.326 -0.9186 -0.3952 -0.0245
  133OSM    H1S14358   1.476   3.691   6.324 -1.2889 -0.3284  0.3601
  133OSM    H1T14359   1.412   3.855   6.282 -0.5465  1.1619  1.1336
  133OSM     NF14360   1.437   3.809   6.569  0.0548  0.0666  0.0813
  133OSM    HNF14361   1.369   3.880   6.584  0.9222  1.0485 -0.5439
  133OSM    C2S14362   1.530   3.854   6.470 -0.5839  0.0577  0.4936
  133OSM    H2S14363   1.628   3.816   6.507  0.8076  3.3572  0.4973
  133OSM    C3S14364   1.549   4.008   6.454 -0.1482 -0.1237  0.1108
  133OSM    H3S14365   1.455   4.051   6.413 -0.5597  0.7127  1.8605
  133OSM     O314366   1.659   4.045   6.368 -0.1506  0.1655 -0.2808
  133OSM    HO314367   1.679   3.971   6.309  0.2074  0.7569 -0.9164
  133OSM    C4S14368   1.567   4.070   6.588 -0.0643 -0.0825 -0.0837
  133OSM    H4S14369   1.472   4.095   6.637  0.0969  2.5206 -0.9371
  133OSM    C5S14370   1.683   4.091   6.655 -0.2545 -0.4825  0.2613
  133OSM    H5S14371   1.775   4.055   6.607  0.7384  1.3304  0.7085
  133OSM    C6S14372   1.685   4.154   6.791 -0.6575 -0.3574  0.2061
  133OSM    H6S14373   1.609   4.235   6.800  1.4781  1.5873  2.8876
  133OSM    H6T14374   1.781   4.210   6.799 -0.8085 -0.2419  1.4004
  133OSM    C7S14375   1.664   4.047   6.896  0.0883 -0.2219  0.2190
  133OSM    H7S14376   1.745   3.971   6.883 -0.2379 -0.5104 -0.1712
  133OSM    H7T14377   1.570   3.993   6.874 -0.1155 -0.4093  1.4913
  133OSM    C8S14378   1.685   4.108   7.038 -0.0913 -0.3370 -0.4005
  133OSM    H8S14379   1.634   4.044   7.114 -0.5859  1.8569  1.2435
  133OSM    H8T14380   1.631   4.205   7.036  0.8347  0.1788 -1.0506
  133OSM    C9S14381   1.832   4.134   7.088  0.5754  0.8917 -0.0582
  133OSM    H9S14382   1.884   4.197   7.012  1.8856  0.4775  0.4712
  133OSM    H9T14383   1.883   4.035   7.086 -0.4920  0.3352 -0.3083
  133OSM   C10S14384   1.851   4.186   7.231 -0.2240  0.1335  0.5786
  133OSM   H10S14385   1.777   4.136   7.298 -0.9160  0.7637  0.3018
  133OSM   H10T14386   1.821   4.293   7.238 -1.1112 -0.1818  2.1542
  133OSM   C11S14387   1.994   4.166   7.286 -0.0437  0.3045  0.1919
  133OSM   H11S14388   2.060   4.250   7.256  0.9221 -0.8117 -0.9746
  133OSM   H11T14389   2.038   4.072   7.245 -0.3577 -0.7057  2.0725
  133OSM   C12S14390   2.003   4.155   7.445 -0.2207  0.2429  0.2163
  133OSM   H12S14391   2.108   4.124   7.463  0.1421  2.3144  2.1883
  133OSM   H12T14392   1.942   4.065   7.467 -1.7394  1.2994  0.4880
  133OSM   C13S14393   1.966   4.273   7.534  0.3766 -0.2081  0.5174
  133OSM   H13S14394   1.875   4.311   7.483 -0.4461 -2.1259  0.4893
  133OSM   H13T14395   2.048   4.348   7.530 -0.0433  0.3354  1.7047
  133OSM   C14S14396   1.945   4.233   7.680  0.0820 -0.1000 -0.0746
  133OSM   H14S14397   1.874   4.148   7.678  0.7674 -0.6694 -0.7761
  133OSM   H14T14398   1.906   4.322   7.733  1.0206  0.5350 -0.4125
  133OSM   C15S14399   2.071   4.186   7.758  0.6398  0.0272  0.1738
  133OSM   H15S14400   2.139   4.274   7.763 -0.9835  1.2908  0.8111
  133OSM   H15T14401   2.121   4.111   7.694 -0.1868 -1.0022  0.7023
  133OSM   C16S14402   2.041   4.116   7.888 -0.8369  0.3023 -0.0006
  133OSM   H16S14403   2.130   4.056   7.916  0.1636  1.8708  0.2359
  133OSM   H16T14404   1.959   4.041   7.881  0.6295 -1.4837  0.9811
  133OSM   C17S14405   2.024   4.210   8.009 -0.8848 -0.2693 -0.2695
  133OSM   H17S14406   1.950   4.287   7.979 -0.7976 -0.4090 -0.8571
  133OSM   H17T14407   2.123   4.250   8.040 -0.1635 -2.6403  0.6684
  133OSM   C18S14408   1.979   4.132   8.128 -0.1666  0.3481 -0.2131
  133OSM   H18S14409   1.990   4.194   8.221  2.3404 -1.8979  1.1358
  133OSM   H18T14410   2.048   4.048   8.150 -0.9681 -0.5063 -0.9327
  133OSM   H18U14411   1.876   4.097   8.108  0.3047 -1.8809  0.9938
  133OSM    C1F14412   1.424   3.682   6.606  0.3476  0.1409  0.2993
  133OSM     OF14413   1.502   3.594   6.566  0.2138 -0.2432 -0.6489
  133OSM    C2F14414   1.307   3.663   6.696  0.0548  0.2340 -0.5436
  133OSM    H2F14415   1.220   3.613   6.648 -0.9133 -0.0979  1.4290
  133OSM    H2G14416   1.262   3.757   6.735 -2.1380 -1.3759  1.0893
  133OSM    C3F14417   1.360   3.581   6.815 -0.0358 -0.3115 -0.0570
  133OSM    H3F14418   1.388   3.478   6.785  0.0458  0.0505 -1.2767
  133OSM    H3G14419   1.266   3.560   6.871 -1.9955 -1.9185 -3.6034
  133OSM    C4F14420   1.469   3.656   6.892  0.1187 -0.1884  0.2978
  133OSM    H4F14421   1.418   3.750   6.922 -1.6465 -1.2254  0.6989
  133OSM    H4G14422   1.558   3.680   6.830 -0.3255 -1.3923 -0.8552
  133OSM    C5F14423   1.522   3.572   7.007 -0.5706  0.2330 -0.0233
  133OSM    H5F14424   1.565   3.480   6.961 -1.7213 -0.0091 -0.6628
  133OSM    H5G14425   1.434   3.535   7.065 -1.1089  2.4343  0.6567
  133OSM    C6F14426   1.625   3.642   7.094  0.9041 -0.1540  0.7093
  133OSM    H6F14427   1.703   3.696   7.037 -2.0620  0.7190 -2.8637
  133OSM    H6G14428   1.668   3.562   7.158 -1.8677 -1.6859  0.8246
  133OSM    C7F14429   1.562   3.742   7.189 -0.8426 -0.5566 -0.5929
  133OSM    H7F14430   1.484   3.705   7.259 -0.0840 -0.1100  0.5172
  133OSM    H7G14431   1.512   3.828   7.140  0.9524  1.7324  1.3580
  133OSM    C8F14432   1.674   3.800   7.290 -0.2964  0.5706 -0.1908
  133OSM    H8F14433   1.624   3.884   7.342 -1.8787 -0.4993  0.0900
  133OSM    H8G14434   1.754   3.845   7.228 -0.0542  0.2565 -0.1094
  133OSM    C9F14435   1.744   3.720   7.396  0.1930  0.1760  0.2540
  133OSM    H9F14436   1.816   3.652   7.346  1.1328  1.5082 -0.2604
  133OSM   C10F14437   1.728   3.730   7.533 -0.2639  0.4270  0.3403
  133OSM   H10F14438   1.793   3.677   7.604 -1.6925 -2.1832 -0.2049
  133OSM   C11F14439   1.630   3.828   7.597  0.0951 -0.0015  0.2113
  133OSM   H11F14440   1.581   3.780   7.684  2.9048 -1.1027  1.3192
  133OSM   H11G14441   1.553   3.864   7.526 -0.0969 -1.3737 -0.3198
  133OSM   C12F14442   1.696   3.947   7.659  0.4454 -0.8385  0.1475
  133OSM   H12F14443   1.725   4.016   7.576 -0.5006 -2.3734 -1.5359
  133OSM   H12G14444   1.789   3.910   7.706 -0.6379 -2.9109  0.7590
  133OSM   C13F14445   1.607   4.014   7.772  0.0183  0.3486 -0.7544
  133OSM   H13F14446   1.500   4.004   7.743 -1.4458 -0.3479  3.9646
  133OSM   H13G14447   1.639   4.120   7.787 -0.8063  0.4157  0.7908
  133OSM   C14F14448   1.622   3.944   7.912 -0.3947  0.4605  0.0744
  133OSM   H14F14449   1.561   3.990   7.993  0.7300  0.8913  0.6904
  133OSM   H14G14450   1.725   3.956   7.950 -0.9561 -1.4849  2.4085
  133OSM   C15F14451   1.591   3.797   7.915  0.2018  0.5613  0.6620
  133OSM   H15F14452   1.674   3.738   7.869  2.4453  1.6652  3.0243
  133OSM   H15G14453   1.496   3.779   7.860  0.0655 -1.3848  1.4703
  133OSM   C16F14454   1.558   3.747   8.061  0.4163 -0.0699  0.1936
  133OSM   H16F14455   1.465   3.803   8.082  0.0518  0.1575 -1.7980
  133OSM   H16G14456   1.626   3.783   8.141  0.5438 -0.6637  0.3609
  133OSM   C17F14457   1.538   3.597   8.078  0.2764 -0.4980  0.9150
  133OSM   H17F14458   1.617   3.545   8.020 -1.1616 -1.5221 -0.2010
  133OSM   H17G14459   1.442   3.559   8.036  0.4982  1.0585 -1.2139
  133OSM   C18F14460   1.528   3.556   8.226  0.5288 -0.6572 -0.1597
  133OSM   H18F14461   1.530   3.445   8.220  0.6390 -0.6043 -1.4423
  133OSM   H18G14462   1.433   3.587   8.273  0.9204 -1.2376  1.0835
  133OSM   H18H14463   1.625   3.596   8.264 -0.3937  0.6980  0.8270
  134OSM      N14464   2.339   0.789   6.287 -0.5086  0.3893 -0.8735
  134OSM    C1514465   2.371   0.901   6.197 -0.8129 -0.2257 -0.2892
  134OSM   H15A14466   2.291   0.910   6.124 -1.5849 -1.9736  0.2777
  134OSM   H15B14467   2.462   0.890   6.140 -0.9670 -0.9664 -0.4038
  134OSM   H15C14468   2.367   0.990   6.258 -1.6383 -0.5316  0.1207
  134OSM    C1414469   2.273   0.675   6.211 -0.8138 -0.5953 -0.2467
  134OSM   H14A14470   2.221   0.611   6.281 -0.4939  0.7663  1.2782
  134OSM   H14B14471   2.344   0.623   6.148 -1.6575 -1.5021 -0.4923
  134OSM   H14C14472   2.192   0.715   6.151 -1.5459 -0.3090  0.9123
  134OSM    C1314473   2.476   0.740   6.331 -0.1891 -0.1434  0.4486
  134OSM   H13A14474   2.552   0.749   6.254  0.4006  3.1917  1.2642
  134OSM   H13B14475   2.475   0.639   6.369 -2.1013  0.5203  2.3497
  134OSM   H13C14476   2.518   0.808   6.404 -0.4010 -0.1419  0.5681
  134OSM    C1214477   2.250   0.832   6.403  0.2887 -0.2068  0.8515
  134OSM   H12A14478   2.150   0.856   6.370 -0.1236  0.1616  2.2790
  134OSM   H12B14479   2.290   0.922   6.448 -0.3719  1.9986 -2.5993
  134OSM    C1114480   2.229   0.728   6.520  0.4651 -0.6858 -0.4216
  134OSM   H11A14481   2.160   0.785   6.585  0.2132  0.0517 -1.3088
  134OSM   H11B14482   2.319   0.710   6.582 -0.0194  0.2408  0.5811
  134OSM      P14483   2.016   0.588   6.451  0.1947  0.3277 -0.0671
  134OSM    O1314484   1.944   0.714   6.476  0.9405  0.9101  0.2820
  134OSM    O1414485   1.992   0.506   6.328  0.5621 -0.3154  0.1238
  134OSM    O1114486   1.991   0.487   6.567  0.5723 -0.6003  0.4193
  134OSM    O1214487   2.172   0.611   6.475  0.0053  0.7797  0.1525
  134OSM    C1S14488   2.065   0.487   6.688  0.0908 -0.0308  0.0702
  134OSM    H1S14489   2.055   0.581   6.745  0.6449  0.7885 -1.1419
  134OSM    H1T14490   2.173   0.464   6.678  0.3859  1.8635 -1.8730
  134OSM     NF14491   2.066   0.387   6.918  0.3154  0.1545 -0.0759
  134OSM    HNF14492   2.140   0.335   6.961 -0.2892 -0.4095  0.3121
  134OSM    C2S14493   2.022   0.373   6.782 -0.6551 -0.2741  0.6317
  134OSM    H2S14494   1.911   0.365   6.783 -0.7116  0.3494  2.0077
  134OSM    C3S14495   2.068   0.235   6.729  0.6748  0.0264  0.3940
  134OSM    H3S14496   2.179   0.233   6.718  0.4977  1.1461 -2.6235
  134OSM     O314497   2.023   0.196   6.595 -0.4955  0.1797  0.5199
  134OSM    HO314498   1.972   0.267   6.556 -2.5897 -2.0335 -1.0822
  134OSM    C4S14499   2.027   0.120   6.824 -0.1942  0.6239 -0.0193
  134OSM    H4S14500   2.090   0.102   6.912  2.8486  0.6194 -2.0701
  134OSM    C5S14501   1.912   0.043   6.815 -0.4764 -0.9409 -0.5368
  134OSM    H5S14502   1.831   0.069   6.746  0.3034  0.8223 -0.8522
  134OSM    C6S14503   1.880  -0.062   6.919 -0.0567 -0.6768  0.1668
  134OSM    H6S14504   1.893  -0.160   6.868  0.7189 -0.5597  0.1205
  134OSM    H6T14505   1.777  -0.060   6.960  0.5102  1.4925  1.6656
  134OSM    C7S14506   1.958  -0.066   7.058 -0.6383 -0.0360  0.4085
  134OSM    H7S14507   2.069  -0.063   7.053 -0.5275 -1.3094  1.5661
  134OSM    H7T14508   1.924  -0.152   7.120 -0.1837  1.3408  2.7091
  134OSM    C8S14509   1.912   0.063   7.130  0.0193  0.4925  1.0182
  134OSM    H8S14510   1.801   0.074   7.120  0.0137 -0.9052 -1.2485
  134OSM    H8T14511   1.950   0.151   7.075 -1.0355 -0.5833 -1.6158
  134OSM    C9S14512   1.965   0.065   7.270  0.2578 -0.5124 -0.8198
  134OSM    H9S14513   2.075   0.073   7.282  0.2419  0.1655 -1.0807
  134OSM    H9T14514   1.935  -0.035   7.308  1.4665 -0.3429  0.6839
  134OSM   C10S14515   1.882   0.167   7.352 -0.3094  0.6236 -0.2029
  134OSM   H10S14516   1.776   0.133   7.348  0.7705 -3.1617 -0.7324
  134OSM   H10T14517   1.888   0.269   7.309 -0.1623  0.5438 -0.3725
  134OSM   C11S14518   1.913   0.163   7.504  0.5121  1.0124  0.1476
  134OSM   H11S14519   2.023   0.178   7.495  0.5702  0.1690 -0.7236
  134OSM   H11T14520   1.900   0.058   7.537  0.6347  0.3050 -1.9277
  134OSM   C12S14521   1.839   0.261   7.595 -0.8908  0.3017  0.7674
  134OSM   H12S14522   1.731   0.236   7.597 -1.3276  1.8354 -0.6492
  134OSM   H12T14523   1.837   0.359   7.542 -2.0314 -0.0996  0.0184
  134OSM   C13S14524   1.893   0.267   7.736 -0.2523  0.0093 -0.4367
  134OSM   H13S14525   1.856   0.351   7.799  0.3659  1.4413 -1.9045
  134OSM   H13T14526   2.003   0.280   7.732 -0.1475 -0.2593  0.9734
  134OSM   C14S14527   1.871   0.129   7.810  0.1528  0.1369 -0.5343
  134OSM   H14S14528   1.916   0.051   7.745 -0.7359 -2.0937  1.4053
  134OSM   H14T14529   1.761   0.113   7.815 -0.1566  1.9316 -0.8310
  134OSM   C15S14530   1.933   0.129   7.952 -0.4585  0.0704 -0.1240
  134OSM   H15S14531   1.881   0.042   7.998  1.1840 -0.8068  0.1282
  134OSM   H15T14532   1.894   0.218   8.006  2.1088  1.3829 -0.2760
  134OSM   C16S14533   2.085   0.112   7.967 -0.4261 -0.0709  0.3307
  134OSM   H16S14534   2.135   0.208   7.943  0.0527 -0.9067 -2.3097
  134OSM   H16T14535   2.113   0.031   7.897  1.6095  1.1441 -0.3314
  134OSM   C17S14536   2.136   0.053   8.099 -0.1716  0.5342  0.0518
  134OSM   H17S14537   2.083  -0.042   8.123 -0.0916 -0.1052 -2.0987
  134OSM   H17T14538   2.122   0.110   8.194  0.0800 -0.7362  0.8735
  134OSM   C18S14539   2.286   0.018   8.093  0.0598 -0.4562  0.4629
  134OSM   H18S14540   2.350   0.108   8.100 -0.5510  0.0196  0.0202
  134OSM   H18T14541   2.307  -0.029   7.995  3.4722  2.3326 -0.3184
  134OSM   H18U14542   2.318  -0.049   8.176  2.9523  1.4321  1.0054
  134OSM    C1F14543   2.011   0.483   6.996 -0.2480 -0.1527 -0.0573
  134OSM     OF14544   1.902   0.532   6.959  0.0639 -0.3788 -0.0231
  134OSM    C2F14545   2.078   0.509   7.132  0.3906 -0.1209 -0.0919
  134OSM    H2F14546   2.186   0.532   7.114  0.3331  1.1387  1.0683
  134OSM    H2G14547   2.094   0.409   7.179 -2.4115  0.3401  2.0623
  134OSM    C3F14548   1.998   0.599   7.225 -0.1743 -0.2709 -0.2117
  134OSM    H3F14549   1.902   0.549   7.252  0.2681 -0.6057  0.7886
  134OSM    H3G14550   1.971   0.694   7.175 -2.7898  0.0410  1.5896
  134OSM    C4F14551   2.078   0.636   7.351 -0.1078  0.3301  0.5823
  134OSM    H4F14552   2.152   0.717   7.335 -1.4225  1.2066 -1.6694
  134OSM    H4G14553   2.135   0.547   7.384  0.3781  0.8888  1.2735
  134OSM    C5F14554   1.978   0.651   7.468 -0.1852  0.7721  0.1215
  134OSM    H5F14555   1.914   0.560   7.472  0.1623  0.5275  3.4446
  134OSM    H5G14556   1.905   0.734   7.459 -0.5446  0.5261  0.6937
  134OSM    C6F14557   2.053   0.653   7.603  0.5170 -0.5160  0.5632
  134OSM    H6F14558   2.115   0.744   7.619  0.7307 -0.4546 -0.5175
  134OSM    H6G14559   2.119   0.564   7.605  0.3164 -0.6710  0.4034
  134OSM    C7F14560   1.955   0.636   7.716  0.4563 -0.4901 -0.5226
  134OSM    H7F14561   1.898   0.541   7.707 -3.1475  1.5977 -1.5683
  134OSM    H7G14562   1.875   0.712   7.702  1.3695  0.4499 -0.7850
  134OSM    C8F14563   2.024   0.653   7.852  1.1770 -0.3504  0.0683
  134OSM    H8F14564   2.076   0.750   7.860 -2.4116  1.7654 -0.2996
  134OSM    H8G14565   2.106   0.578   7.857  2.1907  0.7377  0.2371
  134OSM    C9F14566   1.923   0.633   7.966  0.1104 -0.6031  0.4977
  134OSM    H9F14567   1.825   0.676   7.941  1.1093  0.6343 -1.6509
  134OSM   C10F14568   1.932   0.544   8.073 -0.3788 -0.1339  0.5522
  134OSM   H10F14569   1.865   0.547   8.160  2.3366  0.3553  2.7402
  134OSM   C11F14570   2.050   0.456   8.095  0.0911  0.1616  0.6358
  134OSM   H11F14571   2.111   0.430   8.006 -0.2827  0.5851  0.2564
  134OSM   H11G14572   2.010   0.363   8.141 -1.7834 -1.0392 -3.0184
  134OSM   C12F14573   2.155   0.532   8.176 -0.2334  0.5641 -0.4143
  134OSM   H12F14574   2.119   0.574   8.273  0.8323 -1.5470  0.9873
  134OSM   H12G14575   2.190   0.614   8.110 -0.7988 -0.6648 -2.3240
  134OSM   C13F14576   2.261   0.425   8.205  0.8040 -0.0825 -0.6914
  134OSM   H13F14577   2.358   0.478   8.219 -0.6601  2.4855  0.5626
  134OSM   H13G14578   2.286   0.362   8.117  0.9062 -0.1807 -0.5903
  134OSM   C14F14579   2.228   0.348   8.335  0.2391 -0.3339 -0.3780
  134OSM   H14F14580   2.137   0.285   8.337  0.0225 -0.0171  0.1889
  134OSM   H14G14581   2.205   0.436   8.399  1.0836  0.9631 -1.7842
  134OSM   C15F14582   2.348   0.281   8.384 -0.2132  0.5905  0.1581
  134OSM   H15F14583   2.426   0.359   8.398 -0.9675  1.6729 -1.4248
  134OSM   H15G14584   2.377   0.198   8.316 -0.6276  1.1687 -0.7344
  134OSM   C16F14585   2.335   0.200   8.523  0.1845 -0.9322  1.2962
  134OSM   H16F14586   2.278   0.106   8.506  0.0344 -0.6032 -0.1085
  134OSM   H16G14587   2.266   0.265   8.581 -0.9045 -1.8363  1.0342
  134OSM   C17F14588   2.476   0.187   8.594 -0.7475 -0.2432 -0.5901
  134OSM   H17F14589   2.458   0.172   8.702 -0.7734 -0.9122 -0.6807
  134OSM   H17G14590   2.523   0.285   8.569  0.7828 -1.4660 -2.8807
  134OSM   C18F14591   2.569   0.075   8.549  0.3378  0.0723  0.3357
  134OSM   H18F14592   2.552  -0.023   8.599  0.6096 -0.1325  0.0272
  134OSM   H18G14593   2.677   0.085   8.574  0.5067 -1.2470  0.2089
  134OSM   H18H14594   2.555   0.052   8.441  0.4210 -0.9381  0.5280
  135OSM      N14595   1.339   0.735   6.089 -0.4191 -0.6004 -0.0388
  135OSM    C1514596   1.204   0.791   6.057  0.1773  0.0811  0.2308
  135OSM   H15A14597   1.190   0.766   5.953 -2.4908 -0.1242  0.5653
  135OSM   H15B14598   1.189   0.895   6.079 -1.4218 -0.2032  0.6358
  135OSM   H15C14599   1.131   0.728   6.107  2.2751 -3.0783 -0.3490
  135OSM    C1414600   1.345   0.594   6.078  0.6869  0.5988  0.1758
  135OSM   H14A14601   1.346   0.558   5.976  0.5406 -4.3266  1.6616
  135OSM   H14B14602   1.258   0.548   6.123 -0.4549  3.0070  0.5988
  135OSM   H14C14603   1.431   0.556   6.130 -0.6371 -1.7486  0.7910
  135OSM    C1314604   1.427   0.789   5.989  0.0940 -1.0784  0.4079
  135OSM   H13A14605   1.434   0.896   5.996 -0.5967 -1.0856  1.3423
  135OSM   H13B14606   1.399   0.765   5.887 -0.5507 -2.3572  0.8565
  135OSM   H13C14607   1.531   0.762   6.001  0.3262 -0.2085  0.4391
  135OSM    C1214608   1.371   0.793   6.225 -0.8461  0.0448 -0.6866
  135OSM   H12A14609   1.291   0.761   6.290 -1.0517  0.1116 -0.9053
  135OSM   H12B14610   1.382   0.900   6.211  3.4063 -0.3004 -1.2691
  135OSM    C1114611   1.511   0.755   6.293 -0.7573  0.1843 -0.0199
  135OSM   H11A14612   1.524   0.831   6.373 -0.5915 -1.8299  1.9681
  135OSM   H11B14613   1.593   0.775   6.220  1.4120 -2.2043  1.5844
  135OSM      P14614   1.423   0.547   6.422  0.2370 -0.3033 -0.3504
  135OSM    O1314615   1.326   0.643   6.478 -0.1246  0.0510  0.3817
  135OSM    O1414616   1.365   0.442   6.330 -0.5839  0.0135 -0.6029
  135OSM    O1114617   1.505   0.480   6.546  0.2007 -0.6610  0.0814
  135OSM    O1214618   1.527   0.622   6.342 -0.4803  0.1875  0.4032
  135OSM    C1S14619   1.632   0.528   6.587  0.0437 -0.1503  0.1433
  135OSM    H1S14620   1.666   0.613   6.525  3.7014 -0.7611  1.1112
  135OSM    H1T14621   1.704   0.444   6.574 -1.3358 -1.4211  0.3729
  135OSM     NF14622   1.735   0.640   6.779  0.0372 -0.7644 -0.7650
  135OSM    HNF14623   1.802   0.599   6.840 -0.5291 -0.7565 -0.1288
  135OSM    C2S14624   1.613   0.579   6.730  0.7107  0.1149 -0.4785
  135OSM    H2S14625   1.533   0.656   6.735  0.3861 -0.2814  1.7124
  135OSM    C3S14626   1.557   0.464   6.819 -0.5007 -0.4491  0.2914
  135OSM    H3S14627   1.632   0.381   6.822 -2.1468 -1.9792  1.8004
  135OSM     O314628   1.428   0.420   6.779 -0.2924  0.2490 -0.0728
  135OSM    HO314629   1.425   0.446   6.686  2.1024  1.2159  0.0585
  135OSM    C4S14630   1.533   0.515   6.956 -0.1834  0.0042  0.0892
  135OSM    H4S14631   1.441   0.575   6.969 -0.9059 -1.3093  1.3033
  135OSM    C5S14632   1.607   0.482   7.064 -0.1219 -0.0122  0.0933
  135OSM    H5S14633   1.689   0.409   7.058 -0.8975 -0.7936 -1.5812
  135OSM    C6S14634   1.580   0.548   7.199  0.3810 -0.0829 -0.3032
  135OSM    H6S14635   1.515   0.636   7.178  1.2735  0.1338 -2.2896
  135OSM    H6T14636   1.677   0.583   7.240  1.3505 -3.8166  1.0907
  135OSM    C7S14637   1.522   0.444   7.290 -0.1267  0.6787  0.0669
  135OSM    H7S14638   1.592   0.358   7.298 -0.8631  0.0979  0.4487
  135OSM    H7T14639   1.426   0.398   7.259  2.0956 -4.0160 -0.7999
  135OSM    C8S14640   1.505   0.501   7.430 -0.0000 -0.4862 -0.3852
  135OSM    H8S14641   1.444   0.592   7.448 -0.6674 -0.6939 -1.4915
  135OSM    H8T14642   1.608   0.534   7.457  0.4841  0.1857 -2.7850
  135OSM    C9S14643   1.470   0.400   7.545  0.0340 -0.1223  0.3326
  135OSM    H9S14644   1.541   0.317   7.526  0.3667  0.4688 -1.1704
  135OSM    H9T14645   1.370   0.355   7.524  0.7727 -1.3252 -0.7506
  135OSM   C10S14646   1.481   0.452   7.688 -0.1202 -0.0352 -0.0177
  135OSM   H10S14647   1.390   0.504   7.725 -2.5655 -2.0066 -2.8066
  135OSM   H10T14648   1.566   0.523   7.689  0.8011 -1.1109  0.1791
  135OSM   C11S14649   1.496   0.330   7.782  1.1939  0.2178 -0.6868
  135OSM   H11S14650   1.586   0.272   7.753  0.5434 -0.9558 -0.4160
  135OSM   H11T14651   1.402   0.273   7.768  0.5278  1.3479 -0.9459
  135OSM   C12S14652   1.502   0.377   7.926  0.2973 -0.4852 -0.0126
  135OSM   H12S14653   1.407   0.428   7.955  0.2953  0.5156 -1.6057
  135OSM   H12T14654   1.582   0.450   7.951 -0.0976 -0.4002  1.0615
  135OSM   C13S14655   1.525   0.256   8.022 -0.0629 -0.3471  0.0804
  135OSM   H13S14656   1.630   0.218   8.013  0.0347 -0.6774  2.0322
  135OSM   H13T14657   1.454   0.176   7.993  1.8288 -2.7158  1.4790
  135OSM   C14S14658   1.502   0.291   8.176  0.3874 -0.0429  1.0298
  135OSM   H14S14659   1.484   0.198   8.233  0.0716 -0.3149  0.4859
  135OSM   H14T14660   1.405   0.344   8.164 -0.7503 -2.2693 -0.2882
  135OSM   C15S14661   1.607   0.386   8.227  0.3686 -0.3967  0.2802
  135OSM   H15S14662   1.556   0.479   8.261 -0.5271 -1.0019  0.6464
  135OSM   H15T14663   1.674   0.410   8.141 -0.4253  0.6442 -0.0690
  135OSM   C16S14664   1.683   0.329   8.348 -0.3391  0.3720  0.8624
  135OSM   H16S14665   1.610   0.288   8.422 -0.1835 -1.6538 -0.0721
  135OSM   H16T14666   1.738   0.415   8.393 -1.1666 -0.0240  2.7550
  135OSM   C17S14667   1.790   0.225   8.311  0.4758 -0.5059 -0.0036
  135OSM   H17S14668   1.858   0.261   8.231  1.9713 -1.7690  0.6455
  135OSM   H17T14669   1.738   0.151   8.247  2.0830  0.0185 -1.9933
  135OSM   C18S14670   1.860   0.181   8.433  0.2570 -0.7416 -0.2453
  135OSM   H18S14671   1.917   0.264   8.480 -1.9639 -0.0134  1.3460
  135OSM   H18T14672   1.938   0.109   8.402  1.5070  1.6913 -3.3951
  135OSM   H18U14673   1.789   0.137   8.506  1.8483 -0.8046  1.3201
  135OSM    C1F14674   1.753   0.770   6.750 -0.0205  0.5745  0.0185
  135OSM     OF14675   1.661   0.835   6.699 -0.3347 -0.0732 -0.3118
  135OSM    C2F14676   1.874   0.826   6.800 -0.5438 -0.7614 -0.4489
  135OSM    H2F14677   1.946   0.819   6.716  0.0149 -0.2705 -0.0139
  135OSM    H2G14678   1.915   0.772   6.888  0.5698  1.4994  0.4981
  135OSM    C3F14679   1.863   0.976   6.841  0.0331 -0.6082 -0.2177
  135OSM    H3F14680   1.846   1.041   6.753  1.2486  1.1381  0.7912
  135OSM    H3G14681   1.959   1.015   6.881 -0.5001  2.4530 -1.6439
  135OSM    C4F14682   1.750   0.997   6.947  0.6320 -0.3988  0.1866
  135OSM    H4F14683   1.662   0.976   6.883  0.9528  2.6812 -1.4499
  135OSM    H4G14684   1.749   1.105   6.970  3.4391  0.3061 -2.3154
  135OSM    C5F14685   1.753   0.918   7.079  0.1888  0.2377 -0.7793
  135OSM    H5F14686   1.841   0.949   7.140  0.0150  1.7891 -1.2736
  135OSM    H5G14687   1.761   0.813   7.044  1.6307  0.3026 -0.7003
  135OSM    C6F14688   1.629   0.940   7.161 -0.4014 -0.6686 -0.2657
  135OSM    H6F14689   1.540   0.909   7.103  0.0398  2.9322 -3.2474
  135OSM    H6G14690   1.616   1.049   7.177 -1.3356 -0.8526  0.2608
  135OSM    C7F14691   1.650   0.879   7.301 -0.0519 -0.0531  0.6348
  135OSM    H7F14692   1.738   0.811   7.296 -0.3857 -0.5145  1.0179
  135OSM    H7G14693   1.570   0.807   7.328  2.1316 -2.4531  1.1211
  135OSM    C8F14694   1.685   0.973   7.416 -0.1261 -0.2760  0.6857
  135OSM    H8F14695   1.770   1.042   7.395 -0.5510  0.3863  1.0883
  135OSM    H8G14696   1.709   0.896   7.493 -0.0508 -0.6430  0.2962
  135OSM    C9F14697   1.555   1.045   7.463 -0.0544 -0.8494  0.2122
  135OSM    H9F14698   1.500   1.081   7.375 -0.7099 -1.1472  0.4948
  135OSM   C10F14699   1.519   1.070   7.593 -0.4407  0.6409  0.1153
  135OSM   H10F14700   1.419   1.109   7.614 -1.2834 -1.3773  0.0602
  135OSM   C11F14701   1.593   1.043   7.719  0.2564 -0.1552  0.2194
  135OSM   H11F14702   1.609   1.133   7.781 -1.3581 -2.0782  3.7172
  135OSM   H11G14703   1.692   0.995   7.705  0.7199  0.9147 -0.2306
  135OSM   C12F14704   1.504   0.964   7.810 -0.1793 -0.1370 -0.1481
  135OSM   H12F14705   1.468   0.870   7.763 -0.2790 -0.8205  1.2321
  135OSM   H12G14706   1.425   1.037   7.838 -0.9753 -1.7049  2.0314
  135OSM   C13F14707   1.576   0.912   7.935 -0.1075 -0.6928 -0.1062
  135OSM   H13F14708   1.623   1.002   7.981 -0.1097 -1.5868  1.7453
  135OSM   H13G14709   1.665   0.854   7.901  1.2994  2.1201 -1.5640
  135OSM   C14F14710   1.478   0.844   8.032 -0.2283 -0.3380 -0.6655
  135OSM   H14F14711   1.435   0.762   7.971  1.7694 -1.9388 -0.0389
  135OSM   H14G14712   1.400   0.915   8.066  1.4272  1.2024  0.0576
  135OSM   C15F14713   1.536   0.765   8.148  0.8044 -0.0680  1.0184
  135OSM   H15F14714   1.588   0.672   8.117  0.7228  0.3471 -0.4234
  135OSM   H15G14715   1.449   0.733   8.210 -0.9524  0.8695 -0.8699
  135OSM   C16F14716   1.619   0.844   8.247  0.5586  0.1879 -0.2244
  135OSM   H16F14717   1.562   0.936   8.273 -1.7827 -0.1906 -3.4881
  135OSM   H16G14718   1.720   0.868   8.208 -0.3353  3.2476 -0.8901
  135OSM   C17F14719   1.626   0.765   8.379  0.3265 -0.4342  0.7391
  135OSM   H17F14720   1.697   0.682   8.356  0.4102 -0.9916  2.8334
  135OSM   H17G14721   1.523   0.733   8.404 -0.0313  0.4744  0.4847
  135OSM   C18F14722   1.686   0.844   8.491  0.7373 -0.7208 -0.4769
  135OSM   H18F14723   1.612   0.910   8.541  1.2014 -0.4163 -0.1737
  135OSM   H18G14724   1.770   0.902   8.448 -0.0475  0.5587 -0.3309
  135OSM   H18H14725   1.730   0.770   8.562 -0.3709 -1.2599 -0.3248
  136OSM      N14726   4.779   1.053   5.775 -0.3282 -1.0879 -0.0050
  136OSM    C1514727   4.820   1.063   5.630 -0.1038 -1.2539  0.0364
  136OSM   H15A14728   4.782   0.974   5.584 -1.5664 -0.9469  0.5990
  136OSM   H15B14729   4.928   1.064   5.631 -0.0718  0.6608 -0.6897
  136OSM   H15C14730   4.783   1.151   5.579 -1.9362 -1.2394  1.3148
  136OSM    C1414731   4.635   1.010   5.787  0.5480  0.1929  0.1872
  136OSM   H14A14732   4.578   1.094   5.751 -0.3374 -0.0248  1.0367
  136OSM   H14B14733   4.616   1.002   5.893  2.4233  0.5046  0.5834
  136OSM   H14C14734   4.617   0.926   5.721  4.3588  0.5055 -1.5313
  136OSM    C1314735   4.865   0.942   5.832 -0.8750 -0.0149 -0.2904
  136OSM   H13A14736   4.828   0.917   5.930 -1.3551  2.9487  0.3923
  136OSM   H13B14737   4.968   0.974   5.838 -0.8802  1.0159 -3.5935
  136OSM   H13C14738   4.865   0.860   5.762 -1.6771 -0.5752  0.3616
  136OSM    C1214739   4.797   1.182   5.855 -0.0772 -0.1800 -0.4664
  136OSM   H12A14740   4.736   1.258   5.809  0.9966 -0.0484 -1.7406
  136OSM   H12B14741   4.896   1.208   5.818 -0.6708 -0.5564 -2.4576
  136OSM    C1114742   4.782   1.199   6.005  0.4358  1.3571 -0.8455
  136OSM   H11A14743   4.675   1.199   6.036  1.0137  1.6646  1.3314
  136OSM   H11B14744   4.817   1.300   6.036 -1.1676  2.0340 -1.1192
  136OSM      P14745   5.002   1.092   6.110  0.9094 -0.2720 -0.0681
  136OSM    O1314746   5.070   0.980   6.046  0.3518  0.4282  0.4045
  136OSM    O1414747   5.059   1.226   6.087 -0.6308 -0.1274 -0.2882
  136OSM    O1114748   5.007   1.076   6.265  0.5680  0.0482  0.0622
  136OSM    O1214749   4.847   1.095   6.077  0.1930  0.1216 -0.4714
  136OSM    C1S14750   5.134   1.052   6.336  0.0186  0.1461  0.0632
  136OSM    H1S14751   5.197   0.984   6.276 -0.1932  0.7717 -0.8955
  136OSM    H1T14752   5.112   1.006   6.435  1.5281  0.6087  0.6457
  136OSM     NF14753   5.350   1.152   6.411  0.1941  0.6229  0.4556
  136OSM    HNF14754   5.391   1.152   6.501  1.1771  1.3539  0.0248
  136OSM    C2S14755   5.204   1.180   6.382 -0.9959 -0.1634  0.1196
  136OSM    H2S14756   5.189   1.241   6.290 -0.0028  0.5269  0.3846
  136OSM    C3S14757   5.127   1.241   6.500  0.4356  0.8109  0.1401
  136OSM    H3S14758   5.132   1.178   6.591 -1.2533 -0.2145 -0.4292
  136OSM     O314759   4.985   1.251   6.478 -1.0753 -0.4054 -0.7291
  136OSM    HO314760   4.970   1.213   6.392  2.2782 -0.7692 -1.2836
  136OSM    C4S14761   5.178   1.373   6.538 -0.9913  0.5648  0.4892
  136OSM    H4S14762   5.211   1.430   6.450  0.6194 -1.7254 -0.5088
  136OSM    C5S14763   5.188   1.428   6.660  0.0546 -0.3325  0.6174
  136OSM    H5S14764   5.164   1.367   6.748 -0.2965  1.8171  2.0920
  136OSM    C6S14765   5.244   1.559   6.695 -0.5741 -0.1808  0.3422
  136OSM    H6S14766   5.245   1.628   6.608  0.7049  0.9086  1.1837
  136OSM    H6T14767   5.350   1.549   6.727  0.0608  0.9203 -1.3069
  136OSM    C7S14768   5.177   1.620   6.809  0.1879 -1.2316 -0.0337
  136OSM    H7S14769   5.181   1.556   6.900  2.1604 -0.5801  0.3661
  136OSM    H7T14770   5.070   1.640   6.786  0.3618 -0.5285 -0.2572
  136OSM    C8S14771   5.223   1.757   6.850 -0.2525  0.2819 -0.0555
  136OSM    H8S14772   5.192   1.846   6.793 -0.9011  0.9371  1.2691
  136OSM    H8T14773   5.334   1.750   6.855 -0.3456 -0.9912  0.5204
  136OSM    C9S14774   5.173   1.806   6.992 -0.2881  0.0843  0.3004
  136OSM    H9S14775   5.063   1.800   7.004 -0.0497 -1.8919  1.9629
  136OSM    H9T14776   5.199   1.914   6.988 -1.7350  0.4470 -0.0157
  136OSM   C10S14777   5.237   1.745   7.111 -0.4697 -0.7511 -0.2056
  136OSM   H10S14778   5.347   1.735   7.103 -0.0641  0.5723  2.4162
  136OSM   H10T14779   5.195   1.647   7.141  0.5655 -0.5257  2.2339
  136OSM   C11S14780   5.210   1.843   7.231 -0.0672 -0.0213  0.2859
  136OSM   H11S14781   5.102   1.863   7.245 -0.2154  0.1606 -1.0186
  136OSM   H11T14782   5.237   1.944   7.193 -0.4785 -1.5618 -4.8632
  136OSM   C12S14783   5.291   1.812   7.361  0.2262  0.4449 -0.1363
  136OSM   H12S14784   5.401   1.820   7.347  0.0584  1.1187 -1.1970
  136OSM   H12T14785   5.271   1.707   7.391 -0.5765  0.5599 -0.2433
  136OSM   C13S14786   5.232   1.883   7.483  0.8407  0.0942 -0.2479
  136OSM   H13S14787   5.121   1.886   7.474  0.9327  1.4462 -1.1036
  136OSM   H13T14788   5.256   1.990   7.466  0.0600  0.5577  1.3603
  136OSM   C14S14789   5.278   1.841   7.623 -0.3186  0.6035  0.6728
  136OSM   H14S14790   5.388   1.834   7.610 -0.5968  0.5530 -2.2839
  136OSM   H14T14791   5.242   1.742   7.657 -0.9859  1.5090  2.7659
  136OSM   C15S14792   5.246   1.939   7.744  0.2914 -0.2730  0.3743
  136OSM   H15S14793   5.137   1.962   7.740  0.2211 -0.3675  1.6166
  136OSM   H15T14794   5.304   2.033   7.735  0.5847 -0.5954 -1.5893
  136OSM   C16S14795   5.273   1.879   7.876  0.1053  0.1679 -1.0076
  136OSM   H16S14796   5.382   1.858   7.887 -0.5251 -2.1935  2.2655
  136OSM   H16T14797   5.231   1.777   7.887 -0.7045  0.4924 -1.0292
  136OSM   C17S14798   5.212   1.960   7.994  0.1870  0.5599 -0.5813
  136OSM   H17S14799   5.103   1.972   7.975  0.2621  2.3706 -0.1019
  136OSM   H17T14800   5.265   2.057   7.987  0.0085  0.6636 -0.4996
  136OSM   C18S14801   5.245   1.907   8.127  0.4005  0.6334 -0.6136
  136OSM   H18S14802   5.353   1.885   8.139 -0.3840 -2.4344  2.2868
  136OSM   H18T14803   5.192   1.811   8.146  1.4093  0.3350  0.7629
  136OSM   H18U14804   5.224   1.981   8.207 -2.8877 -0.8538  0.0880
  136OSM    C1F14805   5.432   1.122   6.307  0.0514  0.4899 -0.5744
  136OSM     OF14806   5.401   1.139   6.194  0.1011  0.0479  0.3188
  136OSM    C2F14807   5.573   1.091   6.350  0.9312  1.1833  0.1342
  136OSM    H2F14808   5.593   1.142   6.447  1.5197  0.0168  0.6589
  136OSM    H2G14809   5.642   1.123   6.269  2.1736  1.6360  1.3292
  136OSM    C3F14810   5.577   0.933   6.383  0.0148  0.9331  0.1305
  136OSM    H3F14811   5.548   0.871   6.295  0.8036  2.1897 -1.0643
  136OSM    H3G14812   5.504   0.915   6.464  0.5255 -1.1002  0.1775
  136OSM    C4F14813   5.723   0.898   6.425  0.0942 -0.1525  0.2112
  136OSM    H4F14814   5.787   0.926   6.339 -0.7204  2.0875  0.2592
  136OSM    H4G14815   5.722   0.788   6.434  0.7101 -0.3628 -1.7797
  136OSM    C5F14816   5.754   0.971   6.549  0.4367 -0.2747 -0.0978
  136OSM    H5F14817   5.668   0.963   6.618  0.5977 -2.4403 -0.0949
  136OSM    H5G14818   5.763   1.082   6.542  1.5825 -0.1649  2.2012
  136OSM    C6F14819   5.878   0.934   6.624  0.5551  0.7902 -0.3111
  136OSM    H6F14820   5.970   0.952   6.564 -0.3526  0.6724 -1.7936
  136OSM    H6G14821   5.870   0.824   6.636  3.1589  0.4420 -1.2200
  136OSM    C7F14822   5.878   1.008   6.757  0.1774 -0.2343 -0.1721
  136OSM    H7F14823   5.781   1.002   6.811  1.7328 -2.5690  2.6713
  136OSM    H7G14824   5.904   1.112   6.730  0.2215  0.0830  1.0287
  136OSM    C8F14825   5.990   0.968   6.857  0.2763 -0.1669  0.9318
  136OSM    H8F14826   6.093   0.982   6.818  0.4888  1.7822  2.0683
  136OSM    H8G14827   5.978   0.865   6.895 -1.7472  0.6590  2.8088
  136OSM    C9F14828   5.971   1.062   6.979  0.1418  0.1145  0.1204
  136OSM    H9F14829   6.014   1.162   6.966 -0.1775  0.1668 -0.5860
  136OSM   C10F14830   5.927   1.026   7.102  0.1432  0.2528  0.4432
  136OSM   H10F14831   5.934   1.084   7.195  1.6809 -2.5173  2.2067
  136OSM   C11F14832   5.877   0.884   7.141  0.4264 -0.8853  0.5782
  136OSM   H11F14833   5.933   0.845   7.228  1.8343 -2.8521 -1.1304
  136OSM   H11G14834   5.891   0.808   7.061 -1.5370 -1.3999  0.6793
  136OSM   C12F14835   5.727   0.883   7.161 -0.3072 -0.6646 -0.7125
  136OSM   H12F14836   5.683   0.783   7.141 -1.5096  0.2438 -3.0215
  136OSM   H12G14837   5.689   0.949   7.080  1.9934 -0.0626 -1.3948
  136OSM   C13F14838   5.678   0.939   7.298  0.4009  0.2151 -0.3362
  136OSM   H13F14839   5.567   0.939   7.300  0.3000 -0.4101 -2.7731
  136OSM   H13G14840   5.709   1.046   7.304 -0.1405  0.4412 -1.3964
  136OSM   C14F14841   5.728   0.877   7.425  0.3899  0.1169  1.1413
  136OSM   H14F14842   5.835   0.871   7.451  0.4305 -2.9141  0.6220
  136OSM   H14G14843   5.701   0.769   7.425  0.9943 -0.0585 -0.4947
  136OSM   C15F14844   5.652   0.937   7.544 -0.0278 -0.1810  0.2073
  136OSM   H15F14845   5.610   1.035   7.514  1.6482  0.6958  0.6050
  136OSM   H15G14846   5.720   0.946   7.632  0.9049  3.7130 -0.7192
  136OSM   C16F14847   5.526   0.857   7.585 -1.2346 -0.1454 -0.8741
  136OSM   H16F14848   5.477   0.812   7.495 -2.7716  0.8374 -0.5676
  136OSM   H16G14849   5.453   0.916   7.645 -0.1202  0.2895  0.0999
  136OSM   C17F14850   5.565   0.742   7.684  0.5004 -0.5547  0.4893
  136OSM   H17F14851   5.630   0.785   7.763 -0.1317 -1.5926  1.5999
  136OSM   H17G14852   5.603   0.662   7.616 -1.3635 -0.0664 -1.2458
  136OSM   C18F14853   5.442   0.680   7.747 -1.0674 -0.1008 -0.1887
  136OSM   H18F14854   5.372   0.641   7.670  1.0481 -0.1833 -2.1658
  136OSM   H18G14855   5.378   0.739   7.816 -4.0403  0.6280 -3.2393
  136OSM   H18H14856   5.467   0.585   7.798 -0.9013  0.6966  1.2581
  137OSM      N14857   3.097   5.774   6.104 -0.3753  0.8095  0.6872
  137OSM    C1514858   3.138   5.918   6.106  0.4052  0.5113 -0.0107
  137OSM   H15A14859   3.145   5.965   6.009 -1.0025 -0.3629 -0.5723
  137OSM   H15B14860   3.234   5.926   6.153  0.0072 -0.0751  0.9277
  137OSM   H15C14861   3.066   5.975   6.164  0.2191  3.1309 -2.5504
  137OSM    C1414862   2.982   5.760   6.017  0.5633 -0.3510  0.4422
  137OSM   H14A14863   2.906   5.835   6.033  1.0816  0.8368 -2.1524
  137OSM   H14B14864   2.943   5.659   6.008  1.7328 -0.6722 -1.8032
  137OSM   H14C14865   2.999   5.795   5.916 -2.6499  0.7122  0.1560
  137OSM    C1314866   3.210   5.686   6.050  0.0004 -0.3322  0.5768
  137OSM   H13A14867   3.255   5.715   5.956 -0.7560 -0.5600  0.1356
  137OSM   H13B14868   3.176   5.586   6.030 -1.3500  0.2003  0.1246
  137OSM   H13C14869   3.287   5.674   6.125  0.4910 -2.2883 -0.1835
  137OSM    C1214870   3.072   5.719   6.245 -0.1075 -0.5744  0.5417
  137OSM   H12A14871   3.053   5.613   6.241  1.7858 -1.0450  2.3762
  137OSM   H12B14872   2.980   5.756   6.287 -0.2558  0.0916 -0.3376
  137OSM    C1114873   3.185   5.735   6.348 -0.5563 -0.7232 -1.3010
  137OSM   H11A14874   3.166   5.661   6.429 -1.0782  0.9538  0.1698
  137OSM   H11B14875   3.169   5.825   6.411  0.8929 -0.7174 -0.8932
  137OSM      P14876   3.452   5.737   6.397  0.2306 -0.2433 -0.1885
  137OSM    O1314877   3.567   5.681   6.322  0.6180  0.1671 -0.2815
  137OSM    O1414878   3.446   5.876   6.445 -0.9314  0.1657 -0.0408
  137OSM    O1114879   3.410   5.637   6.513 -0.3176  0.1296  0.1064
  137OSM    O1214880   3.321   5.726   6.301 -0.2293 -0.7464 -0.6790
  137OSM    C1S14881   3.485   5.629   6.634 -0.8627  0.4135  0.3509
  137OSM    H1S14882   3.590   5.663   6.619  0.4693 -2.4978  2.2153
  137OSM    H1T14883   3.507   5.529   6.675  0.2355  0.4259 -0.1756
  137OSM     NF14884   3.494   5.726   6.856 -0.1681 -0.3929  0.6449
  137OSM    HNF14885   3.468   5.664   6.930 -0.8522  0.3407  1.0407
  137OSM    C2S14886   3.412   5.712   6.738 -0.0004 -0.6212 -0.7250
  137OSM    H2S14887   3.395   5.813   6.695 -1.0860 -0.6465 -0.4029
  137OSM    C3S14888   3.269   5.660   6.766  0.4354 -0.1071 -0.6632
  137OSM    H3S14889   3.272   5.593   6.855  0.7164  1.6658  0.7184
  137OSM     O314890   3.193   5.600   6.659 -0.5632  0.2406 -0.5786
  137OSM    HO314891   3.252   5.603   6.584 -0.9656  0.2224 -0.8966
  137OSM    C4S14892   3.178   5.765   6.829 -0.7355  1.1059  0.2612
  137OSM    H4S14893   3.209   5.781   6.934 -0.4325 -2.7088  0.8842
  137OSM    C5S14894   3.077   5.841   6.777  0.4892 -0.3767  0.4438
  137OSM    H5S14895   3.057   5.821   6.671 -0.5071 -0.1627  0.5863
  137OSM    C6S14896   2.988   5.936   6.841 -0.3016 -0.3550  0.3715
  137OSM    H6S14897   2.880   5.913   6.826 -0.9971  0.8886  2.9639
  137OSM    H6T14898   3.001   6.041   6.808  0.0765 -0.1122  1.2612
  137OSM    C7S14899   2.984   5.942   7.000 -0.2328 -0.3682 -0.5362
  137OSM    H7S14900   2.928   6.033   7.032 -1.6099 -1.3484 -0.0632
  137OSM    H7T14901   3.077   5.957   7.058 -2.0688  2.1532  2.0739
  137OSM    C8S14902   2.901   5.832   7.062 -0.6205  0.6058  0.4883
  137OSM    H8S14903   2.956   5.740   7.031 -1.5902  0.3483 -0.5448
  137OSM    H8T14904   2.800   5.820   7.017  0.0778  0.0136 -1.0030
  137OSM    C9S14905   2.892   5.845   7.213 -0.4577  0.1427 -0.5116
  137OSM    H9S14906   2.821   5.928   7.234 -2.5752 -2.0237  1.5163
  137OSM    H9T14907   2.990   5.859   7.263 -1.4587 -0.7173  1.8805
  137OSM   C10S14908   2.825   5.732   7.281  0.7711 -0.2244 -0.7712
  137OSM   H10S14909   2.874   5.638   7.249 -1.2773 -0.4816 -3.4247
  137OSM   H10T14910   2.724   5.727   7.234 -0.9104 -1.5608  2.6436
  137OSM   C11S14911   2.793   5.753   7.433  0.7239  0.4296  0.1525
  137OSM   H11S14912   2.741   5.851   7.442  1.6930  0.7990  2.5614
  137OSM   H11T14913   2.882   5.773   7.497  1.8236 -1.7608 -0.5795
  137OSM   C12S14914   2.717   5.628   7.491  0.1825 -0.1688  0.2575
  137OSM   H12S14915   2.652   5.578   7.415  1.9956 -1.9563 -0.1963
  137OSM   H12T14916   2.656   5.677   7.570 -1.8409  0.7459 -1.7576
  137OSM   C13S14917   2.815   5.524   7.541 -0.0639 -0.5706 -0.0854
  137OSM   H13S14918   2.911   5.564   7.580 -0.2764  1.3083 -1.3770
  137OSM   H13T14919   2.837   5.450   7.461  1.2741 -0.9423  0.5980
  137OSM   C14S14920   2.738   5.446   7.655  0.1246 -0.5317  0.8102
  137OSM   H14S14921   2.788   5.347   7.668  0.0917 -0.4966  1.2281
  137OSM   H14T14922   2.635   5.418   7.624 -0.6014  1.5166  1.2555
  137OSM   C15S14923   2.734   5.509   7.794  0.2053 -0.5586 -0.0479
  137OSM   H15S14924   2.652   5.583   7.795 -0.6929 -1.5118 -0.4952
  137OSM   H15T14925   2.831   5.558   7.815  0.9187 -1.8246 -0.2616
  137OSM   C16S14926   2.698   5.416   7.909  0.0070  0.3156 -0.0575
  137OSM   H16S14927   2.764   5.326   7.915 -0.4669 -0.0307  0.0360
  137OSM   H16T14928   2.595   5.376   7.894 -0.6710  1.6748  0.8117
  137OSM   C17S14929   2.700   5.495   8.047 -0.1628 -0.1243  0.4433
  137OSM   H17S14930   2.645   5.589   8.028  1.5062  0.6503 -0.8431
  137OSM   H17T14931   2.801   5.536   8.068 -0.6290  1.1948  0.2108
  137OSM   C18S14932   2.645   5.413   8.157  0.2734  0.6553  0.7888
  137OSM   H18S14933   2.674   5.431   8.263  0.3528 -1.4663  1.1758
  137OSM   H18T14934   2.660   5.304   8.145 -0.9779  0.6433 -0.9863
  137OSM   H18U14935   2.534   5.425   8.152 -0.0601 -1.7908  1.1261
  137OSM    C1F14936   3.611   5.795   6.865  0.6903 -0.4178  0.1703
  137OSM     OF14937   3.657   5.860   6.776 -0.0312 -0.8954 -0.1871
  137OSM    C2F14938   3.676   5.762   6.995 -0.6431  0.7291 -0.0616
  137OSM    H2F14939   3.751   5.681   6.985  0.7393  1.8413  0.8469
  137OSM    H2G14940   3.600   5.741   7.073 -0.8542  0.0981 -0.4309
  137OSM    C3F14941   3.762   5.882   7.050  0.0220 -0.4035  0.2699
  137OSM    H3F14942   3.695   5.966   7.078  1.1919 -0.1240  2.4815
  137OSM    H3G14943   3.839   5.910   6.975 -1.1885  0.4533 -0.6895
  137OSM    C4F14944   3.837   5.856   7.179 -0.0428 -0.0186  0.0169
  137OSM    H4F14945   3.879   5.952   7.217  0.5019  0.6801 -2.1876
  137OSM    H4G14946   3.914   5.782   7.148 -0.2518  0.6347 -2.2058
  137OSM    C5F14947   3.742   5.787   7.285  0.0427  0.2695 -0.1929
  137OSM    H5F14948   3.712   5.690   7.240 -1.1922  1.0426 -1.0991
  137OSM    H5G14949   3.647   5.840   7.303 -1.1294 -0.8057 -2.8137
  137OSM    C6F14950   3.809   5.749   7.415  0.2445  0.0921 -0.4787
  137OSM    H6F14951   3.905   5.694   7.404  0.2158  0.2282 -1.5423
  137OSM    H6G14952   3.747   5.679   7.473  1.1047  1.9031  2.8922
  137OSM    C7F14953   3.812   5.860   7.528  0.4734  0.4940  0.3483
  137OSM    H7F14954   3.708   5.888   7.556 -0.4800  0.0743 -2.4496
  137OSM    H7G14955   3.859   5.950   7.484 -0.8846  0.9856 -0.1510
  137OSM    C8F14956   3.892   5.812   7.649  0.6774  0.5418 -0.3954
  137OSM    H8F14957   3.991   5.772   7.619  0.6264  0.1100  0.0032
  137OSM    H8G14958   3.844   5.727   7.701 -2.5860  1.4906 -1.5500
  137OSM    C9F14959   3.917   5.926   7.748  0.0375 -0.0822  0.6308
  137OSM    H9F14960   3.938   6.027   7.709 -0.6488 -0.3284 -0.4164
  137OSM   C10F14961   3.918   5.906   7.880 -0.3582  0.0299  0.8232
  137OSM   H10F14962   3.927   5.995   7.943 -3.3919  1.0999 -0.0730
  137OSM   C11F14963   3.894   5.775   7.941 -0.6884  0.4485  0.3300
  137OSM   H11F14964   3.950   5.775   8.036 -1.8321  0.5407  1.0237
  137OSM   H11G14965   3.921   5.694   7.870  2.6422  1.7168 -0.0057
  137OSM   C12F14966   3.748   5.755   7.973  0.2908  0.7292 -0.2312
  137OSM   H12F14967   3.734   5.650   8.005  1.2912  0.3889 -0.8571
  137OSM   H12G14968   3.689   5.770   7.879  0.6179  0.4611 -0.4811
  137OSM   C13F14969   3.688   5.849   8.075  0.4958  0.0989 -0.3005
  137OSM   H13F14970   3.581   5.819   8.083 -0.1186  2.5365  1.6100
  137OSM   H13G14971   3.683   5.956   8.046 -0.6168  0.1811  0.1724
  137OSM   C14F14972   3.741   5.809   8.213 -0.0104 -0.1334  0.2931
  137OSM   H14F14973   3.844   5.850   8.219 -0.4419  1.0622  0.0416
  137OSM   H14G14974   3.737   5.699   8.224  0.8431 -0.5310 -2.5237
  137OSM   C15F14975   3.653   5.866   8.323  0.5636  0.1976  0.2666
  137OSM   H15F14976   3.658   5.811   8.420 -0.5633 -0.0864  0.1787
  137OSM   H15G14977   3.549   5.860   8.284  1.3086 -1.6439 -1.6783
  137OSM   C16F14978   3.688   6.007   8.357 -0.1351  0.7109  0.2886
  137OSM   H16F14979   3.612   6.043   8.429 -0.5392 -0.2674  0.3642
  137OSM   H16G14980   3.675   6.075   8.269 -0.1940  1.5643  0.9423
  137OSM   C17F14981   3.830   6.015   8.417  0.0903  0.2502 -0.0017
  137OSM   H17F14982   3.899   5.991   8.334  1.9710  0.9971  1.2716
  137OSM   H17G14983   3.852   5.933   8.489 -0.5514 -0.9073 -1.0935
  137OSM   C18F14984   3.867   6.148   8.481  0.1589 -0.4616  0.0902
  137OSM   H18F14985   3.851   6.230   8.407  0.7389 -1.1696 -0.8477
  137OSM   H18G14986   3.977   6.146   8.492 -0.0139 -0.8473  2.0305
  137OSM   H18H14987   3.816   6.182   8.574  1.7364  1.2952  0.3653
  138OSM      N14988   3.673   1.452   6.291  0.1206  0.3453  0.0234
  138OSM    C1514989   3.580   1.334   6.266 -0.1071  0.5678  0.1868
  138OSM   H15A14990   3.538   1.343   6.167 -0.9269 -0.8074  0.3781
  138OSM   H15B14991   3.494   1.335   6.332  1.2536  1.5640  2.0518
  138OSM   H15C14992   3.630   1.239   6.274 -0.9485 -0.0017 -0.9623
  138OSM    C1414993   3.734   1.436   6.425 -0.2342 -0.0372  0.5809
  138OSM   H14A14994   3.770   1.335   6.440  0.0084 -0.1252 -0.5330
  138OSM   H14B14995   3.661   1.458   6.502 -1.1584  2.1756 -0.8229
  138OSM   H14C14996   3.813   1.507   6.445 -0.6148  0.0190  1.9825
  138OSM    C1314997   3.772   1.450   6.183  0.1532  0.3688 -0.3021
  138OSM   H13A14998   3.821   1.353   6.181  2.0013  1.2448  0.2610
  138OSM   H13B14999   3.854   1.518   6.201  0.3623  0.0749 -0.1382
  138OSM   H13C15000   3.735   1.482   6.087  1.0540  2.1200 -0.1014
  138OSM    C1215001   3.602   1.584   6.296 -0.1296 -0.8248 -0.0346
  138OSM   H12A15002   3.677   1.659   6.318  0.2362 -1.2491  0.2068
  138OSM   H12B15003   3.517   1.589   6.362  0.5251  1.3084  0.7067
  138OSM    C1115004   3.539   1.641   6.164  0.4257  0.2200 -0.2357
  138OSM   H11A15005   3.483   1.729   6.201  0.3958  0.2420 -0.3343
  138OSM   H11B15006   3.469   1.568   6.119 -1.5536  3.6434 -3.2584
  138OSM      P15007   3.723   1.811   6.099  0.2903  0.2090  0.4108
  138OSM    O1315008   3.806   1.850   5.984  0.5192 -0.1061 -0.5147
  138OSM    O1415009   3.646   1.930   6.137  0.3375  0.7089  0.4190
  138OSM    O1115010   3.823   1.760   6.211  0.0368 -0.2276  0.7346
  138OSM    O1215011   3.636   1.678   6.070 -0.0076  0.0180  0.7192
  138OSM    C1S15012   3.834   1.827   6.338 -0.4059  0.0516 -0.1662
  138OSM    H1S15013   3.743   1.827   6.402 -0.3821 -0.3470 -0.1307
  138OSM    H1T15014   3.866   1.931   6.318 -0.5107  0.3670  1.2300
  138OSM     NF15015   3.962   1.844   6.551  0.1822  0.3896 -0.0389
  138OSM    HNF15016   4.013   1.930   6.559 -0.6015  1.1238 -2.2434
  138OSM    C2S15017   3.960   1.785   6.419 -0.0167  0.0920  0.1200
  138OSM    H2S15018   3.960   1.674   6.422 -1.8583  0.0321 -0.6769
  138OSM    C3S15019   4.088   1.827   6.342  0.6437 -0.5575 -0.4390
  138OSM    H3S15020   4.099   1.937   6.344  0.1061 -0.4387 -2.0242
  138OSM     O315021   4.086   1.795   6.202 -0.3268 -0.1245 -0.5088
  138OSM    HO315022   4.005   1.744   6.188 -0.9771  1.2131 -1.8529
  138OSM    C4S15023   4.218   1.765   6.398  0.8717 -0.0919 -0.3162
  138OSM    H4S15024   4.218   1.656   6.409 -3.6196 -0.4039 -1.4436
  138OSM    C5S15025   4.327   1.843   6.436 -0.6944  0.1793  0.8538
  138OSM    H5S15026   4.313   1.952   6.434  0.5557  0.3403 -1.0456
  138OSM    C6S15027   4.452   1.784   6.501  0.0253 -0.5066 -0.2203
  138OSM    H6S15028   4.538   1.845   6.466 -1.3716  1.7713  0.1271
  138OSM    H6T15029   4.474   1.677   6.476  3.1663  0.1459 -0.7434
  138OSM    C7S15030   4.446   1.793   6.654 -0.8073 -0.0416 -1.0347
  138OSM    H7S15031   4.525   1.737   6.707 -0.5530  1.0669 -0.2085
  138OSM    H7T15032   4.355   1.745   6.695  0.3304 -0.3284  1.3075
  138OSM    C8S15033   4.451   1.947   6.712  0.2053  0.3855  0.3846
  138OSM    H8S15034   4.349   1.985   6.690 -0.1201 -1.1019 -0.8425
  138OSM    H8T15035   4.530   2.001   6.655 -1.2535  1.1008 -1.0319
  138OSM    C9S15036   4.464   1.957   6.861  0.0279 -0.1358  0.3106
  138OSM    H9S15037   4.471   2.067   6.876  4.2722 -0.3633  1.1811
  138OSM    H9T15038   4.558   1.908   6.894  0.5256 -0.3149 -1.2939
  138OSM   C10S15039   4.340   1.911   6.941  0.4355 -0.1839  0.9370
  138OSM   H10S15040   4.325   1.801   6.939  1.0412 -0.2652  0.6339
  138OSM   H10T15041   4.248   1.945   6.888  0.5863 -1.9308 -0.5526
  138OSM   C11S15042   4.347   1.956   7.088 -0.7751  0.0576  0.2424
  138OSM   H11S15043   4.241   1.987   7.104 -0.3640  2.4340 -1.0949
  138OSM   H11T15044   4.405   2.050   7.101  0.7491 -1.1685  3.5238
  138OSM   C12S15045   4.406   1.863   7.180 -0.8286 -0.2010  0.0663
  138OSM   H12S15046   4.510   1.844   7.144 -1.0872 -2.4289  0.2973
  138OSM   H12T15047   4.345   1.770   7.177  1.0626 -1.4929 -0.3087
  138OSM   C13S15048   4.412   1.918   7.320 -0.0575 -0.2522 -0.1542
  138OSM   H13S15049   4.328   1.984   7.350  0.9706  0.6949  0.7357
  138OSM   H13T15050   4.508   1.974   7.322 -0.7933  1.0546 -0.6111
  138OSM   C14S15051   4.422   1.821   7.432  0.4873 -0.0350  0.0106
  138OSM   H14S15052   4.511   1.755   7.426  1.7651  1.6271 -0.2720
  138OSM   H14T15053   4.332   1.760   7.452  0.8023 -0.8107 -0.8357
  138OSM   C15S15054   4.441   1.897   7.572  1.0825 -0.6934  0.3765
  138OSM   H15S15055   4.375   1.986   7.573  0.4755 -1.1206 -0.6442
  138OSM   H15T15056   4.542   1.944   7.575  0.1250  1.9952 -3.2780
  138OSM   C16S15057   4.418   1.799   7.687 -0.2616 -0.1497  0.1212
  138OSM   H16S15058   4.492   1.716   7.677  0.4891  0.3371  1.4352
  138OSM   H16T15059   4.313   1.765   7.685 -1.2162  2.2942  2.3166
  138OSM   C17S15060   4.436   1.859   7.828 -0.0134 -0.1256  0.6344
  138OSM   H17S15061   4.371   1.946   7.850 -0.3942  0.1855 -1.4880
  138OSM   H17T15062   4.540   1.898   7.838 -0.2430  1.7251 -2.7473
  138OSM   C18S15063   4.421   1.753   7.941  0.2599 -0.7203  0.4276
  138OSM   H18S15064   4.488   1.664   7.945 -1.1006 -1.7658  0.7167
  138OSM   H18T15065   4.318   1.713   7.925  0.1762  0.0133 -1.1193
  138OSM   H18U15066   4.424   1.809   8.037  0.7716  1.0578 -0.5733
  138OSM    C1F15067   3.883   1.793   6.649 -0.0181 -0.2159  0.6524
  138OSM     OF15068   3.805   1.700   6.619  0.2697  0.1402 -0.3269
  138OSM    C2F15069   3.884   1.858   6.783 -0.1886  0.3063  0.0722
  138OSM    H2F15070   3.787   1.912   6.785 -1.3194 -1.3051 -3.3826
  138OSM    H2G15071   3.970   1.927   6.776 -0.7040  0.8014 -2.3459
  138OSM    C3F15072   3.881   1.749   6.888  0.3591 -0.3778  0.0866
  138OSM    H3F15073   3.976   1.692   6.892 -0.2109 -1.3378  0.2433
  138OSM    H3G15074   3.788   1.692   6.866 -0.7923  1.7142 -0.7284
  138OSM    C4F15075   3.851   1.813   7.021  0.5725 -0.6707 -0.2835
  138OSM    H4F15076   3.809   1.736   7.088  0.4452 -1.0964 -0.8393
  138OSM    H4G15077   3.766   1.884   7.012  0.2353 -0.4652  3.2975
  138OSM    C5F15078   3.972   1.877   7.097  0.1526  0.4105  0.0790
  138OSM    H5F15079   4.001   1.973   7.049  0.2138 -0.1841 -1.0979
  138OSM    H5G15080   4.060   1.812   7.079  0.1056 -0.1354  1.6629
  138OSM    C6F15081   3.940   1.897   7.247 -0.6404 -0.5931 -0.3829
  138OSM    H6F15082   3.941   1.796   7.293  1.5787 -1.3720 -1.9948
  138OSM    H6G15083   3.848   1.959   7.256  0.3721  1.0704 -0.9609
  138OSM    C7F15084   4.052   1.974   7.323 -0.5224  0.6421  0.2607
  138OSM    H7F15085   4.081   2.070   7.276 -1.9223  0.8011 -0.3327
  138OSM    H7G15086   4.139   1.905   7.322  0.2094  1.4988  1.7491
  138OSM    C8F15087   4.022   1.991   7.482 -0.1154  0.0259 -0.1100
  138OSM    H8F15088   3.924   2.041   7.501  0.4848  1.1709  0.0300
  138OSM    H8G15089   4.097   2.066   7.514 -3.3983  4.0485 -0.9613
  138OSM    C9F15090   4.039   1.859   7.557 -0.3481  0.6537  0.0281
  138OSM    H9F15091   4.132   1.805   7.533 -1.2547 -0.7608 -0.4131
  138OSM   C10F15092   3.961   1.819   7.659 -0.1658 -0.3153 -0.4553
  138OSM   H10F15093   3.981   1.725   7.713 -1.8013  0.0469  0.8538
  138OSM   C11F15094   3.842   1.889   7.713 -0.4026 -0.0158 -0.8726
  138OSM   H11F15095   3.779   1.807   7.754  1.0232 -0.8772 -0.3103
  138OSM   H11G15096   3.792   1.935   7.625 -1.9687  0.9000  0.4485
  138OSM   C12F15097   3.876   1.983   7.827  0.7349  0.1736  0.4158
  138OSM   H12F15098   3.793   2.054   7.848 -0.4849 -0.8973 -0.6043
  138OSM   H12G15099   3.963   2.049   7.806 -0.6144  2.1129  0.7078
  138OSM   C13F15100   3.904   1.911   7.961  0.0878  0.3427  0.1032
  138OSM   H13F15101   3.967   1.821   7.942  0.2793  0.4811  0.0810
  138OSM   H13G15102   3.808   1.869   7.998  0.3862  1.2442  1.9799
  138OSM   C14F15103   3.963   2.007   8.068  0.1127  0.1379 -0.0582
  138OSM   H14F15104   3.899   2.010   8.159  0.4883  2.8716  0.1748
  138OSM   H14G15105   3.967   2.106   8.019 -3.8376 -0.5417 -2.1703
  138OSM   C15F15106   4.100   1.961   8.117  0.2569 -0.2745  0.1358
  138OSM   H15F15107   4.171   1.955   8.032  0.2055  1.6377 -0.0694
  138OSM   H15G15108   4.096   1.858   8.158 -3.0104 -1.7453 -3.2750
  138OSM   C16F15109   4.158   2.063   8.219  0.3718  0.2442  0.5632
  138OSM   H16F15110   4.116   2.041   8.319 -1.5127 -0.1299 -0.2726
  138OSM   H16G15111   4.139   2.170   8.199 -2.1932 -0.4853 -1.4048
  138OSM   C17F15112   4.311   2.051   8.228  0.0796 -0.0750  0.3536
  138OSM   H17F15113   4.365   2.108   8.149  1.8964 -1.8298  0.2355
  138OSM   H17G15114   4.336   1.943   8.215 -5.0493 -1.5793  1.0121
  138OSM   C18F15115   4.364   2.096   8.372  0.0414 -0.0767  0.1706
  138OSM   H18F15116   4.316   2.193   8.395  0.4432  0.2640 -0.4040
  138OSM   H18G15117   4.474   2.100   8.384 -0.3348  0.8713  5.4462
  138OSM   H18H15118   4.335   2.024   8.451 -0.6030 -0.4067 -0.3556
  139OSM      N15119   2.522   2.597   6.018  0.2309 -0.0954  0.5666
  139OSM    C1515120   2.517   2.554   5.869 -0.3338 -0.3402  0.2019
  139OSM   H15A15121   2.420   2.514   5.846  0.1319 -1.0338 -0.6118
  139OSM   H15B15122   2.600   2.486   5.851 -0.9550 -0.6427 -1.8030
  139OSM   H15C15123   2.538   2.644   5.812 -0.3669  1.3784  2.7466
  139OSM    C1415124   2.654   2.648   6.056 -0.1103  0.3792 -0.1875
  139OSM   H14A15125   2.660   2.698   6.151 -2.8165  0.2670  0.1227
  139OSM   H14B15126   2.700   2.711   5.981  1.3709 -0.0585  0.3222
  139OSM   H14C15127   2.723   2.565   6.052  0.0133  0.5169 -1.2129
  139OSM    C1315128   2.425   2.713   6.042  0.1054 -0.7678 -0.4112
  139OSM   H13A15129   2.425   2.789   5.965  1.4728 -1.9834 -1.6799
  139OSM   H13B15130   2.463   2.762   6.130  2.0310  0.4202 -1.8287
  139OSM   H13C15131   2.327   2.678   6.072  0.7675 -2.1251  0.2829
  139OSM    C1215132   2.478   2.476   6.097 -0.1668 -0.3786  0.6667
  139OSM   H12A15133   2.503   2.483   6.202 -1.7640 -3.0690  1.3363
  139OSM   H12B15134   2.528   2.388   6.060 -0.3807  0.0194 -0.6003
  139OSM    C1115135   2.324   2.447   6.077  0.3916  0.2885  0.2996
  139OSM   H11A15136   2.304   2.341   6.104 -1.8214  0.6370  0.2424
  139OSM   H11B15137   2.302   2.463   5.970 -0.0886 -2.3565 -0.0558
  139OSM      P15138   2.090   2.514   6.164 -0.1619 -0.3181  0.0350
  139OSM    O1315139   2.029   2.641   6.130  0.5534 -0.3536 -0.7711
  139OSM    O1415140   2.049   2.402   6.079  0.0528  0.0615  0.4309
  139OSM    O1115141   2.061   2.484   6.316 -0.4213  0.2319 -0.1195
  139OSM    O1215142   2.241   2.538   6.156  0.4391 -0.2318  0.3464
  139OSM    C1S15143   2.174   2.450   6.403 -0.4035 -0.2141  0.0496
  139OSM    H1S15144   2.226   2.540   6.442 -0.2837  0.5451 -1.7741
  139OSM    H1T15145   2.241   2.375   6.354  0.3234  0.3034  0.2337
  139OSM     NF15146   2.237   2.387   6.623 -0.1639 -0.1543  0.2687
  139OSM    HNF15147   2.311   2.320   6.621 -1.1859 -1.3070 -0.5498
  139OSM    C2S15148   2.127   2.367   6.532  0.4431 -0.7401 -0.3309
  139OSM    H2S15149   2.042   2.430   6.566  0.5773 -1.4370  1.3547
  139OSM    C3S15150   2.081   2.223   6.513  0.0874 -0.4662  0.5251
  139OSM    H3S15151   2.168   2.165   6.477  0.9597  1.8805 -1.4102
  139OSM     O315152   1.983   2.212   6.407 -0.1598  0.6740 -0.2061
  139OSM    HO315153   2.003   2.292   6.357  0.7565  1.1296  0.8480
  139OSM    C4S15154   2.037   2.165   6.642 -0.4775  0.0425  0.0944
  139OSM    H4S15155   1.992   2.226   6.721  0.4563  0.1406  0.5734
  139OSM    C5S15156   2.060   2.035   6.668  0.3750 -0.6479 -0.8324
  139OSM    H5S15157   2.116   1.968   6.600  1.1756 -1.1065  0.2414
  139OSM    C6S15158   2.009   1.980   6.803 -0.4334 -0.1385 -0.2578
  139OSM    H6S15159   2.039   1.877   6.832 -3.2066 -0.4919  1.7154
  139OSM    H6T15160   1.899   1.974   6.794 -0.3782  0.6373 -1.9138
  139OSM    C7S15161   2.036   2.063   6.934 -0.3993 -0.8122  0.5447
  139OSM    H7S15162   1.979   2.158   6.929  1.5321  0.3381 -0.5954
  139OSM    H7T15163   2.144   2.089   6.935 -0.3199 -1.0869 -0.4957
  139OSM    C8S15164   1.996   1.998   7.067 -0.1606  0.0804 -0.7465
  139OSM    H8S15165   2.055   1.905   7.083 -1.3259 -0.4576  0.6212
  139OSM    H8T15166   1.893   1.957   7.059  0.4061 -1.2479 -1.7590
  139OSM    C9S15167   2.023   2.099   7.178  0.8432 -0.1830 -0.0335
  139OSM    H9S15168   2.121   2.145   7.154  1.2655  0.3752  2.4622
  139OSM    H9T15169   2.028   2.067   7.284  0.1718 -0.4892 -0.0904
  139OSM   C10S15170   1.928   2.222   7.198  0.2322  0.0018  0.4441
  139OSM   H10S15171   1.894   2.258   7.099  0.6859  0.2155  0.3644
  139OSM   H10T15172   1.972   2.307   7.254  1.8890 -0.3627 -0.2462
  139OSM   C11S15173   1.799   2.178   7.270  0.2746  1.1225 -0.2830
  139OSM   H11S15174   1.810   2.151   7.377 -0.8773  1.5202 -0.0550
  139OSM   H11T15175   1.763   2.083   7.227  0.7397  0.3794  0.9181
  139OSM   C12S15176   1.684   2.282   7.255 -0.4656  0.3815 -0.7808
  139OSM   H12S15177   1.661   2.285   7.147  3.6234 -0.2054 -1.8063
  139OSM   H12T15178   1.713   2.383   7.292 -1.5494  1.0633 -1.7368
  139OSM   C13S15179   1.551   2.237   7.313 -0.3883  0.1461  0.8119
  139OSM   H13S15180   1.552   2.126   7.322 -1.1206 -0.1005 -1.4410
  139OSM   H13T15181   1.465   2.257   7.245 -0.9143 -0.2172  1.3560
  139OSM   C14S15182   1.509   2.300   7.453  0.2131 -0.7131 -0.0134
  139OSM   H14S15183   1.520   2.407   7.427  0.4101 -0.6303  0.4017
  139OSM   H14T15184   1.586   2.277   7.531 -0.1286 -1.1175  0.2100
  139OSM   C15S15185   1.369   2.283   7.511 -0.0774 -0.1119  0.5847
  139OSM   H15S15186   1.296   2.308   7.431 -1.2693 -2.6987  0.7414
  139OSM   H15T15187   1.349   2.359   7.589 -0.5654 -0.9693  1.3199
  139OSM   C16S15188   1.353   2.141   7.561 -0.2391  0.2769  0.0879
  139OSM   H16S15189   1.451   2.095   7.589  0.1399  2.3234  2.5274
  139OSM   H16T15190   1.306   2.077   7.483  0.7857 -0.1316 -0.2117
  139OSM   C17S15191   1.279   2.132   7.696  0.3264  0.3218 -0.0756
  139OSM   H17S15192   1.242   2.028   7.711  0.5427  0.3565  0.7092
  139OSM   H17T15193   1.190   2.195   7.675  0.5695 -0.0462 -2.5762
  139OSM   C18S15194   1.355   2.163   7.824 -0.4792  0.2683  0.3930
  139OSM   H18S15195   1.442   2.094   7.828 -0.7097 -0.0169  0.5354
  139OSM   H18T15196   1.302   2.152   7.921  0.9056 -2.2581  0.9356
  139OSM   H18U15197   1.401   2.264   7.819  0.1696 -0.0343  0.1400
  139OSM    C1F15198   2.256   2.500   6.691  0.2661  0.4749  1.2524
  139OSM     OF15199   2.174   2.593   6.686  0.0700  0.2430  0.4469
  139OSM    C2F15200   2.388   2.509   6.769  0.3815  0.1251  0.3450
  139OSM    H2F15201   2.437   2.603   6.735 -0.3352  0.8987  1.3577
  139OSM    H2G15202   2.455   2.429   6.732  0.7273  1.3474 -1.8127
  139OSM    C3F15203   2.372   2.508   6.921  0.3213  0.0270  0.2773
  139OSM    H3F15204   2.299   2.591   6.935 -0.3080 -0.3944 -0.3919
  139OSM    H3G15205   2.466   2.546   6.967  1.9168  0.7492 -3.1916
  139OSM    C4F15206   2.317   2.372   6.978  0.4427  0.8844 -0.9305
  139OSM    H4F15207   2.402   2.304   6.958 -0.7483 -0.6695 -0.8979
  139OSM    H4G15208   2.226   2.335   6.925  0.0081 -1.1446  1.1074
  139OSM    C5F15209   2.290   2.384   7.123  0.5655  0.1655  0.4498
  139OSM    H5F15210   2.212   2.308   7.144  0.7034  0.1138  0.7723
  139OSM    H5G15211   2.241   2.479   7.155 -0.8798 -0.5794  0.5074
  139OSM    C6F15212   2.410   2.346   7.205  0.2554  0.2431  0.0109
  139OSM    H6F15213   2.485   2.427   7.191  1.3614 -0.9031 -0.8853
  139OSM    H6G15214   2.446   2.246   7.171  1.1650  1.3051 -2.3770
  139OSM    C7F15215   2.387   2.338   7.357  0.3952 -0.5402  0.1822
  139OSM    H7F15216   2.461   2.269   7.404  0.6808 -0.2401  0.1760
  139OSM    H7G15217   2.289   2.287   7.366 -0.0665 -0.0094 -1.5024
  139OSM    C8F15218   2.387   2.477   7.425  0.5463 -0.4146  0.5266
  139OSM    H8F15219   2.325   2.542   7.360  2.3619 -1.1055 -2.0307
  139OSM    H8G15220   2.491   2.517   7.418  0.6721 -0.8846 -0.3650
  139OSM    C9F15221   2.351   2.480   7.571  0.2661  0.4674  1.0736
  139OSM    H9F15222   2.432   2.502   7.641  1.0769  1.3155 -0.0906
  139OSM   C10F15223   2.236   2.457   7.630  0.0701 -0.2719  0.6932
  139OSM   H10F15224   2.226   2.460   7.740  0.5615  0.0162  0.7353
  139OSM   C11F15225   2.109   2.442   7.551  0.2678 -0.5542 -0.2855
  139OSM   H11F15226   2.102   2.335   7.521  0.6499  0.2159 -3.4576
  139OSM   H11G15227   2.102   2.487   7.450  1.1062  0.4905  0.1085
  139OSM   C12F15228   1.976   2.479   7.625 -0.5459 -0.6173  0.2847
  139OSM   H12F15229   1.892   2.475   7.552 -0.6288  0.7933  0.2877
  139OSM   H12G15230   1.981   2.585   7.658  0.5369 -1.3926  2.8372
  139OSM   C13F15231   1.949   2.385   7.741  0.4142 -0.3506 -0.7267
  139OSM   H13F15232   2.041   2.389   7.804 -1.2496 -2.8835  2.1177
  139OSM   H13G15233   1.934   2.279   7.710 -2.1692 -0.2311 -0.1345
  139OSM   C14F15234   1.826   2.442   7.817  0.0886  0.0084 -0.6867
  139OSM   H14F15235   1.755   2.469   7.737 -1.7642 -1.2482  0.4517
  139OSM   H14G15236   1.848   2.538   7.869  0.5187  1.4542 -3.3724
  139OSM   C15F15237   1.770   2.355   7.929 -0.6866  0.4809  0.5745
  139OSM   H15F15238   1.854   2.321   7.994 -1.6375 -5.2210 -0.5806
  139OSM   H15G15239   1.731   2.265   7.876  2.9374 -0.5281 -0.6788
  139OSM   C16F15240   1.660   2.423   8.008 -0.3651  0.4190  0.3806
  139OSM   H16F15241   1.589   2.464   7.933  0.3669 -1.3634 -1.3543
  139OSM   H16G15242   1.692   2.501   8.080 -1.2879  1.6418 -0.4930
  139OSM   C17F15243   1.573   2.321   8.090 -0.3029 -0.4852 -0.2283
  139OSM   H17F15244   1.551   2.236   8.022 -0.6398 -0.2787 -0.3770
  139OSM   H17G15245   1.473   2.358   8.123 -0.6578 -0.6708 -1.0880
  139OSM   C18F15246   1.642   2.260   8.209 -0.8469  0.1588 -0.2366
  139OSM   H18F15247   1.613   2.155   8.232 -0.7305 -0.2671 -1.8776
  139OSM   H18G15248   1.626   2.320   8.301  0.1859 -0.9376  0.6959
  139OSM   H18H15249   1.750   2.258   8.184 -0.7465  0.4422  0.1662
  140OSM      N15250   3.400   4.713   6.183  0.3814  0.4263 -0.1542
  140OSM    C1515251   3.262   4.659   6.194  0.4229  0.5613 -0.1647
  140OSM   H15A15252   3.194   4.731   6.152 -0.7860  0.6667  1.8007
  140OSM   H15B15253   3.234   4.642   6.297  1.2433  0.0173 -0.0262
  140OSM   H15C15254   3.255   4.562   6.146 -3.0487 -0.0333  1.1677
  140OSM    C1415255   3.424   4.725   6.038  0.1424  0.1849  0.6805
  140OSM   H14A15256   3.423   4.626   5.996  0.5392  0.5571 -0.2606
  140OSM   H14B15257   3.510   4.789   6.023 -0.1782  0.4084 -0.3019
  140OSM   H14C15258   3.346   4.775   5.981 -0.8362 -1.5954  0.3985
  140OSM    C1315259   3.404   4.846   6.246  0.4458  0.0971 -0.0224
  140OSM   H13A15260   3.337   4.922   6.210 -1.7664 -0.7291  2.1188
  140OSM   H13B15261   3.498   4.899   6.240 -1.4947  3.5958 -2.9584
  140OSM   H13C15262   3.373   4.833   6.348  2.1595 -0.8464  0.4259
  140OSM    C1215263   3.488   4.613   6.254 -0.7887 -0.6490  0.2669
  140OSM   H12A15264   3.583   4.635   6.209 -1.2692  0.8469 -0.0785
  140OSM   H12B15265   3.460   4.511   6.232 -1.4537  0.1084 -2.7418
  140OSM    C1115266   3.495   4.627   6.412  0.3964  0.7374  0.0316
  140OSM   H11A15267   3.517   4.727   6.457 -2.7537  0.5396  2.3329
  140OSM   H11B15268   3.579   4.563   6.447 -0.0487 -0.2906 -0.7549
  140OSM      P15269   3.341   4.418   6.473 -0.3112  0.2240  0.4961
  140OSM    O1315270   3.198   4.394   6.488  0.2296  0.1532 -0.1534
  140OSM    O1415271   3.399   4.364   6.345  0.4538  0.2905  0.0645
  140OSM    O1115272   3.418   4.370   6.595 -0.1148  0.8233 -0.2444
  140OSM    O1215273   3.368   4.575   6.466  0.5040  0.2685  0.0074
  140OSM    C1S15274   3.367   4.387   6.723  0.3994 -0.1012 -0.3132
  140OSM    H1S15275   3.269   4.337   6.732  0.2740  0.3884  1.7474
  140OSM    H1T15276   3.356   4.496   6.745 -0.8441 -0.4411  0.8638
  140OSM     NF15277   3.387   4.358   6.965 -1.0401  0.7790  0.0849
  140OSM    HNF15278   3.425   4.434   7.018  0.3902  0.9967 -1.1752
  140OSM    C2S15279   3.456   4.333   6.838 -1.0355  0.3155  0.5260
  140OSM    H2S15280   3.483   4.227   6.817  0.3001  0.9450 -1.1563
  140OSM    C3S15281   3.605   4.390   6.827  0.1588 -0.2681 -0.5059
  140OSM    H3S15282   3.597   4.495   6.861  0.7281 -1.0952  2.4826
  140OSM     O315283   3.672   4.383   6.701  0.1404  0.1409 -0.0633
  140OSM    HO315284   3.598   4.387   6.640 -1.3990 -0.6778  1.6854
  140OSM    C4S15285   3.694   4.313   6.932 -0.1599 -0.7217 -1.1790
  140OSM    H4S15286   3.687   4.354   7.034 -0.8325 -0.1007 -1.4631
  140OSM    C5S15287   3.751   4.193   6.918 -0.0240 -0.2435  0.2664
  140OSM    H5S15288   3.735   4.139   6.824  0.8032 -0.1639  0.0736
  140OSM    C6S15289   3.824   4.121   7.029 -0.7572 -0.4515 -0.2562
  140OSM    H6S15290   3.922   4.086   6.991 -0.0535 -1.1053  2.0490
  140OSM    H6T15291   3.773   4.024   7.049  2.1578 -2.0288  0.0220
  140OSM    C7S15292   3.846   4.188   7.163  0.6852  0.1829  0.3537
  140OSM    H7S15293   3.761   4.197   7.233  1.2184  0.6529  0.9547
  140OSM    H7T15294   3.879   4.290   7.135 -0.7793  0.5515 -0.0804
  140OSM    C8S15295   3.959   4.123   7.247  0.0504  0.0905  0.4202
  140OSM    H8S15296   4.022   4.204   7.289  0.2871  0.4152 -0.5249
  140OSM    H8T15297   4.022   4.054   7.186 -0.0147 -0.3669  0.8709
  140OSM    C9S15298   3.910   4.051   7.380  0.0811  0.0458  0.1596
  140OSM    H9S15299   3.838   4.125   7.421 -1.1997 -1.5771  0.9688
  140OSM    H9T15300   4.000   4.043   7.444  1.4228 -0.4845 -1.7045
  140OSM   C10S15301   3.835   3.916   7.363  0.3879 -1.1130 -0.6155
  140OSM   H10S15302   3.813   3.895   7.256  2.6813 -0.6471 -1.2390
  140OSM   H10T15303   3.736   3.933   7.409  0.5403  0.5143 -0.8072
  140OSM   C11S15304   3.910   3.804   7.438 -0.7123 -0.3449  0.5935
  140OSM   H11S15305   3.921   3.825   7.546  0.7692 -0.0628  0.4027
  140OSM   H11T15306   4.014   3.798   7.400 -0.2350 -0.3631  1.8778
  140OSM   C12S15307   3.828   3.677   7.423 -0.4409 -0.0619  0.4017
  140OSM   H12S15308   3.816   3.646   7.317  0.7529 -1.6790  0.7023
  140OSM   H12T15309   3.728   3.703   7.463 -0.4627  0.7783 -0.1816
  140OSM   C13S15310   3.879   3.564   7.514 -0.4898  1.1437  0.5415
  140OSM   H13S15311   3.796   3.490   7.511 -0.2172  0.8251  0.8369
  140OSM   H13T15312   3.896   3.590   7.621  2.6571  2.6161 -0.2066
  140OSM   C14S15313   4.015   3.507   7.462  0.2426  0.2632  0.4622
  140OSM   H14S15314   4.107   3.549   7.508  0.6559  1.3213 -1.2540
  140OSM   H14T15315   4.023   3.537   7.355  0.1444 -0.4939  0.2381
  140OSM   C15S15316   4.031   3.357   7.477  0.4281  0.5863  0.1861
  140OSM   H15S15317   4.127   3.332   7.426 -0.9782 -2.1336 -1.4044
  140OSM   H15T15318   3.953   3.302   7.420  1.5854  0.7688 -1.6710
  140OSM   C16S15319   4.021   3.302   7.619  0.2940 -0.1536 -0.5266
  140OSM   H16S15320   3.921   3.337   7.651  0.7312  0.1002  0.6309
  140OSM   H16T15321   4.093   3.361   7.681 -0.2414 -0.1841  0.1325
  140OSM   C17S15322   4.026   3.145   7.636 -0.5487 -0.4000 -0.7959
  140OSM   H17S15323   4.120   3.117   7.584  2.6057  3.2463  2.3311
  140OSM   H17T15324   3.944   3.097   7.579 -1.0210 -0.6146  0.0459
  140OSM   C18S15325   4.040   3.101   7.783  0.4194 -0.0624  0.0969
  140OSM   H18S15326   3.942   3.133   7.826  0.1643 -0.4792 -0.1692
  140OSM   H18T15327   4.123   3.154   7.835  1.3968 -1.0555 -0.4214
  140OSM   H18U15328   4.038   2.992   7.801  0.8418 -0.0750  0.0651
  140OSM    C1F15329   3.280   4.284   6.994 -0.4240  0.4100 -0.7199
  140OSM     OF15330   3.263   4.185   6.937  0.6655 -0.2613  0.4965
  140OSM    C2F15331   3.184   4.343   7.100  0.2390 -0.0772 -0.2825
  140OSM    H2F15332   3.111   4.400   7.038  0.0650 -1.0150 -0.9665
  140OSM    H2G15333   3.233   4.410   7.174 -1.3039  2.7276 -1.6407
  140OSM    C3F15334   3.096   4.244   7.191 -0.5088 -0.1877 -0.2057
  140OSM    H3F15335   3.156   4.174   7.254 -2.3828 -1.1254  0.6467
  140OSM    H3G15336   3.040   4.178   7.121 -1.0428 -0.0064  0.0416
  140OSM    C4F15337   3.003   4.308   7.297 -0.5028  0.0319 -0.5600
  140OSM    H4F15338   2.926   4.238   7.334  3.3158 -3.5000  1.5663
  140OSM    H4G15339   2.941   4.386   7.249 -0.8574 -0.2870 -0.6188
  140OSM    C5F15340   3.076   4.375   7.416  0.0076 -0.0575  0.1111
  140OSM    H5F15341   3.139   4.458   7.378 -0.5758  0.2590 -0.1571
  140OSM    H5G15342   3.148   4.298   7.453  0.4621  0.5599  0.5258
  140OSM    C6F15343   2.985   4.421   7.531  0.3548  0.3210 -0.2124
  140OSM    H6F15344   2.910   4.344   7.559  0.2497 -0.3547 -2.2149
  140OSM    H6G15345   2.933   4.511   7.492  1.4821  1.5582  1.0550
  140OSM    C7F15346   3.067   4.461   7.651 -0.1465 -0.1049 -0.1515
  140OSM    H7F15347   3.121   4.554   7.621  0.5364 -0.2332  0.6667
  140OSM    H7G15348   3.138   4.381   7.679 -1.3426 -0.5424  1.8290
  140OSM    C8F15349   2.992   4.505   7.787  0.0969  0.5109  0.9032
  140OSM    H8F15350   2.932   4.595   7.762  1.6114  1.0575 -1.0236
  140OSM    H8G15351   3.075   4.529   7.857  0.2418 -1.3336  1.4142
  140OSM    C9F15352   2.911   4.398   7.848  0.0598  0.1873  0.5476
  140OSM    H9F15353   2.876   4.321   7.778 -1.3243  0.5624  0.8095
  140OSM   C10F15354   2.888   4.390   7.982  0.1483  0.2784  0.6619
  140OSM   H10F15355   2.833   4.302   8.018  0.3996 -0.5408 -0.8829
  140OSM   C11F15356   2.933   4.480   8.091 -0.8091  1.1932 -0.5712
  140OSM   H11F15357   2.853   4.537   8.144 -1.5819  1.1507 -1.6436
  140OSM   H11G15358   2.995   4.563   8.053 -0.2896  0.8833 -0.4075
  140OSM   C12F15359   3.022   4.404   8.199  0.4243 -0.2924  0.6648
  140OSM   H12F15360   3.106   4.354   8.146 -0.0927 -0.6567  0.1613
  140OSM   H12G15361   2.961   4.318   8.236 -1.0936  0.2405 -0.4945
  140OSM   C13F15362   3.044   4.490   8.323  0.5213 -0.2642  0.4071
  140OSM   H13F15363   2.944   4.531   8.349  0.9290  1.2868 -0.3947
  140OSM   H13G15364   3.104   4.581   8.306  0.4663 -0.5467 -1.4592
  140OSM   C14F15365   3.098   4.404   8.443  0.7808 -0.5429  0.4561
  140OSM   H14F15366   3.032   4.315   8.452 -2.2985  1.5242 -0.1283
  140OSM   H14G15367   3.079   4.469   8.530 -1.0738  0.3998 -0.6013
  140OSM   C15F15368   3.241   4.365   8.437  0.1139  0.4353 -0.2041
  140OSM   H15F15369   3.259   4.309   8.343  1.2332 -0.4651  0.5140
  140OSM   H15G15370   3.251   4.284   8.513 -1.1199 -2.0889 -2.5468
  140OSM   C16F15371   3.333   4.482   8.451 -0.7713 -0.5715  0.1211
  140OSM   H16F15372   3.302   4.541   8.540 -0.1605 -0.7288  0.4449
  140OSM   H16G15373   3.322   4.546   8.360  0.4108 -0.3388  0.1206
  140OSM   C17F15374   3.480   4.440   8.461 -0.1505 -0.3371 -0.0458
  140OSM   H17F15375   3.494   4.369   8.377  0.0627 -0.0679 -0.2410
  140OSM   H17G15376   3.490   4.386   8.557 -0.5081 -1.4312 -0.6069
  140OSM   C18F15377   3.587   4.557   8.450  0.1984 -0.2420  0.3938
  140OSM   H18F15378   3.566   4.639   8.521 -0.0398 -0.2181  0.2966
  140OSM   H18G15379   3.573   4.595   8.346 -2.9932  1.0613  1.1871
  140OSM   H18H15380   3.680   4.498   8.462  1.4014  1.5996  0.5735
  141OSM      N15381   2.368   6.138   5.976  0.0536  0.2183 -0.1851
  141OSM    C1515382   2.495   6.137   6.060 -0.0039 -0.2011 -0.7406
  141OSM   H15A15383   2.578   6.118   5.994 -1.0434 -1.5038 -1.7150
  141OSM   H15B15384   2.495   6.067   6.142  0.5537 -0.5792 -1.0558
  141OSM   H15C15385   2.507   6.236   6.102 -0.1712 -1.3130  2.2270
  141OSM    C1415386   2.359   6.278   5.924  0.0758  0.2794 -0.0869
  141OSM   H14A15387   2.358   6.349   6.005  2.3928  2.3365 -1.7437
  141OSM   H14B15388   2.274   6.299   5.861 -1.2036  3.5844  2.4319
  141OSM   H14C15389   2.449   6.305   5.871  0.4132 -1.5320 -0.5268
  141OSM    C1315390   2.383   6.044   5.863 -0.2232 -0.3952  0.5205
  141OSM   H13A15391   2.470   6.068   5.804 -1.0577 -2.7516 -1.9258
  141OSM   H13B15392   2.293   6.034   5.804  0.3366 -3.1002 -0.0249
  141OSM   H13C15393   2.411   5.945   5.896  0.0306 -0.5788 -0.2185
  141OSM    C1215394   2.248   6.103   6.060  0.0129 -0.2167  0.4296
  141OSM   H12A15395   2.245   5.997   6.078 -0.5209 -0.2742  0.0287
  141OSM   H12B15396   2.158   6.129   6.007  0.7896 -0.3156 -0.9868
  141OSM    C1115397   2.237   6.172   6.196  0.1083  0.1826 -0.2933
  141OSM   H11A15398   2.326   6.143   6.255 -0.4442  1.0476  1.0190
  141OSM   H11B15399   2.145   6.143   6.252  1.1808  0.6972  1.8355
  141OSM      P15400   2.114   6.396   6.161  0.1617 -0.1935 -0.5152
  141OSM    O1315401   2.161   6.522   6.096  0.0662 -0.2369 -0.5817
  141OSM    O1415402   2.021   6.316   6.089  0.8210 -0.2707 -0.4037
  141OSM    O1115403   2.046   6.440   6.303 -0.0077  0.1016 -0.4976
  141OSM    O1215404   2.247   6.315   6.191 -0.0635  0.3349 -0.2426
  141OSM    C1S15405   2.056   6.343   6.410 -0.3496  0.5900 -0.2762
  141OSM    H1S15406   2.162   6.310   6.405 -0.2870  0.9306 -3.2583
  141OSM    H1T15407   2.004   6.249   6.383  0.3126 -0.0124  0.5050
  141OSM     NF15408   2.034   6.269   6.634 -0.3622 -0.2740  0.5450
  141OSM    HNF15409   1.953   6.214   6.653  0.7085 -1.8769  0.5900
  141OSM    C2S15410   2.007   6.383   6.548  0.7575  0.2040  0.2901
  141OSM    H2S15411   2.052   6.476   6.588 -1.8948  1.6504  0.1777
  141OSM    C3S15412   1.854   6.416   6.531  0.1744  0.1345 -0.2578
  141OSM    H3S15413   1.804   6.333   6.477 -2.9598  0.8529  1.2754
  141OSM     O315414   1.835   6.524   6.440 -0.0540 -0.0270 -0.1103
  141OSM    HO315415   1.915   6.526   6.387 -0.1246  1.1651 -0.1912
  141OSM    C4S15416   1.776   6.459   6.649 -0.0795  0.6455  0.3647
  141OSM    H4S15417   1.802   6.560   6.684  0.5350  1.5483 -2.3993
  141OSM    C5S15418   1.696   6.381   6.725  0.0867 -0.0035  0.4463
  141OSM    H5S15419   1.689   6.273   6.706 -1.1804  0.0944  0.2813
  141OSM    C6S15420   1.625   6.424   6.851  0.0136  0.4984 -0.1869
  141OSM    H6S15421   1.516   6.403   6.846  0.5065 -2.2373 -0.9268
  141OSM    H6T15422   1.630   6.533   6.871  0.9366  0.3120  0.7023
  141OSM    C7S15423   1.687   6.368   6.982 -0.8464  1.2148  0.1333
  141OSM    H7S15424   1.794   6.399   6.991 -1.1882  2.3702  0.2789
  141OSM    H7T15425   1.692   6.257   6.979  1.4061  1.1935  2.0637
  141OSM    C8S15426   1.639   6.416   7.119 -0.2257  0.0358 -0.0142
  141OSM    H8S15427   1.532   6.388   7.131  0.0911 -0.8983  0.6685
  141OSM    H8T15428   1.652   6.527   7.121  0.0519  0.0179  2.8141
  141OSM    C9S15429   1.706   6.360   7.245  0.5054  0.5723 -0.3403
  141OSM    H9S15430   1.814   6.385   7.250  0.9251 -1.2386  0.6275
  141OSM    H9T15431   1.688   6.250   7.249  4.1456 -0.2127 -1.5795
  141OSM   C10S15432   1.661   6.430   7.384  0.7476  0.5652  0.0454
  141OSM   H10S15433   1.551   6.441   7.381  0.7291  0.2471 -2.4843
  141OSM   H10T15434   1.692   6.537   7.378  0.6298  0.6309  0.5695
  141OSM   C11S15435   1.714   6.373   7.518 -0.3571  0.8235 -0.2694
  141OSM   H11S15436   1.688   6.265   7.519 -0.0254  0.7381  0.8713
  141OSM   H11T15437   1.655   6.421   7.599  0.1126 -0.7189  1.0438
  141OSM   C12S15438   1.858   6.412   7.539  0.0005 -0.0304 -0.3091
  141OSM   H12S15439   1.859   6.522   7.527 -0.9192 -0.1181 -1.3662
  141OSM   H12T15440   1.941   6.366   7.481 -1.7520 -2.9733 -0.6956
  141OSM   C13S15441   1.887   6.398   7.691 -0.3680 -0.8431 -0.1259
  141OSM   H13S15442   1.856   6.294   7.716 -2.9205 -0.5463 -1.6600
  141OSM   H13T15443   1.812   6.471   7.730 -0.2327  0.6166 -2.3903
  141OSM   C14S15444   2.032   6.437   7.733 -0.3888  0.7433 -0.5004
  141OSM   H14S15445   2.070   6.519   7.669  2.1155 -1.0419 -1.4788
  141OSM   H14T15446   2.094   6.346   7.717 -0.0251  1.1611 -1.5803
  141OSM   C15S15447   2.046   6.475   7.877 -0.3223  0.6757 -0.9286
  141OSM   H15S15448   2.005   6.394   7.941 -0.8128 -1.1740 -3.4039
  141OSM   H15T15449   1.970   6.556   7.884 -1.4634 -0.3368 -1.2119
  141OSM   C16S15450   2.188   6.515   7.921 -0.2145 -0.1228 -0.0661
  141OSM   H16S15451   2.197   6.579   8.011 -0.0349 -0.3779  0.0973
  141OSM   H16T15452   2.224   6.572   7.832 -1.0912 -0.6191 -0.7489
  141OSM   C17S15453   2.293   6.397   7.943 -1.1216  0.0657  0.5257
  141OSM   H17S15454   2.373   6.474   7.948 -3.2592  2.8819 -3.1890
  141OSM   H17T15455   2.307   6.341   7.848 -2.3481  1.5036 -0.5485
  141OSM   C18S15456   2.267   6.319   8.068 -0.4887 -0.2094  0.1205
  141OSM   H18S15457   2.333   6.232   8.086 -0.5654 -0.4863 -0.9158
  141OSM   H18T15458   2.164   6.278   8.059 -0.6100  0.2301 -0.5371
  141OSM   H18U15459   2.266   6.386   8.157 -1.7756 -0.0015 -0.0291
  141OSM    C1F15460   2.157   6.233   6.679 -0.5616  0.5008 -0.0362
  141OSM     OF15461   2.255   6.293   6.636 -0.2823  0.0178 -0.3211
  141OSM    C2F15462   2.158   6.134   6.792  0.3956 -0.6371  0.3993
  141OSM    H2F15463   2.257   6.131   6.843  0.1660  1.2699  1.0254
  141OSM    H2G15464   2.131   6.041   6.737 -1.7401  1.1356 -1.7090
  141OSM    C3F15465   2.062   6.179   6.903  0.2741  0.3191 -0.1672
  141OSM    H3F15466   2.081   6.105   6.983  2.2628 -0.3293 -1.1735
  141OSM    H3G15467   1.952   6.174   6.889 -0.0853  0.0045  2.2985
  141OSM    C4F15468   2.094   6.316   6.978 -0.3596 -0.0560  0.9852
  141OSM    H4F15469   2.038   6.332   7.072  3.2919 -0.6941  3.4862
  141OSM    H4G15470   2.082   6.404   6.911 -1.2771 -0.8950  0.0071
  141OSM    C5F15471   2.238   6.326   7.030 -0.9216  0.0600  0.1933
  141OSM    H5F15472   2.292   6.386   6.953  0.6086 -0.8752  0.4953
  141OSM    H5G15473   2.294   6.231   7.042  0.7275  1.1601  1.7560
  141OSM    C6F15474   2.250   6.383   7.177  0.1120 -0.3126  0.4601
  141OSM    H6F15475   2.358   6.393   7.201  0.2568 -1.4854  0.3204
  141OSM    H6G15476   2.206   6.314   7.252 -1.7325 -0.1796 -0.4362
  141OSM    C7F15477   2.182   6.521   7.200  0.1354  0.0207  0.5053
  141OSM    H7F15478   2.072   6.510   7.216 -0.2705  1.2174 -1.1510
  141OSM    H7G15479   2.180   6.568   7.100 -1.8592 -0.6501  0.1903
  141OSM    C8F15480   2.246   6.603   7.310 -0.7956  0.2027  0.0375
  141OSM    H8F15481   2.203   6.705   7.316  0.0642  0.6532 -1.1168
  141OSM    H8G15482   2.349   6.626   7.276 -0.6245  0.1346  0.5050
  141OSM    C9F15483   2.231   6.520   7.440 -0.4312 -0.2489  0.8629
  141OSM    H9F15484   2.127   6.501   7.469 -1.4557 -0.7427 -2.6712
  141OSM   C10F15485   2.334   6.467   7.517  0.1799  0.5591  0.3652
  141OSM   H10F15486   2.305   6.413   7.608 -0.5002  0.4665  0.1024
  141OSM   C11F15487   2.484   6.468   7.493  0.6718 -0.3607 -0.4287
  141OSM   H11F15488   2.508   6.547   7.418 -0.0550  0.1002 -0.1868
  141OSM   H11G15489   2.518   6.375   7.442  1.9692 -0.3743  0.4230
  141OSM   C12F15490   2.573   6.475   7.624  0.2972  0.0997 -0.2075
  141OSM   H12F15491   2.681   6.496   7.604  0.1418  0.1484 -1.0500
  141OSM   H12G15492   2.554   6.380   7.679 -0.1075 -1.4072 -2.7928
  141OSM   C13F15493   2.552   6.595   7.720 -0.1317  0.3750  0.0497
  141OSM   H13F15494   2.444   6.611   7.740 -0.7357 -4.5925  2.0304
  141OSM   H13G15495   2.592   6.689   7.676  1.1864  0.8689  2.1366
  141OSM   C14F15496   2.630   6.570   7.846 -0.0746 -0.3612 -0.5490
  141OSM   H14F15497   2.740   6.582   7.835  0.1023  0.4943  1.6630
  141OSM   H14G15498   2.623   6.469   7.891 -0.8407 -0.7006 -1.3915
  141OSM   C15F15499   2.585   6.671   7.960  0.4828 -0.2224  0.4677
  141OSM   H15F15500   2.475   6.665   7.977  0.0690 -1.7440 -2.1570
  141OSM   H15G15501   2.602   6.769   7.911 -0.6732  0.4440  1.3429
  141OSM   C16F15502   2.670   6.667   8.084  0.3624 -0.9642  0.3128
  141OSM   H16F15503   2.658   6.759   8.145 -0.7072  1.5103 -3.3030
  141OSM   H16G15504   2.776   6.673   8.052 -0.0869 -0.9694 -1.2338
  141OSM   C17F15505   2.641   6.542   8.167  0.1600  0.0123 -0.8165
  141OSM   H17F15506   2.664   6.464   8.092  1.3111 -1.7687  1.2836
  141OSM   H17G15507   2.533   6.532   8.193  0.6233 -1.5437  0.6787
  141OSM   C18F15508   2.725   6.531   8.291 -0.1120  0.1325 -0.0441
  141OSM   H18F15509   2.829   6.502   8.267 -0.2869 -0.4047 -0.1661
  141OSM   H18G15510   2.682   6.457   8.362  1.5249 -0.2738  0.5668
  141OSM   H18H15511   2.735   6.629   8.344 -0.1100  0.1316 -0.0431
  142OSM      N15512   2.639   1.140   5.947 -0.3523  0.2610  0.2965
  142OSM    C1515513   2.741   1.064   5.866  0.5770 -0.2657 -1.0250
  142OSM   H15A15514   2.745   1.115   5.771  0.9313  0.1299 -0.8016
  142OSM   H15B15515   2.711   0.962   5.846  1.3008 -0.2425 -2.3094
  142OSM   H15C15516   2.834   1.068   5.921  1.1321  0.3496 -1.9867
  142OSM    C1415517   2.658   1.290   5.925  0.2787  0.8689 -0.4744
  142OSM   H14A15518   2.586   1.341   5.988 -0.5015 -1.0802  0.2781
  142OSM   H14B15519   2.633   1.321   5.824  2.4447  2.2318 -0.6567
  142OSM   H14C15520   2.757   1.332   5.935  0.5338  0.4940 -1.3543
  142OSM    C1315521   2.505   1.103   5.892  0.3799 -0.0215 -0.3072
  142OSM   H13A15522   2.429   1.162   5.941  0.9908 -0.8302  1.7140
  142OSM   H13B15523   2.483   0.998   5.909  2.7928 -0.6650 -0.7774
  142OSM   H13C15524   2.494   1.131   5.789  0.3046  0.5829 -0.1387
  142OSM    C1215525   2.656   1.100   6.091  0.1331 -0.3489 -0.4569
  142OSM   H12A15526   2.752   1.135   6.126 -0.9338  0.9727  1.3795
  142OSM   H12B15527   2.661   0.993   6.102  4.1162 -0.6701 -3.2421
  142OSM    C1115528   2.559   1.181   6.188  0.4808 -0.0566  0.7253
  142OSM   H11A15529   2.553   1.119   6.280  3.2926 -0.4890  0.7207
  142OSM   H11B15530   2.456   1.184   6.147  0.5092 -0.7933  0.5898
  142OSM      P15531   2.689   1.359   6.325 -0.1555 -0.6643 -0.0941
  142OSM    O1315532   2.827   1.396   6.266 -0.0756  0.0105 -0.0469
  142OSM    O1415533   2.611   1.465   6.388 -0.0799  0.0881  0.3211
  142OSM    O1115534   2.691   1.230   6.423  0.3924  0.4649 -0.0900
  142OSM    O1215535   2.602   1.316   6.203 -0.5164 -0.6424  0.4045
  142OSM    C1S15536   2.730   1.237   6.553 -0.7942 -0.0165 -0.8292
  142OSM    H1S15537   2.770   1.336   6.586 -0.5637 -0.1839 -0.6010
  142OSM    H1T15538   2.812   1.164   6.573  0.5722  2.4713  4.9418
  142OSM     NF15539   2.670   1.238   6.792  0.3457  0.4379  0.2460
  142OSM    HNF15540   2.698   1.165   6.854 -0.9638  1.2708  1.8894
  142OSM    C2S15541   2.620   1.205   6.660 -0.0853  0.6193 -0.2577
  142OSM    H2S15542   2.533   1.272   6.644 -0.1719  0.8560  1.0747
  142OSM    C3S15543   2.576   1.058   6.646  0.5465 -0.0196  0.6160
  142OSM    H3S15544   2.660   0.996   6.683  2.0640  0.7729 -1.3144
  142OSM     O315545   2.550   1.004   6.515  0.2760  0.8213  0.5295
  142OSM    HO315546   2.589   1.067   6.454  1.8061 -0.7200 -0.1613
  142OSM    C4S15547   2.465   1.029   6.737 -0.7531  0.4849  0.3708
  142OSM    H4S15548   2.505   1.002   6.836  2.3604 -1.6513 -1.3233
  142OSM    C5S15549   2.334   1.039   6.708 -0.3482 -0.2461 -0.1187
  142OSM    H5S15550   2.309   1.068   6.604  2.4733  1.5264 -0.4018
  142OSM    C6S15551   2.217   1.024   6.800 -0.1789 -0.7156  0.0047
  142OSM    H6S15552   2.159   0.935   6.769 -1.5268  0.4976 -1.0513
  142OSM    H6T15553   2.157   1.117   6.792  2.6286  1.1522 -0.7198
  142OSM    C7S15554   2.247   1.019   6.951 -0.0456  0.5443  0.2413
  142OSM    H7S15555   2.316   1.101   6.980 -1.9457  2.8172 -1.2573
  142OSM    H7T15556   2.300   0.921   6.959  0.0365  0.6606  1.1168
  142OSM    C8S15557   2.139   1.008   7.051  0.2513  0.4503 -0.2953
  142OSM    H8S15558   2.086   0.911   7.041 -1.4536  1.5234 -2.4740
  142OSM    H8T15559   2.063   1.089   7.039  0.0371  0.0303 -1.9152
  142OSM    C9S15560   2.201   1.014   7.193  0.0805 -0.0020 -0.3664
  142OSM    H9S15561   2.256   1.111   7.199 -0.9017  0.5060  0.6558
  142OSM    H9T15562   2.267   0.924   7.192 -0.3172 -0.2940 -0.2519
  142OSM   C10S15563   2.088   1.013   7.293  0.3991  0.5929  0.4055
  142OSM   H10S15564   2.017   0.927   7.291 -0.1640  0.9680  2.5122
  142OSM   H10T15565   2.026   1.101   7.268 -3.5576 -1.9478  0.2710
  142OSM   C11S15566   2.140   1.038   7.434  0.0327  0.8019  0.0086
  142OSM   H11S15567   2.170   1.145   7.443 -1.0485  1.0438  1.0523
  142OSM   H11T15568   2.219   0.963   7.452 -1.4552 -1.1524 -1.1260
  142OSM   C12S15569   2.025   1.017   7.535  0.4937  1.3512 -0.8966
  142OSM   H12S15570   1.973   0.919   7.530  1.6442  0.7611 -1.5348
  142OSM   H12T15571   1.951   1.097   7.514  1.8765  3.0459  0.4295
  142OSM   C13S15572   2.077   1.053   7.674 -0.1650 -0.3106  0.4317
  142OSM   H13S15573   2.116   1.157   7.675  1.9141 -1.0425 -0.2510
  142OSM   H13T15574   2.167   0.990   7.689 -0.5301 -0.6233  1.3911
  142OSM   C14S15575   1.979   1.027   7.778  0.0385  0.0390 -0.8102
  142OSM   H14S15576   1.937   0.924   7.771  2.6496 -0.9976 -3.1656
  142OSM   H14T15577   1.894   1.098   7.765  0.5742  0.8189 -0.1510
  142OSM   C15S15578   2.044   1.064   7.911 -0.1212 -0.0113 -0.0386
  142OSM   H15S15579   2.089   1.166   7.908  1.0195 -0.4046  1.8933
  142OSM   H15T15580   2.131   0.994   7.921  1.8064  2.1916 -0.4180
  142OSM   C16S15581   1.946   1.046   8.025  0.1600  0.3668 -0.6919
  142OSM   H16S15582   1.880   0.956   8.020 -0.3500  0.7790 -1.7331
  142OSM   H16T15583   1.870   1.127   8.023 -0.1758  0.1763  1.4377
  142OSM   C17S15584   2.018   1.028   8.159  0.7634 -0.4388 -0.6912
  142OSM   H17S15585   1.951   1.048   8.244  1.9349 -1.0669  0.4247
  142OSM   H17T15586   2.100   1.103   8.165  2.2456 -1.8629 -1.8127
  142OSM   C18S15587   2.073   0.888   8.190 -0.0971  0.4968  0.2990
  142OSM   H18S15588   2.121   0.886   8.290  1.0133 -0.6837 -0.2321
  142OSM   H18T15589   2.163   0.878   8.125 -1.2024 -0.8589 -1.0895
  142OSM   H18U15590   2.004   0.803   8.177  2.5106 -1.6749 -0.1774
  142OSM    C1F15591   2.696   1.366   6.831 -0.1028 -0.1968  0.2132
  142OSM     OF15592   2.640   1.458   6.773 -0.1690 -0.9144  0.0093
  142OSM    C2F15593   2.772   1.386   6.959  0.0636 -0.8671 -0.4991
  142OSM    H2F15594   2.875   1.344   6.957 -0.7874 -3.0956  0.2321
  142OSM    H2G15595   2.721   1.317   7.029 -0.2368  1.2237  1.4625
  142OSM    C3F15596   2.770   1.528   7.012 -0.3895 -0.1132 -0.4219
  142OSM    H3F15597   2.667   1.569   6.997 -0.1678  1.2515  1.4061
  142OSM    H3G15598   2.845   1.585   6.953  2.7802 -1.0427  2.4513
  142OSM    C4F15599   2.798   1.529   7.162  0.3388  0.0069 -0.7282
  142OSM    H4F15600   2.891   1.472   7.180  0.6180 -0.3216 -2.8661
  142OSM    H4G15601   2.714   1.475   7.209  0.2090  0.1079 -0.8426
  142OSM    C5F15602   2.814   1.669   7.226 -0.1731  0.5197  0.0785
  142OSM    H5F15603   2.724   1.728   7.196 -0.4315  0.3994  0.6042
  142OSM    H5G15604   2.897   1.725   7.179 -0.1432 -1.0812 -1.9085
  142OSM    C6F15605   2.846   1.659   7.376 -0.6698 -0.4596  0.4657
  142OSM    H6F15606   2.912   1.741   7.412 -1.5475 -0.1954  1.5065
  142OSM    H6G15607   2.911   1.569   7.382 -1.4772 -0.9471  3.4984
  142OSM    C7F15608   2.737   1.632   7.473 -0.8075  0.3725 -0.2170
  142OSM    H7F15609   2.679   1.544   7.438  0.1250 -0.2637 -0.2151
  142OSM    H7G15610   2.680   1.726   7.463  1.4956  1.9209  0.2871
  142OSM    C8F15611   2.785   1.609   7.616 -0.1469 -0.3747  0.4457
  142OSM    H8F15612   2.859   1.528   7.605 -1.5761 -1.9954  2.0386
  142OSM    H8G15613   2.708   1.566   7.684 -0.1796 -1.5101 -0.2959
  142OSM    C9F15614   2.850   1.729   7.678  0.9521 -0.4931 -0.5579
  142OSM    H9F15615   2.844   1.826   7.626 -1.6479 -0.9718 -1.2992
  142OSM   C10F15616   2.910   1.730   7.802  0.2787  0.2168  0.4541
  142OSM   H10F15617   2.956   1.822   7.841  1.4442 -0.0800 -0.2017
  142OSM   C11F15618   2.907   1.611   7.898 -0.5565 -0.4676 -0.2742
  142OSM   H11F15619   2.993   1.622   7.967  2.1085 -3.4708 -2.7501
  142OSM   H11G15620   2.925   1.513   7.849 -0.1961 -0.7972  0.5001
  142OSM   C12F15621   2.780   1.602   7.986  0.1459  0.4441  0.1982
  142OSM   H12F15622   2.690   1.605   7.921 -0.0720 -2.9002  0.1309
  142OSM   H12G15623   2.781   1.691   8.052  0.1943 -0.0543  0.8829
  142OSM   C13F15624   2.763   1.475   8.076  0.1416  0.3062  0.2657
  142OSM   H13F15625   2.764   1.392   8.002 -0.9692 -0.4103  1.0297
  142OSM   H13G15626   2.662   1.490   8.119  1.0012 -0.0883  2.5517
  142OSM   C14F15627   2.884   1.450   8.168  0.1942  1.1569 -0.3324
  142OSM   H14F15628   2.894   1.529   8.245 -0.7405  0.4282  0.5473
  142OSM   H14G15629   2.976   1.447   8.105  0.9692  4.3542  0.4746
  142OSM   C15F15630   2.844   1.316   8.232 -0.3141  0.3967  0.1558
  142OSM   H15F15631   2.847   1.237   8.154 -2.0317 -0.6114  1.0458
  142OSM   H15G15632   2.739   1.309   8.266 -0.0905  0.2690  0.8328
  142OSM   C16F15633   2.941   1.270   8.349  0.1939 -1.1346  0.2569
  142OSM   H16F15634   2.905   1.320   8.442 -0.6418  1.0896 -1.1712
  142OSM   H16G15635   3.044   1.307   8.329 -0.8962  2.0591 -0.0478
  142OSM   C17F15636   2.927   1.120   8.381 -0.0086 -0.0786  1.2415
  142OSM   H17F15637   2.944   1.062   8.288 -1.1733  1.2428  0.1684
  142OSM   H17G15638   2.825   1.117   8.425  0.7987  1.6307  3.4742
  142OSM   C18F15639   3.022   1.059   8.490 -0.1310  0.2376  0.4828
  142OSM   H18F15640   3.016   1.121   8.582  0.3642 -0.1960  0.8092
  142OSM   H18G15641   3.125   1.074   8.452  0.3880 -1.9975  0.8364
  142OSM   H18H15642   3.008   0.951   8.513  1.6680 -0.0192  0.5124
  143OSM      N15643   3.426   3.711   6.392  0.0321  0.2076  0.3088
  143OSM    C1515644   3.526   3.818   6.401  0.5485  0.5638 -0.6535
  143OSM   H15A15645   3.503   3.899   6.469 -0.4030 -0.7849  0.7043
  143OSM   H15B15646   3.534   3.867   6.305 -0.4632  0.3399 -0.8681
  143OSM   H15C15647   3.620   3.780   6.439  0.2475 -0.3004 -0.7498
  143OSM    C1415648   3.397   3.663   6.536  0.0571  0.4203 -0.2768
  143OSM   H14A15649   3.495   3.646   6.578  0.5048 -1.3366 -1.9056
  143OSM   H14B15650   3.345   3.571   6.515 -1.1542  1.0921 -0.3152
  143OSM   H14C15651   3.342   3.723   6.608  1.1915 -0.0655  1.0449
  143OSM    C1315652   3.298   3.770   6.337 -0.3790  0.1841 -0.2227
  143OSM   H13A15653   3.272   3.852   6.403  1.0040 -0.6557  1.4624
  143OSM   H13B15654   3.214   3.703   6.327 -0.5731  0.5089 -0.8057
  143OSM   H13C15655   3.312   3.797   6.234 -0.8002  1.6008  0.0655
  143OSM    C1215656   3.474   3.594   6.302  0.3369  0.1651 -0.2317
  143OSM   H12A15657   3.578   3.579   6.325  0.6442  1.8449 -0.3822
  143OSM   H12B15658   3.468   3.627   6.200 -0.2397  0.1495 -0.2030
  143OSM    C1115659   3.396   3.465   6.316 -0.3593  0.3213  0.1233
  143OSM   H11A15660   3.413   3.408   6.222 -1.5590  0.0767  0.0376
  143OSM   H11B15661   3.289   3.492   6.323 -0.3573  0.3217  0.1533
  143OSM      P15662   3.553   3.294   6.424  0.0341 -0.4472  0.4241
  143OSM    O1315663   3.512   3.180   6.339 -0.2257 -0.1389 -0.1039
  143OSM    O1415664   3.676   3.359   6.383 -0.3291  0.1390 -0.2964
  143OSM    O1115665   3.566   3.249   6.575 -0.1097 -0.4181  0.2342
  143OSM    O1215666   3.437   3.397   6.433 -0.7550 -0.4768 -0.2184
  143OSM    C1S15667   3.586   3.362   6.670 -1.2214  0.1319  0.6641
  143OSM    H1S15668   3.510   3.438   6.644 -0.1527  0.4798 -1.7009
  143OSM    H1T15669   3.684   3.411   6.650 -2.0935  1.2034 -1.3536
  143OSM     NF15670   3.577   3.453   6.893  0.2476  0.0554  0.3061
  143OSM    HNF15671   3.655   3.479   6.951 -0.4065  1.4763  0.5986
  143OSM    C2S15672   3.579   3.330   6.813 -0.3280 -0.2311  0.5216
  143OSM    H2S15673   3.483   3.275   6.826  1.0311 -2.7162  0.7152
  143OSM    C3S15674   3.695   3.222   6.845 -0.6490 -1.0809 -0.2004
  143OSM    H3S15675   3.799   3.255   6.828 -0.4099 -2.1427 -0.8853
  143OSM     O315676   3.702   3.125   6.738 -0.3725 -0.5958  0.0367
  143OSM    HO315677   3.644   3.173   6.679  2.8546  1.2860 -1.8895
  143OSM    C4S15678   3.677   3.167   6.984  0.1864  0.5545  0.5896
  143OSM    H4S15679   3.586   3.108   7.001 -1.0096  2.7606  2.6413
  143OSM    C5S15680   3.766   3.165   7.082 -0.1049 -0.1836 -0.7439
  143OSM    H5S15681   3.866   3.208   7.067 -0.5551  1.4060  0.4555
  143OSM    C6S15682   3.755   3.106   7.218  0.6844 -0.2860 -0.6734
  143OSM    H6S15683   3.808   3.168   7.294 -3.3918  1.9934  0.5787
  143OSM    H6T15684   3.801   3.006   7.234 -1.8283 -1.7300 -1.9630
  143OSM    C7S15685   3.615   3.105   7.270 -0.1976 -0.6228  0.3708
  143OSM    H7S15686   3.556   3.028   7.216  1.2759 -0.5639 -1.4405
  143OSM    H7T15687   3.567   3.204   7.254  0.8443 -0.0988  0.4131
  143OSM    C8S15688   3.602   3.075   7.420 -0.6258  0.3539  0.1938
  143OSM    H8S15689   3.671   2.989   7.439  1.2456  1.8557  0.5061
  143OSM    H8T15690   3.504   3.027   7.440  0.3250 -1.9187 -0.2780
  143OSM    C9S15691   3.629   3.192   7.523  0.2407  0.2063 -0.0309
  143OSM    H9S15692   3.564   3.275   7.488  0.7301  0.2651 -0.8392
  143OSM    H9T15693   3.735   3.225   7.518  0.1604  0.7319  1.3237
  143OSM   C10S15694   3.584   3.155   7.660 -0.1701  0.7885 -0.3550
  143OSM   H10S15695   3.473   3.148   7.667 -0.2274  0.9501 -1.0326
  143OSM   H10T15696   3.610   3.226   7.742  0.0860  0.1516  0.1239
  143OSM   C11S15697   3.656   3.024   7.714  0.2232  0.1100 -0.2405
  143OSM   H11S15698   3.764   3.044   7.731 -0.1778 -0.9406  5.9307
  143OSM   H11T15699   3.639   2.943   7.640 -0.9168  1.8732 -2.0223
  143OSM   C12S15700   3.604   2.991   7.854 -0.4700 -0.4853  0.1972
  143OSM   H12S15701   3.642   2.891   7.886  1.8238 -0.1339 -1.2449
  143OSM   H12T15702   3.496   2.968   7.840 -1.3102  1.4956  2.6798
  143OSM   C13S15703   3.616   3.094   7.966  0.3429  0.5833  0.6209
  143OSM   H13S15704   3.530   3.164   7.968  0.3877  0.6154  2.0234
  143OSM   H13T15705   3.710   3.152   7.974  0.8439 -0.1291  0.0299
  143OSM   C14S15706   3.602   3.024   8.100 -0.5539  0.1488 -0.2984
  143OSM   H14S15707   3.704   2.998   8.137 -0.8538  0.2021  0.5884
  143OSM   H14T15708   3.540   2.932   8.097 -1.2351  0.5399  1.1790
  143OSM   C15S15709   3.550   3.124   8.207 -0.2004 -0.0290  0.0734
  143OSM   H15S15710   3.595   3.224   8.188 -0.5342 -0.3261 -2.7221
  143OSM   H15T15711   3.569   3.088   8.310 -0.7888 -0.3571  0.0728
  143OSM   C16S15712   3.400   3.138   8.195  0.3401 -0.1354  1.0264
  143OSM   H16S15713   3.352   3.039   8.180 -1.9943  1.2429 -1.4707
  143OSM   H16T15714   3.381   3.209   8.112  0.5110 -1.3626 -0.0924
  143OSM   C17S15715   3.328   3.187   8.323  0.3056 -0.1038  0.5956
  143OSM   H17S15716   3.384   3.279   8.352  1.5437 -0.6517  0.0339
  143OSM   H17T15717   3.351   3.108   8.397  0.3076 -0.5394  0.1336
  143OSM   C18S15718   3.174   3.212   8.325 -0.1120 -0.2951  0.5337
  143OSM   H18S15719   3.150   3.313   8.286 -0.9068 -0.4298  0.6563
  143OSM   H18T15720   3.123   3.213   8.424 -0.3029  2.9119  0.5056
  143OSM   H18U15721   3.121   3.133   8.268 -0.9346  0.5561  0.0951
  143OSM    C1F15722   3.483   3.547   6.889 -0.4374 -0.0355 -0.1593
  143OSM     OF15723   3.373   3.528   6.830  0.1684 -0.1728  0.2084
  143OSM    C2F15724   3.524   3.675   6.958 -0.2323 -0.2248 -0.3376
  143OSM    H2F15725   3.631   3.697   6.941  0.0149 -0.5752  0.7090
  143OSM    H2G15726   3.506   3.657   7.066 -1.9500  0.9295 -0.3775
  143OSM    C3F15727   3.456   3.802   6.917 -0.3095 -0.3127 -0.0852
  143OSM    H3F15728   3.345   3.797   6.909 -0.2284  0.2759 -2.6312
  143OSM    H3G15729   3.498   3.830   6.818 -0.1423 -0.0715  0.0556
  143OSM    C4F15730   3.493   3.924   7.002 -0.4884  0.8468  0.3465
  143OSM    H4F15731   3.441   4.006   6.947 -0.2871  1.0226  0.4144
  143OSM    H4G15732   3.602   3.948   7.002 -0.1497 -0.4294 -1.7422
  143OSM    C5F15733   3.453   3.916   7.149  0.2811  0.1832 -0.4663
  143OSM    H5F15734   3.498   3.831   7.204  0.4886  0.7417  0.2433
  143OSM    H5G15735   3.345   3.891   7.142  0.9509 -3.5105  0.5113
  143OSM    C6F15736   3.485   4.045   7.226 -0.1410  0.9562 -1.0442
  143OSM    H6F15737   3.448   4.134   7.171 -0.1441  0.9667 -1.0247
  143OSM    H6G15738   3.595   4.055   7.229 -0.1533  0.8461  0.3248
  143OSM    C7F15739   3.421   4.040   7.366  0.2108 -0.0920  0.1685
  143OSM    H7F15740   3.489   3.989   7.438  1.2728  1.6899  0.4781
  143OSM    H7G15741   3.321   3.992   7.359 -0.0576 -0.1749  3.2232
  143OSM    C8F15742   3.409   4.187   7.433 -0.5068 -0.2972  0.1555
  143OSM    H8F15743   3.338   4.246   7.370 -4.0370 -1.5747  2.6507
  143OSM    H8G15744   3.511   4.230   7.423 -0.8742  0.8216  0.9767
  143OSM    C9F15745   3.373   4.184   7.581  0.0809  0.2738 -0.1591
  143OSM    H9F15746   3.266   4.197   7.602 -0.0264 -1.2439  0.3991
  143OSM   C10F15747   3.459   4.175   7.683 -0.3006 -0.2967  0.2472
  143OSM   H10F15748   3.414   4.157   7.782 -0.6616 -1.2841 -0.0834
  143OSM   C11F15749   3.608   4.168   7.677  0.3947  0.1051  0.4334
  143OSM   H11F15750   3.635   4.166   7.569 -2.4766  1.6890 -0.4142
  143OSM   H11G15751   3.637   4.065   7.707 -1.1318 -0.8089 -1.0190
  143OSM   C12F15752   3.701   4.267   7.739 -0.3642 -0.9083 -0.1501
  143OSM   H12F15753   3.708   4.239   7.846  1.2287  0.6278  0.2010
  143OSM   H12G15754   3.663   4.371   7.736  1.1298 -0.3233  0.4786
  143OSM   C13F15755   3.844   4.256   7.678  0.7625  0.8702 -0.1411
  143OSM   H13F15756   3.905   4.343   7.710 -0.1621  2.1736 -1.7779
  143OSM   H13G15757   3.825   4.276   7.570 -1.2400  2.1530  0.3991
  143OSM   C14F15758   3.918   4.129   7.705  0.0677 -0.3984  0.1592
  143OSM   H14F15759   4.014   4.144   7.651 -1.0658  0.2233 -1.7861
  143OSM   H14G15760   3.861   4.048   7.654 -0.6009 -0.5852  1.1916
  143OSM   C15F15761   3.932   4.099   7.853  0.1662  0.6971 -0.2367
  143OSM   H15F15762   3.836   4.098   7.909  0.8300  1.9886  0.9719
  143OSM   H15G15763   3.999   4.159   7.918 -0.6886  1.2323  0.1696
  143OSM   C16F15764   3.986   3.958   7.878  1.4122  0.4798 -0.1614
  143OSM   H16F15765   4.094   3.971   7.852  0.8330  1.7219 -2.1814
  143OSM   H16G15766   3.929   3.895   7.806  0.3466  0.3495  0.7816
  143OSM   C17F15767   3.947   3.897   8.014  0.0726  0.2614 -0.4280
  143OSM   H17F15768   3.998   3.799   8.006  1.4757  1.0270 -1.1998
  143OSM   H17G15769   3.841   3.864   8.022  0.6451 -1.4530  0.5658
  143OSM   C18F15770   3.985   3.978   8.133  0.0320  0.3303 -0.1114
  143OSM   H18F15771   4.088   4.019   8.119 -0.1879  1.1436  0.5687
  143OSM   H18G15772   3.974   3.918   8.226  0.7813 -0.9892 -0.8419
  143OSM   H18H15773   3.930   4.074   8.137  0.8648  0.8227 -0.1110
  144OSM      N15774   3.124   3.073   6.227  0.1047  0.8995  0.2315
  144OSM    C1515775   3.000   3.063   6.321 -0.1343  0.2646 -0.3712
  144OSM   H15A15776   3.030   3.025   6.418 -1.3519 -0.9298 -0.4389
  144OSM   H15B15777   2.927   2.987   6.297 -0.7955  0.3829  1.1304
  144OSM   H15C15778   2.958   3.158   6.349 -0.9044  0.0205 -0.6793
  144OSM    C1415779   3.071   3.082   6.091 -0.2883 -0.5209 -0.1048
  144OSM   H14A15780   3.035   2.982   6.074 -1.4714 -0.8312  3.4713
  144OSM   H14B15781   3.155   3.102   6.026  0.4540  1.9564  1.5039
  144OSM   H14C15782   2.982   3.139   6.070 -0.2635 -1.1076 -2.0711
  144OSM    C1315783   3.192   3.199   6.259  0.2220 -0.2833 -0.4285
  144OSM   H13A15784   3.258   3.192   6.344  2.4757 -2.7655 -2.2087
  144OSM   H13B15785   3.126   3.284   6.262  3.1417  2.1364  0.4233
  144OSM   H13C15786   3.249   3.218   6.169  3.5534 -2.0574  1.1086
  144OSM    C1215787   3.207   2.942   6.241  0.6407 -0.0778  0.3496
  144OSM   H12A15788   3.279   2.930   6.161  0.1476 -0.9522  0.0230
  144OSM   H12B15789   3.145   2.854   6.229 -2.7930  2.1653  0.4178
  144OSM    C1115790   3.289   2.915   6.372  0.3267 -0.1025  0.2410
  144OSM   H11A15791   3.218   2.902   6.457  1.2758  0.5134  1.1465
  144OSM   H11B15792   3.358   2.999   6.396  0.6359 -0.8248  2.0891
  144OSM      P15793   3.300   2.662   6.303 -0.2784 -0.0302 -0.2628
  144OSM    O1315794   3.155   2.666   6.287 -0.2075 -0.0447 -0.0541
  144OSM    O1415795   3.377   2.619   6.184 -0.3918 -0.0299  0.3839
  144OSM    O1115796   3.338   2.559   6.414 -1.2019 -0.0566 -0.2024
  144OSM    O1215797   3.366   2.794   6.361  0.0369  0.6676  0.3100
  144OSM    C1S15798   3.324   2.592   6.549  0.1134  0.2884 -1.2655
  144OSM    H1S15799   3.241   2.662   6.572 -0.8211 -1.7008  2.2882
  144OSM    H1T15800   3.412   2.648   6.588 -1.4296  1.5993  0.5118
  144OSM     NF15801   3.257   2.514   6.778 -0.9933 -0.1316 -0.4981
  144OSM    HNF15802   3.306   2.491   6.862  1.6790  3.0274 -1.0001
  144OSM    C2S15803   3.306   2.473   6.650  0.1549  0.3600  0.6761
  144OSM    H2S15804   3.230   2.403   6.610 -0.5186 -0.8865  3.8316
  144OSM    C3S15805   3.432   2.386   6.651 -0.0513 -0.0020  0.1252
  144OSM    H3S15806   3.511   2.452   6.694  1.6167 -1.1095 -1.1411
  144OSM     O315807   3.487   2.356   6.521  0.3731 -0.5358 -0.0638
  144OSM    HO315808   3.459   2.434   6.473 -1.4061 -0.2648  1.2828
  144OSM    C4S15809   3.419   2.262   6.743  0.4600  0.3308  0.0250
  144OSM    H4S15810   3.464   2.274   6.843 -1.1437 -1.6287  1.0648
  144OSM    C5S15811   3.375   2.137   6.714 -0.4772  0.1796 -0.1203
  144OSM    H5S15812   3.353   2.099   6.613  1.5069 -1.3013 -0.0570
  144OSM    C6S15813   3.371   2.027   6.820  0.1141 -0.2616  0.3651
  144OSM    H6S15814   3.411   1.936   6.771 -2.6606 -1.1981 -0.3831
  144OSM    H6T15815   3.265   1.994   6.835  0.2631 -1.1582 -0.4741
  144OSM    C7S15816   3.431   2.055   6.961  0.4796  0.2916  0.8653
  144OSM    H7S15817   3.371   2.130   7.017  0.4919  2.1466 -1.4636
  144OSM    H7T15818   3.530   2.099   6.940  0.2571 -0.4730 -2.3462
  144OSM    C8S15819   3.443   1.922   7.026  0.5151  0.3108 -0.6703
  144OSM    H8S15820   3.498   1.858   6.954  0.8219  0.4111 -0.5269
  144OSM    H8T15821   3.337   1.889   7.034  0.5945  0.2140  0.0182
  144OSM    C9S15822   3.514   1.923   7.164 -0.6881 -0.7871  0.0554
  144OSM    H9S15823   3.606   1.982   7.144 -1.7560  0.3957 -1.6587
  144OSM    H9T15824   3.540   1.820   7.196 -3.0871 -1.2245  0.8586
  144OSM   C10S15825   3.442   1.987   7.283  0.7097  0.1642  0.0816
  144OSM   H10S15826   3.344   1.936   7.295  1.9373 -2.6940 -1.0667
  144OSM   H10T15827   3.427   2.094   7.258  0.9721  0.1752 -0.0367
  144OSM   C11S15828   3.518   1.992   7.423 -0.0979 -0.3121  0.2854
  144OSM   H11S15829   3.621   2.032   7.409  1.1181 -3.3894 -0.3619
  144OSM   H11T15830   3.525   1.887   7.458  1.0095 -0.8762 -1.4671
  144OSM   C12S15831   3.434   2.072   7.527 -0.0794 -0.1232 -0.4976
  144OSM   H12S15832   3.333   2.026   7.520 -0.5665  0.6905  0.8980
  144OSM   H12T15833   3.419   2.178   7.498 -1.1087 -0.4612 -1.2704
  144OSM   C13S15834   3.474   2.062   7.672 -0.3192  0.0470  0.7072
  144OSM   H13S15835   3.576   2.105   7.687 -1.3921  2.9286  0.4475
  144OSM   H13T15836   3.477   1.955   7.701 -0.9842  0.4061  2.1440
  144OSM   C14S15837   3.382   2.152   7.745  0.3498 -0.8345 -0.1096
  144OSM   H14S15838   3.278   2.124   7.719  0.0287  1.0052 -0.9442
  144OSM   H14T15839   3.409   2.252   7.704  2.4178 -1.2651  0.1229
  144OSM   C15S15840   3.391   2.151   7.902  0.3853 -0.2372  1.1567
  144OSM   H15S15841   3.486   2.193   7.939 -0.3255  1.3919  1.2144
  144OSM   H15T15842   3.386   2.041   7.919  0.5448 -0.4469 -0.0885
  144OSM   C16S15843   3.267   2.215   7.971  0.2396  0.0371  0.2084
  144OSM   H16S15844   3.171   2.169   7.939  1.1623 -3.0258  1.4410
  144OSM   H16T15845   3.259   2.322   7.943 -1.3871  0.5858  2.4745
  144OSM   C17S15846   3.274   2.217   8.118  1.1974  0.4132 -0.2913
  144OSM   H17S15847   3.171   2.238   8.153  0.6301 -1.1393 -0.9271
  144OSM   H17T15848   3.340   2.296   8.159  0.8817  1.8355 -2.3422
  144OSM   C18S15849   3.305   2.078   8.174  0.5180 -0.3036  0.1754
  144OSM   H18S15850   3.316   2.078   8.285  0.2840 -0.2010  0.1994
  144OSM   H18T15851   3.399   2.033   8.135  1.0674  1.5468 -0.7838
  144OSM   H18U15852   3.225   2.005   8.150  0.4496 -0.3722  0.5978
  144OSM    C1F15853   3.143   2.566   6.795  0.7699 -1.0799  0.9292
  144OSM     OF15854   3.051   2.557   6.710  0.0983  0.0246 -0.5027
  144OSM    C2F15855   3.118   2.634   6.923 -0.2052  0.0496  0.8311
  144OSM    H2F15856   3.147   2.740   6.911  0.2157 -0.0511  0.9645
  144OSM    H2G15857   3.173   2.592   7.010 -2.0856  1.2662  2.6973
  144OSM    C3F15858   2.964   2.634   6.948 -0.3924 -0.2335  0.4266
  144OSM    H3F15859   2.924   2.530   6.940 -2.0544  0.4016  0.1925
  144OSM    H3G15860   2.919   2.715   6.887  0.4478  1.3387  1.7991
  144OSM    C4F15861   2.927   2.678   7.095 -0.9986  0.4168  0.0143
  144OSM    H4F15862   2.950   2.784   7.119 -2.6909  0.6970  0.5320
  144OSM    H4G15863   2.980   2.616   7.171  1.7521  0.4685 -1.7192
  144OSM    C5F15864   2.778   2.657   7.110  0.3193  0.4143 -0.3405
  144OSM    H5F15865   2.749   2.558   7.069  2.1429 -0.3694  0.1923
  144OSM    H5G15866   2.721   2.731   7.049  0.3424  0.2800 -0.5257
  144OSM    C6F15867   2.734   2.671   7.264  1.0243 -0.3651 -0.2176
  144OSM    H6F15868   2.793   2.596   7.321  1.2613  0.2850  0.4124
  144OSM    H6G15869   2.628   2.649   7.288  1.4235 -0.2080  1.8662
  144OSM    C7F15870   2.756   2.806   7.324 -0.0016 -0.4478 -0.3682
  144OSM    H7F15871   2.715   2.891   7.266 -0.8689 -0.2722  0.4689
  144OSM    H7G15872   2.865   2.822   7.338 -0.0829  0.6534 -0.8645
  144OSM    C8F15873   2.695   2.823   7.475 -0.0951  1.2906  0.6593
  144OSM    H8F15874   2.585   2.825   7.467 -0.0289  1.0750 -0.4307
  144OSM    H8G15875   2.726   2.925   7.507  3.1362  1.1674 -1.5874
  144OSM    C9F15876   2.738   2.723   7.574 -0.7266  0.1254  0.1625
  144OSM    H9F15877   2.765   2.625   7.531  0.3464  0.2617  0.4811
  144OSM   C10F15878   2.771   2.745   7.698  0.4375  0.6457 -0.2271
  144OSM   H10F15879   2.806   2.658   7.755  0.5216  1.2040  0.5892
  144OSM   C11F15880   2.765   2.878   7.779 -0.2486 -0.3175 -0.1122
  144OSM   H11F15881   2.677   2.936   7.745 -0.4538  0.0354  0.9772
  144OSM   H11G15882   2.861   2.932   7.758 -0.7858 -0.1297 -2.3264
  144OSM   C12F15883   2.754   2.859   7.928 -0.2284 -0.4686 -0.6971
  144OSM   H12F15884   2.842   2.796   7.956  0.0482 -1.0448 -2.7202
  144OSM   H12G15885   2.656   2.813   7.953  0.8816 -2.2466  0.6946
  144OSM   C13F15886   2.771   2.998   7.988  0.3410  0.1804  0.4924
  144OSM   H13F15887   2.719   3.081   7.934 -0.9656  0.6168  2.3055
  144OSM   H13G15888   2.877   3.027   7.979  0.8835 -2.2085 -2.6206
  144OSM   C14F15889   2.738   2.997   8.133  0.2493 -0.2733 -0.4202
  144OSM   H14F15890   2.815   2.949   8.197  0.2778  0.6775  0.2659
  144OSM   H14G15891   2.643   2.943   8.153  0.5892  0.4331  4.1981
  144OSM   C15F15892   2.718   3.136   8.193  0.2980  0.3024  0.4106
  144OSM   H15F15893   2.650   3.117   8.278  1.5920  0.7777  1.5869
  144OSM   H15G15894   2.673   3.201   8.115 -0.1196 -2.4421 -1.8037
  144OSM   C16F15895   2.841   3.209   8.253  0.2402  0.2949  0.2133
  144OSM   H16F15896   2.907   3.244   8.171 -0.3985  1.4827  0.1815
  144OSM   H16G15897   2.890   3.138   8.323  0.3837 -1.1949 -1.3301
  144OSM   C17F15898   2.795   3.334   8.330 -0.5508 -0.1688 -0.6665
  144OSM   H17F15899   2.716   3.389   8.275 -0.8557  0.7634  0.6785
  144OSM   H17G15900   2.880   3.398   8.362 -1.1236 -0.4191  1.5035
  144OSM   C18F15901   2.736   3.295   8.472 -0.0442  0.0576 -0.7096
  144OSM   H18F15902   2.828   3.269   8.529  0.1550  0.2562 -0.9382
  144OSM   H18G15903   2.657   3.219   8.458 -0.9132  1.0005 -1.0365
  144OSM   H18H15904   2.684   3.386   8.510 -1.5220 -1.0676  0.0603
  145SAPE     N15905   2.342   4.786  10.501  0.1894 -0.6100  0.1363
  145SAPE   HN115906   2.292   4.846  10.433  1.0264  1.6567  1.3932
  145SAPE   HN215907   2.431   4.834  10.527  2.5017 -2.7514 -3.0894
  145SAPE   HN315908   2.366   4.695  10.456  0.5619  0.2931 -1.5644
  145SAPE   C1215909   2.249   4.738  10.607 -0.3466 -0.3412 -0.8276
  145SAPE  H12A15910   2.289   4.654  10.667 -2.1497  0.3570  1.5209
  145SAPE  H12B15911   2.157   4.700  10.557  0.1320 -0.9821 -1.2350
  145SAPE   C1115912   2.218   4.848  10.707 -0.1132 -0.0556 -0.0417
  145SAPE  H11A15913   2.310   4.892  10.750 -0.2325 -1.6856  2.0729
  145SAPE  H11B15914   2.173   4.784  10.787 -0.3409 -0.4495 -0.4722
  145SAPE     P15915   2.149   5.061  10.558 -0.0713  0.1118  0.2426
  145SAPE   O1315916   2.039   5.155  10.563  0.1133  0.3593 -0.3055
  145SAPE   O1415917   2.289   5.115  10.577  0.1210  0.2364  0.0335
  145SAPE   O1215918   2.120   4.948  10.661 -0.3070 -0.1631  0.8501
  145SAPE   O1115919   2.137   4.984  10.423  0.2232  0.2050 -0.2789
  145SAPE    C115920   2.021   4.989  10.349 -0.8342  0.0707 -0.2117
  145SAPE    HA15921   1.936   4.940  10.402 -1.1573  0.0230 -0.7674
  145SAPE    HB15922   1.989   5.093  10.327  0.0685 -0.1033 -2.5434
  145SAPE    C215923   2.045   4.923  10.211  0.0522  0.2022 -0.2303
  145SAPE    HS15924   2.079   4.819  10.226  1.4877  0.5584 -0.8140
  145SAPE   O2115925   2.147   5.001  10.145  0.1609 -0.0060 -0.0678
  145SAPE   C2115926   2.269   4.960  10.179 -0.4609  0.3670 -0.5127
  145SAPE   O2215927   2.295   4.862  10.245 -0.1438  0.4978  0.1943
  145SAPE   C2215928   2.376   5.056  10.133 -0.1380 -0.1311  0.8772
  145SAPE   H2R15929   2.328   5.131  10.067  1.2906  1.1724  1.2898
  145SAPE   H2S15930   2.430   5.096  10.221 -1.1041  0.2086  1.3306
  145SAPE    C315931   1.911   4.917  10.126  0.2713  0.5023 -0.2338
  145SAPE    HX15932   1.863   5.017  10.122 -0.5302  0.2011  1.2711
  145SAPE    HY15933   1.836   4.852  10.176 -1.7795  1.9175 -1.3577
  145SAPE   O3115934   1.933   4.874   9.988  0.2866 -0.1713  0.1354
  145SAPE   C3115935   1.928   4.737   9.968  0.5458 -0.9335 -0.2886
  145SAPE   O3215936   1.915   4.659  10.056  0.5522  0.4189 -0.1691
  145SAPE   C3215937   1.949   4.708   9.824  0.2419 -0.3261 -0.1478
  145SAPE   H2X15938   1.919   4.794   9.759  2.2904 -1.3556 -2.6071
  145SAPE   H2Y15939   1.883   4.622   9.801  0.5059 -0.4099 -0.6031
  145SAPE   C2315940   2.483   4.975  10.051  0.1591 -0.0169  0.7104
  145SAPE   H3R15941   2.537   4.904  10.116  0.3063 -1.5473 -0.9906
  145SAPE   H3S15942   2.561   5.046  10.016  0.6802 -0.9217 -0.0129
  145SAPE   C2415943   2.438   4.895   9.928  0.4489  0.1554 -0.6266
  145SAPE   H4R15944   2.371   4.815   9.968  1.3252  0.0490  0.6771
  145SAPE   H4S15945   2.531   4.852   9.886  0.8057 -0.6819  0.9456
  145SAPE   C2515946   2.352   4.962   9.822 -0.0994 -0.4440  0.0703
  145SAPE   H5R15947   2.272   5.019   9.872 -0.5627 -2.3668  1.6721
  145SAPE   C2615948   2.354   4.949   9.693 -0.3210  0.7839  0.0700
  145SAPE   H6R15949   2.298   5.020   9.630 -1.8871 -1.1365 -0.8183
  145SAPE   C2715950   2.458   4.854   9.630  0.1658  0.4704 -0.1694
  145SAPE   H7R15951   2.442   4.746   9.653  0.7620  0.0427 -1.6584
  145SAPE   H7S15952   2.550   4.867   9.691 -0.7233  0.5566  1.2099
  145SAPE   C2815953   2.497   4.895   9.495  0.9312 -0.1748 -0.5483
  145SAPE   H8R15954   2.544   4.994   9.487 -0.2856  0.3623 -1.3044
  145SAPE   C2915955   2.481   4.829   9.382  0.3644  0.5343 -0.8425
  145SAPE   H9R15956   2.515   4.884   9.292 -1.1248  1.2752 -0.9726
  145SAPE  C21015957   2.407   4.697   9.359 -0.2823  0.6118 -0.3381
  145SAPE  H10R15958   2.314   4.720   9.303 -1.6910 -0.6833  1.3210
  145SAPE  H10S15959   2.378   4.639   9.449 -0.0304 -1.2624 -1.3894
  145SAPE  C21115960   2.498   4.597   9.290  0.6580 -0.7388  0.2002
  145SAPE  H11R15961   2.556   4.532   9.357  0.0574  1.3939  2.9246
  145SAPE  C21215962   2.494   4.576   9.154 -0.4806  0.7061 -0.2698
  145SAPE  H12R15963   2.574   4.510   9.118  0.4257  0.0697  2.6500
  145SAPE  C21315964   2.400   4.649   9.051 -0.0560 -0.2114 -0.0078
  145SAPE  H13R15965   2.296   4.670   9.086  0.3356 -1.2456  1.9344
  145SAPE  H13S15966   2.406   4.581   8.964  2.0597 -0.3987  0.2401
  145SAPE  C21415967   2.471   4.784   9.013 -0.4754  0.5479  0.1042
  145SAPE  H14R15968   2.531   4.835   9.090  1.0120  0.7295 -1.1396
  145SAPE  C21515969   2.461   4.846   8.898  0.8016  0.2448  0.1546
  145SAPE  H15R15970   2.522   4.937   8.882  0.0970  0.8405  0.7805
  145SAPE  C21615971   2.367   4.819   8.783  0.5037  0.4747 -0.1139
  145SAPE  H16R15972   2.327   4.919   8.755  0.4262  0.8606  1.3103
  145SAPE  H16S15973   2.281   4.757   8.817  0.2222  0.7546 -0.3018
  145SAPE  C21715974   2.423   4.737   8.669 -0.4954 -0.4314  0.0752
  145SAPE  H17R15975   2.349   4.700   8.595 -1.6528 -1.2285  1.5683
  145SAPE  H17S15976   2.464   4.647   8.720  2.0459  0.4461 -0.2992
  145SAPE  C21815977   2.540   4.796   8.592  0.0397 -0.2401 -0.1096
  145SAPE  H18R15978   2.631   4.793   8.656 -0.0177  0.3576  0.0047
  145SAPE  H18S15979   2.528   4.906   8.586 -0.6011 -0.2308  1.0190
  145SAPE  C21915980   2.575   4.734   8.455 -0.3214  0.2547  0.0355
  145SAPE  H19R15981   2.499   4.748   8.375  1.7724 -1.0439 -2.3178
  145SAPE  H19S15982   2.575   4.626   8.479 -0.9887  0.0581 -0.8053
  145SAPE  C22015983   2.711   4.767   8.403 -0.0107 -0.0484  0.2003
  145SAPE  H20R15984   2.735   4.702   8.316  1.1180  0.8362 -0.1740
  145SAPE  H20S15985   2.789   4.749   8.480 -0.2767  0.8866  0.6947
  145SAPE  H20T15986   2.708   4.876   8.383  1.5992  0.1237  0.7811
  145SAPE   C3315987   2.092   4.666   9.800  0.3830 -0.1425  0.4342
  145SAPE   H3X15988   2.126   4.579   9.860 -0.6522 -0.2660  0.8704
  145SAPE   H3Y15989   2.161   4.748   9.829  0.1168 -0.3153  1.5837
  145SAPE   C3415990   2.109   4.635   9.649  0.3394 -0.0913  0.7991
  145SAPE   H4X15991   2.218   4.641   9.633  0.4092 -1.6294  0.5505
  145SAPE   H4Y15992   2.067   4.718   9.589  1.9448  0.8530  0.9478
  145SAPE   C3515993   2.041   4.509   9.593  0.2448 -0.5597 -0.1739
  145SAPE   H5X15994   1.933   4.514   9.617  0.8392  2.9712  2.6733
  145SAPE   H5Y15995   2.094   4.431   9.650 -0.8075 -1.1435  0.0277
  145SAPE   C3615996   2.059   4.486   9.439 -0.0114  0.0937 -0.2376
  145SAPE   H6X15997   2.167   4.475   9.416  0.0404  0.5667 -0.2210
  145SAPE   H6Y15998   2.027   4.583   9.395  1.4399  0.9630  0.5710
  145SAPE   C3715999   1.979   4.358   9.390 -0.3691 -0.4225 -0.4569
  145SAPE   H7X16000   1.879   4.362   9.437 -0.3265 -0.9591 -0.3115
  145SAPE   H7Y16001   2.026   4.264   9.427 -3.1974 -1.4739  0.7368
  145SAPE   C3816002   1.965   4.347   9.234 -0.7917  0.2323  0.8818
  145SAPE   H8X16003   1.916   4.443   9.208  1.1769  0.7280 -1.3626
  145SAPE   H8Y16004   1.906   4.257   9.205 -0.6793  0.4178  0.0547
  145SAPE   C3916005   2.110   4.346   9.162  0.1581 -0.2848  0.2430
  145SAPE   H9X16006   2.150   4.243   9.158  0.1154 -0.2742 -0.8927
  145SAPE   H9Y16007   2.182   4.415   9.212 -0.7234 -0.2762  1.5426
  145SAPE  C31016008   2.093   4.372   9.008  0.2152 -0.1276 -0.2024
  145SAPE  H10X16009   2.040   4.285   8.964  0.8901  0.5964 -2.5736
  145SAPE  H10Y16010   2.194   4.362   8.964  0.7630 -1.2782  1.2189
  145SAPE  C31116011   2.013   4.496   8.968  1.0678 -0.1431 -0.2417
  145SAPE  H11X16012   2.074   4.578   9.013  2.0191  0.3617 -2.3247
  145SAPE  H11Y16013   1.914   4.492   9.018 -0.4326 -0.5661 -3.0857
  145SAPE  C31216014   1.985   4.517   8.819 -0.2646 -1.4868  0.3096
  145SAPE  H12X16015   2.078   4.560   8.777 -2.5688  4.4267  0.2905
  145SAPE  H12Y16016   1.906   4.595   8.807  1.9458  0.6412 -1.5063
  145SAPE  C31316017   1.944   4.386   8.741 -0.4383 -0.3922  1.0546
  145SAPE  H13X16018   1.870   4.325   8.797 -0.3020 -0.3114  1.3291
  145SAPE  H13Y16019   2.031   4.317   8.729  1.8315  2.0461  2.2862
  145SAPE  C31416020   1.858   4.415   8.611 -0.5235  0.4162  0.0579
  145SAPE  H14X16021   1.772   4.481   8.637 -0.8322 -0.4396  1.3096
  145SAPE  H14Y16022   1.817   4.317   8.579 -1.7573  0.8867  0.1149
  145SAPE  C31516023   1.936   4.489   8.496 -0.1248  0.0920 -0.0377
  145SAPE  H15X16024   2.030   4.429   8.490  0.4815  0.6691  2.4370
  145SAPE  H15Y16025   1.950   4.597   8.519 -0.6945  0.3434 -0.8039
  145SAPE  C31616026   1.866   4.493   8.367  0.1053 -0.0883  0.4903
  145SAPE  H16X16027   1.783   4.564   8.385 -0.3810 -0.6924  0.6534
  145SAPE  H16Y16028   1.815   4.396   8.348  0.2658  0.0983 -1.0319
  145SAPE  C31716029   1.947   4.528   8.241  0.3490 -0.8075 -0.2717
  145SAPE  H17X16030   2.035   4.459   8.239  0.7585 -0.2960 -0.2612
  145SAPE  H17Y16031   1.983   4.633   8.242 -2.0052  0.0696 -1.5605
  145SAPE  C31816032   1.880   4.504   8.106  0.2820  0.5805  0.6757
  145SAPE  H18X16033   1.929   4.515   8.007  0.0373 -1.0073  0.3421
  145SAPE  H18Y16034   1.787   4.563   8.097 -1.8961 -2.5389  0.8433
  145SAPE  H18Z16035   1.831   4.404   8.099  2.2479 -0.3505 -0.7906
  146SAPE     N16036   2.290   5.553  10.880 -0.8036  0.1864 -0.8966
  146SAPE   HN116037   2.291   5.471  10.816  0.9880 -1.1841  0.7439
  146SAPE   HN216038   2.354   5.624  10.840  2.3200 -0.3883  2.4734
  146SAPE   HN316039   2.340   5.511  10.962 -0.8127  1.7352 -0.0548
  146SAPE   C1216040   2.148   5.589  10.922  0.6312 -0.2171  0.1804
  146SAPE  H12A16041   2.153   5.652  11.013 -3.0979  1.8092 -0.8219
  146SAPE  H12B16042   2.103   5.489  10.941  1.2879 -0.1426  2.4481
  146SAPE   C1116043   2.068   5.663  10.811  0.1136  0.2392  0.3192
  146SAPE  H11A16044   1.969   5.677  10.861  0.1819  3.3559 -0.2190
  146SAPE  H11B16045   2.053   5.613  10.713 -0.0346  1.7400 -0.4568
  146SAPE     P16046   2.058   5.933  10.808 -0.4549  0.4809 -0.1434
  146SAPE   O1316047   2.037   5.956  10.951  1.0487 -0.4512  0.1121
  146SAPE   O1416048   2.140   6.035  10.736 -0.7317 -0.3067  0.1831
  146SAPE   O1216049   2.136   5.792  10.788 -0.0079 -0.6469  0.5419
  146SAPE   O1116050   1.920   5.924  10.727 -0.2457  0.2827  0.5459
  146SAPE    C116051   1.906   5.865  10.595 -0.4948  0.5000  0.1417
  146SAPE    HA16052   1.934   5.758  10.593 -2.9656 -0.2437  1.4045
  146SAPE    HB16053   1.798   5.864  10.568 -0.7248  1.0980  0.9899
  146SAPE    C216054   1.978   5.947  10.482  0.2824 -0.2130  0.1767
  146SAPE    HS16055   2.087   5.930  10.499  0.8916  1.9126 -1.1695
  146SAPE   O2116056   1.943   6.084  10.501  0.3126  0.5278  0.2428
  146SAPE   C2116057   2.027   6.165  10.441  0.3141  0.0185  0.1565
  146SAPE   O2216058   2.120   6.137  10.368 -0.3110  0.0470 -0.5423
  146SAPE   C2216059   1.990   6.314  10.476 -0.2056 -0.3794  0.8680
  146SAPE   H2R16060   1.884   6.320  10.442  0.3152  0.1949 -0.7829
  146SAPE   H2S16061   2.010   6.311  10.585  2.2527 -1.9216  0.4545
  146SAPE    C316062   1.918   5.903  10.347 -0.5660  0.0276 -0.7636
  146SAPE    HX16063   1.959   5.968  10.267  1.0527 -1.9061 -1.5764
  146SAPE    HY16064   1.808   5.917  10.355 -0.4197  0.2965  1.0870
  146SAPE   O3116065   1.937   5.761  10.322  0.3771 -0.6073 -0.0354
  146SAPE   C3116066   2.042   5.738  10.255 -0.1013  0.2731  0.8838
  146SAPE   O3216067   2.140   5.804  10.229  0.1268 -0.2046 -0.5259
  146SAPE   C3216068   2.008   5.606  10.179  0.0396  0.2545  0.5870
  146SAPE   H2X16069   1.989   5.641  10.075 -1.0391 -0.5232  0.4939
  146SAPE   H2Y16070   1.911   5.565  10.215 -0.3303 -1.5115 -2.0983
  146SAPE   C2316071   2.071   6.424  10.403 -0.4893 -0.5143 -0.6532
  146SAPE   H3R16072   2.180   6.420  10.424 -0.6408 -2.8415 -0.0130
  146SAPE   H3S16073   2.042   6.517  10.456  0.9886 -1.8007  2.6845
  146SAPE   C2416074   2.039   6.440  10.256 -0.4939  0.0655 -0.1208
  146SAPE   H4R16075   2.065   6.341  10.214  0.5072 -0.8287  2.4024
  146SAPE   H4S16076   2.109   6.514  10.212 -1.2740 -0.4585 -2.3617
  146SAPE   C2516077   1.897   6.483  10.229  0.4411  0.5541 -0.5195
  146SAPE   H5R16078   1.865   6.573  10.284  1.0814  0.5898 -0.1979
  146SAPE   C2616079   1.824   6.428  10.130 -0.8090  0.1457  0.0338
  146SAPE   H6R16080   1.722   6.467  10.114 -0.8777 -0.6533 -1.6116
  146SAPE   C2716081   1.856   6.306  10.042 -0.3174  0.1652 -0.3991
  146SAPE   H7R16082   1.963   6.279  10.050 -0.5693 -2.0662 -3.0377
  146SAPE   H7S16083   1.833   6.332   9.936  0.7518  0.8823 -0.4687
  146SAPE   C2816084   1.775   6.190  10.095  0.2180 -0.0466 -0.2380
  146SAPE   H8R16085   1.709   6.212  10.180  1.4416  0.1466  0.6889
  146SAPE   C2916086   1.782   6.065  10.038  0.8397  0.1645 -0.3434
  146SAPE   H9R16087   1.719   5.983  10.074  1.2000 -0.0722 -0.2474
  146SAPE  C21016088   1.864   6.014   9.922  0.2970 -0.2044  0.4697
  146SAPE  H10R16089   1.878   6.098   9.850  1.9733 -0.1169  0.8577
  146SAPE  H10S16090   1.809   5.930   9.874  0.5163 -0.9085  1.4127
  146SAPE  C21116091   1.991   5.961   9.972  0.2906  0.1458  0.4297
  146SAPE  H11R16092   2.020   5.998  10.071 -0.6161  0.0134  0.7518
  146SAPE  C21216093   2.056   5.861   9.917  0.2166 -0.1686  1.0895
  146SAPE  H12R16094   2.153   5.825   9.953  1.8295  3.5983  0.8870
  146SAPE  C21316095   2.005   5.779   9.798  0.2386 -0.2164 -1.0324
  146SAPE  H13R16096   1.995   5.853   9.715  3.7256 -1.3070 -2.6423
  146SAPE  H13S16097   1.902   5.742   9.818  0.4057  0.7334  2.1352
  146SAPE  C21416098   2.095   5.672   9.746  0.1167  0.2520  0.0850
  146SAPE  H14R16099   2.194   5.672   9.792 -0.3236  0.6000  1.0504
  146SAPE  C21516100   2.059   5.567   9.661  0.2017 -0.4511  0.3859
  146SAPE  H15R16101   2.137   5.494   9.635  1.6009  0.1517  2.6686
  146SAPE  C21616102   1.922   5.545   9.590  0.0983  0.3943 -0.7223
  146SAPE  H16R16103   1.833   5.576   9.648 -0.7279 -0.2946 -1.5830
  146SAPE  H16S16104   1.908   5.438   9.566  3.0887  0.1345 -1.7612
  146SAPE  C21716105   1.926   5.638   9.463  0.0754  0.3230  0.6369
  146SAPE  H17R16106   2.032   5.641   9.427 -0.1288 -2.4177 -0.3969
  146SAPE  H17S16107   1.900   5.741   9.495  2.2798  1.1556 -0.0300
  146SAPE  C21816108   1.835   5.594   9.348  0.0728 -0.2632 -0.0048
  146SAPE  H18R16109   1.732   5.608   9.388  0.7010 -1.1561  2.0836
  146SAPE  H18S16110   1.857   5.487   9.326 -0.4332 -0.1971 -0.8721
  146SAPE  C21916111   1.854   5.681   9.221  0.5576  0.6798 -1.0070
  146SAPE  H19R16112   1.961   5.670   9.191  0.3654 -1.9422 -0.9653
  146SAPE  H19S16113   1.821   5.784   9.245  0.0193  0.5225 -1.0660
  146SAPE  C22016114   1.777   5.647   9.094  0.2325 -0.0392 -0.3913
  146SAPE  H20R16115   1.781   5.735   9.026  0.9936  0.8691  0.7792
  146SAPE  H20S16116   1.672   5.619   9.116  0.9786 -1.4425  1.7900
  146SAPE  H20T16117   1.830   5.564   9.043 -0.7055 -0.4555 -0.7027
  146SAPE   C3316118   2.126   5.507  10.167  0.1297  0.4780 -0.2099
  146SAPE   H3X16119   2.162   5.478  10.268  0.7281 -0.7223 -0.7420
  146SAPE   H3Y16120   2.214   5.553  10.117  1.9500 -0.7042  1.7736
  146SAPE   C3416121   2.083   5.369  10.114 -0.0780 -0.0487  1.1386
  146SAPE   H4X16122   2.002   5.331  10.179 -0.1526 -0.1915  0.9601
  146SAPE   H4Y16123   2.166   5.301  10.141 -2.1008 -2.7199  0.9927
  146SAPE   C3516124   2.039   5.368   9.963 -0.1280 -0.0120  0.3343
  146SAPE   H5X16125   2.106   5.436   9.907 -0.1454 -0.5442 -0.3408
  146SAPE   H5Y16126   1.935   5.401   9.948 -0.1433  0.3463  1.1519
  146SAPE   C3616127   2.048   5.228   9.912  0.1573 -0.1595  0.4295
  146SAPE   H6X16128   1.982   5.160   9.971 -1.2410  0.2926 -0.5666
  146SAPE   H6Y16129   2.147   5.183   9.888  0.0806 -0.5642  0.8370
  146SAPE   C3716130   1.975   5.228   9.775  0.5238 -0.3069 -0.1125
  146SAPE   H7X16131   2.037   5.298   9.715 -0.8493  0.8487 -0.2301
  146SAPE   H7Y16132   1.876   5.275   9.791  0.4363 -0.3644 -0.4800
  146SAPE   C3816133   1.973   5.087   9.707  0.1008 -0.8460  0.2050
  146SAPE   H8X16134   1.915   5.017   9.770  0.1466  0.1017  1.3371
  146SAPE   H8Y16135   2.078   5.051   9.715  0.0356 -0.8992  0.9205
  146SAPE   C3916136   1.926   5.095   9.563 -0.3775  0.0303 -0.0863
  146SAPE   H9X16137   1.967   5.188   9.517  0.0618 -0.5320 -0.8564
  146SAPE   H9Y16138   1.815   5.101   9.564 -0.3791  2.2247 -2.5020
  146SAPE  C31016139   1.964   4.978   9.470  0.3249  0.1730 -0.3430
  146SAPE  H10X16140   1.933   4.879   9.507 -0.6119  1.4040  2.3886
  146SAPE  H10Y16141   2.075   4.982   9.467  0.4203 -1.9156 -1.2249
  146SAPE  C31116142   1.905   5.017   9.335 -0.2239 -0.0555  0.0862
  146SAPE  H11X16143   1.918   5.126   9.319  0.8564  0.2401  2.4095
  146SAPE  H11Y16144   1.799   4.984   9.339 -1.1269  2.4785 -0.9085
  146SAPE  C31216145   1.966   4.934   9.220 -0.5413  0.1807  0.1453
  146SAPE  H12X16146   1.916   4.835   9.213 -0.1123 -0.0812  0.6719
  146SAPE  H12Y16147   2.074   4.909   9.232 -0.9082 -0.3948  3.0384
  146SAPE  C31316148   1.951   5.003   9.087  0.4767 -0.6583  0.8451
  146SAPE  H13X16149   2.016   5.093   9.086  0.6088 -0.7457  1.4037
  146SAPE  H13Y16150   1.843   5.029   9.079  0.0442 -2.5486  0.0196
  146SAPE  C31416151   1.997   4.908   8.976 -0.1830 -0.3881  0.0978
  146SAPE  H14X16152   1.952   4.808   8.995 -0.3666 -0.3812 -0.2941
  146SAPE  H14Y16153   2.108   4.903   8.978 -0.1767 -1.0274 -0.9626
  146SAPE  C31516154   1.963   4.950   8.826  0.0277 -0.2144  0.5200
  146SAPE  H15X16155   2.032   4.892   8.761 -1.7020  0.2731 -1.8716
  146SAPE  H15Y16156   1.971   5.060   8.811  1.8600 -0.2912  0.7001
  146SAPE  C31616157   1.813   4.919   8.793 -0.4576  0.0747  0.6371
  146SAPE  H16X16158   1.751   4.980   8.863  0.1462  3.1198 -1.3115
  146SAPE  H16Y16159   1.810   4.810   8.812  0.5309 -0.4221 -1.7160
  146SAPE  C31716160   1.773   4.938   8.645  0.1618  0.0365  0.2541
  146SAPE  H17X16161   1.825   4.861   8.584 -2.1672 -1.7284  0.3527
  146SAPE  H17Y16162   1.804   5.034   8.600 -3.5859  1.2734 -0.0789
  146SAPE  C31816163   1.618   4.924   8.620  0.3788 -0.1420 -0.6651
  146SAPE  H18X16164   1.597   4.918   8.511 -1.1858  0.6426 -0.4176
  146SAPE  H18Y16165   1.561   5.010   8.661  1.3226 -0.2911  1.0700
  146SAPE  H18Z16166   1.589   4.826   8.665 -0.0873  0.0992 -0.4365
  147SAPE     N16167   3.517   0.587  11.077 -0.0701  0.3669  1.0137
  147SAPE   HN116168   3.447   0.641  11.130 -3.2488  0.4180 -2.7636
  147SAPE   HN216169   3.521   0.487  11.108  1.1941 -0.4110 -1.3767
  147SAPE   HN316170   3.608   0.637  11.078 -0.7725  1.6865  1.0562
  147SAPE   C1216171   3.460   0.590  10.931 -0.0552 -1.2868 -0.3521
  147SAPE  H12A16172   3.362   0.539  10.935 -1.6424  1.4631 -1.3560
  147SAPE  H12B16173   3.535   0.539  10.867  0.6510  0.3608 -0.8850
  147SAPE   C1116174   3.443   0.742  10.884 -0.6743  0.0234 -0.8351
  147SAPE  H11A16175   3.380   0.793  10.960  0.5166  0.1697  0.0986
  147SAPE  H11B16176   3.398   0.759  10.785 -0.4750  0.2074 -0.8933
  147SAPE     P16177   3.682   0.765  10.774  0.2048  0.3340  0.0592
  147SAPE   O1316178   3.742   0.890  10.727  0.0672  0.6983 -1.0373
  147SAPE   O1416179   3.775   0.671  10.842 -0.2774 -0.2360 -0.3505
  147SAPE   O1216180   3.576   0.809  10.891 -0.3373  0.3167  0.1775
  147SAPE   O1116181   3.588   0.699  10.670  0.1475  0.5368  0.4879
  147SAPE    C116182   3.646   0.629  10.558 -0.0754  0.5676  0.4504
  147SAPE    HA16183   3.718   0.551  10.593 -0.9025 -0.2455  0.3937
  147SAPE    HB16184   3.564   0.575  10.506 -3.1357  3.9138  1.4226
  147SAPE    C216185   3.710   0.713  10.447 -0.7743 -0.3717  0.3792
  147SAPE    HS16186   3.799   0.770  10.481 -1.6028  0.9824  0.3588
  147SAPE   O2116187   3.619   0.815  10.413  0.2040  0.1067 -0.5230
  147SAPE   C2116188   3.666   0.941  10.387 -0.0390 -0.0313 -0.5438
  147SAPE   O2216189   3.785   0.976  10.392  0.4524  0.1319 -0.3172
  147SAPE   C2216190   3.553   1.045  10.390  0.7313 -0.3036 -0.2038
  147SAPE   H2R16191   3.466   0.991  10.346  0.9941 -1.1678  0.3021
  147SAPE   H2S16192   3.527   1.068  10.495  0.2241  0.3936 -0.4729
  147SAPE    C316193   3.744   0.614  10.324 -0.0429 -0.4316 -0.7338
  147SAPE    HX16194   3.648   0.570  10.289  0.3660 -0.8749 -1.3282
  147SAPE    HY16195   3.806   0.530  10.360  4.4509  3.6683  2.2363
  147SAPE   O3116196   3.815   0.680  10.212 -0.0064  0.0087  0.1302
  147SAPE   C3116197   3.948   0.677  10.219 -0.3864 -0.7378 -0.4364
  147SAPE   O3216198   4.010   0.631  10.315 -0.1535 -0.1565  0.0665
  147SAPE   C3216199   4.009   0.759  10.108 -0.8121 -0.3055  0.4401
  147SAPE   H2X16200   4.070   0.848  10.136 -1.0542  0.2452 -0.7312
  147SAPE   H2Y16201   3.935   0.776  10.027  0.5214 -1.4571 -1.0522
  147SAPE   C2316202   3.585   1.180  10.328 -0.4184  0.1760 -0.5921
  147SAPE   H3R16203   3.676   1.212  10.382 -1.2123 -0.4585  1.2168
  147SAPE   H3S16204   3.510   1.255  10.361  0.9156  0.5344  1.8872
  147SAPE   C2416205   3.595   1.181  10.173 -0.2419  0.0099 -0.5900
  147SAPE   H4R16206   3.686   1.121  10.151  0.5336  0.0479  2.0405
  147SAPE   H4S16207   3.611   1.289  10.153  0.4016  0.1273  0.4653
  147SAPE   C2516208   3.468   1.141  10.109  0.2180 -0.1737  0.2038
  147SAPE   H5R16209   3.385   1.212  10.116 -0.5103 -1.0990  1.3286
  147SAPE   C2616210   3.440   1.033  10.038  0.4741  0.0168  0.1348
  147SAPE   H6R16211   3.338   1.017  10.003  0.4059  3.4179 -1.6288
  147SAPE   C2716212   3.544   0.933  10.015  0.2506  0.6323  0.3213
  147SAPE   H7R16213   3.650   0.964  10.020  0.7851 -1.2013  1.6342
  147SAPE   H7S16214   3.546   0.919   9.905  1.1482 -0.6201  0.4695
  147SAPE   C2816215   3.516   0.796  10.082  0.0311 -0.8962 -0.1214
  147SAPE   H8R16216   3.500   0.812  10.190  1.6044 -0.9391  0.1337
  147SAPE   C2916217   3.506   0.676  10.036 -0.5315  0.9272 -0.2071
  147SAPE   H9R16218   3.475   0.601  10.109  1.8270  0.4739  0.4117
  147SAPE  C21016219   3.527   0.637   9.895  0.0351  0.4956  0.5701
  147SAPE  H10R16220   3.583   0.542   9.881  2.1217  1.8283 -0.7588
  147SAPE  H10S16221   3.598   0.704   9.842  0.8479 -0.7074  0.0839
  147SAPE  C21116222   3.385   0.633   9.844 -0.2568 -0.2344 -0.2566
  147SAPE  H11R16223   3.313   0.581   9.908  0.2494 -2.3487 -1.3278
  147SAPE  C21216224   3.331   0.683   9.729  0.2078 -0.3147  0.3915
  147SAPE  H12R16225   3.227   0.657   9.706 -0.2921  1.2053  0.7675
  147SAPE  C21316226   3.410   0.762   9.624  0.0918 -0.8304  0.4725
  147SAPE  H13R16227   3.462   0.849   9.669  3.5820 -2.5565  0.0596
  147SAPE  H13S16228   3.343   0.809   9.548  0.3698  0.4686  1.0134
  147SAPE  C21416229   3.527   0.688   9.560 -0.6836  0.3588 -0.2850
  147SAPE  H14R16230   3.623   0.705   9.612 -0.8857 -1.1694  0.6333
  147SAPE  C21516231   3.515   0.609   9.452 -0.4855 -0.7490 -0.0339
  147SAPE  H15R16232   3.604   0.573   9.398 -0.4791 -1.1443  0.2305
  147SAPE  C21616233   3.389   0.583   9.378  0.4692  0.1719  0.1679
  147SAPE  H16R16234   3.298   0.633   9.420 -0.0532 -1.3970  0.9683
  147SAPE  H16S16235   3.369   0.474   9.387  2.2411 -0.1935  0.0065
  147SAPE  C21716236   3.375   0.609   9.221  0.1371 -0.5263  0.0020
  147SAPE  H17R16237   3.389   0.719   9.213 -1.9288 -0.2110 -0.0311
  147SAPE  H17S16238   3.276   0.580   9.178 -1.3724 -0.0793  2.9441
  147SAPE  C21816239   3.489   0.542   9.133  0.6197 -0.2637 -0.3390
  147SAPE  H18R16240   3.487   0.431   9.138  3.1621 -0.4322 -1.2058
  147SAPE  H18S16241   3.586   0.577   9.174  0.3323  2.6741 -1.8329
  147SAPE  C21916242   3.478   0.602   8.994  0.1718  0.5854  0.5698
  147SAPE  H19R16243   3.498   0.710   9.003  2.7467  0.3887 -1.6207
  147SAPE  H19S16244   3.369   0.599   8.970  0.3377 -1.2997 -0.1058
  147SAPE  C22016245   3.567   0.542   8.889  0.7293 -0.4244  0.1519
  147SAPE  H20R16246   3.598   0.437   8.909  0.0227 -0.5523  0.6415
  147SAPE  H20S16247   3.664   0.593   8.874  0.8075 -1.2021 -2.3511
  147SAPE  H20T16248   3.522   0.541   8.787  1.0514  1.6749 -0.0597
  147SAPE   C3316249   4.105   0.660  10.028 -0.3144 -0.5123  0.4180
  147SAPE   H3X16250   4.188   0.622  10.091  0.5836  0.1578 -0.3254
  147SAPE   H3Y16251   4.148   0.715   9.941  0.7170 -1.3402  0.3822
  147SAPE   C3416252   4.039   0.528   9.974 -0.2478 -0.0843  0.2989
  147SAPE   H4X16253   3.987   0.485  10.062 -0.0620  0.4144  0.6580
  147SAPE   H4Y16254   4.121   0.460   9.943 -0.2427  0.1304 -0.1718
  147SAPE   C3516255   3.942   0.553   9.855  0.2779 -0.2807  1.1030
  147SAPE   H5X16256   4.007   0.598   9.776  1.5601 -0.5708  1.9665
  147SAPE   H5Y16257   3.856   0.621   9.873  1.3553  1.7518 -0.8479
  147SAPE   C3616258   3.909   0.414   9.798  0.2013  0.8051 -0.7166
  147SAPE   H6X16259   3.852   0.349   9.868  1.3548 -0.8198 -1.2093
  147SAPE   H6Y16260   4.000   0.350   9.800 -1.9284 -2.5349  2.6189
  147SAPE   C3716261   3.835   0.413   9.666 -0.0979 -0.2017  0.3022
  147SAPE   H7X16262   3.902   0.466   9.595 -1.9807 -0.6524 -1.9401
  147SAPE   H7Y16263   3.736   0.463   9.661  0.6541  1.2316 -1.5812
  147SAPE   C3816264   3.828   0.267   9.613 -0.7143 -0.1832  0.1432
  147SAPE   H8X16265   3.760   0.199   9.668  0.4824 -0.2465  1.5779
  147SAPE   H8Y16266   3.930   0.225   9.601 -1.5772 -2.2086 -0.6382
  147SAPE   C3916267   3.766   0.278   9.473  0.3079  0.2848 -0.6351
  147SAPE   H9X16268   3.834   0.349   9.421 -0.2449  0.1419 -1.5858
  147SAPE   H9Y16269   3.669   0.332   9.462 -0.1057 -0.8458 -3.9485
  147SAPE  C31016270   3.745   0.155   9.393  0.4803  0.2216  0.5826
  147SAPE  H10X16271   3.692   0.082   9.458 -0.7113  3.0322  3.0217
  147SAPE  H10Y16272   3.840   0.114   9.354  0.1273  0.9771 -1.1343
  147SAPE  C31116273   3.656   0.178   9.266  0.4904  0.5318  0.5240
  147SAPE  H11X16274   3.712   0.242   9.195 -0.3911  2.0321  1.1142
  147SAPE  H11Y16275   3.561   0.232   9.289  1.0947  1.1696  1.6495
  147SAPE  C31216276   3.622   0.046   9.206  0.5340 -0.4311  0.2344
  147SAPE  H12X16277   3.584  -0.022   9.285 -0.5026  1.3401  1.3279
  147SAPE  H12Y16278   3.716  -0.005   9.178  0.7163 -0.9460  1.7222
  147SAPE  C31316279   3.528   0.037   9.074 -0.8118 -1.3975 -0.2503
  147SAPE  H13X16280   3.496  -0.068   9.056 -1.0915 -1.3933  0.1963
  147SAPE  H13Y16281   3.575   0.086   8.986  0.0918  1.0644  1.4931
  147SAPE  C31416282   3.391   0.111   9.101  0.2195 -0.0501 -0.2887
  147SAPE  H14X16283   3.396   0.212   9.149  0.2757  0.1060 -0.6198
  147SAPE  H14Y16284   3.329   0.054   9.174  0.2790 -0.2838 -0.4220
  147SAPE  C31516285   3.303   0.124   8.974 -0.1592  0.6484  0.6663
  147SAPE  H15X16286   3.288   0.027   8.921 -0.4776  0.8000  0.4749
  147SAPE  H15Y16287   3.356   0.191   8.903  0.0598 -1.6401 -1.4897
  147SAPE  C31616288   3.166   0.192   9.003  0.3166 -0.0424  0.0475
  147SAPE  H16X16289   3.185   0.282   9.065  0.8683  0.0862 -0.2928
  147SAPE  H16Y16290   3.113   0.121   9.069 -0.1421 -2.2789 -2.5181
  147SAPE  C31716291   3.083   0.223   8.879  0.7474  0.0477  0.0370
  147SAPE  H17X16292   3.077   0.139   8.806 -0.3993  0.2112 -0.0705
  147SAPE  H17Y16293   3.137   0.302   8.822 -1.6541  1.5973 -0.2504
  147SAPE  C31816294   2.944   0.272   8.914 -0.9116  0.4346 -0.3035
  147SAPE  H18X16295   2.947   0.359   8.983 -0.7644 -1.2994  1.9889
  147SAPE  H18Y16296   2.887   0.199   8.975  0.9353 -0.4659  0.4060
  147SAPE  H18Z16297   2.881   0.302   8.827 -0.2667  3.0237  0.0532
  148SAPE     N16298   4.461   4.593  10.876  0.0062 -0.2449 -0.0306
  148SAPE   HN116299   4.547   4.648  10.896 -0.6648 -0.1100  2.9719
  148SAPE   HN216300   4.438   4.549  10.968  1.5640 -3.5289 -1.0801
  148SAPE   HN316301   4.478   4.517  10.808 -0.4449  0.7029 -1.2525
  148SAPE   C1216302   4.351   4.681  10.821 -0.6351 -0.0340  0.9334
  148SAPE  H12A16303   4.396   4.705  10.723 -2.1990  2.2239  0.6916
  148SAPE  H12B16304   4.342   4.776  10.878  0.4695  0.7816 -0.2103
  148SAPE   C1116305   4.233   4.592  10.798 -0.0411  0.2652 -0.2227
  148SAPE  H11A16306   4.146   4.655  10.771  0.5283  0.9534 -0.4737
  148SAPE  H11B16307   4.226   4.519  10.882  5.2717 -0.3467  0.0192
  148SAPE     P16308   4.155   4.438  10.592 -0.4254 -0.3177 -0.0440
  148SAPE   O1316309   4.167   4.289  10.601 -0.4988 -0.1476  0.0866
  148SAPE   O1416310   4.025   4.501  10.613 -0.1798  0.6511  0.4184
  148SAPE   O1216311   4.259   4.505  10.692  0.0052 -0.1187  0.1493
  148SAPE   O1116312   4.209   4.472  10.458  0.3099  0.6467 -0.4643
  148SAPE    C116313   4.334   4.549  10.432 -0.4112  0.6952 -0.4319
  148SAPE    HA16314   4.309   4.654  10.405  1.1999  0.9818 -0.8957
  148SAPE    HB16315   4.396   4.560  10.523 -0.7486  0.8592 -0.2194
  148SAPE    C216316   4.416   4.482  10.317 -0.1714  0.1940  0.1833
  148SAPE    HS16317   4.508   4.544  10.317 -0.6416  1.1094  3.6721
  148SAPE   O2116318   4.337   4.488  10.192 -0.3090  0.1671  0.4990
  148SAPE   C2116319   4.327   4.607  10.137 -0.4817 -0.9833 -0.1721
  148SAPE   O2216320   4.380   4.713  10.177 -0.2662  0.2112 -0.3389
  148SAPE   C2216321   4.252   4.581  10.005 -0.5351 -0.0642  0.1659
  148SAPE   H2R16322   4.249   4.473   9.983  0.7713 -0.1794  0.4676
  148SAPE   H2S16323   4.148   4.618  10.019 -0.9968 -0.1150 -2.5403
  148SAPE    C316324   4.470   4.347  10.363 -0.1234 -0.5339 -0.1283
  148SAPE    HX16325   4.392   4.279  10.403 -1.3295  0.3123 -0.9691
  148SAPE    HY16326   4.533   4.367  10.452  2.9065 -1.6517 -1.8295
  148SAPE   O3116327   4.564   4.286  10.267  0.6424 -0.2626  0.6145
  148SAPE   C3116328   4.506   4.185  10.209  0.6843  0.2657  0.8102
  148SAPE   O3216329   4.398   4.125  10.232 -0.2965 -0.4363 -0.3777
  148SAPE   C3216330   4.602   4.136  10.103  0.3805  0.1073  0.4384
  148SAPE   H2X16331   4.659   4.057  10.156 -2.1130 -0.0728  3.1222
  148SAPE   H2Y16332   4.673   4.214  10.069 -0.6552  1.1148  0.5498
  148SAPE   C2316333   4.318   4.661   9.896  0.3083 -1.2023  0.1135
  148SAPE   H3R16334   4.417   4.619   9.865  0.0630 -2.7383  1.2962
  148SAPE   H3S16335   4.326   4.764   9.937 -0.1691 -1.2182  0.2465
  148SAPE   C2416336   4.235   4.677   9.765 -0.5086  1.0282  0.6051
  148SAPE   H4R16337   4.270   4.761   9.702 -1.7269  1.0092 -0.1476
  148SAPE   H4S16338   4.135   4.706   9.803 -1.3848 -1.8911  0.7958
  148SAPE   C2516339   4.212   4.539   9.689  0.5447 -0.1258 -0.4527
  148SAPE   H5R16340   4.198   4.454   9.757 -2.8269 -0.3584 -1.2951
  148SAPE   C2616341   4.197   4.522   9.555 -0.0742 -0.0778  0.1366
  148SAPE   H6R16342   4.185   4.422   9.511 -1.8540 -0.3666  1.1538
  148SAPE   C2716343   4.195   4.638   9.456  0.6082 -0.5760  0.1912
  148SAPE   H7R16344   4.269   4.715   9.485 -0.4168  0.9949 -1.1782
  148SAPE   H7S16345   4.101   4.697   9.445 -0.6949 -2.5522  0.0429
  148SAPE   C2816346   4.221   4.589   9.316  0.3684 -0.0028  0.1912
  148SAPE   H8R16347   4.147   4.525   9.266  1.6223 -0.2042 -1.4848
  148SAPE   C2916348   4.325   4.618   9.239  0.3361  0.0343  0.7382
  148SAPE   H9R16349   4.335   4.561   9.146  0.0366 -0.0547  0.7589
  148SAPE  C21016350   4.442   4.709   9.274  1.2372  0.0671 -0.6626
  148SAPE  H10R16351   4.534   4.691   9.214 -0.3245 -1.4085 -2.7878
  148SAPE  H10S16352   4.457   4.681   9.380 -2.0040 -0.6252 -0.2699
  148SAPE  C21116353   4.421   4.858   9.268  0.3416 -0.4812 -0.1293
  148SAPE  H11R16354   4.467   4.922   9.345  0.6994  2.7551 -2.8002
  148SAPE  C21216355   4.374   4.931   9.174  0.2042 -0.2001  0.7475
  148SAPE  H12R16356   4.381   5.038   9.200  0.3143 -0.2048  0.7397
  148SAPE  C21316357   4.327   4.888   9.037 -0.2061 -0.1808  0.0878
  148SAPE  H13R16358   4.217   4.905   9.031 -0.2413 -0.6471 -0.9299
  148SAPE  H13S16359   4.334   4.777   9.028 -0.6799 -0.2865  0.9323
  148SAPE  C21416360   4.408   4.947   8.933  0.5500 -0.4344  0.0131
  148SAPE  H14R16361   4.492   5.010   8.965 -0.4361  2.4981 -2.6183
  148SAPE  C21516362   4.383   4.923   8.799  0.7907  1.0046  0.0274
  148SAPE  H15R16363   4.446   4.968   8.721 -0.0013  1.5368 -0.3132
  148SAPE  C21616364   4.266   4.850   8.738 -0.2192  0.8019  0.0116
  148SAPE  H16R16365   4.217   4.916   8.663  1.3489  2.2324  0.1751
  148SAPE  H16S16366   4.195   4.817   8.817 -0.7094 -0.7401 -1.0240
  148SAPE  C21716367   4.311   4.727   8.660 -0.9029  0.7814  0.1970
  148SAPE  H17R16368   4.375   4.765   8.578 -1.0528 -0.4402 -0.5101
  148SAPE  H17S16369   4.223   4.687   8.605 -0.4358 -1.4857  0.9992
  148SAPE  C21816370   4.375   4.614   8.743  0.4206  1.1771 -0.3617
  148SAPE  H18R16371   4.469   4.653   8.786 -0.8987  1.9325  2.0716
  148SAPE  H18S16372   4.401   4.525   8.683 -2.4368 -0.0112 -0.0004
  148SAPE  C21916373   4.279   4.554   8.850 -0.0025  0.6698  0.6613
  148SAPE  H19R16374   4.236   4.634   8.914 -2.8051  1.7810 -2.3633
  148SAPE  H19S16375   4.347   4.493   8.914  1.1387  2.0642  0.8399
  148SAPE  C22016376   4.155   4.479   8.795 -0.1003  0.4644 -0.1187
  148SAPE  H20R16377   4.103   4.549   8.726  3.3414  0.1704 -3.3334
  148SAPE  H20S16378   4.085   4.464   8.879  0.2625 -0.5448  0.0224
  148SAPE  H20T16379   4.182   4.380   8.750 -1.6485  0.1828 -0.4803
  148SAPE   C3316380   4.546   4.070   9.974 -0.4616  0.0035  0.3122
  148SAPE   H3X16381   4.450   4.019   9.996 -1.1760  0.8717 -0.6439
  148SAPE   H3Y16382   4.623   3.994   9.946 -1.5505 -0.5781 -1.2534
  148SAPE   C3416383   4.535   4.157   9.846  0.1341  0.4201  0.3065
  148SAPE   H4X16384   4.628   4.217   9.836 -0.0191  0.6177  0.0759
  148SAPE   H4Y16385   4.459   4.234   9.870  0.4235  0.0571  2.6444
  148SAPE   C3516386   4.494   4.089   9.711  1.1295 -0.8266 -0.4954
  148SAPE   H5X16387   4.399   4.032   9.717  0.1498  0.6568 -1.3308
  148SAPE   H5Y16388   4.573   4.014   9.685  1.9374  0.2193 -1.1287
  148SAPE   C3616389   4.494   4.184   9.591 -1.1180  0.0234 -0.1643
  148SAPE   H6X16390   4.585   4.246   9.583 -2.8742  2.7762 -0.0791
  148SAPE   H6Y16391   4.411   4.257   9.602 -1.9518 -1.0135  0.7957
  148SAPE   C3716392   4.486   4.103   9.459 -0.7178  0.8221 -0.2269
  148SAPE   H7X16393   4.407   4.027   9.480 -0.1575 -0.2449 -1.7852
  148SAPE   H7Y16394   4.579   4.044   9.449 -0.5985  1.1081 -0.8249
  148SAPE   C3816395   4.458   4.180   9.331 -0.2709 -0.1073  0.4152
  148SAPE   H8X16396   4.507   4.279   9.326 -0.2944 -0.0800  0.7119
  148SAPE   H8Y16397   4.350   4.203   9.319 -0.2847 -0.7359 -0.8738
  148SAPE   C3916398   4.499   4.093   9.208  0.0772 -0.1644 -0.0538
  148SAPE   H9X16399   4.477   3.988   9.238  3.4860 -0.0492  3.7309
  148SAPE   H9Y16400   4.607   4.097   9.180 -0.3949  1.9850 -1.8263
  148SAPE  C31016401   4.406   4.120   9.086 -0.6828  0.3108  0.6143
  148SAPE  H10X16402   4.414   4.229   9.067  2.8799  0.3534  1.7849
  148SAPE  H10Y16403   4.300   4.092   9.106 -0.9292  0.0560 -0.9324
  148SAPE  C31116404   4.459   4.049   8.961  0.5576 -0.0344  0.6518
  148SAPE  H11X16405   4.568   4.038   8.980  0.3757 -0.0654  1.7416
  148SAPE  H11Y16406   4.444   4.125   8.880 -0.6727 -0.8416  0.0909
  148SAPE  C31216407   4.401   3.912   8.927  0.2426  0.1011 -0.0086
  148SAPE  H12X16408   4.291   3.915   8.909  0.4443 -0.2297 -1.3873
  148SAPE  H12Y16409   4.426   3.846   9.013 -0.3013  3.3791  2.8862
  148SAPE  C31316410   4.467   3.845   8.807  0.0027  0.3414  0.9162
  148SAPE  H13X16411   4.398   3.759   8.795  0.6287 -0.2008  1.1991
  148SAPE  H13Y16412   4.570   3.818   8.837 -0.6705 -1.7648  1.5282
  148SAPE  C31416413   4.469   3.931   8.684 -0.4531 -0.2218  0.4135
  148SAPE  H14X16414   4.515   3.882   8.596 -4.3852 -1.8685 -0.9589
  148SAPE  H14Y16415   4.527   4.021   8.712 -0.8543  0.7893 -1.7677
  148SAPE  C31516416   4.334   3.982   8.636  0.0006  0.3566 -0.3283
  148SAPE  H15X16417   4.281   4.024   8.724 -0.2263 -0.3558 -0.1196
  148SAPE  H15Y16418   4.269   3.903   8.591 -0.8015  0.1683  1.1092
  148SAPE  C31616419   4.354   4.086   8.529 -0.1600  0.0813 -0.9383
  148SAPE  H16X16420   4.422   4.163   8.572  0.9417 -1.6859  0.5767
  148SAPE  H16Y16421   4.258   4.139   8.507 -0.6418 -0.3222  0.1291
  148SAPE  C31716422   4.402   4.032   8.387  1.4509 -0.1209 -0.3247
  148SAPE  H17X16423   4.495   3.972   8.398  2.4605  1.0855 -1.9246
  148SAPE  H17Y16424   4.427   4.122   8.327  0.4948 -0.3037 -1.0312
  148SAPE  C31816425   4.299   3.948   8.318  0.0025 -0.9382  0.8067
  148SAPE  H18X16426   4.193   3.982   8.320  0.2930 -0.0416  2.2535
  148SAPE  H18Y16427   4.293   3.847   8.362  1.2717 -1.2983  0.2210
  148SAPE  H18Z16428   4.331   3.915   8.216 -4.1867 -0.1382 -0.9754
  149SAPE     N16429   0.005   5.217  11.148  0.8169  0.1862  0.1659
  149SAPE   HN116430   0.066   5.205  11.231  1.3394  2.6197  0.2052
  149SAPE   HN216431  -0.040   5.310  11.164  1.5390  0.3121  1.6532
  149SAPE   HN316432  -0.074   5.150  11.160  0.7659  0.3125  0.5486
  149SAPE   C1216433   0.080   5.216  11.015  0.4760  0.4646  0.2887
  149SAPE  H12A16434   0.157   5.296  11.010  0.6550  0.3823  1.4651
  149SAPE  H12B16435   0.003   5.252  10.943  1.5149  0.3057 -0.9407
  149SAPE   C1116436   0.152   5.081  10.983  0.0513 -0.1882 -0.0137
  149SAPE  H11A16437   0.189   5.073  10.879  1.7048 -0.2403  0.5618
  149SAPE  H11B16438   0.074   5.003  10.997  1.6954 -1.6344  1.5867
  149SAPE     P16439   0.402   5.055  11.038  0.4227 -0.2985 -0.1712
  149SAPE   O1316440   0.433   5.199  11.045  0.4728  0.6328  0.7983
  149SAPE   O1416441   0.475   4.962  11.136  0.8102 -0.4730  0.1310
  149SAPE   O1216442   0.248   5.037  11.081  0.1448 -0.5012 -0.4035
  149SAPE   O1116443   0.421   5.010  10.884 -0.0308  0.0065 -0.5114
  149SAPE    C116444   0.480   5.104  10.795  0.4623 -0.0978  0.1580
  149SAPE    HA16445   0.414   5.193  10.782 -1.4899 -1.6984 -1.7678
  149SAPE    HB16446   0.576   5.147  10.831  0.2614  0.1491  0.4062
  149SAPE    C216447   0.514   5.049  10.662  0.2686 -0.4164  0.9586
  149SAPE    HS16448   0.557   5.133  10.604 -0.5822  0.3881  1.4711
  149SAPE   O2116449   0.394   4.998  10.597  0.9166  0.3073  0.2216
  149SAPE   C2116450   0.316   5.090  10.542  0.4253 -0.1104  0.3903
  149SAPE   O2216451   0.339   5.208  10.527  0.1540 -0.0778 -0.2842
  149SAPE   C2216452   0.181   5.019  10.507 -0.0257 -0.3982 -0.0464
  149SAPE   H2R16453   0.144   4.968  10.598  1.0028 -1.6548 -0.3083
  149SAPE   H2S16454   0.112   5.098  10.470 -1.2633 -0.4022  2.0941
  149SAPE    C316455   0.606   4.936  10.671  0.4036 -0.2946 -0.3262
  149SAPE    HX16456   0.570   4.865  10.749 -0.7123  1.1858  0.5498
  149SAPE    HY16457   0.705   4.970  10.708  0.4734  0.6054 -1.3063
  149SAPE   O3116458   0.640   4.876  10.542 -0.1951  0.0295 -0.2590
  149SAPE   C3116459   0.604   4.750  10.526  0.1400 -0.1138  0.3555
  149SAPE   O3216460   0.535   4.687  10.605 -0.5088 -0.2680  0.3061
  149SAPE   C3216461   0.628   4.704  10.386  0.3612  0.0473 -0.0259
  149SAPE   H2X16462   0.567   4.613  10.364 -0.0099  0.5940 -1.3835
  149SAPE   H2Y16463   0.732   4.673  10.365 -0.5304 -1.4946 -2.8024
  149SAPE   C2316464   0.190   4.917  10.392 -0.5377 -0.0910  0.0903
  149SAPE   H3R16465   0.230   4.820  10.427  0.3517 -0.3353 -1.4898
  149SAPE   H3S16466   0.268   4.950  10.320 -1.8405  0.8749 -0.9392
  149SAPE   C2416467   0.067   4.898  10.305 -0.5296  0.5993  0.2987
  149SAPE   H4R16468   0.060   4.981  10.231  0.7222 -0.3046 -0.8584
  149SAPE   H4S16469  -0.025   4.920  10.364 -0.5531  0.5865  0.2671
  149SAPE   C2516470   0.059   4.769  10.234 -0.2661 -0.4536  0.3659
  149SAPE   H5R16471  -0.000   4.694  10.289 -1.6042 -0.6557 -1.2601
  149SAPE   C2616472   0.103   4.740  10.107  0.1941 -0.0361  0.1846
  149SAPE   H6R16473   0.100   4.635  10.073 -1.6420 -0.4375  1.4273
  149SAPE   C2716474   0.176   4.829  10.003 -0.1417  0.3900 -0.2902
  149SAPE   H7R16475   0.240   4.772   9.933  1.6750  0.9667  0.8360
  149SAPE   H7S16476   0.244   4.894  10.062  2.2981 -2.0291 -0.2473
  149SAPE   C2816477   0.084   4.911   9.925  0.2502 -0.1040 -0.2153
  149SAPE   H8R16478   0.034   4.994   9.977 -2.1432  0.1922 -2.7442
  149SAPE   C2916479   0.045   4.877   9.803  0.1827  0.2658 -0.3637
  149SAPE   H9R16480  -0.021   4.948   9.751 -0.7519 -0.5380 -0.3011
  149SAPE  C21016481   0.082   4.762   9.715  0.2313 -0.5397  0.2817
  149SAPE  H10R16482   0.000   4.738   9.644  0.9026 -0.6518 -0.4602
  149SAPE  H10S16483   0.095   4.670   9.776 -0.5719 -1.1091 -0.3836
  149SAPE  C21116484   0.209   4.788   9.633  0.4468  0.2892 -0.2437
  149SAPE  H11R16485   0.306   4.765   9.680  1.5566  3.5662 -0.6582
  149SAPE  C21216486   0.208   4.840   9.506  0.7183 -0.2191 -0.0314
  149SAPE  H12R16487   0.304   4.864   9.457  0.6675  1.7373  0.7175
  149SAPE  C21316488   0.089   4.873   9.422 -0.1021 -0.3942 -0.0375
  149SAPE  H13R16489   0.010   4.917   9.485  0.2361  1.9579 -1.1573
  149SAPE  H13S16490   0.043   4.779   9.383  0.2870 -0.8830  0.6531
  149SAPE  C21416491   0.119   4.957   9.302 -0.3872 -0.5345 -0.1786
  149SAPE  H14R16492   0.102   5.063   9.325  0.7837 -0.8605  2.5895
  149SAPE  C21516493   0.148   4.903   9.182  0.0838 -0.1010 -0.1345
  149SAPE  H15R16494   0.161   4.962   9.090  0.7626  1.4226  0.8982
  149SAPE  C21616495   0.150   4.753   9.153  0.0695 -0.0544  0.4837
  149SAPE  H16R16496   0.055   4.698   9.135  1.0495 -1.6438 -0.0556
  149SAPE  H16S16497   0.175   4.695   9.244 -0.9071  0.8512  1.3713
  149SAPE  C21716498   0.258   4.726   9.042 -0.3393  0.0367 -0.3303
  149SAPE  H17R16499   0.356   4.761   9.078 -1.1936  2.3509 -0.0696
  149SAPE  H17S16500   0.237   4.793   8.956 -2.6132 -1.4273 -1.0397
  149SAPE  C21816501   0.267   4.578   8.997  0.3091  0.0522  0.1640
  149SAPE  H18R16502   0.183   4.539   8.936  0.9773 -0.5671 -0.3770
  149SAPE  H18S16503   0.256   4.523   9.093 -0.0271  3.0113  1.9596
  149SAPE  C21916504   0.398   4.539   8.921  0.6132 -0.7597  0.0213
  149SAPE  H19R16505   0.392   4.428   8.911  0.6706 -0.5647 -3.4200
  149SAPE  H19S16506   0.489   4.584   8.966  2.0523 -1.0119 -2.4519
  149SAPE  C22016507   0.391   4.574   8.764  0.3459  0.5930 -0.8598
  149SAPE  H20R16508   0.361   4.681   8.754 -0.4923  0.4043 -0.3700
  149SAPE  H20S16509   0.314   4.509   8.719  1.4893 -2.9521  1.8526
  149SAPE  H20T16510   0.487   4.571   8.708 -0.8490  0.8347 -3.0176
  149SAPE   C3316511   0.582   4.799  10.272  0.2112 -0.1430  0.2661
  149SAPE   H3X16512   0.647   4.889  10.270 -2.2409  1.7153 -0.0253
  149SAPE   H3Y16513   0.479   4.834  10.291  0.6995  2.9584 -2.0398
  149SAPE   C3416514   0.586   4.742  10.131  0.4343  0.2680  0.1439
  149SAPE   H4X16515   0.525   4.652  10.105  1.9468 -0.8296  0.2472
  149SAPE   H4Y16516   0.691   4.708  10.115 -0.1225 -0.8038 -1.4934
  149SAPE   C3516517   0.545   4.852  10.029  0.5439 -0.0173  0.0520
  149SAPE   H5X16518   0.554   4.954  10.074  0.6970  0.3931 -0.8942
  149SAPE   H5Y16519   0.436   4.832  10.015  0.9379 -1.6216 -0.9844
  149SAPE   C3616520   0.627   4.847   9.898  0.2180 -0.3821  1.1199
  149SAPE   H6X16521   0.730   4.874   9.930  1.3519 -0.2818 -2.2186
  149SAPE   H6Y16522   0.586   4.919   9.823 -1.0857  1.0085  3.0728
  149SAPE   C3716523   0.648   4.714   9.822  0.0789 -0.9402 -0.1549
  149SAPE   H7X16524   0.548   4.693   9.780  0.1361 -1.0924 -0.2160
  149SAPE   H7Y16525   0.668   4.633   9.895 -0.1713 -2.4974 -1.7366
  149SAPE   C3816526   0.746   4.713   9.708 -0.4856  0.4018 -0.2750
  149SAPE   H8X16527   0.755   4.610   9.666 -0.6012  0.9104 -1.5758
  149SAPE   H8Y16528   0.843   4.745   9.752 -0.2268  1.4858 -1.5989
  149SAPE   C3916529   0.717   4.796   9.585  0.2047 -0.1558 -0.0619
  149SAPE   H9X16530   0.791   4.804   9.502 -1.9885 -1.9780 -2.3538
  149SAPE   H9Y16531   0.690   4.902   9.605 -2.4813 -0.6854 -0.5677
  149SAPE  C31016532   0.579   4.762   9.524 -0.2567  0.2352  0.4955
  149SAPE  H10X16533   0.569   4.827   9.435  0.6091  0.8539  0.8442
  149SAPE  H10Y16534   0.498   4.803   9.588 -0.4874  0.1366  0.2718
  149SAPE  C31116535   0.572   4.619   9.477  0.7423 -0.0287  0.1868
  149SAPE  H11X16536   0.543   4.558   9.566  2.0068 -1.5292 -0.3975
  149SAPE  H11Y16537   0.673   4.585   9.446  0.6685 -2.1227  1.9838
  149SAPE  C31216538   0.476   4.591   9.355  0.2295  0.1896 -0.2461
  149SAPE  H12X16539   0.518   4.653   9.272  0.5233  1.1844  0.6206
  149SAPE  H12Y16540   0.370   4.604   9.383  0.6689 -1.0771  2.3259
  149SAPE  C31316541   0.476   4.441   9.308 -0.1750 -1.0534 -0.5780
  149SAPE  H13X16542   0.389   4.437   9.239 -1.7090  1.6357  1.0296
  149SAPE  H13Y16543   0.454   4.371   9.391  1.3743  0.2120  1.0002
  149SAPE  C31416544   0.609   4.400   9.243 -0.1794 -0.3127  0.1388
  149SAPE  H14X16545   0.702   4.411   9.302 -0.1690 -2.2503  0.5624
  149SAPE  H14Y16546   0.627   4.466   9.156  1.3393  0.6386  1.1343
  149SAPE  C31516547   0.624   4.253   9.188  0.7528  0.4213 -0.8838
  149SAPE  H15X16548   0.527   4.235   9.138  0.5631 -2.5156  0.3861
  149SAPE  H15Y16549   0.627   4.183   9.274 -4.0153 -0.4478 -1.1456
  149SAPE  C31616550   0.720   4.224   9.071 -0.7391  0.2907 -0.1929
  149SAPE  H16X16551   0.814   4.274   9.105 -0.7507  1.0691 -1.2603
  149SAPE  H16Y16552   0.690   4.277   8.978  1.3042  0.8213 -0.5916
  149SAPE  C31716553   0.743   4.074   9.039  0.4340  0.1267  0.5817
  149SAPE  H17X16554   0.641   4.029   9.031  0.6026 -0.2748  0.6591
  149SAPE  H17Y16555   0.788   4.032   9.131  0.4306 -0.8507  0.1532
  149SAPE  C31816556   0.834   4.038   8.913  0.5705  0.5544  0.2204
  149SAPE  H18X16557   0.786   4.076   8.821 -0.3237  0.6992  0.7375
  149SAPE  H18Y16558   0.858   3.930   8.904 -0.2131  0.4278 -0.4851
  149SAPE  H18Z16559   0.927   4.095   8.934  0.0563  1.4580  0.1212
  150SAPE     N16560   0.265   3.462  11.122 -0.2898 -0.3180 -0.4332
  150SAPE   HN116561   0.282   3.482  11.222  2.7470 -0.3866 -0.8499
  150SAPE   HN216562   0.355   3.431  11.080  0.6678  0.2068  1.1324
  150SAPE   HN316563   0.252   3.555  11.078  3.3708  0.9260  0.7772
  150SAPE   C1216564   0.161   3.361  11.087  0.1681  0.9735  0.1350
  150SAPE  H12A16565   0.063   3.412  11.102 -0.9206  0.0904 -3.1515
  150SAPE  H12B16566   0.168   3.266  11.145 -1.3370 -0.7506 -2.3145
  150SAPE   C1116567   0.182   3.319  10.939  0.6929 -0.4268 -0.7143
  150SAPE  H11A16568   0.182   3.415  10.882  0.6173  0.7324  1.1761
  150SAPE  H11B16569   0.096   3.258  10.903 -0.1925 -1.5787  2.9645
  150SAPE     P16570   0.435   3.292  10.872 -0.8532  0.1016  0.4476
  150SAPE   O1316571   0.476   3.405  10.960  0.9103 -0.1537 -0.0941
  150SAPE   O1416572   0.528   3.174  10.851 -0.0779 -1.0066 -0.3289
  150SAPE   O1216573   0.297   3.238  10.920 -1.0848 -0.2389 -0.2598
  150SAPE   O1116574   0.399   3.349  10.724 -0.5820  0.3216 -0.5054
  150SAPE    C116575   0.348   3.269  10.625  0.8594  0.3561  0.2852
  150SAPE    HA16576   0.295   3.184  10.672  3.0728 -1.0902  0.3404
  150SAPE    HB16577   0.277   3.317  10.554  0.4696 -0.0891  0.3726
  150SAPE    C216578   0.470   3.224  10.535  0.1376 -0.3262  0.9802
  150SAPE    HS16579   0.558   3.207  10.601  2.1146  2.1131 -0.8650
  150SAPE   O2116580   0.493   3.326  10.445  0.1005 -0.1987  0.0401
  150SAPE   C2116581   0.614   3.345  10.403 -0.3078  0.4234  1.1461
  150SAPE   O2216582   0.707   3.280  10.448 -0.3782  0.0304  0.0285
  150SAPE   C2216583   0.623   3.438  10.282 -0.8797 -0.5162  0.0971
  150SAPE   H2R16584   0.578   3.382  10.197 -0.3495  0.2171 -0.6772
  150SAPE   H2S16585   0.559   3.528  10.290 -0.6525 -0.1344 -1.8315
  150SAPE    C316586   0.447   3.090  10.451  0.0935 -0.0145  0.1109
  150SAPE    HX16587   0.358   3.116  10.389  0.3854  1.2719  0.1957
  150SAPE    HY16588   0.412   3.005  10.513 -1.2680  0.4253 -0.0122
  150SAPE   O3116589   0.553   3.061  10.362  0.4292 -0.3205 -0.0384
  150SAPE   C3116590   0.643   2.974  10.405  0.6272 -0.1023 -0.6391
  150SAPE   O3216591   0.647   2.930  10.518 -0.0079  0.0979  0.6546
  150SAPE   C3216592   0.739   2.943  10.293  0.1999 -0.0534 -0.0697
  150SAPE   H2X16593   0.787   2.847  10.322  0.3190  0.1546  0.4357
  150SAPE   H2Y16594   0.807   3.031  10.290 -0.8523  0.7992  0.4747
  150SAPE   C2316595   0.767   3.481  10.249 -0.0403  0.4092 -0.2102
  150SAPE   H3R16596   0.828   3.389  10.255 -0.1116  0.3791  0.1054
  150SAPE   H3S16597   0.805   3.556  10.322  1.8269 -0.2281 -0.4744
  150SAPE   C2416598   0.769   3.548  10.113 -0.2261 -0.0986 -0.4436
  150SAPE   H4R16599   0.857   3.615  10.116 -0.1072 -0.1468  3.6461
  150SAPE   H4S16600   0.684   3.620  10.111  0.3820  0.6643  0.4081
  150SAPE   C2516601   0.778   3.456   9.993  0.1824  0.4257 -0.4111
  150SAPE   H5R16602   0.708   3.372   9.979 -1.9082  2.2710 -1.6596
  150SAPE   C2616603   0.883   3.446   9.907  0.8701  0.2107 -0.8329
  150SAPE   H6R16604   0.881   3.370   9.828  2.4363  0.1166 -0.8152
  150SAPE   C2716605   0.998   3.539   9.902 -0.0621 -0.7636  0.2309
  150SAPE   H7R16606   1.064   3.512   9.988  0.6847  2.3090  0.7285
  150SAPE   H7S16607   0.957   3.639   9.927 -1.6252 -1.1591 -0.6003
  150SAPE   C2816608   1.082   3.557   9.775  0.1408  0.9521 -0.0833
  150SAPE   H8R16609   1.188   3.530   9.790 -0.4840 -0.9822  1.2628
  150SAPE   C2916610   1.044   3.611   9.660  0.6163  0.6724  0.7359
  150SAPE   H9R16611   1.121   3.615   9.581  2.2310  1.3312  2.2621
  150SAPE  C21016612   0.914   3.677   9.623 -0.1630 -0.5649 -0.3735
  150SAPE  H10R16613   0.864   3.714   9.715  0.6206 -2.1718  0.7512
  150SAPE  H10S16614   0.850   3.601   9.574 -0.3809  0.3378 -1.5470
  150SAPE  C21116615   0.927   3.793   9.529  0.1139 -0.3221 -0.5857
  150SAPE  H11R16616   0.949   3.887   9.582  1.2261 -0.0601 -1.4624
  150SAPE  C21216617   0.930   3.797   9.396  0.1108 -0.0249  0.7415
  150SAPE  H12R16618   0.939   3.890   9.339 -2.0714  0.5402  1.2159
  150SAPE  C21316619   0.913   3.668   9.316 -0.2309  0.7741  0.5142
  150SAPE  H13R16620   0.850   3.587   9.361  2.4114 -2.1963 -0.7738
  150SAPE  H13S16621   1.009   3.614   9.307 -0.9987 -0.6898  0.6626
  150SAPE  C21416622   0.856   3.690   9.181  0.0221 -1.3156 -0.3131
  150SAPE  H14R16623   0.822   3.793   9.157  0.4489 -1.4508 -1.6006
  150SAPE  C21516624   0.854   3.601   9.081  0.3936 -0.2630  0.0181
  150SAPE  H15R16625   0.816   3.646   8.988  0.0900  0.7330  0.6086
  150SAPE  C21616626   0.891   3.462   9.075  0.1592  0.0321 -0.2096
  150SAPE  H16R16627   0.941   3.431   9.169  0.3193 -0.1815 -0.3648
  150SAPE  H16S16628   0.967   3.441   8.997 -0.9037 -4.0786 -0.3462
  150SAPE  C21716629   0.774   3.365   9.046 -0.4729 -0.7512  0.0248
  150SAPE  H17R16630   0.749   3.351   8.938 -2.7582  0.8650  0.2630
  150SAPE  H17S16631   0.688   3.379   9.115 -0.8062 -1.3467 -0.2683
  150SAPE  C21816632   0.820   3.223   9.085 -0.0792 -0.1248  0.1069
  150SAPE  H18R16633   0.735   3.159   9.053  0.5037 -2.4383  2.7895
  150SAPE  H18S16634   0.818   3.213   9.195 -0.9465 -1.3940 -0.0023
  150SAPE  C21916635   0.951   3.170   9.027 -0.0342 -1.0738 -0.7392
  150SAPE  H19R16636   0.962   3.067   9.065  0.0746 -1.0743 -0.7712
  150SAPE  H19S16637   1.042   3.215   9.073  0.4448 -4.0712  1.5238
  150SAPE  C22016638   0.956   3.163   8.876  0.1258  0.1194 -0.4506
  150SAPE  H20R16639   0.893   3.080   8.838  0.5460 -0.6147  0.4128
  150SAPE  H20S16640   1.058   3.138   8.840  0.4956  1.5509 -0.4862
  150SAPE  H20T16641   0.925   3.258   8.827  1.2424  0.4760 -0.5125
  150SAPE   C3316642   0.681   2.905  10.154  0.3465  0.3869 -0.0840
  150SAPE   H3X16643   0.616   2.816  10.166  1.6636 -0.5946  0.0536
  150SAPE   H3Y16644   0.765   2.874  10.088  1.3190 -0.0002  1.3040
  150SAPE   C3416645   0.602   3.014  10.070 -0.3060  0.3688 -0.9385
  150SAPE   H4X16646   0.664   3.106  10.071 -1.4995  1.2072  0.6818
  150SAPE   H4Y16647   0.508   3.044  10.121 -1.1209 -1.9671 -0.9556
  150SAPE   C3516648   0.570   2.958   9.931 -0.5069 -0.8220  0.2352
  150SAPE   H5X16649   0.493   2.878   9.932 -2.0685  0.5377 -1.7848
  150SAPE   H5Y16650   0.664   2.908   9.899 -1.4461 -2.0504 -0.7196
  150SAPE   C3616651   0.523   3.064   9.826  0.3147  0.4000 -0.4008
  150SAPE   H6X16652   0.595   3.147   9.816 -0.2433  0.8197 -1.0717
  150SAPE   H6Y16653   0.426   3.107   9.858  0.3702  0.6256 -0.5291
  150SAPE   C3716654   0.526   2.995   9.681  0.3838 -0.1250 -0.2901
  150SAPE   H7X16655   0.569   2.893   9.678  0.1659 -0.1943 -1.6624
  150SAPE   H7Y16656   0.590   3.069   9.627  2.4933 -0.5696  1.4572
  150SAPE   C3816657   0.388   2.984   9.618 -0.3498 -0.5650 -0.3385
  150SAPE   H8X16658   0.348   3.088   9.614  0.8716 -0.1214 -2.8772
  150SAPE   H8Y16659   0.326   2.932   9.694 -0.4831  0.1485  0.0529
  150SAPE   C3916660   0.391   2.922   9.480  0.0097  0.7826 -0.1810
  150SAPE   H9X16661   0.410   2.813   9.490 -0.8398  0.5999 -0.5250
  150SAPE   H9Y16662   0.479   2.963   9.426  0.0496  1.8247  0.6372
  150SAPE  C31016663   0.264   2.945   9.398 -0.7165  0.6826  0.8872
  150SAPE  H10X16664   0.263   3.051   9.366  2.1610  0.1306 -1.5425
  150SAPE  H10Y16665   0.176   2.917   9.459 -0.8551  1.5003  1.0765
  150SAPE  C31116666   0.260   2.859   9.264 -0.5561 -0.2380  0.5620
  150SAPE  H11X16667   0.262   2.753   9.297 -0.8537 -0.1799  0.7770
  150SAPE  H11Y16668   0.353   2.880   9.207  1.2105 -0.6845  3.1231
  150SAPE  C31216669   0.130   2.873   9.178 -0.5116 -0.0526 -0.1676
  150SAPE  H12X16670   0.112   2.983   9.175  0.1538  0.2024  2.2591
  150SAPE  H12Y16671   0.043   2.834   9.235  0.6881 -0.1146  1.7115
  150SAPE  C31316672   0.142   2.801   9.046  0.6223 -0.1981  0.3257
  150SAPE  H13X16673   0.167   2.695   9.065 -1.5304 -0.8460 -0.2289
  150SAPE  H13Y16674   0.229   2.848   8.995 -0.5296 -0.2288 -1.7633
  150SAPE  C31416675   0.012   2.809   8.961 -0.1598  0.2050 -0.4778
  150SAPE  H14X16676  -0.021   2.911   8.932  1.9543  0.4239 -2.3969
  150SAPE  H14Y16677  -0.064   2.763   9.028 -0.4475  2.5653  0.9002
  150SAPE  C31516678   0.009   2.715   8.841 -0.2067  0.8572  0.8400
  150SAPE  H15X16679   0.028   2.613   8.880 -1.5345  0.6337  0.9311
  150SAPE  H15Y16680   0.085   2.750   8.767 -0.4858 -0.2095  0.0127
  150SAPE  C31616681  -0.122   2.724   8.764 -0.1484 -0.1059 -0.3519
  150SAPE  H16X16682  -0.133   2.831   8.736  0.0975 -0.0079 -0.0830
  150SAPE  H16Y16683  -0.203   2.695   8.835  0.8662  1.2755  1.4781
  150SAPE  C31716684  -0.133   2.634   8.645  0.4251  0.2117  1.2371
  150SAPE  H17X16685  -0.078   2.542   8.675 -1.1414 -0.3471  2.5816
  150SAPE  H17Y16686  -0.091   2.677   8.552  0.2202 -0.1072  0.9945
  150SAPE  C31816687  -0.275   2.577   8.627  0.7395 -0.2586 -0.1606
  150SAPE  H18X16688  -0.308   2.548   8.730 -0.0131 -0.7478 -0.5315
  150SAPE  H18Y16689  -0.275   2.484   8.567 -0.1610 -0.6442  0.4030
  150SAPE  H18Z16690  -0.355   2.645   8.590  0.2175  1.3421  3.4323
  151SAPE     N16691   4.474   1.794  10.455 -0.3668  0.1762 -0.2134
  151SAPE   HN116692   4.507   1.800  10.357 -1.6508 -1.0937 -0.7552
  151SAPE   HN216693   4.439   1.696  10.465 -2.0824  0.5966 -1.5581
  151SAPE   HN316694   4.404   1.870  10.467  1.7304  2.1017  0.4522
  151SAPE   C1216695   4.590   1.842  10.542 -0.8368 -0.2454  0.0994
  151SAPE  H12A16696   4.556   1.828  10.647 -0.3152  1.1799  0.4783
  151SAPE  H12B16697   4.606   1.951  10.533 -0.8262 -0.2026  0.5881
  151SAPE   C1116698   4.710   1.761  10.507 -0.4740 -0.4139  0.6398
  151SAPE  H11A16699   4.684   1.653  10.509 -0.5370 -0.4105  0.1663
  151SAPE  H11B16700   4.783   1.777  10.589 -0.0602  0.5480  0.0990
  151SAPE     P16701   4.892   1.881  10.355  0.4406  0.1810  0.7381
  151SAPE   O1316702   4.863   2.020  10.311  0.0043  0.4995 -0.4861
  151SAPE   O1416703   4.970   1.871  10.479 -0.6539 -0.2474  0.2077
  151SAPE   O1216704   4.767   1.780  10.379  0.2961 -0.4687  0.0008
  151SAPE   O1116705   4.968   1.813  10.224 -0.9371  0.4336 -0.6682
  151SAPE    C116706   4.954   1.676  10.195  0.5706 -1.0321  0.3038
  151SAPE    HA16707   4.906   1.608  10.269  1.5121 -2.6214 -0.4804
  151SAPE    HB16708   4.880   1.671  10.113 -2.8377 -3.0929  3.2156
  151SAPE    C216709   5.082   1.620  10.136  0.2353  0.8465 -0.0004
  151SAPE    HS16710   5.161   1.642  10.211  1.5181 -0.0020 -1.0813
  151SAPE   O2116711   5.110   1.675  10.010 -0.2254  0.1646  0.3442
  151SAPE   C2116712   5.226   1.644   9.950  0.1479 -0.2463 -0.7087
  151SAPE   O2216713   5.316   1.573   9.990 -0.1430 -0.5563 -0.2721
  151SAPE   C2216714   5.225   1.719   9.821 -0.0546  0.3145  0.8884
  151SAPE   H2R16715   5.122   1.710   9.780  0.1463  1.2857  0.1342
  151SAPE   H2S16716   5.247   1.825   9.844 -2.8280  1.1205  0.1589
  151SAPE    C316717   5.069   1.461  10.128  0.2212  0.9779  0.3983
  151SAPE    HX16718   5.052   1.423  10.231  0.3709  3.0729  1.2400
  151SAPE    HY16719   5.173   1.435  10.099  0.6502  2.2312  0.7556
  151SAPE   O3116720   4.974   1.417  10.026 -0.2117  0.1096  0.4812
  151SAPE   C3116721   5.027   1.375   9.916 -0.0735 -0.7093  0.6307
  151SAPE   O3216722   5.143   1.356   9.885 -0.2999 -0.9279 -0.7692
  151SAPE   C3216723   4.910   1.357   9.828  0.0244  0.3117 -0.1044
  151SAPE   H2X16724   4.840   1.443   9.836  0.1807  0.3111  1.5613
  151SAPE   H2Y16725   4.860   1.267   9.869 -2.5528  1.5186 -0.4301
  151SAPE   C2316726   5.314   1.667   9.706 -0.5330  0.2601  0.1039
  151SAPE   H3R16727   5.322   1.557   9.710  0.4524  0.1728 -2.3956
  151SAPE   H3S16728   5.416   1.708   9.723 -0.4415 -0.9443  3.0823
  151SAPE   C2416729   5.267   1.706   9.569  0.6403  0.3194  0.0399
  151SAPE   H4R16730   5.263   1.817   9.565  1.2460  0.3507  0.0974
  151SAPE   H4S16731   5.164   1.668   9.552  0.0038  1.3817  1.3397
  151SAPE   C2516732   5.370   1.658   9.466 -0.1003 -1.0440 -0.1997
  151SAPE   H5R16733   5.472   1.687   9.496 -0.2845 -0.8337  0.2450
  151SAPE   C2616734   5.353   1.587   9.353 -0.4456  0.3274  0.3144
  151SAPE   H6R16735   5.442   1.580   9.288  0.1398  1.3234  0.9995
  151SAPE   C2716736   5.229   1.536   9.288  0.4047  0.4884 -0.1962
  151SAPE   H7R16737   5.152   1.531   9.369  1.3370  1.4463  0.7797
  151SAPE   H7S16738   5.239   1.432   9.251 -1.7907  0.1648 -0.0581
  151SAPE   C2816739   5.187   1.628   9.175 -0.4027 -0.4021  0.6682
  151SAPE   H8R16740   5.179   1.733   9.206  0.0606 -0.4314  0.8920
  151SAPE   C2916741   5.154   1.583   9.049 -0.8287  0.1834  0.2895
  151SAPE   H9R16742   5.103   1.656   8.985  0.1936 -1.7998 -3.0451
  151SAPE  C21016743   5.153   1.436   9.005 -0.6444  0.7369 -0.1471
  151SAPE  H10R16744   5.051   1.415   8.967  0.3009 -0.0873 -2.3723
  151SAPE  H10S16745   5.164   1.372   9.095 -2.0023  1.2950  0.4609
  151SAPE  C21116746   5.262   1.406   8.896 -0.3345 -0.4619 -0.5869
  151SAPE  H11R16747   5.362   1.402   8.940 -0.7465  2.1236  0.7634
  151SAPE  C21216748   5.255   1.401   8.767  0.2465 -0.1990 -0.6548
  151SAPE  H12R16749   5.343   1.370   8.707  0.6814  0.4747 -0.3698
  151SAPE  C21316750   5.130   1.429   8.686 -0.0733  0.5423  0.8891
  151SAPE  H13R16751   5.166   1.413   8.582  1.2923  1.1196  1.2397
  151SAPE  H13S16752   5.094   1.534   8.690  0.1821  0.6314  0.9136
  151SAPE  C21416753   5.020   1.321   8.711 -0.1074  0.0686  0.4370
  151SAPE  H14R16754   4.943   1.336   8.788 -0.3783  0.9531 -0.0036
  151SAPE  C21516755   5.006   1.209   8.628  0.6035  0.4246 -1.2680
  151SAPE  H15R16756   4.930   1.137   8.662  1.2584  1.7655  3.8759
  151SAPE  C21616757   5.084   1.157   8.510 -0.5062  0.5375 -0.0151
  151SAPE  H16R16758   5.180   1.116   8.546 -0.0720  0.9547 -0.6618
  151SAPE  H16S16759   5.130   1.238   8.449  0.7889 -0.2917 -0.1555
  151SAPE  C21716760   5.014   1.068   8.409 -1.2862  0.4395  0.4281
  151SAPE  H17R16761   4.948   1.131   8.345 -0.3523  0.1937 -0.8081
  151SAPE  H17S16762   4.948   0.993   8.457 -0.2747 -1.8473 -1.5432
  151SAPE  C21816763   5.125   0.995   8.323  0.1812 -0.5446  0.0477
  151SAPE  H18R16764   5.124   0.884   8.335 -1.4889 -0.6689 -0.9572
  151SAPE  H18S16765   5.218   1.044   8.359 -0.4399  0.8283 -0.1368
  151SAPE  C21916766   5.113   1.014   8.170 -0.4846 -0.5235  0.2960
  151SAPE  H19R16767   5.011   0.975   8.150  0.1734 -3.6456  2.4554
  151SAPE  H19S16768   5.181   0.950   8.110 -0.3653  0.6314 -0.8661
  151SAPE  C22016769   5.137   1.165   8.130  0.6723 -0.5311 -0.1771
  151SAPE  H20R16770   5.244   1.181   8.157  0.3417 -2.4931  2.6459
  151SAPE  H20S16771   5.063   1.223   8.188 -0.3701  0.0906 -2.0311
  151SAPE  H20T16772   5.130   1.192   8.022  0.8114 -1.4839 -0.4334
  151SAPE   C3316773   4.951   1.332   9.681 -0.1472  0.0331  0.2203
  151SAPE   H3X16774   5.010   1.238   9.667  0.4618  0.8152 -3.2650
  151SAPE   H3Y16775   5.007   1.419   9.640 -0.3016 -0.0518 -0.1697
  151SAPE   C3416776   4.827   1.311   9.588 -0.6852  0.4491 -0.3030
  151SAPE   H4X16777   4.754   1.387   9.624 -1.0348  0.4945 -1.0997
  151SAPE   H4Y16778   4.780   1.216   9.619 -1.2863  1.0650  0.7225
  151SAPE   C3516779   4.857   1.324   9.434  0.1500 -0.1241 -0.5858
  151SAPE   H5X16780   4.880   1.432   9.422 -2.6846  0.5591 -0.6831
  151SAPE   H5Y16781   4.752   1.300   9.406 -0.9312  3.2920  0.1305
  151SAPE   C3616782   4.973   1.229   9.384 -0.0605  0.5329 -0.4383
  151SAPE   H6X16783   4.966   1.121   9.410  1.1984  1.0732  2.5368
  151SAPE   H6Y16784   5.070   1.262   9.428  0.4802 -0.7651 -0.6098
  151SAPE   C3716785   4.976   1.240   9.234  0.5135  0.9378  0.2815
  151SAPE   H7X16786   5.067   1.193   9.191 -0.1439  1.1760 -1.4683
  151SAPE   H7Y16787   4.970   1.347   9.208  0.0762  0.5615 -1.2622
  151SAPE   C3816788   4.851   1.178   9.166 -0.6991 -0.6767 -0.2777
  151SAPE   H8X16789   4.753   1.223   9.192 -0.6369 -0.0165 -1.1646
  151SAPE   H8Y16790   4.853   1.072   9.201 -1.4469 -0.5516  0.1566
  151SAPE   C3916791   4.870   1.163   9.016 -0.1684 -0.0127  0.1798
  151SAPE   H9X16792   4.971   1.120   8.998  0.1501 -1.0038  3.6329
  151SAPE   H9Y16793   4.863   1.262   8.964  0.6763  1.4427  2.6689
  151SAPE  C31016794   4.767   1.071   8.947  0.4533  0.4278  1.2597
  151SAPE  H10X16795   4.781   0.970   8.992  2.3519 -0.4727 -1.1400
  151SAPE  H10Y16796   4.786   1.060   8.838 -1.0235  1.2093  0.8973
  151SAPE  C31116797   4.620   1.093   8.979 -0.4773 -0.0455  0.1858
  151SAPE  H11X16798   4.620   1.109   9.089 -0.2689  0.9353  0.0456
  151SAPE  H11Y16799   4.571   0.996   8.954  0.2249  0.0754 -1.8547
  151SAPE  C31216800   4.545   1.203   8.905  0.4855  0.2676  1.0276
  151SAPE  H12X16801   4.580   1.205   8.800  0.6434 -0.8543  1.0516
  151SAPE  H12Y16802   4.576   1.302   8.944 -0.2760 -0.0929  2.6289
  151SAPE  C31316803   4.386   1.187   8.915  0.3260  0.0776  0.0160
  151SAPE  H13X16804   4.372   1.188   9.025 -0.7221 -0.7203 -0.0983
  151SAPE  H13Y16805   4.355   1.088   8.876 -0.9437 -0.9871  3.3435
  151SAPE  C31416806   4.297   1.293   8.859  0.0342 -0.8692  0.3037
  151SAPE  H14X16807   4.319   1.386   8.916 -0.5391  1.0531 -2.4248
  151SAPE  H14Y16808   4.188   1.272   8.869  0.0952 -0.7243  1.4713
  151SAPE  C31516809   4.323   1.325   8.709 -0.2369 -0.6996  0.2144
  151SAPE  H15X16810   4.279   1.240   8.652 -1.1636  0.2971 -0.5837
  151SAPE  H15Y16811   4.432   1.338   8.690 -0.5945  1.0230 -0.8246
  151SAPE  C31616812   4.241   1.447   8.662 -0.1368  0.5662  0.1130
  151SAPE  H16X16813   4.138   1.406   8.653  0.2957 -1.3454  2.6204
  151SAPE  H16Y16814   4.276   1.473   8.560 -1.7772  0.6111 -0.4689
  151SAPE  C31716815   4.240   1.563   8.757 -0.0958  0.0554  0.6002
  151SAPE  H17X16816   4.342   1.594   8.787 -1.1176  3.8369  0.5975
  151SAPE  H17Y16817   4.186   1.544   8.852 -0.8654 -1.3652 -0.0744
  151SAPE  C31816818   4.169   1.684   8.695  0.5161  0.2948  0.3625
  151SAPE  H18X16819   4.222   1.714   8.602  3.2241 -2.3177  0.9046
  151SAPE  H18Y16820   4.187   1.762   8.773  0.0371  1.3474 -0.5594
  151SAPE  H18Z16821   4.059   1.674   8.684  0.5730 -1.4174  1.1041
  152SAPE     N16822   0.038   0.552  10.759  0.1334  0.2719  0.2146
  152SAPE   HN116823   0.054   0.500  10.670 -0.2691 -0.3521  0.4988
  152SAPE   HN216824  -0.057   0.595  10.764  0.9475  2.2939 -0.7570
  152SAPE   HN316825   0.108   0.628  10.768  0.4349  0.3801 -2.3481
  152SAPE   C1216826   0.045   0.450  10.868 -0.0889  0.6065  0.1339
  152SAPE  H12A16827  -0.017   0.363  10.838  0.5505  0.0064  0.5376
  152SAPE  H12B16828  -0.004   0.498  10.955 -1.0744 -1.0576  0.5398
  152SAPE   C1116829   0.195   0.421  10.886  0.2201 -0.0739 -0.8099
  152SAPE  H11A16830   0.224   0.362  10.975 -1.1839  1.1344  0.4926
  152SAPE  H11B16831   0.242   0.520  10.905 -1.3392  0.4062  0.8192
  152SAPE     P16832   0.403   0.369  10.735 -0.2190  0.3924 -0.6252
  152SAPE   O1316833   0.468   0.461  10.834  0.5208  0.3573 -0.2593
  152SAPE   O1416834   0.469   0.237  10.711  0.2905  0.1024 -0.1753
  152SAPE   O1216835   0.253   0.341  10.783 -0.1919  0.7877  0.2568
  152SAPE   O1116836   0.397   0.441  10.600 -0.6193 -0.0931  0.0048
  152SAPE    C116837   0.291   0.423  10.503  0.7502 -0.2556  0.0036
  152SAPE    HA16838   0.251   0.320  10.517  0.2887 -0.0390  0.2865
  152SAPE    HB16839   0.207   0.495  10.506 -1.0675 -1.9824 -3.3093
  152SAPE    C216840   0.345   0.426  10.354  0.7462  0.0953 -0.0023
  152SAPE    HS16841   0.259   0.392  10.293 -2.2785  2.1942  2.7560
  152SAPE   O2116842   0.473   0.361  10.344 -0.7567 -0.1057  0.0238
  152SAPE   C2116843   0.461   0.230  10.329 -0.1501  0.5045  0.3459
  152SAPE   O2216844   0.356   0.173  10.320 -0.0879  0.7961  0.1692
  152SAPE   C2216845   0.605   0.183  10.320  0.6070  0.7859  0.3016
  152SAPE   H2R16846   0.673   0.266  10.294 -0.0782  1.5676  0.9753
  152SAPE   H2S16847   0.642   0.136  10.413 -0.1109  0.1426  0.2739
  152SAPE    C316848   0.369   0.574  10.320 -0.2527 -0.4657  0.5294
  152SAPE    HX16849   0.445   0.617  10.390  0.7859  0.1884 -0.9393
  152SAPE    HY16850   0.272   0.624  10.338 -0.1119 -0.0184  0.0657
  152SAPE   O3116851   0.415   0.591  10.187 -0.5771 -0.5818  0.0325
  152SAPE   C3116852   0.335   0.567  10.087 -0.3014  0.0225  0.1310
  152SAPE   O3216853   0.219   0.529  10.105 -0.2412 -0.2687 -0.2557
  152SAPE   C3216854   0.405   0.551   9.954 -0.1252 -0.8088 -0.2015
  152SAPE   H2X16855   0.502   0.506   9.982 -1.8115 -2.3095  4.1655
  152SAPE   H2Y16856   0.426   0.649   9.908  0.6234  0.3270  2.3812
  152SAPE   C2316857   0.625   0.069  10.208  0.2594 -0.1761  0.0792
  152SAPE   H3R16858   0.563  -0.020  10.231  2.0899 -2.6756 -3.5518
  152SAPE   H3S16859   0.730   0.037  10.226  0.4365  0.7650  0.7825
  152SAPE   C2416860   0.571   0.111  10.069 -0.1239 -0.3481  0.1411
  152SAPE   H4R16861   0.469   0.155  10.076  0.6431  1.8606 -1.3175
  152SAPE   H4S16862   0.551   0.027   9.999 -1.2785  0.5655 -0.6794
  152SAPE   C2516863   0.667   0.211  10.012  0.3032 -0.2530 -0.0730
  152SAPE   H5R16864   0.706   0.285  10.084  2.7793 -1.0250 -0.5069
  152SAPE   C2616865   0.716   0.214   9.889  0.1392 -0.0797  0.1688
  152SAPE   H6R16866   0.784   0.291   9.850 -2.0407  0.4106 -2.9838
  152SAPE   C2716867   0.665   0.130   9.765 -0.5572 -0.0298 -0.4462
  152SAPE   H7R16868   0.557   0.106   9.777 -0.9391  1.6424 -0.2348
  152SAPE   H7S16869   0.714   0.031   9.775  0.5343  0.5496  0.1791
  152SAPE   C2816870   0.704   0.175   9.625 -0.8870  1.0923 -0.2442
  152SAPE   H8R16871   0.812   0.185   9.609 -0.7959 -0.1597 -0.5276
  152SAPE   C2916872   0.619   0.199   9.522  0.2994  0.3972  0.1134
  152SAPE   H9R16873   0.664   0.217   9.423  0.4734  2.3145  0.4993
  152SAPE  C21016874   0.467   0.180   9.531 -0.4363 -0.7745  0.2700
  152SAPE  H10R16875   0.444   0.240   9.621 -1.8890  1.8986 -1.7097
  152SAPE  H10S16876   0.445   0.072   9.547 -1.4524 -0.3884  1.5761
  152SAPE  C21116877   0.386   0.233   9.415 -0.4094  0.5147  0.3830
  152SAPE  H11R16878   0.323   0.322   9.434 -2.3565 -1.0416  1.5757
  152SAPE  C21216879   0.362   0.157   9.307  0.3266 -0.5635  0.2867
  152SAPE  H12R16880   0.305   0.206   9.226  1.0166 -2.1243 -1.2214
  152SAPE  C21316881   0.417   0.022   9.265  0.0418  0.4227  0.0323
  152SAPE  H13R16882   0.475  -0.023   9.348  1.8894  1.3665 -0.6982
  152SAPE  H13S16883   0.491   0.040   9.185 -1.4318 -2.0134 -2.0384
  152SAPE  C21416884   0.287  -0.047   9.225 -0.1373 -0.4129 -0.1814
  152SAPE  H14R16885   0.212  -0.070   9.302 -0.1889 -0.6583 -0.3047
  152SAPE  C21516886   0.263  -0.099   9.104  0.0771 -0.1596  0.3976
  152SAPE  H15R16887   0.178  -0.168   9.089  1.0585 -2.0914  3.0354
  152SAPE  C21616888   0.340  -0.080   8.974  0.1725 -0.4606  0.4397
  152SAPE  H16R16889   0.421  -0.154   8.956  0.5574  0.3099 -1.1823
  152SAPE  H16S16890   0.389   0.020   8.975  0.3202 -0.5325  1.7504
  152SAPE  C21716891   0.258  -0.068   8.840 -0.4632  0.3897 -0.2238
  152SAPE  H17R16892   0.335  -0.034   8.767 -1.8169 -0.9385 -2.3757
  152SAPE  H17S16893   0.174   0.001   8.860 -1.0153 -0.2729 -0.2165
  152SAPE  C21816894   0.207  -0.200   8.793 -0.2656 -0.6885  0.0036
  152SAPE  H18R16895   0.128  -0.232   8.864 -2.0397 -3.2334 -2.9240
  152SAPE  H18S16896   0.289  -0.273   8.777  1.6659  1.7800 -2.1816
  152SAPE  C21916897   0.135  -0.201   8.653 -0.4895 -0.3391  0.0313
  152SAPE  H19R16898   0.126  -0.309   8.630 -0.8387 -0.4565  0.7173
  152SAPE  H19S16899   0.207  -0.156   8.580 -0.8237 -1.8105 -1.2501
  152SAPE  C22016900   0.003  -0.143   8.645  0.5937 -0.4915  0.9027
  152SAPE  H20R16901   0.011  -0.032   8.649 -0.0226 -0.4398  0.8195
  152SAPE  H20S16902  -0.058  -0.175   8.732  3.5649  1.0704  3.7979
  152SAPE  H20T16903  -0.057  -0.170   8.556 -1.0396  1.8994  1.1684
  152SAPE   C3316904   0.317   0.460   9.865 -0.9058 -0.1353 -0.2722
  152SAPE   H3X16905   0.254   0.378   9.905  0.3390 -1.5713 -1.1445
  152SAPE   H3Y16906   0.394   0.410   9.803 -1.2400 -1.6047  0.4693
  152SAPE   C3416907   0.223   0.548   9.776  0.1465 -0.3565  0.2381
  152SAPE   H4X16908   0.282   0.615   9.710 -0.7021 -1.9828 -2.3038
  152SAPE   H4Y16909   0.161   0.617   9.837 -0.2285 -0.3918 -0.0978
  152SAPE   C3516910   0.107   0.471   9.701  0.1700 -0.4861  0.0164
  152SAPE   H5X16911   0.048   0.414   9.776 -0.4390  0.4174  0.2406
  152SAPE   H5Y16912   0.155   0.400   9.630  0.1691 -1.9018  1.3975
  152SAPE   C3616913   0.013   0.572   9.626  0.1853  0.3372 -0.5439
  152SAPE   H6X16914  -0.004   0.647   9.707 -0.9041 -0.3589 -0.0919
  152SAPE   H6Y16915  -0.083   0.515   9.621 -1.4178  2.8069  0.2483
  152SAPE   C3716916   0.060   0.623   9.494 -0.0120  0.4087  0.3314
  152SAPE   H7X16917   0.171   0.627   9.490  0.1030 -1.9719 -0.5005
  152SAPE   H7Y16918   0.011   0.723   9.485 -1.8038 -0.3286  1.3758
  152SAPE   C3816919   0.002   0.532   9.382 -0.5806 -0.1992 -0.1074
  152SAPE   H8X16920  -0.107   0.551   9.371 -0.2898  1.1162 -0.9431
  152SAPE   H8Y16921   0.021   0.423   9.395  2.0721  0.2796  0.7948
  152SAPE   C3916922   0.078   0.578   9.257  0.3367  0.0708  0.2705
  152SAPE   H9X16923   0.180   0.540   9.279  0.3957  0.6396  1.0234
  152SAPE   H9Y16924   0.087   0.687   9.240 -0.5840 -0.0104 -0.8471
  152SAPE  C31016925   0.036   0.501   9.135  0.0056 -0.0847 -0.1968
  152SAPE  H10X16926  -0.074   0.506   9.124 -0.4656 -1.9793  2.7339
  152SAPE  H10Y16927   0.057   0.392   9.135  1.2604  0.1326 -0.1081
  152SAPE  C31116928   0.100   0.562   9.010  0.2383  0.3680 -0.5830
  152SAPE  H11X16929   0.211   0.551   9.002  0.7150  1.4494  2.9645
  152SAPE  H11Y16930   0.080   0.672   9.014 -1.3556  0.0554  0.7560
  152SAPE  C31216931   0.036   0.491   8.882  0.2638 -0.1818  0.3341
  152SAPE  H12X16932  -0.073   0.473   8.899  0.4339 -3.0310 -1.0326
  152SAPE  H12Y16933   0.071   0.386   8.881 -1.5724 -0.8372 -0.3023
  152SAPE  C31316934   0.083   0.567   8.757  0.2167  0.3645 -1.0730
  152SAPE  H13X16935   0.192   0.550   8.760  0.2228  0.5489  0.7282
  152SAPE  H13Y16936   0.072   0.676   8.775 -1.1332 -0.0494  0.9286
  152SAPE  C31416937   0.017   0.508   8.628 -0.1834  0.7063  0.4905
  152SAPE  H14X16938  -0.003   0.399   8.637 -1.9203  0.7177 -2.0997
  152SAPE  H14Y16939   0.087   0.528   8.544 -0.5593 -0.6327 -0.1795
  152SAPE  C31516940  -0.109   0.587   8.579 -0.4966 -0.2347  0.2162
  152SAPE  H15X16941  -0.078   0.692   8.564 -3.7375  1.0388  1.5775
  152SAPE  H15Y16942  -0.190   0.578   8.655 -0.0403 -3.6924  0.4715
  152SAPE  C31616943  -0.161   0.513   8.452 -0.5762  0.7477 -0.6493
  152SAPE  H16X16944  -0.083   0.475   8.383 -1.5572 -1.6450 -0.5442
  152SAPE  H16Y16945  -0.210   0.598   8.401 -3.5848  1.4567  2.9407
  152SAPE  C31716946  -0.285   0.410   8.474 -0.1941 -0.0609 -0.1876
  152SAPE  H17X16947  -0.379   0.464   8.497 -0.3818 -0.5936  0.3310
  152SAPE  H17Y16948  -0.269   0.348   8.565  2.0361 -0.1299 -0.5776
  152SAPE  C31816949  -0.316   0.331   8.350  0.0318  0.7092  0.1111
  152SAPE  H18X16950  -0.277   0.227   8.359 -0.3899  0.2622 -2.4224
  152SAPE  H18Y16951  -0.285   0.378   8.254  0.2286 -0.7638 -0.5736
  152SAPE  H18Z16952  -0.425   0.309   8.346  0.4152 -1.2117 -0.9704
  153SAPE     N16953   6.646   2.256  10.878  0.1427 -0.1061  0.2454
  153SAPE   HN116954   6.597   2.343  10.906  1.2120  0.4428  0.4535
  153SAPE   HN216955   6.607   2.173  10.927 -0.9340 -0.0971 -0.5645
  153SAPE   HN316956   6.747   2.257  10.903 -0.3518 -2.1600  2.7815
  153SAPE   C1216957   6.628   2.224  10.734  0.4431 -0.0623 -0.3344
  153SAPE  H12A16958   6.657   2.311  10.672  0.5073 -0.3909 -0.7743
  153SAPE  H12B16959   6.522   2.194  10.722  0.3594 -0.1959  0.6760
  153SAPE   C1116960   6.733   2.112  10.692  0.5461  0.1123 -0.2888
  153SAPE  H11A16961   6.827   2.168  10.677  0.0354  0.8123 -0.9214
  153SAPE  H11B16962   6.694   2.079  10.593 -1.3970  1.4004 -0.0203
  153SAPE     P16963   6.645   1.873  10.763  0.2329 -0.0241 -0.1701
  153SAPE   O1316964   6.680   1.781  10.871  0.2586 -0.1230  0.2626
  153SAPE   O1416965   6.505   1.913  10.749  0.5978  0.8183  0.4943
  153SAPE   O1216966   6.733   2.001  10.783  0.0898  0.0451  0.0780
  153SAPE   O1116967   6.694   1.816  10.626 -1.0579  0.3575 -0.0436
  153SAPE    C116968   6.831   1.810  10.589 -0.4423  0.5671  0.4418
  153SAPE    HA16969   6.867   1.914  10.573  0.6049  0.2897  0.8818
  153SAPE    HB16970   6.900   1.770  10.667 -1.8431 -0.2920  1.2651
  153SAPE    C216971   6.847   1.736  10.462 -0.2032 -0.0161  0.1299
  153SAPE    HS16972   6.955   1.743  10.438  0.1345 -0.9953  1.3212
  153SAPE   O2116973   6.766   1.801  10.361  1.0676 -0.7175  0.3635
  153SAPE   C2116974   6.806   1.914  10.311 -0.1454 -0.3289 -0.0389
  153SAPE   O2216975   6.907   1.974  10.344  0.2345 -0.4962  0.8085
  153SAPE   C2216976   6.706   1.963  10.214  0.1476  0.0235  0.0831
  153SAPE   H2R16977   6.602   1.972  10.251 -0.0753 -0.7086 -0.3270
  153SAPE   H2S16978   6.738   2.063  10.179 -1.5729  0.5809  0.0116
  153SAPE    C316979   6.828   1.581  10.465 -0.7341  0.0518  0.0482
  153SAPE    HX16980   6.723   1.565  10.498 -0.0905  0.0467  2.1915
  153SAPE    HY16981   6.902   1.532  10.531 -0.5037 -0.2088 -0.3944
  153SAPE   O3116982   6.841   1.531  10.331  0.2399  0.3863 -0.0730
  153SAPE   C3116983   6.963   1.520  10.282 -0.1282  0.0215 -0.5328
  153SAPE   O3216984   7.069   1.537  10.338  0.9560 -0.4125 -0.1308
  153SAPE   C3216985   6.952   1.488  10.130  0.2381  0.6017  0.0732
  153SAPE   H2X16986   6.885   1.568  10.091 -0.8580 -0.7909 -1.0031
  153SAPE   H2Y16987   6.905   1.388  10.120 -0.5478  0.8930  0.7249
  153SAPE   C2316988   6.692   1.879  10.083 -0.7333  0.2209  0.3301
  153SAPE   H3R16989   6.633   1.944  10.015 -0.2793  0.8413  0.5136
  153SAPE   H3S16990   6.637   1.784  10.099 -0.8414  0.1435 -0.4656
  153SAPE   C2416991   6.816   1.851   9.993 -0.4763  0.2426 -0.1313
  153SAPE   H4R16992   6.769   1.803   9.905 -0.4445 -0.9068  0.4647
  153SAPE   H4S16993   6.873   1.772  10.047 -0.5479  0.1560 -0.1823
  153SAPE   C2516994   6.901   1.964   9.961 -0.5878 -0.6707  0.3588
  153SAPE   H5R16995   6.937   2.024  10.046 -3.9930 -0.0590  1.5244
  153SAPE   C2616996   6.927   2.014   9.836  0.5079  0.1353 -0.3639
  153SAPE   H6R16997   7.005   2.091   9.832  1.5776 -0.7131  2.1147
  153SAPE   C2716998   6.869   1.956   9.712 -0.3569  0.6042  1.1639
  153SAPE   H7R16999   6.844   2.027   9.630 -0.4736  1.0054  1.5438
  153SAPE   H7S17000   6.772   1.901   9.722  0.3608 -1.9081 -3.0983
  153SAPE   C2817001   6.963   1.849   9.641  0.1205  0.8348 -0.3038
  153SAPE   H8R17002   7.001   1.770   9.707 -1.1497  0.1776 -0.3437
  153SAPE   C2917003   7.012   1.856   9.518 -0.2500  0.1352 -0.0420
  153SAPE   H9R17004   7.092   1.788   9.484 -1.0435  0.5605 -3.0655
  153SAPE  C21017005   6.992   1.966   9.418  0.3596  0.5335  0.4077
  153SAPE  H10R17006   7.095   1.996   9.389  0.5161 -0.2864  0.1025
  153SAPE  H10S17007   6.942   2.060   9.449  0.9821  1.4110 -1.1300
  153SAPE  C21117008   6.914   1.937   9.289 -0.1591 -0.1428  0.0974
  153SAPE  H11R17009   6.810   1.970   9.299 -0.6496 -1.4173 -0.5564
  153SAPE  C21217010   6.960   1.900   9.170 -0.1964 -0.1364 -0.3451
  153SAPE  H12R17011   6.883   1.898   9.091 -1.3531  6.5486 -0.0087
  153SAPE  C21317012   7.110   1.879   9.132  0.3562 -0.2638  0.3772
  153SAPE  H13R17013   7.124   1.769   9.121  0.8957 -0.0605 -1.2581
  153SAPE  H13S17014   7.181   1.913   9.209  0.9052  0.8851 -0.5948
  153SAPE  C21417015   7.141   1.955   9.006  0.3864  0.2562 -0.1105
  153SAPE  H14R17016   7.139   2.063   9.027 -0.3561  0.1430  0.4512
  153SAPE  C21517017   7.176   1.900   8.886 -0.1945  0.1149  0.4265
  153SAPE  H15R17018   7.203   1.973   8.808  1.4456 -0.7681  0.1364
  153SAPE  C21617019   7.187   1.758   8.863 -0.2304  0.0382  0.2621
  153SAPE  H16R17020   7.096   1.729   8.805 -0.9630  0.3546  1.2116
  153SAPE  H16S17021   7.194   1.699   8.957  1.0456  0.1841  0.2628
  153SAPE  C21717022   7.317   1.704   8.791 -0.2011  0.1173  0.0885
  153SAPE  H17R17023   7.342   1.767   8.703 -1.5778  1.1297  0.3910
  153SAPE  H17S17024   7.299   1.597   8.764 -0.9192 -0.0173  1.0299
  153SAPE  C21817025   7.445   1.723   8.879  0.6891  0.2983  0.2883
  153SAPE  H18R17026   7.454   1.625   8.930  1.5114 -0.3546 -1.0328
  153SAPE  H18S17027   7.441   1.801   8.958 -1.7786 -0.3538  0.8883
  153SAPE  C21917028   7.570   1.734   8.800 -0.7485  0.1890  1.1460
  153SAPE  H19R17029   7.658   1.722   8.867 -0.1625  1.1936  0.5829
  153SAPE  H19S17030   7.580   1.829   8.743  2.4388 -1.4827 -1.4480
  153SAPE  C22017031   7.586   1.627   8.685 -0.8316  0.5321 -0.4133
  153SAPE  H20R17032   7.693   1.625   8.658 -1.0116 -2.2561 -1.2604
  153SAPE  H20S17033   7.526   1.646   8.593 -0.1333 -2.0038 -1.4970
  153SAPE  H20T17034   7.572   1.522   8.719 -2.2748  0.2388 -1.7898
  153SAPE   C3317035   7.089   1.484  10.057  0.1273  0.6025  0.0455
  153SAPE   H3X17036   7.156   1.430  10.128 -0.7755  1.1242  1.3108
  153SAPE   H3Y17037   7.132   1.582  10.025  1.6667  0.0583  0.3415
  153SAPE   C3417038   7.086   1.396   9.930  0.3104 -1.2055 -0.1190
  153SAPE   H4X17039   7.001   1.427   9.866 -0.4372 -1.2772  0.8153
  153SAPE   H4Y17040   7.051   1.295   9.962 -1.2523 -0.9358 -0.8835
  153SAPE   C3517041   7.215   1.401   9.853  0.0560  0.4285  0.3577
  153SAPE   H5X17042   7.301   1.363   9.912 -0.3000 -1.7662 -0.4299
  153SAPE   H5Y17043   7.241   1.507   9.830  3.9233 -0.8417 -2.0798
  153SAPE   C3617044   7.210   1.310   9.735  0.3463 -0.0256  0.4475
  153SAPE   H6X17045   7.127   1.334   9.665  0.0060 -0.5707  0.6546
  153SAPE   H6Y17046   7.177   1.206   9.760 -3.9735  1.2259  0.7690
  153SAPE   C3717047   7.346   1.323   9.653  0.3431  1.0523  0.6414
  153SAPE   H7X17048   7.351   1.255   9.566  1.6739 -0.6045  1.9305
  153SAPE   H7Y17049   7.420   1.281   9.725 -0.2239  1.2628  1.3524
  153SAPE   C3817050   7.387   1.464   9.610 -0.3671  0.0154 -0.5159
  153SAPE   H8X17051   7.402   1.520   9.705 -2.5993 -2.5132  1.5052
  153SAPE   H8Y17052   7.310   1.517   9.551 -1.9197  0.1318  1.4817
  153SAPE   C3917053   7.519   1.469   9.530  0.4319 -0.5161 -0.4000
  153SAPE   H9X17054   7.592   1.403   9.583  0.3921 -0.9200 -0.8413
  153SAPE   H9Y17055   7.558   1.573   9.528 -0.2123 -0.0561  3.3959
  153SAPE  C31017056   7.500   1.424   9.386 -0.3671  0.0157  0.0379
  153SAPE  H10X17057   7.431   1.490   9.329  1.3420  1.8005 -0.0540
  153SAPE  H10Y17058   7.456   1.322   9.390  0.8093 -0.5180 -0.0703
  153SAPE  C31117059   7.638   1.413   9.313  0.4468 -0.0417  0.2772
  153SAPE  H11X17060   7.718   1.364   9.372  3.1893  3.6688 -0.0003
  153SAPE  H11Y17061   7.665   1.520   9.305 -0.0266  0.1447  1.0544
  153SAPE  C31217062   7.611   1.377   9.165  0.4339 -0.4833 -0.1580
  153SAPE  H12X17063   7.694   1.421   9.106 -1.2875  0.6131 -1.8588
  153SAPE  H12Y17064   7.523   1.437   9.134 -0.1989 -1.0982  0.3992
  153SAPE  C31317065   7.581   1.229   9.139 -0.1690  1.0382 -0.2367
  153SAPE  H13X17066   7.518   1.185   9.219  1.0084 -1.5513 -0.6291
  153SAPE  H13Y17067   7.676   1.171   9.140 -1.6751 -1.6093 -1.8829
  153SAPE  C31417068   7.531   1.195   9.002 -0.0313 -0.1292 -0.2826
  153SAPE  H14X17069   7.420   1.204   9.009 -0.0805 -0.9929  0.1386
  153SAPE  H14Y17070   7.549   1.091   8.969  1.6568  0.2279 -0.5831
  153SAPE  C31517071   7.595   1.282   8.893  0.5351 -0.0560 -0.0066
  153SAPE  H15X17072   7.706   1.277   8.903  0.5185 -0.3917  0.0217
  153SAPE  H15Y17073   7.560   1.387   8.898  2.0536  0.4379  1.0117
  153SAPE  C31617074   7.559   1.216   8.755  0.3006 -1.0606 -0.6306
  153SAPE  H16X17075   7.629   1.130   8.753  0.7733 -0.7123  0.1596
  153SAPE  H16Y17076   7.586   1.285   8.672  0.3495  0.0254  0.2595
  153SAPE  C31717077   7.410   1.198   8.732 -0.1438 -0.4378  0.2736
  153SAPE  H17X17078   7.358   1.296   8.728  0.0545 -0.3594 -0.5627
  153SAPE  H17Y17079   7.371   1.135   8.815  0.8356 -0.0012  1.0988
  153SAPE  C31817080   7.388   1.121   8.604 -0.1060 -0.1798 -0.3749
  153SAPE  H18X17081   7.279   1.100   8.592  0.1245 -2.0459  0.5169
  153SAPE  H18Y17082   7.433   1.020   8.609 -0.3518 -0.4126 -2.0990
  153SAPE  H18Z17083   7.433   1.168   8.513  1.7771  0.0055  0.6080
  154SAPE     N17084   0.661   0.828  10.818  0.1909  0.6106  0.1843
  154SAPE   HN117085   0.736   0.899  10.832  1.5835 -0.6389 -0.5822
  154SAPE   HN217086   0.573   0.868  10.856  0.5535  1.2707  0.3595
  154SAPE   HN317087   0.682   0.744  10.875 -4.5824 -0.4766  0.7071
  154SAPE   C1217088   0.642   0.790  10.671  0.1273  0.7805 -0.3807
  154SAPE  H12A17089   0.691   0.692  10.651 -0.0387  0.5238  0.4436
  154SAPE  H12B17090   0.693   0.861  10.603  0.3453 -0.0457 -1.0973
  154SAPE   C1117091   0.495   0.771  10.632  0.5604 -0.3724  0.8901
  154SAPE  H11A17092   0.460   0.675  10.677  0.2082  0.3952  2.3169
  154SAPE  H11B17093   0.490   0.759  10.522 -1.8221 -1.5979  1.0589
  154SAPE     P17094   0.256   0.858  10.680 -0.2439 -0.1660  0.2135
  154SAPE   O1317095   0.231   0.750  10.778 -0.2444 -0.1911 -0.5548
  154SAPE   O1417096   0.189   0.987  10.708 -0.4381 -0.4041 -0.2286
  154SAPE   O1217097   0.413   0.874  10.693 -0.2891 -0.3865  0.6911
  154SAPE   O1117098   0.228   0.804  10.533  0.8645  0.0299 -0.0298
  154SAPE    C117099   0.164   0.882  10.430 -0.0126  0.3258  0.4377
  154SAPE    HA17100   0.097   0.819  10.367  0.7772  0.3347 -0.4283
  154SAPE    HB17101   0.112   0.969  10.475  2.1941  1.4676  0.9229
  154SAPE    C217102   0.274   0.950  10.342 -0.2874 -0.4781 -1.0490
  154SAPE    HS17103   0.350   0.873  10.314 -0.8836 -1.3408 -0.3251
  154SAPE   O2117104   0.342   1.052  10.423  0.0992  0.0123  0.5425
  154SAPE   C2117105   0.465   1.062  10.400 -0.1104 -0.2242  0.3680
  154SAPE   O2217106   0.528   0.997  10.314 -0.4361  0.1852  0.1071
  154SAPE   C2217107   0.517   1.174  10.485 -0.6562  0.9726  0.1088
  154SAPE   H2R17108   0.481   1.265  10.433  0.5917  0.2629 -2.1780
  154SAPE   H2S17109   0.463   1.172  10.582  0.6049 -2.2824  0.9070
  154SAPE    C317110   0.207   1.025  10.227 -0.1333 -0.6999 -0.2908
  154SAPE    HX17111   0.147   1.112  10.259  0.2891 -1.1044  1.7252
  154SAPE    HY17112   0.140   0.956  10.171  0.3973 -0.4956 -1.2081
  154SAPE   O3117113   0.317   1.074  10.143  0.1918 -0.5398  0.3703
  154SAPE   C3117114   0.360   0.983  10.063  0.1234 -0.1771  0.3131
  154SAPE   O3217115   0.301   0.879  10.035 -0.2529  0.3015 -0.0185
  154SAPE   C3217116   0.486   1.019  10.012 -1.8838  0.0311 -0.0477
  154SAPE   H2X17117   0.541   1.071  10.093 -2.3631  0.0673  0.2560
  154SAPE   H2Y17118   0.474   1.093   9.930 -3.2311  0.2410  0.3133
  154SAPE   C2317119   0.670   1.161  10.518  0.4638 -0.1795 -0.1425
  154SAPE   H3R17120   0.717   1.063  10.496  3.1065  0.6531  1.3808
  154SAPE   H3S17121   0.673   1.194  10.624 -0.7548 -0.0638 -0.1226
  154SAPE   C2417122   0.749   1.277  10.455  0.6829  0.5222 -0.3295
  154SAPE   H4R17123   0.849   1.300  10.499  1.3425 -0.9621 -0.9827
  154SAPE   H4S17124   0.700   1.374  10.478  1.3145  0.7118  0.2379
  154SAPE   C2517125   0.766   1.253  10.310 -0.8211  0.1636  0.4355
  154SAPE   H5R17126   0.805   1.155  10.279  0.1459  0.9411 -0.9219
  154SAPE   C2617127   0.757   1.347  10.209 -0.1205 -0.3444 -1.2521
  154SAPE   H6R17128   0.781   1.331  10.103  0.4130 -1.5213 -0.9698
  154SAPE   C2717129   0.724   1.490  10.231 -0.4960  0.5445  0.1966
  154SAPE   H7R17130   0.815   1.551  10.250 -1.2787  1.5997  0.6612
  154SAPE   H7S17131   0.663   1.500  10.323  1.4911  0.9727  1.5153
  154SAPE   C2817132   0.651   1.572  10.135  0.3704  0.1206 -0.1937
  154SAPE   H8R17133   0.552   1.598  10.175  1.4267  2.5080  1.1155
  154SAPE   C2917134   0.687   1.615  10.015 -0.2129 -0.7385  0.3606
  154SAPE   H9R17135   0.621   1.692   9.973  1.7462  0.3925 -0.8349
  154SAPE  C21017136   0.817   1.589   9.940  0.1249 -0.0911 -0.1052
  154SAPE  H10R17137   0.780   1.513   9.868  0.2803 -1.1014  0.8525
  154SAPE  H10S17138   0.893   1.548  10.010  1.4876 -0.2553 -1.6418
  154SAPE  C21117139   0.856   1.718   9.869  0.1520  0.1278 -0.1335
  154SAPE  H11R17140   0.837   1.810   9.926 -2.3460  1.3462 -2.7270
  154SAPE  C21217141   0.932   1.718   9.756 -0.2944 -0.3317 -0.1958
  154SAPE  H12R17142   0.955   1.813   9.705  4.0127 -0.9320  0.2437
  154SAPE  C21317143   0.989   1.596   9.695 -1.2557 -0.4260  0.1530
  154SAPE  H13R17144   0.987   1.618   9.586 -0.4780  0.4952  0.3169
  154SAPE  H13S17145   0.922   1.507   9.696 -0.3281 -1.1437  1.0788
  154SAPE  C21417146   1.128   1.567   9.750  0.2327 -0.5762 -0.4165
  154SAPE  H14R17147   1.125   1.554   9.860  0.6526  0.7429 -0.2375
  154SAPE  C21517148   1.239   1.543   9.677  0.0441  0.3744  0.3635
  154SAPE  H15R17149   1.330   1.519   9.734 -0.3287  3.2863  2.4340
  154SAPE  C21617150   1.255   1.534   9.523  0.0335 -1.2134 -0.4275
  154SAPE  H16R17151   1.347   1.587   9.489  0.1276 -0.4518  0.9460
  154SAPE  H16S17152   1.178   1.592   9.469  1.5021  0.3311 -0.9455
  154SAPE  C21717153   1.268   1.394   9.448 -0.0620  0.4091 -0.8603
  154SAPE  H17R17154   1.220   1.315   9.510  1.4157 -0.1636 -0.4230
  154SAPE  H17S17155   1.374   1.361   9.445 -0.7156 -2.0037 -0.0246
  154SAPE  C21817156   1.205   1.405   9.313 -0.5678  0.1722 -0.4777
  154SAPE  H18R17157   1.261   1.481   9.255  0.9206  0.4911  1.3237
  154SAPE  H18S17158   1.101   1.442   9.326 -0.8444  0.1787 -2.3453
  154SAPE  C21917159   1.223   1.273   9.239  0.0102  0.6946 -0.2554
  154SAPE  H19R17160   1.171   1.200   9.304 -2.9117  1.4400 -1.6291
  154SAPE  H19S17161   1.328   1.236   9.244 -0.3862 -0.3030  1.2396
  154SAPE  C22017162   1.158   1.269   9.099 -0.2206 -0.4529  0.2218
  154SAPE  H20R17163   1.053   1.303   9.102  0.3062  1.5403 -1.4758
  154SAPE  H20S17164   1.151   1.163   9.066 -0.5095  0.1264 -1.7346
  154SAPE  H20T17165   1.209   1.332   9.023 -0.0204 -0.3407  0.4488
  154SAPE   C3317166   0.577   0.904   9.953 -0.6228  0.1363  0.5621
  154SAPE   H3X17167   0.570   0.808  10.009 -0.9049  0.4790  1.1216
  154SAPE   H3Y17168   0.682   0.941   9.961 -1.0702  0.9628  3.2742
  154SAPE   C3417169   0.546   0.890   9.802  0.0211  0.5126  0.4373
  154SAPE   H4X17170   0.587   0.982   9.756 -0.3235  0.6580  0.4176
  154SAPE   H4Y17171   0.437   0.882   9.780  0.5161 -1.2365 -1.7642
  154SAPE   C3517172   0.619   0.779   9.736  0.3102 -0.6176 -0.1789
  154SAPE   H5X17173   0.611   0.674   9.770 -1.4720 -0.9592 -1.4579
  154SAPE   H5Y17174   0.725   0.809   9.733  0.3303 -0.6147  0.5097
  154SAPE   C3617175   0.571   0.749   9.589 -0.4709 -0.0231  0.1846
  154SAPE   H6X17176   0.577   0.841   9.528 -1.9851 -1.6411 -2.6008
  154SAPE   H6Y17177   0.464   0.717   9.582 -0.3591 -0.4203  0.2611
  154SAPE   C3717178   0.662   0.638   9.519  0.1055 -0.9085  0.4023
  154SAPE   H7X17179   0.641   0.539   9.564 -0.4407  0.0174  2.2773
  154SAPE   H7Y17180   0.772   0.651   9.532  0.1205 -1.6475  1.0812
  154SAPE   C3817181   0.615   0.634   9.378 -0.4960  0.2136  0.3734
  154SAPE   H8X17182   0.613   0.739   9.341  0.5001  0.3448  0.6748
  154SAPE   H8Y17183   0.513   0.591   9.364 -0.9497  1.0785  0.8908
  154SAPE   C3917184   0.704   0.553   9.286  0.0321 -0.2157 -0.3443
  154SAPE   H9X17185   0.694   0.449   9.322  0.2699  0.3038  1.2793
  154SAPE   H9Y17186   0.811   0.581   9.293  0.1774 -0.7468 -0.3861
  154SAPE  C31017187   0.653   0.545   9.140  0.3791 -0.0086 -0.2240
  154SAPE  H10X17188   0.731   0.499   9.075 -0.2360 -2.1881  0.4834
  154SAPE  H10Y17189   0.622   0.641   9.094 -0.2040 -0.3363 -0.5290
  154SAPE  C31117190   0.540   0.446   9.130  1.0001 -0.1406 -0.1401
  154SAPE  H11X17191   0.455   0.477   9.195 -0.0924  0.1235 -1.6461
  154SAPE  H11Y17192   0.587   0.356   9.175  0.4626  0.1034  0.9610
  154SAPE  C31217193   0.482   0.412   8.987 -0.1861  0.2642  0.4932
  154SAPE  H12X17194   0.454   0.512   8.946  1.6691  0.5313 -0.2037
  154SAPE  H12Y17195   0.393   0.348   9.004 -0.5460  0.8904  1.0629
  154SAPE  C31317196   0.575   0.334   8.891  0.5503 -0.1849  0.1998
  154SAPE  H13X17197   0.580   0.230   8.932 -1.5305  0.0272  1.1246
  154SAPE  H13Y17198   0.674   0.382   8.904  0.1826  0.1744  1.8258
  154SAPE  C31417199   0.520   0.329   8.749  0.0029  0.3678 -0.3139
  154SAPE  H14X17200   0.581   0.264   8.683 -0.6348 -1.4296  0.8019
  154SAPE  H14Y17201   0.514   0.430   8.702 -0.4734  0.5031  0.0315
  154SAPE  C31517202   0.373   0.273   8.740  0.6876  0.0805 -0.4468
  154SAPE  H15X17203   0.300   0.318   8.811 -1.4602 -1.2817 -1.6703
  154SAPE  H15Y17204   0.382   0.167   8.773  0.0645  0.4274  0.9123
  154SAPE  C31617205   0.320   0.266   8.589  0.4565  0.3192 -0.5516
  154SAPE  H16X17206   0.399   0.210   8.533  1.4674 -0.3333  1.4212
  154SAPE  H16Y17207   0.304   0.371   8.555 -2.9891 -0.0619 -0.4006
  154SAPE  C31717208   0.184   0.189   8.593 -0.8611 -0.4941 -0.3796
  154SAPE  H17X17209   0.131   0.233   8.681  0.3599  0.2364  0.0182
  154SAPE  H17Y17210   0.211   0.086   8.626  0.8346 -0.5884 -1.9280
  154SAPE  C31817211   0.100   0.185   8.463  0.4652 -0.2193  0.0087
  154SAPE  H18X17212   0.164   0.177   8.373  2.5453  2.3435  1.1313
  154SAPE  H18Y17213   0.042   0.279   8.458 -0.3391 -0.5576  1.8669
  154SAPE  H18Z17214   0.026   0.102   8.464 -1.6440  1.5714  0.1453
  155SAPE     N17215   0.715   3.518  10.965  0.8041 -0.2758 -0.4958
  155SAPE   HN117216   0.731   3.491  10.866  1.9782  3.9579 -1.7020
  155SAPE   HN217217   0.793   3.483  11.024  0.1587 -2.0214 -0.6370
  155SAPE   HN317218   0.631   3.467  10.996 -0.3642  1.6800 -0.2707
  155SAPE   C1217219   0.689   3.664  10.976 -0.5636  0.2857  1.0286
  155SAPE  H12A17220   0.667   3.690  11.082  1.9892  3.0584  1.0209
  155SAPE  H12B17221   0.600   3.696  10.918 -0.5066 -1.0499  0.1619
  155SAPE   C1117222   0.815   3.742  10.918 -0.0655  0.0603  0.4616
  155SAPE  H11A17223   0.906   3.706  10.969  0.5232 -1.4608 -1.5368
  155SAPE  H11B17224   0.808   3.851  10.936 -1.3932  0.0718  0.0523
  155SAPE     P17225   0.940   3.765  10.694  0.3770  0.1260  0.4451
  155SAPE   O1317226   0.899   3.760  10.552 -0.4157  0.0995 -0.0247
  155SAPE   O1417227   0.980   3.893  10.760  0.5768  0.0431 -0.2661
  155SAPE   O1217228   0.820   3.709  10.775 -0.3875 -0.2079 -0.2546
  155SAPE   O1117229   1.058   3.659  10.724  0.3295 -0.2137  0.2463
  155SAPE    C117230   1.038   3.525  10.684  0.5207  0.3090 -0.6578
  155SAPE    HA17231   1.068   3.466  10.773  0.8165 -0.9939 -1.6091
  155SAPE    HB17232   0.932   3.497  10.665  0.5860 -0.4149  0.0002
  155SAPE    C217233   1.124   3.481  10.566 -0.3619 -0.1750  0.1080
  155SAPE    HS17234   1.222   3.507  10.610  0.8698 -0.1742 -2.4790
  155SAPE   O2117235   1.095   3.556  10.447  0.5741 -0.0446 -0.0728
  155SAPE   C2117236   1.200   3.602  10.377 -0.2245 -0.2837 -0.3886
  155SAPE   O2217237   1.318   3.589  10.400  0.1584  0.3424 -0.7202
  155SAPE   C2217238   1.145   3.686  10.259  0.6791  0.1532  0.1034
  155SAPE   H2R17239   1.074   3.621  10.203 -0.9763  0.3004  1.9536
  155SAPE   H2S17240   1.085   3.764  10.309 -1.5590 -1.4975  0.1627
  155SAPE    C317241   1.123   3.327  10.533  0.6772 -0.4383 -0.4144
  155SAPE    HX17242   1.018   3.292  10.521  0.9430 -1.3286 -0.2483
  155SAPE    HY17243   1.160   3.281  10.627  0.9890  4.6019  2.2762
  155SAPE   O3117244   1.212   3.288  10.424 -0.3770  0.3573  0.1441
  155SAPE   C3117245   1.171   3.189  10.338 -0.7254  0.8632 -0.8158
  155SAPE   O3217246   1.072   3.128  10.360  0.0563 -0.6338  0.0224
  155SAPE   C3217247   1.250   3.176  10.211 -0.0058  0.4280 -0.1625
  155SAPE   H2X17248   1.354   3.185  10.248 -0.4243 -0.1907  1.2368
  155SAPE   H2Y17249   1.223   3.271  10.159  1.7433  1.5940  0.9802
  155SAPE   C2317250   1.246   3.742  10.159 -0.5295 -0.2451 -0.1911
  155SAPE   H3R17251   1.291   3.657  10.103 -1.8382 -0.1783 -1.4090
  155SAPE   H3S17252   1.331   3.796  10.205  1.0577 -1.4618 -1.5530
  155SAPE   C2417253   1.175   3.832  10.055 -0.2786  0.3183 -0.0814
  155SAPE   H4R17254   1.113   3.755  10.005  0.7045 -1.4154  1.2173
  155SAPE   H4S17255   1.251   3.853   9.977  0.3110 -0.8273  0.1618
  155SAPE   C2517256   1.096   3.951  10.110 -0.5439  0.3977  0.5072
  155SAPE   H5R17257   1.157   3.988  10.194 -0.0893  0.7704  0.0230
  155SAPE   C2617258   0.967   3.988  10.086  0.2959  0.0856  0.7543
  155SAPE   H6R17259   0.931   4.081  10.132  1.4918  0.7790  0.3357
  155SAPE   C2717260   0.884   3.914   9.984 -0.2304  0.0665 -0.7263
  155SAPE   H7R17261   0.888   3.806  10.008  0.5926 -0.3294 -2.4790
  155SAPE   H7S17262   0.928   3.936   9.885  2.5363  0.8531  0.5761
  155SAPE   C2817263   0.735   3.949   9.977  0.1386  0.3493  0.4233
  155SAPE   H8R17264   0.680   3.941  10.072 -3.0344  1.1656 -1.2169
  155SAPE   C2917265   0.655   3.983   9.879  0.3221  0.3044 -0.0827
  155SAPE   H9R17266   0.551   4.000   9.908  0.3806 -0.6860  0.7592
  155SAPE  C21017267   0.694   4.004   9.737 -1.3012 -0.7449 -0.3239
  155SAPE  H10R17268   0.679   3.906   9.687 -2.2329 -0.6407 -0.2679
  155SAPE  H10S17269   0.804   4.016   9.726 -1.3328 -1.0845 -1.0432
  155SAPE  C21117270   0.621   4.112   9.661 -0.2566 -0.1340 -0.1387
  155SAPE  H11R17271   0.640   4.213   9.701 -2.6440  0.1514  0.4783
  155SAPE  C21217272   0.537   4.101   9.562  0.3133  0.1238  0.7726
  155SAPE  H12R17273   0.483   4.189   9.525  2.5179  1.7819  1.2972
  155SAPE  C21317274   0.501   3.970   9.493 -0.8516 -0.1218  0.0542
  155SAPE  H13R17275   0.551   3.882   9.540  1.9958  0.8565 -0.9256
  155SAPE  H13S17276   0.553   3.958   9.396 -1.8716 -0.5660 -0.4499
  155SAPE  C21417277   0.350   3.953   9.484 -0.3243 -0.5407  0.2252
  155SAPE  H14R17278   0.297   3.927   9.577  0.8076  1.5043  1.5111
  155SAPE  C21517279   0.280   3.955   9.372 -0.4437 -0.1453 -0.0042
  155SAPE  H15R17280   0.170   3.949   9.374 -0.6075  1.8921 -0.4164
  155SAPE  C21617281   0.330   3.984   9.232 -0.7323 -1.0022  0.0850
  155SAPE  H16R17282   0.314   3.895   9.167 -2.2909 -1.7499  1.4126
  155SAPE  H16S17283   0.433   4.022   9.250 -0.6236 -2.0658  2.0439
  155SAPE  C21717284   0.249   4.099   9.171  0.3075 -0.6183 -0.5903
  155SAPE  H17R17285   0.261   4.192   9.230 -1.2650  1.3211 -3.1095
  155SAPE  H17S17286   0.143   4.076   9.196  0.2758  0.4990  0.4316
  155SAPE  C21817287   0.264   4.126   9.018 -0.2877  0.3873  0.0489
  155SAPE  H18R17288   0.257   4.024   8.976 -3.3580 -0.6253  2.6199
  155SAPE  H18S17289   0.364   4.166   8.990  0.2902 -0.0157  1.4724
  155SAPE  C21917290   0.160   4.206   8.930 -0.4287 -0.3699 -0.7909
  155SAPE  H19R17291   0.136   4.307   8.969 -2.6876 -1.1250 -0.0266
  155SAPE  H19S17292   0.063   4.152   8.938  0.9205 -3.0365 -1.2490
  155SAPE  C22017293   0.198   4.218   8.784 -0.2311  0.1134 -0.2339
  155SAPE  H20R17294   0.308   4.224   8.775 -0.0581  1.5589  2.0228
  155SAPE  H20S17295   0.161   4.315   8.744 -1.6889 -0.3291 -0.0117
  155SAPE  H20T17296   0.157   4.137   8.721  0.2704  0.6844 -1.3199
  155SAPE   C3317297   1.241   3.047  10.136  0.4365  0.8381  0.3824
  155SAPE   H3X17298   1.237   2.961  10.206 -0.2782  1.1573  0.7495
  155SAPE   H3Y17299   1.340   3.035  10.088 -0.8359 -0.5312 -2.0782
  155SAPE   C3417300   1.116   3.035  10.037 -0.2314 -0.1880 -0.3534
  155SAPE   H4X17301   1.038   3.076  10.105  0.2903 -2.2508  1.6302
  155SAPE   H4Y17302   1.104   2.929  10.006 -0.4721  0.0029 -0.9199
  155SAPE   C3517303   1.133   3.115   9.907  0.3110 -0.2289 -0.4323
  155SAPE   H5X17304   1.219   3.070   9.853  1.3493  2.1684 -0.9143
  155SAPE   H5Y17305   1.155   3.223   9.919  0.2981 -0.0282 -2.0344
  155SAPE   C3617306   1.018   3.109   9.804 -0.4494  0.2812  0.7663
  155SAPE   H6X17307   0.923   3.154   9.840 -0.3743  2.1026 -1.1457
  155SAPE   H6Y17308   0.996   3.002   9.782 -1.3341  0.2755  1.6313
  155SAPE   C3717309   1.067   3.161   9.667  0.2568  0.2559 -0.0495
  155SAPE   H7X17310   1.124   3.081   9.615 -1.2139 -0.5328 -0.5203
  155SAPE   H7Y17311   1.132   3.251   9.673 -2.1223  2.1230 -0.6894
  155SAPE   C3817312   0.945   3.213   9.586  0.3486 -0.1536  0.9534
  155SAPE   H8X17313   0.986   3.254   9.491 -0.6931 -1.9211 -0.3058
  155SAPE   H8Y17314   0.898   3.295   9.645  0.9514 -1.0171  2.6976
  155SAPE   C3917315   0.827   3.115   9.564 -1.0860 -0.1856 -0.1128
  155SAPE   H9X17316   0.740   3.181   9.544 -0.1393  0.7952 -1.1439
  155SAPE   H9Y17317   0.810   3.048   9.651  0.5107 -0.2677  0.1758
  155SAPE  C31017318   0.857   3.019   9.440  0.1470  0.2866 -0.4270
  155SAPE  H10X17319   0.935   2.947   9.474  0.4159  1.0189  0.5409
  155SAPE  H10Y17320   0.901   3.072   9.353 -0.8186  0.5773 -0.7474
  155SAPE  C31117321   0.737   2.940   9.397 -0.9297  0.4299 -0.0634
  155SAPE  H11X17322   0.655   3.008   9.367 -1.1075  0.2949  0.1165
  155SAPE  H11Y17323   0.700   2.872   9.477 -0.9770  1.9224  1.2291
  155SAPE  C31217324   0.783   2.855   9.279  0.2616 -0.4826  0.7663
  155SAPE  H12X17325   0.861   2.779   9.299 -0.6141 -0.9324  2.7345
  155SAPE  H12Y17326   0.812   2.924   9.198 -0.9263 -1.6240 -0.6984
  155SAPE  C31317327   0.667   2.765   9.227  0.2735 -0.1205  0.1228
  155SAPE  H13X17328   0.584   2.831   9.194  1.0761  1.5749  1.3495
  155SAPE  H13Y17329   0.632   2.706   9.315 -1.4510  0.0739 -0.3857
  155SAPE  C31417330   0.713   2.663   9.113 -1.4892 -0.0849  0.0634
  155SAPE  H14X17331   0.639   2.584   9.090 -1.2605  0.3796 -2.5859
  155SAPE  H14Y17332   0.813   2.629   9.148 -0.8816  1.3394 -0.2194
  155SAPE  C31517333   0.710   2.733   8.974 -0.5752  0.1760 -0.4547
  155SAPE  H15X17334   0.786   2.815   8.975  1.3325 -1.4903 -0.8435
  155SAPE  H15Y17335   0.613   2.784   8.959 -2.4822 -3.0017  0.3361
  155SAPE  C31617336   0.759   2.644   8.853  0.6028 -0.1101 -0.6039
  155SAPE  H16X17337   0.748   2.708   8.763  0.3660  2.7558  1.2950
  155SAPE  H16Y17338   0.695   2.554   8.855  1.1102 -0.5007 -1.7070
  155SAPE  C31717339   0.900   2.585   8.864 -0.7320  0.2518 -0.1808
  155SAPE  H17X17340   0.908   2.513   8.948 -0.6825 -0.6316 -0.9181
  155SAPE  H17Y17341   0.975   2.666   8.877 -2.5889  2.1181 -0.6497
  155SAPE  C31817342   0.930   2.499   8.743  0.0312 -0.3582  0.0317
  155SAPE  H18X17343   1.032   2.457   8.751 -0.1364 -1.3173 -2.2930
  155SAPE  H18Y17344   0.944   2.560   8.651 -4.1141  0.0923 -0.5324
  155SAPE  H18Z17345   0.856   2.420   8.719  2.5978 -3.1466  0.7741
  156SAPE     N17346   6.214   0.354  10.540  0.1303 -0.3352  0.1323
  156SAPE   HN117347   6.162   0.300  10.612 -0.5301  2.0859  1.5870
  156SAPE   HN217348   6.232   0.284  10.465  1.7649  1.8405 -1.6559
  156SAPE   HN317349   6.304   0.372  10.589 -1.0724 -0.5183  2.5726
  156SAPE   C1217350   6.146   0.477  10.487  0.2496 -0.2250  0.1579
  156SAPE  H12A17351   6.226   0.547  10.456 -0.3027  0.5513  0.4716
  156SAPE  H12B17352   6.095   0.527  10.572 -0.9195 -2.5511  0.9222
  156SAPE   C1117353   6.054   0.443  10.364 -0.4884 -0.3921 -0.3586
  156SAPE  H11A17354   6.119   0.413  10.279  0.2460  0.8683 -0.2760
  156SAPE  H11B17355   6.001   0.535  10.330  1.7685  1.2068  0.1813
  156SAPE     P17356   5.823   0.363  10.469 -0.3162 -0.1944 -0.4102
  156SAPE   O1317357   5.829   0.290  10.596  0.2406  0.1219  0.6000
  156SAPE   O1417358   5.799   0.507  10.485  0.3851  0.0479  0.1218
  156SAPE   O1217359   5.958   0.341  10.394  0.2492  0.1370 -0.4525
  156SAPE   O1117360   5.709   0.303  10.387  0.0999 -0.0630 -0.2612
  156SAPE    C117361   5.735   0.218  10.269 -0.3248 -0.2354 -0.3429
  156SAPE    HA17362   5.806   0.138  10.299 -0.9852 -0.9578 -0.6739
  156SAPE    HB17363   5.641   0.169  10.236 -0.7501  0.2645  0.1041
  156SAPE    C217364   5.795   0.293  10.152  0.1311 -0.0088  1.0444
  156SAPE    HS17365   5.892   0.340  10.179 -0.5820  0.9776  1.9673
  156SAPE   O2117366   5.702   0.393  10.116  0.7662  0.1430 -0.9299
  156SAPE   C2117367   5.746   0.509  10.083 -0.7192 -0.0546  0.4815
  156SAPE   O2217368   5.863   0.533  10.062  0.2430 -0.1163 -0.0353
  156SAPE   C2217369   5.630   0.607  10.064  0.6044 -0.5772  0.3835
  156SAPE   H2R17370   5.537   0.546  10.056  0.7692 -0.6620 -1.1218
  156SAPE   H2S17371   5.632   0.667  10.157  0.7321  0.0641 -0.0227
  156SAPE    C317372   5.811   0.197  10.026  0.1617  0.0880 -0.1149
  156SAPE    HX17373   5.707   0.166  10.001  0.5393 -0.3183 -1.2560
  156SAPE    HY17374   5.859   0.100  10.053 -1.0670  0.2025  2.8724
  156SAPE   O3117375   5.866   0.257   9.907  0.1490  0.2485 -0.3500
  156SAPE   C3117376   6.000   0.263   9.912 -0.5588  0.2143 -0.4936
  156SAPE   O3217377   6.073   0.236  10.005 -0.5310 -0.1805  0.1999
  156SAPE   C3217378   6.045   0.313   9.775 -0.2578 -0.2321 -0.0749
  156SAPE   H2X17379   6.051   0.422   9.795  1.4317 -0.7051  2.3546
  156SAPE   H2Y17380   5.967   0.287   9.700 -0.5499 -0.5312  0.3274
  156SAPE   C2317381   5.651   0.708   9.948  0.1827 -0.1684  0.8407
  156SAPE   H3R17382   5.759   0.735   9.957  0.4279 -1.1867  1.0085
  156SAPE   H3S17383   5.581   0.793   9.962  0.9833  0.8168 -0.7220
  156SAPE   C2417384   5.630   0.649   9.807  0.2569 -0.1219  0.3978
  156SAPE   H4R17385   5.705   0.570   9.788 -0.6446 -1.1260  0.8991
  156SAPE   H4S17386   5.637   0.733   9.734  0.8778 -0.0327  0.5526
  156SAPE   C2517387   5.492   0.595   9.794  0.0766  0.7971 -0.2516
  156SAPE   H5R17388   5.405   0.657   9.819 -0.6236  0.0495 -0.7854
  156SAPE   C2617389   5.469   0.473   9.743 -0.3893 -0.2823  0.4696
  156SAPE   H6R17390   5.363   0.444   9.737 -0.7390  1.0453 -0.3719
  156SAPE   C2717391   5.556   0.364   9.694  0.5045 -0.0333  0.1853
  156SAPE   H7R17392   5.607   0.320   9.783  0.5767 -1.1106 -0.3848
  156SAPE   H7S17393   5.636   0.408   9.630 -0.3751  1.1318 -0.1363
  156SAPE   C2817394   5.497   0.259   9.607  0.3780  0.4739 -0.7412
  156SAPE   H8R17395   5.465   0.169   9.662  1.6796 -0.5247 -1.5250
  156SAPE   C2917396   5.473   0.263   9.473  0.3500  0.1322 -1.4149
  156SAPE   H9R17397   5.422   0.181   9.422 -1.4090  0.3247 -0.0559
  156SAPE  C21017398   5.492   0.381   9.383 -0.2663 -0.1207  0.1761
  156SAPE  H10R17399   5.531   0.466   9.442  0.3070 -0.6985  0.6341
  156SAPE  H10S17400   5.390   0.413   9.353 -0.4998 -1.4242 -0.5050
  156SAPE  C21117401   5.595   0.334   9.277  0.5146 -0.2446 -0.2325
  156SAPE  H11R17402   5.699   0.338   9.313  0.3463 -2.6466  0.6908
  156SAPE  C21217403   5.579   0.317   9.147 -0.1498  0.4999  1.0526
  156SAPE  H12R17404   5.666   0.296   9.084 -1.2465  0.5759 -0.5513
  156SAPE  C21317405   5.444   0.323   9.071 -0.3478  0.4629 -0.7053
  156SAPE  H13R17406   5.363   0.304   9.144 -0.3002 -0.2714 -0.8310
  156SAPE  H13S17407   5.436   0.237   9.001  3.8982 -2.6314  2.1658
  156SAPE  C21417408   5.402   0.459   9.017  0.4664 -0.1261  0.0321
  156SAPE  H14R17409   5.394   0.541   9.090 -0.8817  1.7267 -2.0560
  156SAPE  C21517410   5.370   0.485   8.882  0.0689  0.4199 -0.4356
  156SAPE  H15R17411   5.345   0.588   8.854  2.8385  1.1070 -0.6084
  156SAPE  C21617412   5.369   0.386   8.770 -0.0941  0.0051  0.1675
  156SAPE  H16R17413   5.264   0.352   8.756 -0.1454 -0.4823  1.5702
  156SAPE  H16S17414   5.428   0.295   8.796 -0.6556 -0.3722  0.1583
  156SAPE  C21717415   5.422   0.454   8.643 -0.4914  1.0990 -0.8048
  156SAPE  H17R17416   5.364   0.546   8.618 -0.5880  1.7324  1.5423
  156SAPE  H17S17417   5.419   0.379   8.562 -0.2928 -0.4923  0.6110
  156SAPE  C21817418   5.571   0.484   8.674  0.4873  0.4953 -0.4380
  156SAPE  H18R17419   5.598   0.385   8.716  4.1902  1.8733  0.8526
  156SAPE  H18S17420   5.570   0.560   8.755 -1.1506  1.8328 -1.6320
  156SAPE  C21917421   5.656   0.522   8.548  0.5995  0.0609  0.1967
  156SAPE  H19R17422   5.724   0.607   8.571  1.0023  0.5480 -2.5105
  156SAPE  H19S17423   5.587   0.556   8.468 -0.9040 -2.6605  0.2268
  156SAPE  C22017424   5.733   0.401   8.493 -0.9991 -0.2218  0.5065
  156SAPE  H20R17425   5.823   0.418   8.429 -0.3133  1.1521  1.7779
  156SAPE  H20S17426   5.663   0.345   8.426 -0.5366 -0.4070  0.1709
  156SAPE  H20T17427   5.772   0.341   8.577 -2.2897 -0.6237  0.8461
  156SAPE   C3317428   6.187   0.259   9.750  0.0424  0.2104 -0.5286
  156SAPE   H3X17429   6.259   0.265   9.834  0.6822  2.5457 -1.1688
  156SAPE   H3Y17430   6.225   0.314   9.661  0.0268  1.0368 -0.0329
  156SAPE   C3417431   6.188   0.115   9.684 -0.4406  0.0274  0.5250
  156SAPE   H4X17432   6.133   0.057   9.762  0.1112 -2.1626 -0.6516
  156SAPE   H4Y17433   6.293   0.081   9.689 -0.5498 -0.6462 -1.2376
  156SAPE   C3517434   6.133   0.106   9.544 -0.4097 -0.3872 -0.7947
  156SAPE   H5X17435   6.046   0.173   9.529  1.8464  2.5020 -1.8330
  156SAPE   H5Y17436   6.098   0.005   9.515 -0.6711 -0.2721 -0.8803
  156SAPE   C3617437   6.231   0.144   9.431  0.3005 -0.1054  0.0371
  156SAPE   H6X17438   6.319   0.079   9.411  1.2575  0.4117  2.2274
  156SAPE   H6Y17439   6.282   0.235   9.469 -0.7168 -0.3676  2.1691
  156SAPE   C3717440   6.172   0.171   9.291  0.5264 -0.6791  0.6299
  156SAPE   H7X17441   6.090   0.246   9.292 -2.2710 -3.4240 -2.0697
  156SAPE   H7Y17442   6.128   0.077   9.251  0.8195 -0.9035  0.8298
  156SAPE   C3817443   6.272   0.223   9.183 -0.1354  0.4716 -0.5211
  156SAPE   H8X17444   6.216   0.244   9.089 -0.1809 -0.5580 -0.7278
  156SAPE   H8Y17445   6.344   0.141   9.164 -1.8050 -0.7387 -1.9639
  156SAPE   C3917446   6.345   0.353   9.218 -0.2706 -1.0153 -0.3179
  156SAPE   H9X17447   6.422   0.328   9.294 -2.3382  0.5650  2.4435
  156SAPE   H9Y17448   6.281   0.425   9.272 -0.6696 -0.5568 -1.3622
  156SAPE  C31017449   6.414   0.434   9.102 -0.0483 -0.1863  0.6891
  156SAPE  H10X17450   6.336   0.422   9.024  0.0344 -0.4466  0.6443
  156SAPE  H10Y17451   6.501   0.374   9.070  0.5554  0.2847  1.4120
  156SAPE  C31117452   6.458   0.582   9.130  0.8432 -0.0224 -0.5009
  156SAPE  H11X17453   6.550   0.578   9.193  0.0887 -1.0896  0.5645
  156SAPE  H11Y17454   6.384   0.632   9.196 -0.6067  0.2039 -2.2395
  156SAPE  C31217455   6.497   0.661   9.012 -0.3022 -0.2816  0.4108
  156SAPE  H12X17456   6.561   0.596   8.949 -0.3863 -2.5774  2.5223
  156SAPE  H12Y17457   6.549   0.753   9.046 -0.7236  0.1276 -0.0390
  156SAPE  C31317458   6.368   0.706   8.935 -0.5974 -0.4371  0.6530
  156SAPE  H13X17459   6.296   0.751   9.007 -0.5629 -0.5742  0.7735
  156SAPE  H13Y17460   6.318   0.611   8.905 -1.6171  0.5572 -0.8919
  156SAPE  C31417461   6.406   0.797   8.818 -0.5767 -0.0951 -0.8234
  156SAPE  H14X17462   6.315   0.814   8.756 -1.0549  0.7928  0.0988
  156SAPE  H14Y17463   6.478   0.744   8.752  0.3882  0.3805 -0.1651
  156SAPE  C31517464   6.453   0.934   8.869 -0.3090 -0.2415  0.6112
  156SAPE  H15X17465   6.545   0.923   8.931  1.1387 -0.3829 -1.4663
  156SAPE  H15Y17466   6.372   0.980   8.929 -0.6157  0.2837 -0.1896
  156SAPE  C31617467   6.462   1.037   8.756 -0.1424  0.6879  0.0709
  156SAPE  H16X17468   6.468   1.130   8.817 -0.3467 -0.0318  1.2208
  156SAPE  H16Y17469   6.370   1.047   8.695  1.3777  0.9020 -2.3248
  156SAPE  C31717470   6.577   1.020   8.665 -0.0584  0.0128 -0.7884
  156SAPE  H17X17471   6.552   0.941   8.591  0.3184 -1.7324  0.8627
  156SAPE  H17Y17472   6.659   0.969   8.720 -0.1139 -2.5493 -2.8343
  156SAPE  C31817473   6.638   1.155   8.605  0.9915  0.3264 -0.2104
  156SAPE  H18X17474   6.553   1.216   8.567 -0.1685 -1.0749  0.0632
  156SAPE  H18Y17475   6.698   1.133   8.513 -0.3473 -2.1542 -0.5785
  156SAPE  H18Z17476   6.691   1.219   8.679 -0.5731 -1.0801  2.2316
  157SAPE     N17477   5.616   0.137  10.673 -0.3912 -0.2194  0.0455
  157SAPE   HN117478   5.563   0.213  10.720  0.4694  0.1178  0.5046
  157SAPE   HN217479   5.637   0.070  10.750 -2.8702  1.3478  2.2513
  157SAPE   HN317480   5.707   0.172  10.637 -1.2000  0.2554 -1.6131
  157SAPE   C1217481   5.541   0.067  10.560  0.2778 -0.6480 -0.1630
  157SAPE  H12A17482   5.522   0.151  10.490  1.5132  1.0845  1.4482
  157SAPE  H12B17483   5.449   0.020  10.599 -0.8299 -0.9985 -3.0025
  157SAPE   C1117484   5.634  -0.037  10.497  0.3009  0.3075  0.4941
  157SAPE  H11A17485   5.712   0.015  10.438  0.7932 -1.1190 -0.1464
  157SAPE  H11B17486   5.581  -0.104  10.426  0.7809  1.0463 -0.5859
  157SAPE     P17487   5.633  -0.252  10.640  0.0165  0.0344  0.3007
  157SAPE   O1317488   5.725  -0.323  10.725 -0.5132  0.0652  0.3397
  157SAPE   O1417489   5.495  -0.240  10.692 -0.6473  0.3358 -0.0028
  157SAPE   O1217490   5.695  -0.112  10.605  0.7318 -0.2524  0.1263
  157SAPE   O1117491   5.633  -0.327  10.497 -0.7411  1.0820  0.3186
  157SAPE    C117492   5.766  -0.358  10.441  0.5194  0.1380  0.0631
  157SAPE    HA17493   5.834  -0.271  10.446  0.4401  0.2006  0.0442
  157SAPE    HB17494   5.802  -0.445  10.500 -0.2088  0.4149  0.9376
  157SAPE    C217495   5.769  -0.396  10.287  0.1560 -0.1671 -0.3089
  157SAPE    HS17496   5.870  -0.393  10.241  1.0210  1.7199  1.5499
  157SAPE   O2117497   5.666  -0.317  10.215  0.0772  0.7759  0.4306
  157SAPE   C2117498   5.694  -0.192  10.190 -0.4995  0.8880 -0.4936
  157SAPE   O2217499   5.799  -0.139  10.219  0.0379 -0.0203 -0.1672
  157SAPE   C2217500   5.591  -0.136  10.100 -0.5346 -0.0995 -0.6403
  157SAPE   H2R17501   5.498  -0.122  10.159  1.1011  3.7499  1.4797
  157SAPE   H2S17502   5.629  -0.034  10.074  0.9927  0.0523  1.8578
  157SAPE    C317503   5.726  -0.541  10.273  0.8869  0.1472  0.2805
  157SAPE    HX17504   5.625  -0.540  10.320  1.0682  2.0863  0.7217
  157SAPE    HY17505   5.798  -0.604  10.329 -0.9685 -1.1624  1.3038
  157SAPE   O3117506   5.700  -0.581  10.135  0.5738 -0.1215 -0.5453
  157SAPE   C3117507   5.804  -0.619  10.064 -0.0733 -0.0170 -0.3076
  157SAPE   O3217508   5.919  -0.634  10.107 -0.0273  0.0990  0.2848
  157SAPE   C3217509   5.763  -0.628   9.916  0.0676 -0.2591 -0.0691
  157SAPE   H2X17510   5.704  -0.538   9.887 -1.5213 -1.6034 -1.1678
  157SAPE   H2Y17511   5.694  -0.709   9.885  0.2150  0.1853 -1.6532
  157SAPE   C2317512   5.555  -0.231   9.976  0.0726  0.3765  0.7066
  157SAPE   H3R17513   5.465  -0.200   9.919  0.3736  0.5692  0.3323
  157SAPE   H3S17514   5.526  -0.331  10.015  1.5600  1.0261  3.8901
  157SAPE   C2417515   5.677  -0.254   9.876 -0.3368 -0.7070 -0.8051
  157SAPE   H4R17516   5.650  -0.326   9.796  0.3018 -1.8338 -0.0344
  157SAPE   H4S17517   5.766  -0.277   9.939 -0.6904 -0.8413 -0.3515
  157SAPE   C2517518   5.714  -0.125   9.806 -0.7275  0.3450 -0.5511
  157SAPE   H5R17519   5.749  -0.052   9.881  0.6988 -1.1965  0.3453
  157SAPE   C2617520   5.718  -0.083   9.679 -0.0978 -0.5325  0.2179
  157SAPE   H6R17521   5.762   0.015   9.656 -0.7484 -0.4829 -0.8516
  157SAPE   C2717522   5.682  -0.164   9.557 -0.3524 -0.1036 -0.4386
  157SAPE   H7R17523   5.646  -0.090   9.482 -0.3210  0.6896  0.3129
  157SAPE   H7S17524   5.606  -0.239   9.589 -0.3318 -0.6750 -1.6635
  157SAPE   C2817525   5.804  -0.244   9.506  0.8585  0.5816 -0.6432
  157SAPE   H8R17526   5.864  -0.291   9.585  1.5239  1.5026 -0.5894
  157SAPE   C2917527   5.832  -0.266   9.379 -0.9171  0.1735 -0.3364
  157SAPE   H9R17528   5.930  -0.312   9.358  0.3755  2.8359 -0.4496
  157SAPE  C21017529   5.751  -0.219   9.260 -0.6515  0.3496 -0.4868
  157SAPE  H10R17530   5.653  -0.181   9.294 -1.0148 -1.8984  1.1734
  157SAPE  H10S17531   5.727  -0.315   9.209  1.2482 -1.5684  1.9936
  157SAPE  C21117532   5.821  -0.117   9.175 -0.1978 -0.5900 -0.0338
  157SAPE  H11R17533   5.914  -0.072   9.213  0.7376 -1.7200 -0.8957
  157SAPE  C21217534   5.780  -0.080   9.053  0.4988 -0.3666  0.0876
  157SAPE  H12R17535   5.842  -0.012   8.992 -1.3917 -0.6270 -2.3114
  157SAPE  C21317536   5.662  -0.137   8.974  0.1569 -0.1596 -0.4475
  157SAPE  H13R17537   5.615  -0.222   9.027  2.3842 -0.9496  0.4141
  157SAPE  H13S17538   5.704  -0.189   8.886  0.7923  0.3101 -0.4344
  157SAPE  C21417539   5.556  -0.033   8.944  0.2529  0.1644  0.4496
  157SAPE  H14R17540   5.532   0.035   9.027 -0.3943  1.7995 -0.9998
  157SAPE  C21517541   5.496  -0.016   8.822  0.7967  0.3786 -0.6349
  157SAPE  H15R17542   5.418   0.061   8.806 -0.3102 -0.5260  0.2044
  157SAPE  C21617543   5.518  -0.098   8.696  0.7294  0.8241 -0.4652
  157SAPE  H16R17544   5.417  -0.135   8.669  0.8628 -0.7649  0.9825
  157SAPE  H16S17545   5.579  -0.188   8.721  0.3291  0.4900 -0.6786
  157SAPE  C21717546   5.572  -0.025   8.571  0.1470  0.3650 -0.1304
  157SAPE  H17R17547   5.510   0.062   8.543 -1.3490 -0.6022  0.0467
  157SAPE  H17S17548   5.584  -0.103   8.493  1.8519  0.3291  0.1284
  157SAPE  C21817549   5.712   0.029   8.596  0.2539  0.1552  0.1885
  157SAPE  H18R17550   5.778  -0.047   8.643 -0.3379 -0.0742  0.6634
  157SAPE  H18S17551   5.692   0.116   8.663 -0.3197  0.1963 -0.0306
  157SAPE  C21917552   5.787   0.064   8.476 -0.0648 -0.4761  0.2833
  157SAPE  H19R17553   5.735   0.141   8.415 -0.9162  0.3839  2.0317
  157SAPE  H19S17554   5.799  -0.030   8.417 -0.6870 -1.1664  1.2352
  157SAPE  C22017555   5.934   0.110   8.509  0.4580  0.2971  0.3544
  157SAPE  H20R17556   5.975   0.157   8.417  0.3286 -0.9504 -0.3587
  157SAPE  H20S17557   5.998   0.023   8.537 -1.4236 -0.6246  2.0293
  157SAPE  H20T17558   5.953   0.178   8.595 -1.0222  1.4246 -0.1653
  157SAPE   C3317559   5.874  -0.630   9.813 -0.4590  0.3002 -0.0577
  157SAPE   H3X17560   5.905  -0.736   9.797 -0.2275  0.6202 -1.9120
  157SAPE   H3Y17561   5.966  -0.584   9.856 -1.2803  2.5767 -0.5963
  157SAPE   C3417562   5.839  -0.572   9.677  0.2240  0.9521 -0.5325
  157SAPE   H4X17563   5.930  -0.555   9.616 -0.2544  0.9701 -1.2545
  157SAPE   H4Y17564   5.781  -0.479   9.699 -1.7097 -0.3534  0.1482
  157SAPE   C3517565   5.745  -0.667   9.593 -0.0259 -0.8209 -0.0110
  157SAPE   H5X17566   5.647  -0.669   9.646  0.7181  0.3142  1.4891
  157SAPE   H5Y17567   5.783  -0.771   9.592  1.5472 -0.3030  1.6170
  157SAPE   C3617568   5.734  -0.622   9.446  0.4344  0.2181  0.1947
  157SAPE   H6X17569   5.838  -0.601   9.416 -0.5314  2.6191 -1.8474
  157SAPE   H6Y17570   5.690  -0.520   9.439  0.2932  0.0474 -1.9619
  157SAPE   C3717571   5.656  -0.714   9.353 -0.9746  0.1332  0.5068
  157SAPE   H7X17572   5.555  -0.732   9.394 -0.2391 -0.2897  2.2349
  157SAPE   H7Y17573   5.717  -0.806   9.343  1.3260  1.4523  1.3967
  157SAPE   C3817574   5.646  -0.666   9.209 -0.3334  0.1477 -0.4511
  157SAPE   H8X17575   5.749  -0.652   9.169  0.8874 -0.4945  2.2765
  157SAPE   H8Y17576   5.592  -0.569   9.215 -1.6032 -0.4724 -1.3457
  157SAPE   C3917577   5.579  -0.766   9.115  0.8148  0.2468  0.4842
  157SAPE   H9X17578   5.477  -0.789   9.151  1.2728 -2.2598  0.3404
  157SAPE   H9Y17579   5.632  -0.864   9.111  0.5527  0.0832  0.9488
  157SAPE  C31017580   5.562  -0.711   8.969  0.2180  0.5402 -0.5274
  157SAPE  H10X17581   5.658  -0.690   8.917  0.5353  1.9748  0.5663
  157SAPE  H10Y17582   5.498  -0.620   8.977 -0.7863 -0.2231  0.3779
  157SAPE  C31117583   5.490  -0.816   8.885  1.1664  0.4781  0.1383
  157SAPE  H11X17584   5.412  -0.869   8.943  1.6823 -0.4611 -0.0109
  157SAPE  H11Y17585   5.564  -0.896   8.861  0.6275 -0.2845  0.9653
  157SAPE  C31217586   5.425  -0.762   8.753  1.0262  0.1676  0.0007
  157SAPE  H12X17587   5.510  -0.705   8.708 -1.4356  2.1555 -2.4768
  157SAPE  H12Y17588   5.348  -0.694   8.796 -2.2031 -2.8322 -0.5861
  157SAPE  C31317589   5.363  -0.863   8.658  0.4252  0.3010  0.2771
  157SAPE  H13X17590   5.284  -0.917   8.714 -0.8205  3.2999  1.5879
  157SAPE  H13Y17591   5.446  -0.927   8.621  0.6672  0.1053  1.1200
  157SAPE  C31417592   5.305  -0.789   8.536  0.1369 -0.1125  0.2461
  157SAPE  H14X17593   5.386  -0.746   8.474  2.1748  1.0691  3.5220
  157SAPE  H14Y17594   5.237  -0.706   8.565 -1.7819 -1.8873  1.1759
  157SAPE  C31517595   5.221  -0.885   8.444  0.0552  0.3479 -0.4634
  157SAPE  H15X17596   5.168  -0.962   8.504  0.7065  1.4646  1.6386
  157SAPE  H15Y17597   5.281  -0.949   8.375 -0.4520 -2.8541  1.8060
  157SAPE  C31617598   5.128  -0.810   8.350  0.1116  0.3626 -0.5273
  157SAPE  H16X17599   5.052  -0.748   8.402  0.0395  0.6716 -0.9903
  157SAPE  H16Y17600   5.070  -0.888   8.295 -0.5089  0.8857 -0.6265
  157SAPE  C31717601   5.200  -0.724   8.247  0.4611  0.5125 -0.2774
  157SAPE  H17X17602   5.268  -0.662   8.309 -2.1862  1.5326  1.8110
  157SAPE  H17Y17603   5.127  -0.649   8.209 -0.5870 -0.4704 -0.2590
  157SAPE  C31817604   5.264  -0.794   8.126 -0.4915 -0.2517 -0.0676
  157SAPE  H18X17605   5.196  -0.845   8.056  0.4527  2.4383 -3.1872
  157SAPE  H18Y17606   5.345  -0.867   8.150 -1.8775 -1.1646  2.2360
  157SAPE  H18Z17607   5.307  -0.704   8.077  0.1165  0.1736  1.1994
  158SAPE     N17608   5.712   0.740  10.550 -0.1576  0.2117 -0.7217
  158SAPE   HN117609   5.764   0.658  10.513  2.1289  1.8315 -1.2379
  158SAPE   HN217610   5.779   0.796  10.606 -1.0491  0.0010  0.6056
  158SAPE   HN317611   5.638   0.719  10.620 -0.4056  0.9280 -0.7603
  158SAPE   C1217612   5.662   0.833  10.439  0.0126  0.1739  0.3615
  158SAPE  H12A17613   5.562   0.871  10.471 -0.1197 -0.1133  0.2910
  158SAPE  H12B17614   5.639   0.768  10.352 -0.3597  0.3116  0.3553
  158SAPE   C1117615   5.752   0.945  10.392 -0.6041 -0.0281 -0.0624
  158SAPE  H11A17616   5.708   0.997  10.304 -2.1936  3.2629  2.4795
  158SAPE  H11B17617   5.840   0.890  10.353 -1.4462  0.0115 -2.2063
  158SAPE     P17618   5.920   1.027  10.568 -0.6717  0.7202 -0.0010
  158SAPE   O1317619   5.934   1.142  10.661  0.1090  0.3278 -0.2355
  158SAPE   O1417620   5.927   0.898  10.634  0.3602 -0.5668  0.0576
  158SAPE   O1217621   5.777   1.035  10.500  0.2061  0.3145  0.4060
  158SAPE   O1117622   6.035   1.042  10.452  0.3199  0.0312 -0.1159
  158SAPE    C117623   6.058   1.169  10.397  0.1633  0.1113  0.1116
  158SAPE    HA17624   6.031   1.260  10.455  1.0402  0.6702 -0.3459
  158SAPE    HB17625   6.165   1.168  10.367 -0.3706 -0.5562 -1.8422
  158SAPE    C217626   5.971   1.190  10.272 -0.2958  0.6890 -0.1503
  158SAPE    HS17627   5.864   1.186  10.303 -1.4538 -0.4116 -3.8371
  158SAPE   O2117628   5.993   1.081  10.192  0.0263 -0.3311  0.3928
  158SAPE   C2117629   5.916   1.061  10.090  0.4917  0.1498  0.2868
  158SAPE   O2217630   5.801   1.092  10.081 -0.1728 -0.6376 -0.4829
  158SAPE   C2217631   5.990   0.966   9.998  0.2218 -0.2257 -0.1547
  158SAPE   H2R17632   6.094   1.004   9.989  0.0087  0.0564 -1.9016
  158SAPE   H2S17633   5.982   0.870  10.054 -1.5972 -0.2811 -0.4151
  158SAPE    C317634   6.006   1.337  10.198  0.7942 -0.4694  0.5588
  158SAPE    HX17635   6.011   1.414  10.278  1.1662 -0.6358  0.6977
  158SAPE    HY17636   5.912   1.356  10.142  0.6394 -0.6353  0.7625
  158SAPE   O3117637   6.128   1.328  10.120 -0.0817  0.3478 -0.2085
  158SAPE   C3117638   6.176   1.445  10.078  0.0618  0.6552 -0.1754
  158SAPE   O3217639   6.147   1.555  10.123  0.2385  0.0107 -0.0806
  158SAPE   C3217640   6.269   1.428   9.960  0.7411 -0.2926 -0.4045
  158SAPE   H2X17641   6.368   1.388   9.990  1.8509  3.8472  2.3079
  158SAPE   H2Y17642   6.272   1.530   9.917 -1.1613 -0.0726 -0.0958
  158SAPE   C2317643   5.935   0.967   9.855 -0.3459  0.5308  0.1318
  158SAPE   H3R17644   5.939   1.072   9.818 -1.9286  0.1199 -1.3430
  158SAPE   H3S17645   5.828   0.937   9.842  0.3651 -1.3129 -2.2063
  158SAPE   C2417646   6.017   0.880   9.761 -0.0506 -0.0974  0.5558
  158SAPE   H4R17647   6.121   0.902   9.795 -0.0521  1.4960 -0.3582
  158SAPE   H4S17648   5.999   0.932   9.665 -0.8780  0.8706  1.2049
  158SAPE   C2517649   5.985   0.725   9.770  0.1669 -0.9082  0.3261
  158SAPE   H5R17650   5.986   0.690   9.874 -1.0771 -0.1189  0.6151
  158SAPE   C2617651   5.966   0.634   9.669  0.4570 -0.4077  0.6602
  158SAPE   H6R17652   5.922   0.536   9.690 -0.4979 -0.3746 -1.0043
  158SAPE   C2717653   5.960   0.682   9.523  0.3586 -0.0839 -0.1733
  158SAPE   H7R17654   5.940   0.791   9.524  0.6073 -0.0398  0.0333
  158SAPE   H7S17655   5.868   0.629   9.489 -0.9679 -1.7052  5.0107
  158SAPE   C2817656   6.086   0.648   9.446 -0.7493  0.9206 -0.1773
  158SAPE   H8R17657   6.166   0.593   9.498 -0.8485  1.4796  0.5947
  158SAPE   C2917658   6.085   0.658   9.311 -0.4941 -0.5519 -0.2668
  158SAPE   H9R17659   6.172   0.629   9.251 -0.5604 -1.6331  0.1512
  158SAPE  C21017660   5.973   0.723   9.230 -0.2786  0.5669 -0.1134
  158SAPE  H10R17661   6.018   0.783   9.148  2.5262 -0.4229  0.5582
  158SAPE  H10S17662   5.925   0.795   9.299  1.3117  0.9371  0.6599
  158SAPE  C21117663   5.867   0.624   9.187  0.2236  0.3878  0.2180
  158SAPE  H11R17664   5.809   0.577   9.268 -1.0443  0.6718 -0.4979
  158SAPE  C21217665   5.845   0.582   9.058 -0.4810  0.2664  0.0152
  158SAPE  H12R17666   5.757   0.518   9.045 -0.7753  0.9626 -1.6924
  158SAPE  C21317667   5.920   0.628   8.928 -0.1091 -0.1688 -0.4077
  158SAPE  H13R17668   6.016   0.679   8.951 -1.1893  0.5412  3.1795
  158SAPE  H13S17669   5.850   0.702   8.885  1.8082  2.0311  0.0739
  158SAPE  C21417670   5.927   0.501   8.839 -0.0465 -0.0313  0.0318
  158SAPE  H14R17671   5.865   0.417   8.875 -0.1095 -0.5947 -1.3366
  158SAPE  C21517672   6.000   0.483   8.733  0.5513 -0.1650  0.4876
  158SAPE  H15R17673   5.990   0.384   8.686 -1.6689  0.7763 -1.1781
  158SAPE  C21617674   6.094   0.583   8.664  0.1152 -0.0531  0.7553
  158SAPE  H16R17675   6.200   0.556   8.683  0.5526  0.4250 -0.8457
  158SAPE  H16S17676   6.080   0.686   8.705  2.0610  0.7852 -0.5335
  158SAPE  C21717677   6.097   0.587   8.506 -0.1601 -0.2869 -0.1098
  158SAPE  H17R17678   6.174   0.663   8.481  1.0073 -1.5007 -0.3295
  158SAPE  H17S17679   6.003   0.638   8.476  0.2465 -0.5900 -2.0272
  158SAPE  C21817680   6.108   0.453   8.437  0.5153 -0.3592  0.6222
  158SAPE  H18R17681   6.030   0.384   8.476  1.6459 -1.1575  1.5216
  158SAPE  H18S17682   6.203   0.411   8.475  1.2750  0.0772 -0.7234
  158SAPE  C21917683   6.101   0.459   8.280 -0.6549 -1.0916  0.3020
  158SAPE  H19R17684   6.172   0.532   8.236 -1.5224  0.6005  1.5855
  158SAPE  H19S17685   6.001   0.504   8.263  0.2049  1.4956  1.5101
  158SAPE  C22017686   6.113   0.325   8.208  0.3748  0.3112  0.0652
  158SAPE  H20R17687   6.088   0.333   8.100 -0.1985  2.0123  0.2921
  158SAPE  H20S17688   6.033   0.253   8.238 -0.4337  0.7592 -0.9448
  158SAPE  H20T17689   6.213   0.281   8.226  0.5118  0.4094 -0.4659
  158SAPE   C3317690   6.203   1.327   9.851  0.8357  0.2291 -0.1465
  158SAPE   H3X17691   6.108   1.363   9.806  1.5564 -0.5529 -2.4160
  158SAPE   H3Y17692   6.184   1.225   9.892  2.5344 -0.4384 -0.9224
  158SAPE   C3417693   6.304   1.308   9.733 -0.0662 -0.5366 -0.4646
  158SAPE   H4X17694   6.401   1.276   9.775 -1.1529 -2.9745  0.3424
  158SAPE   H4Y17695   6.320   1.402   9.675 -0.8142 -0.3255 -0.3447
  158SAPE   C3517696   6.268   1.190   9.639 -0.2004 -0.0641 -0.0620
  158SAPE   H5X17697   6.277   1.094   9.694  0.4263  0.3558  0.5828
  158SAPE   H5Y17698   6.336   1.186   9.551  0.4731 -1.4857  0.5022
  158SAPE   C3617699   6.124   1.193   9.590  0.2950  0.2402 -0.1130
  158SAPE   H6X17700   6.111   1.293   9.545 -0.5600  0.9739  1.6675
  158SAPE   H6Y17701   6.048   1.178   9.669  1.5963 -0.3978  1.0648
  158SAPE   C3717702   6.103   1.089   9.483 -0.4916  0.6793 -0.1509
  158SAPE   H7X17703   5.996   1.061   9.482 -0.5740  1.0088 -1.0935
  158SAPE   H7Y17704   6.159   0.996   9.506  0.8306  0.4673 -3.6383
  158SAPE   C3817705   6.141   1.141   9.346  0.4837  0.2041 -0.3068
  158SAPE   H8X17706   6.252   1.133   9.337  0.4123 -0.5717 -0.5272
  158SAPE   H8Y17707   6.110   1.247   9.329 -1.4937 -0.3526 -0.3123
  158SAPE   C3917708   6.068   1.054   9.243 -1.0392  0.1384 -0.1315
  158SAPE   H9X17709   5.974   1.011   9.284 -0.9574  2.5793  3.0694
  158SAPE   H9Y17710   6.127   0.961   9.231  1.9379  1.9348 -0.4115
  158SAPE  C31017711   6.062   1.104   9.101 -0.1780 -0.2458 -0.9122
  158SAPE  H10X17712   6.128   1.193   9.085 -0.2127 -0.4058 -1.9653
  158SAPE  H10Y17713   5.963   1.152   9.089 -0.5015 -1.0719 -1.6295
  158SAPE  C31117714   6.078   0.997   8.991  0.5291 -0.8271 -0.3013
  158SAPE  H11X17715   5.991   0.927   8.991 -1.0503  1.0426  0.1909
  158SAPE  H11Y17716   6.165   0.929   9.008 -0.5423 -2.1852 -0.0374
  158SAPE  C31217717   6.068   1.064   8.849  0.0045  0.7099  0.1657
  158SAPE  H12X17718   6.160   1.122   8.827  0.6705 -0.3346  0.1597
  158SAPE  H12Y17719   5.974   1.123   8.861  0.9840  2.2710  0.5575
  158SAPE  C31317720   6.039   0.965   8.740  0.1137 -0.6645  0.8257
  158SAPE  H13X17721   5.947   0.909   8.770  0.5006 -0.9995  1.4208
  158SAPE  H13Y17722   6.127   0.898   8.730  1.3955  1.1164 -0.2270
  158SAPE  C31417723   6.023   1.032   8.604 -0.2339  0.7324 -0.2868
  158SAPE  H14X17724   6.112   1.095   8.580 -0.1088  0.5398 -0.3299
  158SAPE  H14Y17725   5.935   1.100   8.597 -0.7611 -0.0162 -0.9841
  158SAPE  C31517726   6.005   0.924   8.490  0.1689  0.1524 -0.7045
  158SAPE  H15X17727   5.930   0.855   8.534  1.8257 -0.1445  1.8517
  158SAPE  H15Y17728   6.098   0.866   8.470  0.4091  0.0339  0.7089
  158SAPE  C31617729   5.953   0.989   8.366 -0.0683  0.8136 -0.1295
  158SAPE  H16X17730   5.857   1.043   8.384 -1.4947 -1.2630 -1.1105
  158SAPE  H16Y17731   5.939   0.912   8.287 -1.0334  1.0694 -0.2234
  158SAPE  C31717732   6.051   1.094   8.299  0.2912 -0.1737 -0.1666
  158SAPE  H17X17733   6.131   1.026   8.262 -0.0352 -0.7491  0.1586
  158SAPE  H17Y17734   6.097   1.166   8.369  1.1861  0.0001 -0.9141
  158SAPE  C31817735   5.984   1.168   8.190  0.3806  1.1766  0.4713
  158SAPE  H18X17736   6.054   1.230   8.129  0.6982 -0.3429 -0.7571
  158SAPE  H18Y17737   5.904   1.231   8.235 -1.2612 -0.8441  0.4909
  158SAPE  H18Z17738   5.923   1.097   8.131  0.7545 -0.3736  1.8805
  159SAPE     N17739   5.081   5.658   6.298  0.5653 -0.0075  0.3934
  159SAPE   HN117740   5.159   5.717   6.262 -0.6811  3.0237  2.2214
  159SAPE   HN217741   5.039   5.583   6.239  0.6831 -1.0551  1.5986
  159SAPE   HN317742   5.003   5.724   6.322  0.8658 -0.0086  1.4147
  159SAPE   C1217743   5.129   5.588   6.418 -0.1599  0.3360 -0.0853
  159SAPE  H12A17744   5.042   5.534   6.460  1.0731 -2.6108 -1.0097
  159SAPE  H12B17745   5.160   5.668   6.488  2.6312 -0.1492 -0.6313
  159SAPE   C1117746   5.258   5.507   6.370 -0.4109  0.1085  0.3470
  159SAPE  H11A17747   5.232   5.419   6.307  3.0234  0.9602 -2.6027
  159SAPE  H11B17748   5.312   5.467   6.459 -0.6917  0.6316  0.7584
  159SAPE     P17749   5.505   5.611   6.304  0.1500 -0.1600  0.4769
  159SAPE   O1317750   5.570   5.484   6.280  0.6059 -0.2104  0.7034
  159SAPE   O1417751   5.548   5.732   6.224  0.7068  0.2111 -0.6369
  159SAPE   O1217752   5.344   5.589   6.286  0.2696 -0.0252 -0.0964
  159SAPE   O1117753   5.518   5.639   6.460 -0.2046  0.0324  0.0519
  159SAPE    C117754   5.605   5.558   6.547 -0.1063  0.1577  0.2462
  159SAPE    HA17755   5.603   5.450   6.521  2.2312  0.1472 -0.1758
  159SAPE    HB17756   5.713   5.582   6.532  0.4390 -1.4061  1.4571
  159SAPE    C217757   5.579   5.594   6.691  0.2734  0.2295 -0.6550
  159SAPE    HS17758   5.476   5.556   6.708  0.4769  0.2882  0.8240
  159SAPE   O2117759   5.609   5.734   6.708 -0.4509  1.0981  0.4389
  159SAPE   C2117760   5.525   5.790   6.789  0.2629 -0.0356  0.4663
  159SAPE   O2217761   5.413   5.745   6.815  0.2962 -0.1178  0.0025
  159SAPE   C2217762   5.563   5.933   6.827 -0.2636  0.6004  0.5356
  159SAPE   H2R17763   5.637   5.915   6.908 -1.4960  0.8924  1.7483
  159SAPE   H2S17764   5.611   5.982   6.740  0.1737  0.2901  0.5961
  159SAPE    C317765   5.671   5.520   6.790 -0.2949  0.7675 -0.3730
  159SAPE    HX17766   5.780   5.532   6.770  0.4262 -1.6802  1.6512
  159SAPE    HY17767   5.652   5.411   6.794 -0.9339  0.8126 -1.6137
  159SAPE   O3117768   5.660   5.572   6.931  0.5103  0.3961  0.0438
  159SAPE   C3117769   5.572   5.512   7.009  0.8664  0.0966  0.3190
  159SAPE   O3217770   5.510   5.413   6.978  0.7494 -0.2628  0.1926
  159SAPE   C3217771   5.559   5.587   7.144 -0.3540 -0.0854 -0.8292
  159SAPE   H2X17772   5.452   5.609   7.160 -1.1250 -4.1996  0.9089
  159SAPE   H2Y17773   5.618   5.681   7.143 -1.6680  0.7602 -0.7597
  159SAPE   C2317774   5.450   6.020   6.898 -0.0192  0.2865 -0.1459
  159SAPE   H3R17775   5.404   5.962   6.981 -2.3782  1.9075 -0.2355
  159SAPE   H3S17776   5.368   6.032   6.824  0.1223  2.3198 -0.0266
  159SAPE   C2417777   5.496   6.159   6.943  0.1329 -0.2509  0.0084
  159SAPE   H4R17778   5.427   6.239   6.978 -0.1756 -1.1292  1.4675
  159SAPE   H4S17779   5.542   6.199   6.850 -0.2477 -0.4205 -0.2525
  159SAPE   C2517780   5.608   6.142   7.041  0.2984  0.0801  0.2083
  159SAPE   H5R17781   5.708   6.132   6.997 -1.5588 -4.0621 -3.8336
  159SAPE   C2617782   5.597   6.162   7.175  0.0086  0.8867  0.2048
  159SAPE   H6R17783   5.682   6.150   7.244 -0.4932 -0.6554  0.5720
  159SAPE   C2717784   5.474   6.209   7.247 -0.1659  0.0027  0.2883
  159SAPE   H7R17785   5.468   6.143   7.336  2.1935 -1.9999 -0.9071
  159SAPE   H7S17786   5.378   6.189   7.196 -1.1333  0.0683  2.0161
  159SAPE   C2817787   5.477   6.360   7.269  1.4763 -0.0651 -0.0129
  159SAPE   H8R17788   5.540   6.417   7.199  1.4684  0.1267  0.1362
  159SAPE   C2917789   5.435   6.423   7.389  0.2844 -0.3293  0.5027
  159SAPE   H9R17790   5.449   6.531   7.403 -0.6654 -0.3042  1.3499
  159SAPE  C21017791   5.368   6.359   7.506 -0.8175 -0.6427 -0.3986
  159SAPE  H10R17792   5.445   6.291   7.549 -0.6870  1.0404  2.2761
  159SAPE  H10S17793   5.286   6.299   7.462 -0.7201 -0.6308 -0.5984
  159SAPE  C21117794   5.316   6.448   7.611 -0.4801  0.5232  0.7781
  159SAPE  H11R17795   5.211   6.477   7.593 -0.1766 -0.0276 -2.2970
  159SAPE  C21217796   5.389   6.498   7.709 -0.5688 -0.1600  0.2582
  159SAPE  H12R17797   5.331   6.560   7.778  1.2958  1.5939  0.3277
  159SAPE  C21317798   5.537   6.473   7.733  0.7194  0.6713 -0.5945
  159SAPE  H13R17799   5.583   6.546   7.803  0.4694  2.0901 -1.8730
  159SAPE  H13S17800   5.587   6.496   7.637 -0.7963  1.6195 -1.1842
  159SAPE  C21417801   5.591   6.335   7.788 -0.5409  0.4163 -0.4652
  159SAPE  H14R17802   5.644   6.272   7.716  0.4244  2.6051 -1.7816
  159SAPE  C21517803   5.574   6.286   7.912  0.5487 -0.3171 -0.1178
  159SAPE  H15R17804   5.618   6.189   7.939  0.7506 -0.1952 -0.0078
  159SAPE  C21617805   5.510   6.344   8.036 -0.4536 -0.2023  1.0364
  159SAPE  H16R17806   5.405   6.310   8.045 -0.8374  0.5358 -0.4248
  159SAPE  H16S17807   5.518   6.454   8.038  1.3162 -0.2569  4.1977
  159SAPE  C21717808   5.581   6.296   8.161 -0.3307  0.0167  0.0667
  159SAPE  H17R17809   5.690   6.310   8.145 -0.5278 -0.0528 -1.4818
  159SAPE  H17S17810   5.559   6.188   8.165 -0.4485 -0.0411 -1.5100
  159SAPE  C21817811   5.521   6.357   8.286  0.4057  0.0378  0.1196
  159SAPE  H18R17812   5.411   6.341   8.286 -0.5397  4.9660  0.2883
  159SAPE  H18S17813   5.544   6.466   8.284  1.4571 -0.1235  1.4865
  159SAPE  C21917814   5.581   6.296   8.408 -0.3369  0.0988  0.1619
  159SAPE  H19R17815   5.690   6.302   8.390 -0.6011  0.0141 -1.6107
  159SAPE  H19S17816   5.563   6.187   8.416  0.8796 -0.1681 -0.5675
  159SAPE  C22017817   5.542   6.366   8.538  0.3316  0.1876  0.0806
  159SAPE  H20R17818   5.591   6.304   8.616  0.2208 -1.3409 -1.0131
  159SAPE  H20S17819   5.433   6.345   8.550  0.1705  0.6879 -0.4975
  159SAPE  H20T17820   5.569   6.473   8.548 -0.2091  0.3288  0.0299
  159SAPE   C3317821   5.604   5.488   7.267 -0.4581  0.2567  0.5797
  159SAPE   H3X17822   5.527   5.408   7.259 -0.8224  0.5593  0.9894
  159SAPE   H3Y17823   5.585   5.556   7.353 -1.0461  3.5581 -1.9469
  159SAPE   C3417824   5.750   5.436   7.258 -0.2516 -0.0036  0.2217
  159SAPE   H4X17825   5.806   5.531   7.251 -2.3140  1.2639  0.2018
  159SAPE   H4Y17826   5.760   5.390   7.157 -0.7928 -1.0496  0.6316
  159SAPE   C3517827   5.793   5.334   7.366  0.0424  0.7703  0.1927
  159SAPE   H5X17828   5.901   5.310   7.357 -0.4481 -1.2064 -1.0927
  159SAPE   H5Y17829   5.737   5.243   7.337  0.4529  0.7836 -0.6782
  159SAPE   C3617830   5.755   5.376   7.507  0.0452  0.2699 -0.1302
  159SAPE   H6X17831   5.645   5.364   7.516 -0.2099  1.9979 -0.5423
  159SAPE   H6Y17832   5.782   5.482   7.528  0.4570  0.2593 -0.5894
  159SAPE   C3717833   5.824   5.301   7.624 -0.3105 -0.8426 -0.2268
  159SAPE   H7X17834   5.906   5.360   7.670 -0.3178 -0.7821 -0.2907
  159SAPE   H7Y17835   5.869   5.209   7.582  1.8973  0.4297 -0.8188
  159SAPE   C3817836   5.735   5.261   7.739  0.0145 -0.4046  0.5160
  159SAPE   H8X17837   5.805   5.190   7.788  1.3535 -0.2803 -1.1430
  159SAPE   H8Y17838   5.643   5.214   7.699  0.2370 -0.6250  0.2655
  159SAPE   C3917839   5.697   5.370   7.834 -0.2897 -0.0324  0.2719
  159SAPE   H9X17840   5.638   5.457   7.797 -0.7985  0.1734  1.5104
  159SAPE   H9Y17841   5.795   5.406   7.870  1.2611 -3.8181  0.1930
  159SAPE  C31017842   5.607   5.312   7.945  0.3946  0.4571 -0.8195
  159SAPE  H10X17843   5.660   5.219   7.975  0.5776  0.4708 -1.0977
  159SAPE  H10Y17844   5.519   5.280   7.886  0.0423 -2.1331  0.9028
  159SAPE  C31117845   5.568   5.406   8.065 -0.1511  0.5890  0.0632
  159SAPE  H11X17846   5.515   5.495   8.026  1.6853  1.3835 -0.7377
  159SAPE  H11Y17847   5.665   5.443   8.104  0.3958  0.8277 -1.4755
  159SAPE  C31217848   5.490   5.331   8.167  0.1853  0.0802  0.3815
  159SAPE  H12X17849   5.543   5.239   8.200  1.8182  1.1546  0.8802
  159SAPE  H12Y17850   5.393   5.310   8.116 -0.5823 -0.4316  1.9810
  159SAPE  C31317851   5.475   5.423   8.290 -0.1450 -0.0679 -0.1629
  159SAPE  H13X17852   5.441   5.523   8.253 -3.9159 -1.4711 -1.0300
  159SAPE  H13Y17853   5.574   5.422   8.338  0.1688 -0.0195 -0.7943
  159SAPE  C31417854   5.360   5.371   8.382 -0.2246  0.2561  0.2973
  159SAPE  H14X17855   5.380   5.264   8.405  0.2557  0.3605  0.3692
  159SAPE  H14Y17856   5.266   5.375   8.324  0.4230 -0.1704 -0.8137
  159SAPE  C31517857   5.357   5.452   8.511 -0.0224 -0.2367  0.1904
  159SAPE  H15X17858   5.351   5.561   8.490 -0.1493 -0.2589  0.1065
  159SAPE  H15Y17859   5.452   5.446   8.568  1.3085  1.0220 -1.7758
  159SAPE  C31617860   5.246   5.404   8.602  0.4848  0.2065  0.9323
  159SAPE  H16X17861   5.270   5.459   8.696  1.5942 -1.0183  1.4109
  159SAPE  H16Y17862   5.258   5.295   8.618 -2.1654 -0.2611  0.2332
  159SAPE  C31717863   5.099   5.417   8.549 -0.0313 -0.2849 -0.6429
  159SAPE  H17X17864   5.035   5.361   8.620 -0.1120  0.1896 -0.3330
  159SAPE  H17Y17865   5.095   5.378   8.445 -1.1806 -0.0698 -0.6895
  159SAPE  C31817866   5.050   5.559   8.557 -0.2434 -0.2265  0.7024
  159SAPE  H18X17867   4.957   5.559   8.496  1.0704 -0.9129 -1.4323
  159SAPE  H18Y17868   5.125   5.626   8.509 -0.1628  0.4930  1.8045
  159SAPE  H18Z17869   5.038   5.587   8.664  0.4315 -0.4696  0.8506
  160SAPE     N17870   4.183   0.174   6.369  0.4914  0.4782 -0.2631
  160SAPE   HN117871   4.171   0.100   6.442 -0.1021 -1.1368 -1.9280
  160SAPE   HN217872   4.234   0.139   6.286  3.6198  3.6769  0.0860
  160SAPE   HN317873   4.248   0.240   6.415  0.6085 -0.8832  1.6684
  160SAPE   C1217874   4.060   0.244   6.334 -0.2278  0.3105  0.1148
  160SAPE  H12A17875   4.014   0.165   6.271  0.6555 -0.0940 -0.0312
  160SAPE  H12B17876   4.097   0.330   6.274  0.3284 -0.2862 -0.4059
  160SAPE   C1117877   3.986   0.273   6.466  0.1384 -0.0143  0.1100
  160SAPE  H11A17878   3.889   0.308   6.426  1.2930  1.4281 -1.5719
  160SAPE  H11B17879   4.052   0.353   6.506 -1.0877  0.7868  0.6197
  160SAPE     P17880   3.864   0.048   6.514 -0.1667  0.1093  0.1382
  160SAPE   O1317881   3.733   0.118   6.516 -0.0280  0.3518  0.0981
  160SAPE   O1417882   3.903  -0.015   6.386 -0.5100  0.0504 -0.0779
  160SAPE   O1217883   3.969   0.158   6.548  0.0506  0.3775 -0.1447
  160SAPE   O1117884   3.865  -0.052   6.640 -0.3157 -0.7692 -0.3588
  160SAPE    C117885   3.986  -0.083   6.715  0.4931 -0.4652 -0.5378
  160SAPE    HA17886   4.082  -0.048   6.671  0.2228  1.1474  0.0502
  160SAPE    HB17887   3.980  -0.030   6.813 -1.0374 -1.4586 -0.0639
  160SAPE    C217888   3.996  -0.226   6.767  0.0986  0.0619 -0.0993
  160SAPE    HS17889   4.009  -0.284   6.673  1.2119  0.5806 -0.2903
  160SAPE   O2117890   3.874  -0.264   6.837 -0.1782 -0.2206 -0.4070
  160SAPE   C2117891   3.864  -0.391   6.859 -0.6617  0.7751 -1.2718
  160SAPE   O2217892   3.945  -0.476   6.825 -0.1884  0.5430  0.3383
  160SAPE   C2217893   3.747  -0.412   6.955 -0.7131  0.9447 -0.5244
  160SAPE   H2R17894   3.785  -0.480   7.034  2.9496  0.4739 -2.4621
  160SAPE   H2S17895   3.719  -0.316   7.004 -0.1837 -0.2939  2.4024
  160SAPE    C317896   4.114  -0.240   6.857 -0.5508 -0.4892 -0.5526
  160SAPE    HX17897   4.198  -0.212   6.790  0.6651  0.6195  1.3551
  160SAPE    HY17898   4.134  -0.343   6.893 -0.1193 -0.3221 -0.3004
  160SAPE   O3117899   4.115  -0.134   6.961  0.0470  0.4282  0.1333
  160SAPE   C3117900   4.096  -0.179   7.087 -0.7582 -0.7758  0.3100
  160SAPE   O3217901   4.068  -0.290   7.122  0.0633 -0.1538 -0.1220
  160SAPE   C3217902   4.143  -0.065   7.185 -0.5925  0.2555 -0.1969
  160SAPE   H2X17903   4.080   0.024   7.163  2.0758  2.9413  2.0925
  160SAPE   H2Y17904   4.249  -0.036   7.170 -0.3441 -1.4417 -2.2395
  160SAPE   C2317905   3.616  -0.470   6.895 -0.1520  0.6557  1.1595
  160SAPE   H3R17906   3.611  -0.440   6.788  1.3997 -1.0132  0.5805
  160SAPE   H3S17907   3.527  -0.429   6.947 -1.9712 -0.2520 -1.0959
  160SAPE   C2417908   3.603  -0.625   6.913 -0.2997 -0.2266 -0.3969
  160SAPE   H4R17909   3.620  -0.643   7.021 -1.2639  2.4782  0.2902
  160SAPE   H4S17910   3.693  -0.672   6.867  0.4423  0.0638  0.7192
  160SAPE   C2517911   3.478  -0.689   6.857 -0.7729  0.8949 -0.4871
  160SAPE   H5R17912   3.453  -0.656   6.755 -0.9905  2.6455  0.1024
  160SAPE   C2617913   3.386  -0.750   6.927 -0.8238  0.0158 -0.2596
  160SAPE   H6R17914   3.294  -0.776   6.873 -0.1643  0.4903 -1.6554
  160SAPE   C2717915   3.388  -0.784   7.078 -0.6194  0.5374  1.1933
  160SAPE   H7R17916   3.492  -0.810   7.106  0.4126  1.2150 -1.7281
  160SAPE   H7S17917   3.325  -0.874   7.092 -1.4121  0.6023 -1.4161
  160SAPE   C2817918   3.356  -0.661   7.157 -0.1890 -0.0573  0.1068
  160SAPE   H8R17919   3.382  -0.569   7.102 -0.5469  1.2433  2.0380
  160SAPE   C2917920   3.311  -0.655   7.283 -0.3203  0.4504  0.4941
  160SAPE   H9R17921   3.285  -0.559   7.330  0.7939 -0.2077  2.5642
  160SAPE  C21017922   3.278  -0.780   7.365 -0.2474 -0.5517  0.7341
  160SAPE  H10R17923   3.261  -0.863   7.293  0.0194  2.6588 -3.4171
  160SAPE  H10S17924   3.182  -0.764   7.419 -0.7126 -0.6342 -0.0517
  160SAPE  C21117925   3.391  -0.819   7.457  0.3259 -0.7207 -0.2003
  160SAPE  H11R17926   3.493  -0.827   7.417  0.2813 -2.4399 -0.0460
  160SAPE  C21217927   3.386  -0.850   7.590 -0.0016  0.8161 -0.3710
  160SAPE  H12R17928   3.483  -0.877   7.634  0.5520  2.7839 -0.2615
  160SAPE  C21317929   3.278  -0.865   7.690  0.4881 -0.2583  0.2466
  160SAPE  H13R17930   3.227  -0.768   7.706  0.3165 -0.3213  0.0860
  160SAPE  H13S17931   3.334  -0.887   7.784 -0.2361  2.1554  1.3142
  160SAPE  C21417932   3.164  -0.962   7.665  0.0221  0.1697  1.0885
  160SAPE  H14R17933   3.154  -1.000   7.562  2.8084 -1.0333  1.1624
  160SAPE  C21517934   3.067  -0.992   7.753  1.5366  0.1023 -0.4684
  160SAPE  H15R17935   2.980  -1.053   7.722  0.5687  0.9665  0.4468
  160SAPE  C21617936   3.045  -0.940   7.896 -0.5373  0.2530  0.3888
  160SAPE  H16R17937   2.954  -0.877   7.907 -0.3928  0.5539 -0.1065
  160SAPE  H16S17938   3.123  -0.868   7.929  0.3964 -0.3148 -0.5177
  160SAPE  C21717939   3.052  -1.052   8.002 -1.0026  0.1138 -0.4478
  160SAPE  H17R17940   3.147  -1.106   7.984  0.7001  2.4112  0.9778
  160SAPE  H17S17941   2.971  -1.127   7.997  0.8128 -2.0353  0.6463
  160SAPE  C21817942   3.077  -0.996   8.150 -0.7915  0.6243 -0.7402
  160SAPE  H18R17943   2.995  -0.926   8.178 -0.1280  0.1566  2.7492
  160SAPE  H18S17944   3.170  -0.936   8.145  0.9166 -1.5012  2.2891
  160SAPE  C21917945   3.099  -1.108   8.246  0.1718 -0.5794 -0.2107
  160SAPE  H19R17946   3.182  -1.171   8.208  0.4426 -0.0382 -0.5323
  160SAPE  H19S17947   3.014  -1.177   8.267  1.0149 -1.0478  1.8856
  160SAPE  C22017948   3.144  -1.052   8.388  0.1446  0.1585  0.1904
  160SAPE  H20R17949   3.183  -1.136   8.448 -0.4606 -0.9128 -0.8744
  160SAPE  H20S17950   3.061  -1.004   8.444 -0.5709 -1.0247  0.1648
  160SAPE  H20T17951   3.224  -0.977   8.364  0.1420  0.8048  2.0558
  160SAPE   C3317952   4.115  -0.099   7.336 -0.0013  0.3145 -0.1187
  160SAPE   H3X17953   4.178  -0.186   7.364  0.6722  0.7210 -0.3415
  160SAPE   H3Y17954   4.009  -0.131   7.330 -0.7518  2.7555 -1.4195
  160SAPE   C3417955   4.145   0.021   7.420  0.5603 -0.2375 -0.7295
  160SAPE   H4X17956   4.084   0.107   7.384  0.9336 -0.6355 -2.4207
  160SAPE   H4Y17957   4.250   0.050   7.398  1.0507  1.0823  2.7963
  160SAPE   C3517958   4.123   0.011   7.576 -0.0201  0.1289 -0.0970
  160SAPE   H5X17959   4.016  -0.009   7.598 -0.0940  1.4633  0.8693
  160SAPE   H5Y17960   4.136   0.109   7.627 -1.0487  0.2176  0.0168
  160SAPE   C3617961   4.215  -0.082   7.654  0.1758  0.3150  0.7153
  160SAPE   H6X17962   4.309  -0.091   7.596 -1.2319  2.1497 -2.0986
  160SAPE   H6Y17963   4.183  -0.189   7.653  1.7187 -0.1807 -0.9601
  160SAPE   C3717964   4.225  -0.054   7.811 -0.2663  0.8106  0.7911
  160SAPE   H7X17965   4.126  -0.048   7.861  0.4581 -0.2881  2.4360
  160SAPE   H7Y17966   4.279   0.042   7.827 -0.2080  1.1505 -1.2317
  160SAPE   C3817967   4.290  -0.156   7.901  0.1914  0.5505 -0.7269
  160SAPE   H8X17968   4.227  -0.247   7.885  1.8167 -1.3402  2.5086
  160SAPE   H8Y17969   4.277  -0.127   8.008  0.6707  0.1592 -0.5565
  160SAPE   C3917970   4.431  -0.185   7.856  0.5998 -0.1319 -0.1389
  160SAPE   H9X17971   4.488  -0.094   7.828  0.9554 -1.0053 -2.4655
  160SAPE   H9Y17972   4.408  -0.233   7.758 -0.6229  0.5269 -0.1990
  160SAPE  C31017973   4.503  -0.287   7.940 -0.2288 -0.8520 -0.1915
  160SAPE  H10X17974   4.445  -0.382   7.932 -2.7066  0.5629 -0.0796
  160SAPE  H10Y17975   4.503  -0.262   8.048 -1.8496 -0.5142 -0.2504
  160SAPE  C31117976   4.651  -0.312   7.891  0.4575  0.4622 -0.3329
  160SAPE  H11X17977   4.713  -0.222   7.910 -0.7873  1.3795 -0.5039
  160SAPE  H11Y17978   4.642  -0.316   7.780  0.3326  0.7606 -0.3318
  160SAPE  C31217979   4.715  -0.440   7.947 -0.0886 -0.0774  0.3735
  160SAPE  H12X17980   4.649  -0.528   7.930 -3.2685  1.9260  1.6419
  160SAPE  H12Y17981   4.725  -0.428   8.057 -1.4925 -0.8646  0.6142
  160SAPE  C31317982   4.859  -0.464   7.887  0.6477 -0.1434 -0.3572
  160SAPE  H13X17983   4.905  -0.363   7.882  2.0811 -0.7544 -0.2908
  160SAPE  H13Y17984   4.854  -0.492   7.779  0.6615  0.1497 -0.4345
  160SAPE  C31417985   4.954  -0.543   7.972 -0.1832  0.6813 -0.0643
  160SAPE  H14X17986   4.980  -0.491   8.067 -2.6817 -1.3686  1.8700
  160SAPE  H14Y17987   5.054  -0.560   7.926  1.7221 -0.7821  4.0948
  160SAPE  C31517988   4.889  -0.679   8.018 -0.3015 -0.2221  0.1059
  160SAPE  H15X17989   4.781  -0.677   8.046 -0.2337  2.4254  0.4204
  160SAPE  H15Y17990   4.950  -0.715   8.103  0.3024 -1.2477 -0.7414
  160SAPE  C31617991   4.907  -0.794   7.911  0.9403 -0.7345  0.3571
  160SAPE  H16X17992   4.972  -0.880   7.935  1.1541 -0.8616 -0.6132
  160SAPE  H16Y17993   4.960  -0.743   7.827 -1.0531  1.0466  0.0712
  160SAPE  C31717994   4.768  -0.839   7.858  0.0304 -0.1833  0.0030
  160SAPE  H17X17995   4.690  -0.759   7.859 -0.3947 -0.6000  0.2679
  160SAPE  H17Y17996   4.736  -0.912   7.935  0.0667 -1.2141 -0.9460
  160SAPE  C31817997   4.769  -0.921   7.728 -0.6448 -0.3168 -0.5954
  160SAPE  H18X17998   4.680  -0.985   7.712 -0.5529  0.0655 -3.0102
  160SAPE  H18Y17999   4.857  -0.988   7.717 -1.8411 -2.0934  0.1963
  160SAPE  H18Z18000   4.770  -0.848   7.644 -0.0196  1.0300  0.5379
  161SAPE     N18001   5.922   4.032   6.227 -0.2131 -0.0944  0.1024
  161SAPE   HN118002   5.828   3.999   6.196 -1.0258  0.8867  1.3849
  161SAPE   HN218003   5.933   4.136   6.224  1.5628 -0.2934 -1.5946
  161SAPE   HN318004   5.992   3.991   6.163 -0.7542 -2.6890  1.0726
  161SAPE   C1218005   5.945   4.003   6.372  0.7993  0.5781  0.0819
  161SAPE  H12A18006   5.950   3.893   6.383 -0.0332  0.6931  2.0810
  161SAPE  H12B18007   5.857   4.043   6.427  0.4898 -0.3720  0.2959
  161SAPE   C1118008   6.076   4.075   6.414 -0.2368  0.2797  0.2524
  161SAPE  H11A18009   6.100   4.057   6.521 -1.0209  1.7348  0.7065
  161SAPE  H11B18010   6.062   4.186   6.413 -0.9608  0.2106  1.3058
  161SAPE     P18011   6.307   4.134   6.306 -0.0834  0.0314  0.1576
  161SAPE   O1318012   6.403   4.069   6.207 -0.1511 -0.5592  0.4554
  161SAPE   O1418013   6.258   4.270   6.287  0.0991 -0.5379  0.1859
  161SAPE   O1218014   6.179   4.037   6.321  0.2515 -0.0907  0.2453
  161SAPE   O1118015   6.367   4.117   6.455 -0.2686  0.7082  0.4172
  161SAPE    C118016   6.407   3.977   6.485 -0.1485 -0.5643  0.2139
  161SAPE    HA18017   6.324   3.903   6.484  0.8868 -1.7650 -0.5367
  161SAPE    HB18018   6.491   3.941   6.422  0.5869 -0.2915  1.0022
  161SAPE    C218019   6.464   3.961   6.637 -0.0135 -0.2973 -1.0194
  161SAPE    HS18020   6.478   3.855   6.665 -0.8131 -0.1173  0.1544
  161SAPE   O2118021   6.360   4.011   6.723 -0.1644 -0.4472 -1.1348
  161SAPE   C2118022   6.250   3.934   6.753 -0.1607 -0.2123 -0.0475
  161SAPE   O2218023   6.233   3.825   6.703  0.2184 -0.5085  0.3427
  161SAPE   C2218024   6.163   3.995   6.863  0.2503  0.2606  0.2764
  161SAPE   H2R18025   6.182   4.104   6.870 -0.2728  0.2990  1.4626
  161SAPE   H2S18026   6.059   3.986   6.825  0.4704 -2.3599  0.1195
  161SAPE    C318027   6.600   4.040   6.648  0.2843  0.8144  0.2238
  161SAPE    HX18028   6.592   4.135   6.591  0.3723  0.1941 -0.8673
  161SAPE    HY18029   6.678   3.976   6.600  0.9391  1.9252 -0.2321
  161SAPE   O3118030   6.628   4.086   6.780 -0.0714 -0.2607  0.7227
  161SAPE   C3118031   6.691   3.997   6.856 -0.6293 -0.2134 -0.5653
  161SAPE   O3218032   6.716   3.882   6.822 -0.1775  0.2974  0.2360
  161SAPE   C3218033   6.738   4.061   6.990  0.1320  0.1509  0.0846
  161SAPE   H2X18034   6.653   4.124   7.026 -0.6873  0.0545 -1.5876
  161SAPE   H2Y18035   6.825   4.125   6.963 -0.1795  0.5512  0.0157
  161SAPE   C2318036   6.164   3.913   6.996  0.2339 -0.1584 -0.5173
  161SAPE   H3R18037   6.155   3.807   6.963  0.3134  0.2954 -2.0848
  161SAPE   H3S18038   6.082   3.938   7.067  2.0939  0.7897  1.3870
  161SAPE   C2418039   6.302   3.936   7.057 -0.1322 -0.4958 -0.2729
  161SAPE   H4R18040   6.387   3.904   6.993  1.0028 -1.2567  1.5221
  161SAPE   H4S18041   6.291   3.857   7.135 -1.3331 -0.8083 -0.7316
  161SAPE   C2518042   6.316   4.068   7.128 -0.0084  0.9152 -0.1718
  161SAPE   H5R18043   6.348   4.146   7.056  3.1129 -1.5299 -1.6852
  161SAPE   C2618044   6.315   4.094   7.258 -0.0332  0.5027 -0.4050
  161SAPE   H6R18045   6.339   4.198   7.282  0.9623  0.5762 -1.6022
  161SAPE   C2718046   6.295   3.997   7.372  0.2300 -0.1409 -0.1816
  161SAPE   H7R18047   6.242   3.903   7.346 -0.2401 -0.3940  1.5490
  161SAPE   H7S18048   6.216   4.041   7.437  1.1436 -1.2299  1.7686
  161SAPE   C2818049   6.425   3.964   7.448 -0.2866  0.4297  0.3069
  161SAPE   H8R18050   6.493   3.918   7.375 -1.1065  1.9116 -1.4739
  161SAPE   C2918051   6.448   3.971   7.582  0.1773  0.0294  0.1992
  161SAPE   H9R18052   6.554   3.968   7.608  0.1410  1.9400  0.7298
  161SAPE  C21018053   6.352   4.028   7.682  0.3881  0.0634  0.0711
  161SAPE  H10R18054   6.278   3.949   7.708  0.5627 -0.2111 -0.2623
  161SAPE  H10S18055   6.289   4.108   7.637  0.0137 -1.6014 -2.5365
  161SAPE  C21118056   6.405   4.091   7.807 -1.0368  0.1531  0.1991
  161SAPE  H11R18057   6.395   4.200   7.820  1.8847  0.4481  0.7785
  161SAPE  C21218058   6.474   4.043   7.909 -0.0872 -0.0517  0.3103
  161SAPE  H12R18059   6.486   4.101   8.001  0.2513 -1.5950  1.2724
  161SAPE  C21318060   6.511   3.900   7.932 -0.5441  0.1097  0.0881
  161SAPE  H13R18061   6.490   3.837   7.844  1.4812 -0.0566 -0.3285
  161SAPE  H13S18062   6.462   3.856   8.022  2.8810  0.0708  2.1067
  161SAPE  C21418063   6.665   3.906   7.931  0.1132 -0.4265 -0.1858
  161SAPE  H14R18064   6.703   3.936   7.832  0.2591 -1.4454 -0.4453
  161SAPE  C21518065   6.753   3.873   8.031  0.2863 -0.2414  0.8488
  161SAPE  H15R18066   6.860   3.888   8.012  0.0649 -0.7027 -0.8983
  161SAPE  C21618067   6.716   3.820   8.168 -0.4965  0.4506 -0.2939
  161SAPE  H16R18068   6.755   3.716   8.168  1.5314  1.1642 -0.0905
  161SAPE  H16S18069   6.607   3.798   8.172 -0.6166  0.7229 -1.5009
  161SAPE  C21718070   6.777   3.891   8.294  0.7605  0.5543  0.4331
  161SAPE  H17R18071   6.723   3.988   8.298 -1.2358 -0.4339 -0.6577
  161SAPE  H17S18072   6.886   3.908   8.279  0.9161 -1.1881 -0.6358
  161SAPE  C21818073   6.749   3.802   8.413 -0.0460  0.6846  0.5246
  161SAPE  H18R18074   6.786   3.699   8.393  1.1350  1.3396 -0.8507
  161SAPE  H18S18075   6.639   3.791   8.421 -0.2066 -0.3126 -2.0108
  161SAPE  C21918076   6.821   3.861   8.536  0.4249 -0.0824 -0.1222
  161SAPE  H19R18077   6.814   3.972   8.527  0.7305 -0.0366  0.2056
  161SAPE  H19S18078   6.927   3.833   8.521  0.3919 -0.2989  0.0519
  161SAPE  C22018079   6.763   3.814   8.667  0.9011  0.3308  1.0463
  161SAPE  H20R18080   6.655   3.838   8.663  0.7188 -0.5058 -2.3828
  161SAPE  H20S18081   6.818   3.872   8.743  0.6381  0.1659  1.3635
  161SAPE  H20T18082   6.772   3.704   8.681  1.8969  0.3823  0.8580
  161SAPE   C3318083   6.798   3.962   7.092  0.5648 -0.5048 -0.6624
  161SAPE   H3X18084   6.854   4.013   7.173 -1.0500  2.5276 -1.2977
  161SAPE   H3Y18085   6.865   3.902   7.027 -0.3150  0.5639 -2.6389
  161SAPE   C3418086   6.686   3.882   7.153 -0.0018  0.4225  0.3777
  161SAPE   H4X18087   6.615   3.838   7.079  0.4709  0.6097 -0.1954
  161SAPE   H4Y18088   6.642   3.965   7.213 -0.0588 -0.7151  1.9824
  161SAPE   C3518089   6.732   3.772   7.254 -0.4066  0.1755 -0.2155
  161SAPE   H5X18090   6.798   3.699   7.202 -1.1495 -1.0657  0.5440
  161SAPE   H5Y18091   6.643   3.713   7.285  0.8454 -1.8974 -0.3666
  161SAPE   C3618092   6.813   3.825   7.374 -0.3799  0.1669  0.0058
  161SAPE   H6X18093   6.756   3.892   7.442  0.2325  0.2014  0.4936
  161SAPE   H6Y18094   6.909   3.872   7.343  1.3920 -3.0020  0.2682
  161SAPE   C3718095   6.834   3.707   7.472  0.6341 -0.5134  0.0133
  161SAPE   H7X18096   6.873   3.622   7.412 -1.8075 -2.7688  1.4178
  161SAPE   H7Y18097   6.732   3.685   7.511  0.8825 -1.7454  0.0055
  161SAPE   C3818098   6.928   3.736   7.596  0.1815 -0.1983  0.4517
  161SAPE   H8X18099   6.886   3.826   7.646  1.9309  3.2248 -3.5629
  161SAPE   H8Y18100   7.025   3.769   7.554 -0.0384  3.0752  2.1612
  161SAPE   C3918101   6.936   3.608   7.683 -0.3318  0.3126  0.2599
  161SAPE   H9X18102   7.012   3.532   7.652  0.3358  0.7073  0.9152
  161SAPE   H9Y18103   6.839   3.555   7.673 -0.9924  1.9220 -3.3204
  161SAPE  C31018104   6.961   3.645   7.832  0.0947 -0.0257  1.1545
  161SAPE  H10X18105   6.924   3.555   7.886 -0.6988  0.2283  1.0554
  161SAPE  H10Y18106   6.904   3.736   7.859 -0.1226 -0.2002  1.2947
  161SAPE  C31118107   7.108   3.648   7.882 -0.3127  0.0586  0.2447
  161SAPE  H11X18108   7.159   3.726   7.821 -1.2597 -0.1113 -0.7960
  161SAPE  H11Y18109   7.151   3.547   7.866 -0.3937 -0.0146  0.4816
  161SAPE  C31218110   7.117   3.677   8.039  0.5428 -0.0235 -0.2266
  161SAPE  H12X18111   7.099   3.582   8.092  3.4234 -1.6083 -1.8504
  161SAPE  H12Y18112   7.044   3.759   8.061 -1.0533 -1.2038 -0.8962
  161SAPE  C31318113   7.262   3.688   8.080  0.4267 -0.1084 -0.3766
  161SAPE  H13X18114   7.296   3.770   8.013 -1.0317  0.7311 -0.1388
  161SAPE  H13Y18115   7.318   3.594   8.061  0.4345 -0.2221  0.1995
  161SAPE  C31418116   7.273   3.724   8.228  0.0884 -0.0355 -0.9597
  161SAPE  H14X18117   7.237   3.643   8.294 -2.3430  1.1906 -0.6678
  161SAPE  H14Y18118   7.206   3.812   8.235 -1.0088 -0.8790 -0.6502
  161SAPE  C31518119   7.407   3.768   8.269  0.3610  0.6235 -0.1348
  161SAPE  H15X18120   7.447   3.839   8.193  0.1489 -1.9659 -2.8511
  161SAPE  H15Y18121   7.471   3.678   8.257 -0.2074  0.1413  0.3841
  161SAPE  C31618122   7.420   3.815   8.412  0.3868  0.8802  0.5701
  161SAPE  H16X18123   7.390   3.734   8.481  0.0208  2.2457  2.0753
  161SAPE  H16Y18124   7.337   3.889   8.415 -0.4595 -0.0581  0.8622
  161SAPE  C31718125   7.551   3.885   8.445  0.0175  0.6079 -0.1198
  161SAPE  H17X18126   7.553   3.894   8.556  0.0142  0.4404 -0.1062
  161SAPE  H17Y18127   7.550   3.988   8.403 -0.7473  1.5448  2.0391
  161SAPE  C31818128   7.675   3.809   8.403 -0.1913 -1.2234  0.0163
  161SAPE  H18X18129   7.675   3.783   8.295 -0.4477 -1.2700  0.0267
  161SAPE  H18Y18130   7.694   3.713   8.455  0.8549 -0.2073  1.5995
  161SAPE  H18Z18131   7.768   3.869   8.415 -1.3237  0.0955  3.3023
  162SAPE     N18132   3.396   0.355   6.058  0.2202  0.3717 -0.1909
  162SAPE   HN118133   3.362   0.333   6.154  2.2672 -0.2976  0.4318
  162SAPE   HN218134   3.420   0.456   6.054  0.4984  0.3152  0.0635
  162SAPE   HN318135   3.310   0.346   6.000  0.6698  1.8045 -1.1375
  162SAPE   C1218136   3.506   0.259   6.026  0.2009 -0.4594  0.7939
  162SAPE  H12A18137   3.600   0.293   6.076  1.5959  0.0398 -1.9604
  162SAPE  H12B18138   3.525   0.277   5.918 -0.0185  2.2581  1.1417
  162SAPE   C1118139   3.456   0.121   6.047  0.2328 -0.2255  0.1191
  162SAPE  H11A18140   3.530   0.052   6.001 -0.3010  0.1023 -1.3024
  162SAPE  H11B18141   3.360   0.109   5.992 -0.4114  0.3017  1.1092
  162SAPE     P18142   3.346  -0.033   6.216  0.0576 -0.2843 -0.1862
  162SAPE   O1318143   3.217  -0.039   6.149  0.6244  0.1385  0.2859
  162SAPE   O1418144   3.437  -0.148   6.188  0.1564 -0.4157  0.4072
  162SAPE   O1218145   3.421   0.094   6.179 -0.0880 -0.7768 -0.5896
  162SAPE   O1118146   3.330  -0.013   6.369  0.2685 -0.3090 -0.1548
  162SAPE    C118147   3.432  -0.038   6.464  0.4707  0.1468  0.3193
  162SAPE    HA18148   3.520  -0.099   6.433 -0.6812 -1.1530 -0.5145
  162SAPE    HB18149   3.468   0.059   6.504  2.1832  0.1049 -0.9903
  162SAPE    C218150   3.377  -0.094   6.599  0.7599  0.4478  0.0424
  162SAPE    HS18151   3.294  -0.024   6.622  0.6427  0.4709 -0.4500
  162SAPE   O2118152   3.476  -0.106   6.704  0.0640 -0.1027 -0.1950
  162SAPE   C2118153   3.497  -0.001   6.783 -0.0644  0.4930 -0.2602
  162SAPE   O2218154   3.440   0.103   6.775 -0.1511  0.2879  0.2599
  162SAPE   C2218155   3.616  -0.041   6.872  1.2129  0.2049 -0.0524
  162SAPE   H2R18156   3.584  -0.132   6.927  1.1415  0.1725 -0.1463
  162SAPE   H2S18157   3.707  -0.058   6.810  0.4036  1.1230 -1.5498
  162SAPE    C318158   3.305  -0.230   6.579 -0.2293 -0.3114 -0.7550
  162SAPE    HX18159   3.377  -0.304   6.537  0.3294 -1.4331  1.9390
  162SAPE    HY18160   3.226  -0.217   6.502 -0.5605 -1.5109 -0.6294
  162SAPE   O3118161   3.262  -0.286   6.710 -0.1705  0.3919 -0.3891
  162SAPE   C3118162   3.158  -0.232   6.771 -0.2466 -0.0358  0.3187
  162SAPE   O3218163   3.085  -0.151   6.718  0.0262 -0.1253  0.3839
  162SAPE   C3218164   3.131  -0.299   6.906 -0.2875 -0.4897 -0.4136
  162SAPE   H2X18165   3.141  -0.220   6.983 -0.1372  0.8748 -1.7710
  162SAPE   H2Y18166   3.211  -0.375   6.919  0.4742  0.5945  1.6218
  162SAPE   C2318167   3.651   0.078   6.968 -0.1482 -0.0096  0.6583
  162SAPE   H3R18168   3.560   0.096   7.030  0.2161 -0.3720  1.3139
  162SAPE   H3S18169   3.660   0.159   6.892  0.4556 -0.5545  0.1337
  162SAPE   C2418170   3.780   0.054   7.048  0.6229  0.3082  0.2218
  162SAPE   H4R18171   3.793   0.143   7.114  0.3164 -1.7051  3.2159
  162SAPE   H4S18172   3.866   0.031   6.981 -1.0995 -1.4979 -1.4862
  162SAPE   C2518173   3.766  -0.058   7.153  0.2503  0.0566 -0.2772
  162SAPE   H5R18174   3.781  -0.153   7.100  0.9325  0.5408 -0.9612
  162SAPE   C2618175   3.731  -0.054   7.286  0.0313 -0.0376  0.2923
  162SAPE   H6R18176   3.739  -0.145   7.347 -0.3293 -0.8232 -0.7872
  162SAPE   C2718177   3.704   0.081   7.349 -0.1830  0.1829 -1.0472
  162SAPE   H7R18178   3.662   0.155   7.277 -0.8505 -0.7008 -1.5777
  162SAPE   H7S18179   3.801   0.126   7.380  0.2033 -1.0545 -0.3906
  162SAPE   C2818180   3.605   0.073   7.469  0.5161  0.3983  0.5255
  162SAPE   H8R18181   3.504   0.042   7.439 -0.1815  2.1314  0.9750
  162SAPE   C2918182   3.628   0.105   7.598 -0.0755 -0.1447 -0.5380
  162SAPE   H9R18183   3.539   0.091   7.662 -0.7677 -0.2087 -1.4868
  162SAPE  C21018184   3.753   0.148   7.675 -0.1070  0.7065  0.2652
  162SAPE  H10R18185   3.752   0.258   7.686  0.9884  0.6810  0.6895
  162SAPE  H10S18186   3.843   0.120   7.615 -1.6028  0.4214 -1.9885
  162SAPE  C21118187   3.770   0.060   7.806 -0.3036 -0.1379 -0.0345
  162SAPE  H11R18188   3.768  -0.049   7.795 -2.1670 -0.0082 -1.4192
  162SAPE  C21218189   3.795   0.112   7.931  0.6562 -0.4024 -0.0916
  162SAPE  H12R18190   3.802   0.049   8.020 -3.7294 -2.2313 -0.7610
  162SAPE  C21318191   3.814   0.257   7.966  0.0288 -0.8094 -0.0300
  162SAPE  H13R18192   3.716   0.298   8.000  0.7138  0.1307  0.8778
  162SAPE  H13S18193   3.842   0.317   7.877 -1.7035  1.0281  0.5804
  162SAPE  C21418194   3.930   0.283   8.061  0.4343  0.9403 -0.6788
  162SAPE  H14R18195   4.028   0.293   8.012 -0.4798  0.8620 -2.6003
  162SAPE  C21518196   3.927   0.322   8.193  0.2131  0.3431  0.6264
  162SAPE  H15R18197   4.018   0.324   8.255  1.8474  0.6260 -1.6645
  162SAPE  C21618198   3.795   0.337   8.271 -0.3581 -0.1199  0.5551
  162SAPE  H16R18199   3.714   0.279   8.221 -0.6040 -0.1887  1.0272
  162SAPE  H16S18200   3.765   0.443   8.287 -2.4395 -0.7629  1.2202
  162SAPE  C21718201   3.808   0.276   8.417 -0.4028 -0.7434  0.2323
  162SAPE  H17R18202   3.872   0.336   8.486  0.2833 -1.0121 -0.1560
  162SAPE  H17S18203   3.864   0.181   8.404  1.3655  0.5595 -2.7588
  162SAPE  C21818204   3.668   0.231   8.474  0.2754 -0.8965 -0.0303
  162SAPE  H18R18205   3.697   0.139   8.529 -0.6577 -1.2413 -0.0963
  162SAPE  H18S18206   3.589   0.220   8.397 -1.1365 -1.0530  1.3760
  162SAPE  C21918207   3.613   0.332   8.585  0.3740 -0.1995 -0.0333
  162SAPE  H19R18208   3.625   0.435   8.544  2.1544  0.1581  1.2755
  162SAPE  H19S18209   3.677   0.338   8.676 -1.4529  0.9561  1.2313
  162SAPE  C22018210   3.464   0.294   8.625 -0.0912 -0.7572 -0.1409
  162SAPE  H20R18211   3.461   0.197   8.680 -1.6487 -0.5864  0.1224
  162SAPE  H20S18212   3.401   0.282   8.535  0.8997 -0.7236 -0.8618
  162SAPE  H20T18213   3.413   0.373   8.685 -0.7757 -1.4633  0.2295
  162SAPE   C3318214   2.987  -0.351   6.919 -0.0814 -0.7220 -0.3789
  162SAPE   H3X18215   2.952  -0.391   6.822  0.9404  1.1925 -1.5935
  162SAPE   H3Y18216   2.923  -0.262   6.936 -1.0813 -1.1888 -1.5553
  162SAPE   C3418217   2.968  -0.460   7.028 -0.1223 -0.3486 -0.1217
  162SAPE   H4X18218   3.029  -0.550   7.005  1.8821  0.7830  0.5657
  162SAPE   H4Y18219   2.864  -0.500   7.036  0.0697 -0.4495  3.4971
  162SAPE   C3518220   3.013  -0.424   7.179 -0.7235 -0.2004 -0.2794
  162SAPE   H5X18221   2.981  -0.320   7.199  3.5909  1.3444 -0.3893
  162SAPE   H5Y18222   3.122  -0.432   7.195 -0.6159 -1.3414 -1.3654
  162SAPE   C3618223   2.938  -0.507   7.279  0.4191  0.4345  0.7154
  162SAPE   H6X18224   2.952  -0.615   7.260  0.3832 -0.1976  3.8365
  162SAPE   H6Y18225   2.829  -0.486   7.274  0.8112  2.5053 -0.3642
  162SAPE   C3718226   2.984  -0.472   7.421 -0.1975  0.6061  0.0237
  162SAPE   H7X18227   2.968  -0.367   7.452 -0.0719  0.6610 -0.0959
  162SAPE   H7Y18228   3.092  -0.492   7.440 -0.1952  0.5924 -0.0037
  162SAPE   C3818229   2.900  -0.557   7.527 -0.1870  0.5849 -0.4828
  162SAPE   H8X18230   2.914  -0.664   7.499  2.3452  0.3619  1.3190
  162SAPE   H8Y18231   2.795  -0.526   7.505 -0.1689  1.7824  0.9491
  162SAPE   C3918232   2.936  -0.527   7.675 -0.4701 -0.3734  0.3263
  162SAPE   H9X18233   2.948  -0.417   7.690  3.5229 -0.7304  0.9797
  162SAPE   H9Y18234   3.044  -0.546   7.693 -0.1745 -0.1655 -1.0750
  162SAPE  C31018235   2.840  -0.586   7.773  0.0630 -0.5110 -0.5779
  162SAPE  H10X18236   2.853  -0.697   7.769 -0.4392 -0.5410 -1.7215
  162SAPE  H10Y18237   2.736  -0.560   7.744  0.6323  0.3430 -1.9106
  162SAPE  C31118238   2.853  -0.535   7.921 -0.8668 -1.1000  0.3795
  162SAPE  H11X18239   2.796  -0.597   7.994  3.9255 -3.5055  2.5611
  162SAPE  H11Y18240   2.830  -0.426   7.920  1.5279 -0.5257 -2.1242
  162SAPE  C31218241   2.993  -0.544   7.977 -0.1943  0.3257 -0.2711
  162SAPE  H12X18242   3.056  -0.471   7.921  1.6246 -1.1585 -0.2645
  162SAPE  H12Y18243   3.032  -0.646   7.956  2.2800  0.7121  1.8513
  162SAPE  C31318244   3.005  -0.513   8.126 -0.5893 -0.3201 -0.5774
  162SAPE  H13X18245   2.955  -0.588   8.190  1.1775  0.1266  1.4516
  162SAPE  H13Y18246   2.963  -0.412   8.147 -1.3571 -1.1780  2.5735
  162SAPE  C31418247   3.149  -0.496   8.177  0.0371 -0.0538  0.3829
  162SAPE  H14X18248   3.209  -0.475   8.085  1.8668 -1.8595  1.0852
  162SAPE  H14Y18249   3.198  -0.589   8.213  0.8476  0.0044 -0.5062
  162SAPE  C31518250   3.170  -0.391   8.284  0.8728 -0.0272 -0.9861
  162SAPE  H15X18251   3.087  -0.318   8.275  0.0867 -0.9564 -1.4079
  162SAPE  H15Y18252   3.273  -0.352   8.268  0.8199  0.5976  0.1369
  162SAPE  C31618253   3.158  -0.456   8.426  0.1414 -0.3209 -0.2781
  162SAPE  H16X18254   3.194  -0.381   8.500  0.2186 -0.0447 -0.5906
  162SAPE  H16Y18255   3.225  -0.545   8.425  2.7912  1.4405  2.4853
  162SAPE  C31718256   3.013  -0.480   8.468  0.1716  0.2175 -0.2011
  162SAPE  H17X18257   2.967  -0.547   8.392  0.4717 -2.0973  1.5647
  162SAPE  H17Y18258   2.953  -0.387   8.470 -2.2488 -1.2907  1.1717
  162SAPE  C31818259   3.007  -0.558   8.601  0.5263 -0.9900 -0.6056
  162SAPE  H18X18260   2.903  -0.595   8.610 -0.2338  0.6421 -1.8969
  162SAPE  H18Y18261   3.012  -0.485   8.685  0.0467 -2.9849  1.2227
  162SAPE  H18Z18262   3.077  -0.643   8.615  0.7589 -0.4116  2.4430
  163SAPE     N18263   3.849   5.091   6.714  0.2829 -0.3098  0.4330
  163SAPE   HN118264   3.774   5.061   6.648 -0.2998  2.9128 -0.5736
  163SAPE   HN218265   3.877   5.031   6.794  2.5230  0.7833  0.5393
  163SAPE   HN318266   3.828   5.189   6.741 -0.1502  0.2217 -1.5997
  163SAPE   C1218267   3.975   5.098   6.629  0.9510 -0.5689 -0.1137
  163SAPE  H12A18268   3.974   5.184   6.558 -2.4781 -0.4018 -0.0089
  163SAPE  H12B18269   3.962   5.006   6.569 -1.4254  0.9523 -2.1212
  163SAPE   C1118270   4.098   5.086   6.710 -0.5993 -0.1008 -0.6244
  163SAPE  H11A18271   4.106   5.173   6.778  2.2936 -2.2372  2.0543
  163SAPE  H11B18272   4.186   5.084   6.642  0.0920 -0.9905  0.2545
  163SAPE     P18273   4.134   4.823   6.749 -0.4432  0.2501  0.4676
  163SAPE   O1318274   4.101   4.805   6.612  0.7507  0.0653 -0.1268
  163SAPE   O1418275   4.274   4.807   6.789 -0.2649  0.3148 -0.3140
  163SAPE   O1218276   4.092   4.969   6.793  0.3834 -0.0774  0.3241
  163SAPE   O1118277   4.051   4.727   6.845  0.1730 -0.3670 -0.2359
  163SAPE    C118278   3.907   4.718   6.859  0.6363  0.2377  0.2460
  163SAPE    HA18279   3.856   4.789   6.790  1.7712  0.1134 -0.7527
  163SAPE    HB18280   3.874   4.624   6.809  2.2688  0.4404 -1.3452
  163SAPE    C218281   3.853   4.739   7.002  0.0186 -0.6013 -0.0617
  163SAPE    HS18282   3.748   4.776   6.999  0.1225 -0.3853 -1.8236
  163SAPE   O2118283   3.945   4.817   7.076  0.2284 -0.2375  0.1742
  163SAPE   C2118284   3.945   4.949   7.047  0.4258  0.2877 -0.1415
  163SAPE   O2218285   3.863   5.001   6.975  0.2668 -0.5931 -0.6404
  163SAPE   C2218286   4.057   5.019   7.116  0.2931 -0.4258 -0.0415
  163SAPE   H2R18287   4.057   4.977   7.218 -1.3017  1.1611  0.6667
  163SAPE   H2S18288   4.153   5.007   7.060  1.1057 -1.0573  1.4473
  163SAPE    C318289   3.845   4.601   7.075 -0.1185  0.0806 -0.7335
  163SAPE    HX18290   3.949   4.562   7.089 -0.7499 -1.4120  0.0647
  163SAPE    HY18291   3.782   4.531   7.017 -1.8978  0.3095  0.8340
  163SAPE   O3118292   3.790   4.629   7.205 -0.2374 -0.1632  0.7078
  163SAPE   C3118293   3.663   4.619   7.215 -0.2033  0.0911  0.9392
  163SAPE   O3218294   3.585   4.581   7.127  0.3426  0.2800  0.2593
  163SAPE   C3218295   3.619   4.652   7.360  0.6803  0.2677 -0.5670
  163SAPE   H2X18296   3.618   4.761   7.383 -0.6633  0.0864  0.3090
  163SAPE   H2Y18297   3.688   4.602   7.431  0.1603  0.7637  0.2996
  163SAPE   C2318298   4.023   5.173   7.136 -0.2171  0.1947 -1.1275
  163SAPE   H3R18299   3.922   5.178   7.180 -0.5673 -0.3270 -1.8518
  163SAPE   H3S18300   4.002   5.233   7.044 -0.5420  2.8479  0.5864
  163SAPE   C2418301   4.134   5.240   7.218 -0.0149 -1.0914 -0.3719
  163SAPE   H4R18302   4.119   5.351   7.215  0.0543 -1.1097 -1.9136
  163SAPE   H4S18303   4.235   5.223   7.175  1.1167  0.2418  1.5632
  163SAPE   C2518304   4.144   5.206   7.365 -0.6110 -0.0903  0.3689
  163SAPE   H5R18305   4.167   5.099   7.381  1.2215  0.2033 -0.0610
  163SAPE   C2618306   4.139   5.286   7.475 -0.4001 -0.4162  0.1739
  163SAPE   H6R18307   4.147   5.240   7.575 -0.4052  1.7765  1.2445
  163SAPE   C2718308   4.131   5.434   7.452 -0.1614 -0.3851  0.5450
  163SAPE   H7R18309   4.044   5.459   7.388 -0.6073  0.2798  1.3909
  163SAPE   H7S18310   4.219   5.469   7.394  0.3360 -0.6890  1.0990
  163SAPE   C2818311   4.120   5.515   7.579 -0.0901  0.1174  0.0476
  163SAPE   H8R18312   4.020   5.542   7.614 -1.2566 -1.0531 -2.1978
  163SAPE   C2918313   4.209   5.557   7.667  0.2881 -0.5940 -0.8747
  163SAPE   H9R18314   4.174   5.619   7.751 -3.5635 -3.0635 -0.4175
  163SAPE  C21018315   4.360   5.531   7.671  0.0797  0.0771 -0.4813
  163SAPE  H10R18316   4.411   5.622   7.633  2.2972 -0.9420 -0.0956
  163SAPE  H10S18317   4.390   5.447   7.605  2.6247 -0.7265  1.5191
  163SAPE  C21118318   4.422   5.485   7.798  0.2646 -0.1986 -0.0402
  163SAPE  H11R18319   4.488   5.398   7.787  4.2065  2.6918 -1.4566
  163SAPE  C21218320   4.423   5.540   7.922 -0.4473  0.4192  1.0321
  163SAPE  H12R18321   4.492   5.499   7.997  1.3780 -1.1996 -1.3915
  163SAPE  C21318322   4.353   5.671   7.953  0.5564 -0.1156 -0.3201
  163SAPE  H13R18323   4.245   5.660   7.978  0.4463  1.0912 -0.2015
  163SAPE  H13S18324   4.365   5.735   7.863 -0.4541  1.2267  0.4786
  163SAPE  C21418325   4.424   5.747   8.058 -0.7164  0.5974  0.2305
  163SAPE  H14R18326   4.522   5.790   8.033  0.0680 -0.9917  0.4596
  163SAPE  C21518327   4.372   5.780   8.178  0.2994 -0.5224  0.2383
  163SAPE  H15R18328   4.430   5.854   8.235 -1.8589  0.4915  1.2252
  163SAPE  C21618329   4.233   5.754   8.233  0.3389  0.1352  0.3347
  163SAPE  H16R18330   4.198   5.652   8.203 -1.2288  1.0640 -1.1986
  163SAPE  H16S18331   4.158   5.823   8.190  1.1614  0.0818 -1.2888
  163SAPE  C21718332   4.230   5.777   8.390 -0.0326 -0.1782  0.5425
  163SAPE  H17R18333   4.318   5.727   8.437  0.0248 -0.2496  0.3617
  163SAPE  H17S18334   4.132   5.734   8.421 -0.7404  0.2572 -0.9782
  163SAPE  C21818335   4.250   5.926   8.430 -0.3924 -0.0000  0.3507
  163SAPE  H18R18336   4.202   5.994   8.356 -0.6997 -0.1621  0.4000
  163SAPE  H18S18337   4.356   5.958   8.423 -0.1086 -1.0130 -0.1171
  163SAPE  C21918338   4.202   5.964   8.574 -0.5298 -0.4882 -0.1785
  163SAPE  H19R18339   4.169   5.871   8.625  0.3984 -1.4941 -1.3309
  163SAPE  H19S18340   4.108   6.022   8.566 -1.3342 -1.7694 -0.3558
  163SAPE  C22018341   4.298   6.057   8.642 -0.8871 -0.0758  0.3498
  163SAPE  H20R18342   4.276   6.076   8.749  4.1770  0.0610  1.6202
  163SAPE  H20S18343   4.280   6.156   8.594 -0.4787 -0.2904 -0.2611
  163SAPE  H20T18344   4.405   6.032   8.623 -1.1516 -1.3978  0.5588
  163SAPE   C3318345   3.469   4.611   7.376  0.3779 -0.3129  0.2005
  163SAPE   H3X18346   3.451   4.514   7.323 -0.4202 -0.2400  0.3238
  163SAPE   H3Y18347   3.399   4.686   7.332 -2.1384 -1.0434  2.6401
  163SAPE   C3418348   3.430   4.585   7.519  0.5325 -0.0269 -0.3737
  163SAPE   H4X18349   3.485   4.495   7.554 -1.5857 -0.0970  3.2395
  163SAPE   H4Y18350   3.321   4.571   7.533  0.5090  1.1163  0.8037
  163SAPE   C3518351   3.469   4.699   7.612 -0.0496  0.4789  0.7038
  163SAPE   H5X18352   3.415   4.794   7.592  0.8903  0.8543 -0.1416
  163SAPE   H5Y18353   3.577   4.717   7.594  0.0143 -1.4548 -1.1210
  163SAPE   C3618354   3.479   4.657   7.759 -0.5698  0.0082  0.3818
  163SAPE   H6X18355   3.542   4.730   7.814  1.7892  0.4675 -2.6424
  163SAPE   H6Y18356   3.542   4.565   7.762 -0.9287 -0.3043 -1.0426
  163SAPE   C3718357   3.344   4.624   7.819 -0.4085 -0.0568 -0.2482
  163SAPE   H7X18358   3.300   4.554   7.745  1.5855 -0.1510 -1.4182
  163SAPE   H7Y18359   3.272   4.709   7.817 -0.9321 -0.4842  0.1730
  163SAPE   C3818360   3.352   4.564   7.960 -0.1352 -0.0736  0.6329
  163SAPE   H8X18361   3.411   4.471   7.948 -2.6618 -1.9637  1.7679
  163SAPE   H8Y18362   3.249   4.533   7.991 -0.0338 -0.3729  0.6729
  163SAPE   C3918363   3.403   4.657   8.070 -0.6653 -0.2268 -0.3973
  163SAPE   H9X18364   3.506   4.683   8.039 -1.0584 -1.1851 -2.7365
  163SAPE   H9Y18365   3.410   4.596   8.162 -0.6067 -0.9752 -0.8887
  163SAPE  C31018366   3.311   4.778   8.097 -0.2411 -0.0921 -0.2926
  163SAPE  H10X18367   3.213   4.743   8.136 -1.2791  2.2462 -0.6244
  163SAPE  H10Y18368   3.288   4.849   8.015 -2.4097  2.1113  2.0534
  163SAPE  C31118369   3.369   4.863   8.209  0.0955 -0.0732  0.1715
  163SAPE  H11X18370   3.375   4.805   8.303  1.2659  1.6618  1.2295
  163SAPE  H11Y18371   3.308   4.954   8.226 -0.8010 -0.8333  1.1075
  163SAPE  C31218372   3.509   4.916   8.179  0.2050 -0.9494  1.0165
  163SAPE  H12X18373   3.499   4.967   8.081 -0.8314 -1.1928  0.9818
  163SAPE  H12Y18374   3.586   4.836   8.170  0.8962 -0.2711  0.7978
  163SAPE  C31318375   3.562   5.016   8.286  0.1519 -0.1969 -0.4715
  163SAPE  H13X18376   3.565   4.967   8.386  3.5532  1.7466  0.5473
  163SAPE  H13Y18377   3.492   5.103   8.290 -0.0936 -0.3273 -1.5972
  163SAPE  C31418378   3.705   5.062   8.262 -0.2177 -0.2933 -0.4965
  163SAPE  H14X18379   3.708   5.161   8.311 -2.3257 -0.5347  0.1971
  163SAPE  H14Y18380   3.715   5.079   8.153 -1.4325 -1.5658 -0.8357
  163SAPE  C31518381   3.814   4.964   8.309  0.1426  0.1695  0.0084
  163SAPE  H15X18382   3.905   4.983   8.247  0.5568  0.6993  0.7592
  163SAPE  H15Y18383   3.783   4.859   8.293 -0.3797  0.0944  1.4255
  163SAPE  C31618384   3.862   4.974   8.456  0.2746  0.6528  0.5572
  163SAPE  H16X18385   3.777   4.977   8.527  1.3373 -1.7538  2.0345
  163SAPE  H16Y18386   3.936   5.056   8.470  2.9428 -1.5850  0.4484
  163SAPE  C31718387   3.920   4.844   8.503  0.0444  0.8156 -0.5649
  163SAPE  H17X18388   3.837   4.772   8.518  1.5303 -1.9219 -3.9058
  163SAPE  H17Y18389   3.955   4.850   8.608  0.0211 -2.4871 -0.2609
  163SAPE  C31818390   4.030   4.783   8.416  0.0959 -0.5431  0.7701
  163SAPE  H18X18391   4.110   4.855   8.387 -1.4346  0.9199  0.0100
  163SAPE  H18Y18392   3.991   4.737   8.323 -0.9398  1.6822  0.0390
  163SAPE  H18Z18393   4.080   4.699   8.469 -0.1198 -1.3324 -0.2522
  164SAPE     N18394   5.283   1.350   6.055  0.1971 -0.0950  0.3245
  164SAPE   HN118395   5.275   1.447   6.092  2.8457  0.1702  0.3560
  164SAPE   HN218396   5.199   1.288   6.059  0.8236 -1.1269 -1.3660
  164SAPE   HN318397   5.369   1.299   6.081  1.0658  0.9348 -0.4539
  164SAPE   C1218398   5.304   1.378   5.908  0.8743  0.0683  0.4504
  164SAPE  H12A18399   5.220   1.440   5.871 -0.5393 -1.8009  0.4248
  164SAPE  H12B18400   5.311   1.280   5.857  1.7956  0.5549 -0.4155
  164SAPE   C1118401   5.446   1.431   5.890 -0.2566 -0.2091  0.4386
  164SAPE  H11A18402   5.452   1.533   5.934  1.2091 -0.1001  0.0427
  164SAPE  H11B18403   5.465   1.445   5.781 -2.5531 -0.2156 -0.0197
  164SAPE     P18404   5.695   1.345   5.909 -0.4077  0.0011  0.0377
  164SAPE   O1318405   5.753   1.212   5.922 -0.2863 -0.3559 -0.6079
  164SAPE   O1418406   5.707   1.418   5.779  0.2084  0.3405 -0.3205
  164SAPE   O1218407   5.542   1.338   5.942 -0.3542 -0.2483  0.1765
  164SAPE   O1118408   5.753   1.440   6.020 -0.6889  0.4490  0.9866
  164SAPE    C118409   5.710   1.440   6.156 -0.0989  0.4336 -0.9371
  164SAPE    HA18410   5.677   1.539   6.193 -0.4198  1.3269 -3.4114
  164SAPE    HB18411   5.630   1.363   6.167  1.5059 -1.2771 -0.6549
  164SAPE    C218412   5.825   1.397   6.251  0.3842  1.3692  0.3783
  164SAPE    HS18413   5.907   1.470   6.237 -0.1990  1.5904 -2.3528
  164SAPE   O2118414   5.875   1.263   6.213 -0.0201 -0.8829 -0.2278
  164SAPE   C2118415   5.994   1.258   6.153  0.0013  0.5539 -0.2330
  164SAPE   O2218416   6.065   1.357   6.126 -0.4558 -0.1571  0.3004
  164SAPE   C2218417   6.026   1.111   6.134  0.6093 -0.1224 -0.4230
  164SAPE   H2R18418   5.998   1.066   6.231  1.2635  0.5665  0.1075
  164SAPE   H2S18419   5.967   1.069   6.050 -0.1563 -2.9877  1.4201
  164SAPE    C318420   5.779   1.380   6.393  0.0135  0.4474 -0.2764
  164SAPE    HX18421   5.833   1.303   6.451 -0.7894  2.3807  3.3575
  164SAPE    HY18422   5.673   1.346   6.389 -0.0757  0.7689 -0.6710
  164SAPE   O3118423   5.780   1.505   6.472  0.0004 -0.5168  0.3144
  164SAPE   C3118424   5.743   1.473   6.592 -0.2519  0.7200 -0.0022
  164SAPE   O3218425   5.708   1.362   6.634 -0.5292  0.6011 -0.1641
  164SAPE   C3218426   5.703   1.601   6.671  0.4875 -0.1858 -0.1624
  164SAPE   H2X18427   5.605   1.627   6.626  0.7833  4.2526  1.3129
  164SAPE   H2Y18428   5.787   1.673   6.655  0.9013  0.0287  2.5190
  164SAPE   C2318429   6.178   1.099   6.112  0.1578 -0.4908 -0.9791
  164SAPE   H3R18430   6.213   1.167   6.032  1.3268 -2.3802 -2.1271
  164SAPE   H3S18431   6.191   0.991   6.090  0.4267 -0.6445 -0.1239
  164SAPE   C2418432   6.278   1.127   6.224  0.4236 -0.3822  0.7620
  164SAPE   H4R18433   6.310   1.234   6.225 -1.5606  0.2539  0.1312
  164SAPE   H4S18434   6.370   1.068   6.203  2.3505  1.3012  3.6192
  164SAPE   C2518435   6.245   1.088   6.364 -0.2591 -0.6061  0.2546
  164SAPE   H5R18436   6.268   0.983   6.386  0.4431 -1.3137 -3.2178
  164SAPE   C2618437   6.203   1.168   6.460  0.0056 -0.4354  0.2821
  164SAPE   H6R18438   6.194   1.139   6.565  0.4446 -0.2306  0.3748
  164SAPE   C2718439   6.188   1.318   6.448  0.8971 -0.8099  0.0871
  164SAPE   H7R18440   6.087   1.349   6.481  0.9656 -1.8359  1.3594
  164SAPE   H7S18441   6.185   1.365   6.347  2.1990  0.2875  0.5223
  164SAPE   C2818442   6.279   1.396   6.547 -0.7511  0.4554  0.6846
  164SAPE   H8R18443   6.372   1.433   6.501 -2.0145  1.6404 -1.0553
  164SAPE   C2918444   6.262   1.424   6.674  0.1026  0.1662 -0.4022
  164SAPE   H9R18445   6.343   1.477   6.726 -0.0074  1.4265 -1.4570
  164SAPE  C21018446   6.142   1.383   6.753 -0.4783  0.0382  0.0003
  164SAPE  H10R18447   6.188   1.315   6.828 -1.8405 -0.7949  0.1146
  164SAPE  H10S18448   6.060   1.325   6.706 -0.5154 -0.1128  0.2513
  164SAPE  C21118449   6.077   1.507   6.805 -0.1942  0.3999 -0.1945
  164SAPE  H11R18450   5.996   1.551   6.744 -2.0141 -0.8539  1.2208
  164SAPE  C21218451   6.093   1.563   6.924 -0.8667 -0.6531 -0.3526
  164SAPE  H12R18452   6.024   1.647   6.937 -0.5563 -0.3484 -0.6824
  164SAPE  C21318453   6.182   1.528   7.044  0.0646 -0.2090  0.4856
  164SAPE  H13R18454   6.286   1.564   7.032 -0.2877  0.3671 -0.9707
  164SAPE  H13S18455   6.194   1.418   7.043  2.1571 -0.0369 -1.7636
  164SAPE  C21418456   6.135   1.592   7.173  0.3865 -0.8311 -0.4498
  164SAPE  H14R18457   6.125   1.701   7.163 -3.1477 -1.0057 -0.1210
  164SAPE  C21518458   6.065   1.529   7.274  0.1746 -0.8830  0.0439
  164SAPE  H15R18459   6.038   1.586   7.364  1.1940 -1.8511  0.9899
  164SAPE  C21618460   6.033   1.381   7.280  0.8435  0.0151  0.5055
  164SAPE  H16R18461   6.121   1.323   7.316 -0.3646  0.1713  4.1006
  164SAPE  H16S18462   6.000   1.348   7.179 -2.2034  2.3289  0.6009
  164SAPE  C21718463   5.914   1.338   7.366 -0.0825 -0.6612 -0.0027
  164SAPE  H17R18464   5.892   1.230   7.356  1.5750 -1.1512  1.1533
  164SAPE  H17S18465   5.825   1.400   7.341  0.3331 -0.3304 -0.6957
  164SAPE  C21818466   5.943   1.357   7.514 -0.4208  0.3194 -0.0406
  164SAPE  H18R18467   5.933   1.462   7.549  2.1901  0.1702  1.4175
  164SAPE  H18S18468   6.045   1.322   7.539 -0.7590 -0.3708  0.4185
  164SAPE  C21918469   5.850   1.266   7.589  0.5957  0.1858 -0.3203
  164SAPE  H19R18470   5.877   1.162   7.561  0.2510  0.0625 -0.1930
  164SAPE  H19S18471   5.744   1.291   7.572  0.0034 -1.2754  0.9648
  164SAPE  C22018472   5.876   1.257   7.742  0.6375 -0.1824  0.0741
  164SAPE  H20R18473   5.833   1.344   7.795  0.5790 -0.2334  0.1110
  164SAPE  H20S18474   5.986   1.246   7.750  0.9342  0.3804 -2.3943
  164SAPE  H20T18475   5.828   1.167   7.786  0.7357 -0.7096 -0.8642
  164SAPE   C3318476   5.675   1.578   6.816 -0.2219 -0.5754  0.5480
  164SAPE   H3X18477   5.757   1.516   6.858  0.9492 -2.2748 -3.7126
  164SAPE   H3Y18478   5.580   1.520   6.814  0.1197 -1.1070 -0.6282
  164SAPE   C3418479   5.660   1.717   6.882 -0.0792  0.4097  0.5222
  164SAPE   H4X18480   5.555   1.754   6.871  0.5204  2.2339  0.5218
  164SAPE   H4Y18481   5.720   1.794   6.830 -0.0815  0.7872  1.0644
  164SAPE   C3518482   5.706   1.703   7.026  0.1706  0.3349  0.1120
  164SAPE   H5X18483   5.785   1.626   7.033 -1.5765 -1.8481 -2.0620
  164SAPE   H5Y18484   5.633   1.651   7.092  0.0597  0.4135  0.0544
  164SAPE   C3618485   5.734   1.833   7.103 -0.0205 -0.0656  0.3681
  164SAPE   H6X18486   5.636   1.875   7.135 -0.8467 -1.4547 -0.2257
  164SAPE   H6Y18487   5.787   1.915   7.050  0.2616  1.6675  3.1266
  164SAPE   C3718488   5.819   1.812   7.226  0.6497 -0.5253 -0.4571
  164SAPE   H7X18489   5.845   1.908   7.275  0.7700 -1.2672  1.0180
  164SAPE   H7Y18490   5.915   1.763   7.199  1.0749 -0.2448  0.4858
  164SAPE   C3818491   5.746   1.745   7.336 -0.1321  0.0507 -0.0660
  164SAPE   H8X18492   5.764   1.635   7.341 -0.5640  0.0099  1.2032
  164SAPE   H8Y18493   5.636   1.757   7.322  0.0126 -0.6400 -2.0787
  164SAPE   C3918494   5.764   1.815   7.483 -0.1499  0.4551 -0.2082
  164SAPE   H9X18495   5.698   1.904   7.481 -0.7383  0.0356  0.2186
  164SAPE   H9Y18496   5.870   1.845   7.497  0.1070 -0.4586 -0.1265
  164SAPE  C31018497   5.726   1.717   7.588 -0.3227  0.4886  0.1150
  164SAPE  H10X18498   5.773   1.624   7.550  0.9682  1.1394  0.0571
  164SAPE  H10Y18499   5.617   1.696   7.582 -0.4603  1.3835 -0.8630
  164SAPE  C31118500   5.777   1.747   7.732 -0.3800  0.0747  0.5343
  164SAPE  H11X18501   5.879   1.790   7.736 -1.4864  3.1602 -1.0832
  164SAPE  H11Y18502   5.772   1.653   7.792 -2.3002  0.6044  1.2769
  164SAPE  C31218503   5.690   1.843   7.810  0.4789 -0.3461 -0.7583
  164SAPE  H12X18504   5.598   1.789   7.840 -0.4687  0.3768 -2.2066
  164SAPE  H12Y18505   5.645   1.930   7.756 -1.9982 -1.2851 -0.3745
  164SAPE  C31318506   5.743   1.881   7.951  0.3893 -0.8723 -0.7339
  164SAPE  H13X18507   5.787   1.983   7.941  2.0183 -1.1767  2.1521
  164SAPE  H13Y18508   5.815   1.806   7.989  0.1873 -0.5530  0.3388
  164SAPE  C31418509   5.621   1.888   8.058 -0.0996  0.1819  0.4766
  164SAPE  H14X18510   5.572   1.789   8.057  1.0782 -0.4173  0.3824
  164SAPE  H14Y18511   5.535   1.953   8.031 -1.5007 -1.1878  1.5037
  164SAPE  C31518512   5.670   1.925   8.196  0.2765 -0.3608 -0.4258
  164SAPE  H15X18513   5.731   2.017   8.185 -0.0985 -0.3747 -3.7319
  164SAPE  H15Y18514   5.736   1.848   8.240  0.9254  0.3365 -0.1541
  164SAPE  C31618515   5.555   1.963   8.291 -0.6115 -0.2287 -0.4333
  164SAPE  H16X18516   5.474   1.888   8.303  1.8606 -3.1568 -0.8933
  164SAPE  H16Y18517   5.507   2.058   8.258  0.5161  1.6471  2.8842
  164SAPE  C31718518   5.624   2.007   8.423  0.2990  0.7525  0.8316
  164SAPE  H17X18519   5.555   2.072   8.482 -0.9931 -0.1007  0.2918
  164SAPE  H17Y18520   5.713   2.072   8.402 -0.5878  1.6658 -0.2217
  164SAPE  C31818521   5.657   1.900   8.518 -0.2076  0.3515 -0.0724
  164SAPE  H18X18522   5.690   1.805   8.472 -1.0262 -0.7957  1.6228
  164SAPE  H18Y18523   5.567   1.861   8.569 -2.4304  2.8828 -1.7685
  164SAPE  H18Z18524   5.717   1.950   8.597 -0.3998  1.0030 -0.3293
  165SAPE     N18525   0.921   5.744   5.900 -0.3703  0.2679  0.2761
  165SAPE   HN118526   0.886   5.839   5.876 -0.3895  0.3171  0.5005
  165SAPE   HN218527   1.008   5.745   5.957 -1.8613 -0.3553  2.7049
  165SAPE   HN318528   0.929   5.683   5.816 -2.0545  0.2421  0.1054
  165SAPE   C1218529   0.803   5.702   5.978 -0.2233 -0.4026 -0.0025
  165SAPE  H12A18530   0.825   5.600   6.018 -1.6260 -1.1924 -1.1523
  165SAPE  H12B18531   0.708   5.702   5.920 -1.5224 -1.1290  1.9923
  165SAPE   C1118532   0.772   5.792   6.101 -0.2584  0.6027 -0.2740
  165SAPE  H11A18533   0.764   5.896   6.062 -1.4791 -0.0169 -1.7380
  165SAPE  H11B18534   0.853   5.793   6.178  0.9549  2.7695 -1.4766
  165SAPE     P18535   0.642   5.635   6.259 -0.0962 -0.2380  0.4280
  165SAPE   O1318536   0.526   5.557   6.215 -0.0857 -0.5833 -0.2688
  165SAPE   O1418537   0.767   5.566   6.264  0.4918  0.0025 -0.4287
  165SAPE   O1218538   0.652   5.761   6.170 -0.0881 -0.1882 -0.5042
  165SAPE   O1118539   0.609   5.693   6.402 -0.4112  0.0276  0.0775
  165SAPE    C118540   0.701   5.791   6.460  0.5898 -0.0092  0.2962
  165SAPE    HA18541   0.789   5.741   6.508  0.1421 -0.2980  0.8341
  165SAPE    HB18542   0.729   5.874   6.393  0.6828 -0.6344 -0.4517
  165SAPE    C218543   0.628   5.864   6.591  0.0031 -0.1758 -0.1173
  165SAPE    HS18544   0.694   5.951   6.613 -0.1708 -0.0132 -0.2418
  165SAPE   O2118545   0.612   5.773   6.706 -0.3240 -0.2069 -0.1892
  165SAPE   C2118546   0.715   5.762   6.786 -0.1537  0.2501  0.4407
  165SAPE   O2218547   0.822   5.821   6.765 -0.3644 -0.0451 -0.0259
  165SAPE   C2218548   0.698   5.671   6.910 -0.2145  0.5766  0.2010
  165SAPE   H2R18549   0.786   5.602   6.908  0.5618  1.5502  0.0119
  165SAPE   H2S18550   0.718   5.740   6.994  1.6128  0.2043  0.1246
  165SAPE    C318551   0.490   5.916   6.545 -0.2564  0.0605  0.2405
  165SAPE    HX18552   0.435   5.844   6.480 -2.3414  0.9491  0.9476
  165SAPE    HY18553   0.505   6.001   6.475 -3.0130  0.2773 -0.1993
  165SAPE   O3118554   0.405   5.956   6.657  0.8016  0.3272 -0.2020
  165SAPE   C3118555   0.309   5.862   6.698  0.1607 -0.1741 -0.1882
  165SAPE   O3218556   0.309   5.744   6.673 -0.0515  0.2592  0.4880
  165SAPE   C3218557   0.216   5.938   6.784  0.2816 -0.9251  0.0217
  165SAPE   H2X18558   0.118   5.910   6.738  0.0632  1.0459 -0.7748
  165SAPE   H2Y18559   0.230   6.047   6.775  1.6159 -1.0486  0.4153
  165SAPE   C2318560   0.567   5.590   6.923  0.6654 -0.2663 -0.3410
  165SAPE   H3R18561   0.573   5.508   6.849 -0.4076  0.2709 -1.0537
  165SAPE   H3S18562   0.481   5.652   6.890 -0.7853 -1.3438  1.2299
  165SAPE   C2418563   0.549   5.539   7.073 -0.9716 -0.4402  0.1690
  165SAPE   H4R18564   0.461   5.474   7.093  0.1712 -2.2199 -0.4414
  165SAPE   H4S18565   0.526   5.634   7.126  0.1751 -0.3184  0.4645
  165SAPE   C2518566   0.666   5.453   7.129  0.2836  0.4109  0.0294
  165SAPE   H5R18567   0.690   5.364   7.069 -1.5285 -1.2229  1.6057
  165SAPE   C2618568   0.731   5.465   7.246 -0.1668 -0.9556 -0.0283
  165SAPE   H6R18569   0.806   5.390   7.276 -1.5204 -1.5395  2.0969
  165SAPE   C2718570   0.698   5.587   7.337 -0.7260 -0.1932 -0.6444
  165SAPE   H7R18571   0.634   5.562   7.424 -0.5210 -1.4303 -0.8351
  165SAPE   H7S18572   0.629   5.664   7.297 -1.3908  0.0772  0.9384
  165SAPE   C2818573   0.828   5.646   7.390 -0.2435  0.2080  0.7451
  165SAPE   H8R18574   0.883   5.696   7.309 -1.4578 -1.1260 -0.9698
  165SAPE   C2918575   0.887   5.624   7.508  0.1297 -0.3167 -0.2131
  165SAPE   H9R18576   0.977   5.676   7.542  1.3956 -1.7262 -1.2940
  165SAPE  C21018577   0.834   5.520   7.608  0.4124  0.2221  0.3683
  165SAPE  H10R18578   0.779   5.445   7.547 -1.8175  3.3403 -1.7919
  165SAPE  H10S18579   0.741   5.547   7.663 -0.1721  0.0287 -0.5020
  165SAPE  C21118580   0.931   5.471   7.708  0.2615 -0.0965  0.5041
  165SAPE  H11R18581   1.000   5.390   7.680  2.5596  1.7371  0.5190
  165SAPE  C21218582   0.942   5.518   7.838 -0.3010 -0.0901 -0.3993
  165SAPE  H12R18583   1.013   5.474   7.909  1.1262  0.9726 -1.1078
  165SAPE  C21318584   0.863   5.628   7.908  0.1559  0.0863 -0.4552
  165SAPE  H13R18585   0.811   5.586   7.997  1.5608  0.8658  0.7874
  165SAPE  H13S18586   0.774   5.667   7.854 -0.8719  0.4065  1.3798
  165SAPE  C21418587   0.942   5.750   7.947  0.2338  0.2347 -0.1869
  165SAPE  H14R18588   1.017   5.783   7.874 -0.4666  0.5862 -0.7696
  165SAPE  C21518589   0.936   5.817   8.069  0.7405 -0.3255  0.3234
  165SAPE  H15R18590   0.995   5.909   8.083 -1.3167  1.0383  0.5466
  165SAPE  C21618591   0.848   5.803   8.192 -0.3179  0.3313 -0.1007
  165SAPE  H16R18592   0.811   5.699   8.203 -1.4196  0.6109 -1.0042
  165SAPE  H16S18593   0.765   5.871   8.166  0.0511  0.6195 -0.5534
  165SAPE  C21718594   0.912   5.846   8.325  0.2612  0.8091 -0.3947
  165SAPE  H17R18595   0.827   5.854   8.397 -0.4783  3.3571 -1.4464
  165SAPE  H17S18596   0.961   5.945   8.323  0.4840  0.7015 -0.2900
  165SAPE  C21818597   1.025   5.745   8.371 -0.3750  0.3756 -0.3025
  165SAPE  H18R18598   1.113   5.776   8.312  0.4297  1.2094  1.2782
  165SAPE  H18S18599   0.993   5.644   8.337 -1.4866  0.7500 -0.4004
  165SAPE  C21918600   1.046   5.754   8.523 -0.4899  0.5629 -0.3152
  165SAPE  H19R18601   0.950   5.746   8.578  0.4023 -0.5449  1.1915
  165SAPE  H19S18602   1.072   5.859   8.551 -1.5569  0.8462 -0.3611
  165SAPE  C22018603   1.152   5.649   8.581 -0.3358 -0.0246 -0.1530
  165SAPE  H20R18604   1.146   5.549   8.531 -0.9593 -1.1674  2.0819
  165SAPE  H20S18605   1.152   5.627   8.690  1.2350 -1.5007 -0.4013
  165SAPE  H20T18606   1.246   5.699   8.549 -0.3625 -0.4277 -0.8856
  165SAPE   C3318607   0.215   5.903   6.933 -0.2529 -0.6249 -0.2225
  165SAPE   H3X18608   0.297   5.830   6.954  0.3582 -0.5730 -2.1858
  165SAPE   H3Y18609   0.118   5.854   6.955 -1.2925  0.9991 -1.0575
  165SAPE   C3418610   0.241   6.024   7.023  0.1843 -0.9769 -0.0028
  165SAPE   H4X18611   0.168   6.103   6.997 -0.1445 -1.2215  0.1636
  165SAPE   H4Y18612   0.345   6.055   6.999  0.3635 -0.5942  1.2010
  165SAPE   C3518613   0.250   5.990   7.175  0.3464 -0.0362 -0.2309
  165SAPE   H5X18614   0.344   5.937   7.200 -1.4705 -3.3205  0.2521
  165SAPE   H5Y18615   0.173   5.913   7.200  0.2601 -0.7698 -2.5534
  165SAPE   C3618616   0.215   6.116   7.255 -0.9821 -0.1356 -0.4001
  165SAPE   H6X18617   0.135   6.172   7.203  0.2478 -0.6930 -3.0738
  165SAPE   H6Y18618   0.303   6.185   7.255 -1.9559  1.1342 -0.5672
  165SAPE   C3718619   0.176   6.083   7.404  0.6230  0.2560  0.0135
  165SAPE   H7X18620   0.250   6.022   7.460 -0.5031 -2.0732 -0.8951
  165SAPE   H7Y18621   0.086   6.019   7.392  0.6133  0.0940  0.8759
  165SAPE   C3818622   0.167   6.209   7.488 -0.0918 -0.1792  0.2534
  165SAPE   H8X18623   0.083   6.274   7.456 -0.0182  1.6981  3.4182
  165SAPE   H8Y18624   0.253   6.277   7.470  0.4637 -0.5437  1.4619
  165SAPE   C3918625   0.151   6.190   7.634  0.4349 -0.2329 -0.3725
  165SAPE   H9X18626   0.247   6.171   7.685  0.6628 -0.3844 -0.8498
  165SAPE   H9Y18627   0.084   6.103   7.652  2.7284 -1.9650  0.1622
  165SAPE  C31018628   0.096   6.319   7.708  0.1544 -0.3231  0.0528
  165SAPE  H10X18629  -0.010   6.344   7.685  0.8156  0.9916 -1.7856
  165SAPE  H10Y18630   0.161   6.405   7.679  0.4565  0.6967  3.3834
  165SAPE  C31118631   0.096   6.300   7.860  0.0094 -0.4605  0.0940
  165SAPE  H11X18632   0.202   6.299   7.895 -0.0856  0.8091  0.4743
  165SAPE  H11Y18633   0.049   6.202   7.881  0.0231 -0.4596  0.1296
  165SAPE  C31218634   0.014   6.400   7.940 -0.0803  0.7922  0.0934
  165SAPE  H12X18635  -0.094   6.396   7.914 -0.4838 -1.9160  1.8593
  165SAPE  H12Y18636   0.059   6.496   7.908  0.4654  0.3042 -0.6445
  165SAPE  C31318637   0.047   6.383   8.085 -0.2563 -0.4201 -0.3879
  165SAPE  H13X18638   0.022   6.477   8.137  0.6153 -2.0025  3.2239
  165SAPE  H13Y18639   0.155   6.359   8.093  0.2020  1.7267  0.4685
  165SAPE  C31418640  -0.037   6.279   8.161  0.2529 -0.2863 -0.1849
  165SAPE  H14X18641   0.008   6.275   8.262 -1.3174 -0.1927  0.5556
  165SAPE  H14Y18642  -0.042   6.181   8.110 -1.3053 -1.6857  2.4527
  165SAPE  C31518643  -0.184   6.317   8.183  0.4967 -0.5945 -0.0146
  165SAPE  H15X18644  -0.240   6.334   8.088  1.2291  3.4477  0.1040
  165SAPE  H15Y18645  -0.181   6.411   8.242 -3.5411 -1.8337  2.5721
  165SAPE  C31618646  -0.269   6.217   8.266 -0.7673  0.0101 -0.4701
  165SAPE  H16X18647  -0.219   6.214   8.365 -0.9550  0.8905 -0.3390
  165SAPE  H16Y18648  -0.269   6.117   8.217  2.5803 -0.3512 -0.0122
  165SAPE  C31718649  -0.412   6.264   8.291 -0.2208 -0.0177 -0.5937
  165SAPE  H17X18650  -0.470   6.294   8.201 -2.2888  0.5712  0.8682
  165SAPE  H17Y18651  -0.407   6.354   8.356 -1.3796 -0.5719  0.3047
  165SAPE  C31818652  -0.502   6.160   8.366 -0.2346 -0.7861 -0.7554
  165SAPE  H18X18653  -0.607   6.195   8.365 -0.5459 -1.6241  0.5961
  165SAPE  H18Y18654  -0.480   6.157   8.474 -3.2102 -0.3967 -0.0516
  165SAPE  H18Z18655  -0.495   6.059   8.319 -1.6069 -0.8074 -0.9597
  166SAPE     N18656   5.214   2.419   6.026 -0.9285  0.3173  0.5209
  166SAPE   HN118657   5.254   2.508   5.991  0.8198 -0.6567 -0.1414
  166SAPE   HN218658   5.190   2.423   6.127  2.2590  2.7397  1.3487
  166SAPE   HN318659   5.289   2.346   6.023 -0.7363  0.3897  2.4122
  166SAPE   C1218660   5.100   2.397   5.926  0.0281  0.3685 -0.9811
  166SAPE  H12A18661   5.127   2.421   5.821 -2.6579  3.4811 -1.1006
  166SAPE  H12B18662   5.012   2.457   5.957 -1.4342 -0.2546 -3.6075
  166SAPE   C1118663   5.050   2.243   5.932 -0.1069  0.5444  0.2929
  166SAPE  H11A18664   4.993   2.212   5.841  0.3172 -0.0229  0.2158
  166SAPE  H11B18665   4.984   2.227   6.019  1.1711 -0.2192  1.1498
  166SAPE     P18666   5.147   2.003   5.942 -0.0025  0.1690 -0.0899
  166SAPE   O1318667   5.064   1.963   5.826 -0.3537  0.2149 -0.4516
  166SAPE   O1418668   5.278   1.936   5.960 -0.3504 -0.4983  0.8197
  166SAPE   O1218669   5.170   2.161   5.933 -0.0272  0.1975  0.3415
  166SAPE   O1118670   5.066   1.984   6.081  0.4393  0.2658 -0.1045
  166SAPE    C118671   5.093   2.060   6.197  0.4600 -0.0683 -0.1876
  166SAPE    HA18672   5.148   2.155   6.180 -0.8707  0.7466 -0.0427
  166SAPE    HB18673   4.999   2.097   6.243  0.9551  1.4474 -0.3515
  166SAPE    C218674   5.159   1.977   6.301 -0.2938 -0.5200 -0.6457
  166SAPE    HS18675   5.235   1.912   6.252 -0.1990 -1.9385  1.2804
  166SAPE   O2118676   5.065   1.900   6.373 -0.3317 -0.2663 -0.3789
  166SAPE   C2118677   5.023   1.791   6.312 -0.0922  0.2163  1.1646
  166SAPE   O2218678   5.090   1.734   6.225 -0.3034 -0.1595  0.0500
  166SAPE   C2218679   4.888   1.735   6.367  0.3476 -0.1576  0.6426
  166SAPE   H2R18680   4.812   1.815   6.352  0.0048 -0.7929 -1.3127
  166SAPE   H2S18681   4.855   1.662   6.290  1.2065  1.3987 -1.2701
  166SAPE    C318682   5.237   2.075   6.400 -0.8280  0.3295 -0.2115
  166SAPE    HX18683   5.152   2.136   6.439 -0.3411  1.0906 -0.3038
  166SAPE    HY18684   5.298   2.143   6.337 -4.4862  2.0139 -2.3057
  166SAPE   O3118685   5.309   2.004   6.503 -0.1126 -0.0640  0.1670
  166SAPE   C3118686   5.380   2.089   6.574 -0.1995  0.6329  0.2066
  166SAPE   O3218687   5.377   2.209   6.568  0.5219 -0.1808 -0.2132
  166SAPE   C3218688   5.482   1.994   6.654 -0.8158  0.5655  0.3506
  166SAPE   H2X18689   5.551   1.953   6.577 -1.4139 -0.0191  0.1172
  166SAPE   H2Y18690   5.423   1.908   6.693 -1.0801  0.0825 -1.0588
  166SAPE   C2318691   4.904   1.680   6.509  0.2029  0.5327  0.2581
  166SAPE   H3R18692   4.935   1.762   6.577  1.9914  0.3615 -0.2825
  166SAPE   H3S18693   4.983   1.601   6.515  0.5517  0.9277  1.0030
  166SAPE   C2418694   4.759   1.646   6.551 -0.2777 -0.5876  0.3573
  166SAPE   H4R18695   4.695   1.600   6.472  0.3265 -4.9699  2.1641
  166SAPE   H4S18696   4.710   1.733   6.599 -0.5667 -1.4576  1.6940
  166SAPE   C2518697   4.766   1.526   6.644  0.1699  0.0651 -0.2386
  166SAPE   H5R18698   4.773   1.434   6.584 -0.7062  0.1154 -0.4216
  166SAPE   C2618699   4.773   1.532   6.777  0.1540 -0.9364 -0.2233
  166SAPE   H6R18700   4.781   1.439   6.834 -0.6569 -0.4259  0.7468
  166SAPE   C2718701   4.772   1.653   6.870 -0.4641 -0.2495  0.2103
  166SAPE   H7R18702   4.738   1.744   6.817 -0.8463 -0.8909 -0.6565
  166SAPE   H7S18703   4.872   1.683   6.908 -0.6501 -0.1106  0.6029
  166SAPE   C2818704   4.668   1.638   6.977 -0.2418 -0.1766  0.1773
  166SAPE   H8R18705   4.563   1.636   6.943  0.2113 -1.6894 -1.2664
  166SAPE   C2918706   4.694   1.633   7.112 -0.2519  0.0173  0.6440
  166SAPE   H9R18707   4.609   1.626   7.181 -0.0708 -0.4370  0.8280
  166SAPE  C21018708   4.826   1.645   7.183  0.3829 -0.1427  0.3697
  166SAPE  H10R18709   4.885   1.707   7.112 -2.0362 -1.0794 -2.7020
  166SAPE  H10S18710   4.881   1.549   7.193  1.4827  0.5151  0.7691
  166SAPE  C21118711   4.807   1.713   7.317 -0.1994 -0.3422 -0.6935
  166SAPE  H11R18712   4.732   1.792   7.329  1.1377  0.6259  2.2174
  166SAPE  C21218713   4.883   1.698   7.423 -0.0693  0.5418  0.0315
  166SAPE  H12R18714   4.877   1.771   7.505 -0.2596  1.5530 -0.8606
  166SAPE  C21318715   5.004   1.601   7.439  0.2379 -0.2035  0.0729
  166SAPE  H13R18716   5.081   1.649   7.504 -0.2657  2.7437 -1.3176
  166SAPE  H13S18717   5.069   1.598   7.349 -2.3905 -1.4736 -1.9035
  166SAPE  C21418718   4.948   1.473   7.488 -0.1613  0.4629 -0.6780
  166SAPE  H14R18719   4.912   1.396   7.417 -2.6028  0.1904  0.7633
  166SAPE  C21518720   4.925   1.439   7.615  0.3087  0.7052 -0.4451
  166SAPE  H15R18721   4.879   1.346   7.652  0.0185  0.5538 -1.1607
  166SAPE  C21618722   4.952   1.527   7.730  0.3746 -0.7992  0.3565
  166SAPE  H16R18723   5.032   1.601   7.711  0.5096 -0.7622  1.0770
  166SAPE  H16S18724   4.988   1.464   7.813 -0.1924 -0.2620  1.0224
  166SAPE  C21718725   4.825   1.609   7.769  0.3910 -0.2575  0.2978
  166SAPE  H17R18726   4.761   1.532   7.816  0.8057 -1.1040 -0.4975
  166SAPE  H17S18727   4.768   1.632   7.676 -0.9783 -0.6318  1.0133
  166SAPE  C21818728   4.854   1.733   7.852 -0.3746 -0.4873  0.0696
  166SAPE  H18R18729   4.759   1.783   7.883  0.2964  2.1179 -1.7043
  166SAPE  H18S18730   4.908   1.808   7.791 -3.6652  0.1695 -2.3382
  166SAPE  C21918731   4.930   1.695   7.980 -0.8156 -1.1428  0.3076
  166SAPE  H19R18732   4.957   1.793   8.027 -2.7262  0.4098 -1.6136
  166SAPE  H19S18733   5.025   1.645   7.955 -0.0974 -0.1336  0.9152
  166SAPE  C22018734   4.850   1.615   8.093 -0.4872 -0.1371 -0.4814
  166SAPE  H20R18735   4.916   1.596   8.180 -1.2583 -2.5865 -0.3608
  166SAPE  H20S18736   4.818   1.516   8.055 -0.5045 -0.4124  0.2496
  166SAPE  H20T18737   4.769   1.674   8.141 -0.7173 -0.8719  0.0485
  166SAPE   C3318738   5.549   2.072   6.777  0.1905  0.0337  1.0733
  166SAPE   H3X18739   5.569   2.179   6.754 -1.0762  1.2900  5.0238
  166SAPE   H3Y18740   5.644   2.019   6.798 -0.1701 -0.1895  2.1968
  166SAPE   C3418741   5.456   2.067   6.898  0.3101 -0.6485  0.1077
  166SAPE   H4X18742   5.459   1.966   6.944 -0.6825 -0.8857 -0.3189
  166SAPE   H4Y18743   5.350   2.083   6.869 -0.0147  0.4108  1.7062
  166SAPE   C3518744   5.492   2.168   7.004  1.0283  0.0567  0.1606
  166SAPE   H5X18745   5.493   2.271   6.962 -0.1288  1.5210  3.4246
  166SAPE   H5Y18746   5.591   2.151   7.051  0.5368  1.0758  1.6111
  166SAPE   C3618747   5.385   2.171   7.115  0.0786  0.6045 -0.4922
  166SAPE   H6X18748   5.379   2.077   7.173 -1.7431  1.8547  1.4965
  166SAPE   H6Y18749   5.287   2.170   7.063  0.4943 -0.2786 -1.2817
  166SAPE   C3718750   5.402   2.288   7.200 -0.2643 -0.3329 -0.2579
  166SAPE   H7X18751   5.356   2.376   7.152  0.4773 -0.5934 -1.4986
  166SAPE   H7Y18752   5.509   2.314   7.216 -0.6020  0.4977  0.7012
  166SAPE   C3818753   5.359   2.260   7.345 -0.4514  0.0291  0.2861
  166SAPE   H8X18754   5.387   2.161   7.388 -1.4898 -1.0150 -1.3257
  166SAPE   H8Y18755   5.248   2.256   7.344 -0.6000  2.6601  0.1067
  166SAPE   C3918756   5.396   2.359   7.455 -0.5414  0.2837  0.7488
  166SAPE   H9X18757   5.340   2.454   7.445 -0.7247  0.0586 -0.5439
  166SAPE   H9Y18758   5.501   2.395   7.451 -0.3285 -0.3175  0.8041
  166SAPE  C31018759   5.369   2.308   7.598 -0.9739 -0.3080 -0.2206
  166SAPE  H10X18760   5.432   2.218   7.614  1.9805  1.0333 -3.0242
  166SAPE  H10Y18761   5.263   2.276   7.608 -0.4934 -1.1196  3.9777
  166SAPE  C31118762   5.406   2.409   7.708  0.5546  0.9277  0.4643
  166SAPE  H11X18763   5.350   2.502   7.682 -2.8927 -1.2490 -0.6021
  166SAPE  H11Y18764   5.516   2.422   7.698  0.4857  0.4484 -1.2680
  166SAPE  C31218765   5.380   2.360   7.849  0.0907  0.1112  0.0954
  166SAPE  H12X18766   5.357   2.251   7.853 -0.3957  0.1811 -0.7251
  166SAPE  H12Y18767   5.295   2.418   7.891  0.7323  3.1794 -2.5236
  166SAPE  C31318768   5.505   2.373   7.940 -0.6314 -0.1062 -0.0699
  166SAPE  H13X18769   5.522   2.483   7.949 -0.6085  0.2695 -3.2490
  166SAPE  H13Y18770   5.599   2.336   7.892 -2.0383 -1.4782 -1.8847
  166SAPE  C31418771   5.491   2.308   8.075 -0.5918  0.4993 -0.5106
  166SAPE  H14X18772   5.587   2.321   8.128 -0.7800  0.7613 -0.2357
  166SAPE  H14Y18773   5.489   2.197   8.064  2.5494  0.2355  0.7273
  166SAPE  C31518774   5.372   2.355   8.160  0.1766  0.3053  0.2235
  166SAPE  H15X18775   5.273   2.304   8.151  1.0740 -1.5462  0.4313
  166SAPE  H15Y18776   5.346   2.454   8.117  0.7923  0.1197 -0.5887
  166SAPE  C31618777   5.412   2.361   8.313 -0.1537 -0.1512  0.2984
  166SAPE  H16X18778   5.449   2.263   8.348 -0.8211 -0.1940  0.8871
  166SAPE  H16Y18779   5.326   2.383   8.379  0.4744 -3.3713  2.3588
  166SAPE  C31718780   5.520   2.471   8.335  0.1530 -0.3017  0.6654
  166SAPE  H17X18781   5.469   2.569   8.330  1.7489  0.5530  0.3934
  166SAPE  H17Y18782   5.592   2.478   8.251 -1.6988  1.7681 -0.8582
  166SAPE  C31818783   5.583   2.449   8.466 -0.5609  0.2227  0.1952
  166SAPE  H18X18784   5.646   2.357   8.469  0.5463  1.0004  2.0362
  166SAPE  H18Y18785   5.512   2.437   8.550 -2.8956  1.4657 -1.4758
  166SAPE  H18Z18786   5.645   2.533   8.503  2.2878 -1.5968 -0.0730
  167SAPE     N18787   0.155   0.999   5.676  0.6983 -0.2829 -0.1241
  167SAPE   HN118788   0.129   1.068   5.750  1.6386  1.2042 -1.1147
  167SAPE   HN218789   0.121   1.030   5.583 -0.5160 -1.2439 -0.0230
  167SAPE   HN318790   0.091   0.920   5.694  0.5881 -0.1864 -0.0890
  167SAPE   C1218791   0.302   0.972   5.689  0.3246  0.0235 -0.1861
  167SAPE  H12A18792   0.343   1.050   5.621 -0.4052  1.6614  1.1874
  167SAPE  H12B18793   0.323   0.871   5.648 -2.0119 -0.2513 -0.8239
  167SAPE   C1118794   0.366   1.002   5.822 -0.6960  0.0519 -0.2810
  167SAPE  H11A18795   0.337   1.101   5.864  0.5398 -0.2129  1.3265
  167SAPE  H11B18796   0.477   1.003   5.812 -0.9194 -0.7716 -4.0101
  167SAPE     P18797   0.211   0.917   6.025 -0.2473  0.2099  0.4234
  167SAPE   O1318798   0.225   1.047   6.094 -0.2701  0.6341  0.1439
  167SAPE   O1418799   0.085   0.896   5.948 -0.1730 -1.0182 -0.5787
  167SAPE   O1218800   0.334   0.894   5.917  0.2770 -0.1273 -0.0304
  167SAPE   O1118801   0.228   0.799   6.127  0.3145 -0.1213 -0.6333
  167SAPE    C118802   0.119   0.744   6.205  0.2468  0.3625  0.4651
  167SAPE    HA18803   0.043   0.711   6.131 -0.0844 -0.1395  1.0187
  167SAPE    HB18804   0.157   0.651   6.253 -0.2940 -1.3787 -2.2506
  167SAPE    C218805   0.070   0.841   6.316  0.0662 -0.1103 -0.0490
  167SAPE    HS18806   0.030   0.933   6.268  2.5049  1.1261  0.1282
  167SAPE   O2118807   0.192   0.876   6.386  0.2778  0.5899 -0.3558
  167SAPE   C2118808   0.206   1.006   6.423  0.3912  0.4477  0.2076
  167SAPE   O2218809   0.120   1.093   6.408  0.3451  0.0926 -0.6490
  167SAPE   C2218810   0.351   1.019   6.474  0.6547 -0.2095  0.0873
  167SAPE   H2R18811   0.416   1.003   6.386  1.3629  0.8201  0.4055
  167SAPE   H2S18812   0.363   1.127   6.498 -2.0880  0.3392 -0.6412
  167SAPE    C318813  -0.045   0.791   6.413 -0.4298  0.4311 -0.4204
  167SAPE    HX18814  -0.018   0.688   6.445 -0.3992  0.8289  0.8653
  167SAPE    HY18815  -0.142   0.782   6.359 -0.2305 -2.2854 -0.4634
  167SAPE   O3118816  -0.072   0.884   6.519  0.2689  0.2164 -0.4733
  167SAPE   C3118817  -0.150   0.985   6.481 -0.1863 -0.6381  0.0525
  167SAPE   O3218818  -0.197   1.007   6.371  0.2010 -0.8547 -0.4282
  167SAPE   C3218819  -0.157   1.089   6.595 -0.5051 -0.7226 -0.1191
  167SAPE   H2X18820  -0.188   1.187   6.552 -2.1731 -0.3843  1.7254
  167SAPE   H2Y18821  -0.056   1.110   6.637  1.3535  1.0175 -4.7260
  167SAPE   C2318822   0.372   0.934   6.596 -0.4539 -0.3285  0.8736
  167SAPE   H3R18823   0.480   0.951   6.616  0.3351  1.4707 -3.6005
  167SAPE   H3S18824   0.355   0.827   6.572 -0.7518 -0.0778 -0.0793
  167SAPE   C2418825   0.281   0.981   6.708  0.3606  0.0756  0.1688
  167SAPE   H4R18826   0.191   0.917   6.709  1.3809 -1.4274 -0.5336
  167SAPE   H4S18827   0.254   1.088   6.698 -0.8940 -0.1531  0.9184
  167SAPE   C2518828   0.346   0.970   6.848  0.4636  0.7248  0.2575
  167SAPE   H5R18829   0.434   0.904   6.855 -0.6073 -0.6024  2.0904
  167SAPE   C2618830   0.290   1.012   6.969  0.0003  0.3685 -0.5796
  167SAPE   H6R18831   0.342   0.993   7.064 -1.0893  2.5376  0.5161
  167SAPE   C2718832   0.152   1.077   6.987  0.0212  0.3753 -0.1830
  167SAPE   H7R18833   0.144   1.152   6.906 -0.1695  1.9389  1.2275
  167SAPE   H7S18834   0.148   1.135   7.082  0.8129  1.8792 -1.0425
  167SAPE   C2818835   0.035   0.980   6.985  0.7184  0.4239 -0.2661
  167SAPE   H8R18836   0.012   0.935   6.888 -0.6003  0.4255  0.0337
  167SAPE   C2918837  -0.047   0.954   7.088  0.0428 -0.7090 -0.2380
  167SAPE   H9R18838  -0.127   0.879   7.073  0.0835 -1.3101  2.2151
  167SAPE  C21018839  -0.035   1.002   7.230  0.0749  0.8252  0.2146
  167SAPE  H10R18840  -0.140   1.010   7.265 -0.7169 -0.0046 -1.8055
  167SAPE  H10S18841   0.009   1.104   7.226 -0.2474  1.0804  2.1613
  167SAPE  C21118842   0.042   0.906   7.312  0.3602  0.4822  0.0900
  167SAPE  H11R18843   0.006   0.803   7.317  1.0340  0.2569  0.3651
  167SAPE  C21218844   0.143   0.930   7.396  0.3935 -0.1373  0.2178
  167SAPE  H12R18845   0.189   0.843   7.445 -0.2127 -2.8556 -3.5752
  167SAPE  C21318846   0.212   1.060   7.413  0.1683 -0.2201  1.0509
  167SAPE  H13R18847   0.156   1.114   7.491 -2.9162 -0.5366 -0.7924
  167SAPE  H13S18848   0.195   1.125   7.324 -0.8643  1.1986  2.2392
  167SAPE  C21418849   0.361   1.044   7.439  0.5938 -0.7026 -0.7795
  167SAPE  H14R18850   0.427   1.026   7.352  1.3881  0.3325 -0.4054
  167SAPE  C21518851   0.422   1.034   7.556 -0.5480 -0.5493 -0.3486
  167SAPE  H15R18852   0.529   1.011   7.557 -0.6159 -0.8667 -0.4449
  167SAPE  C21618853   0.343   1.027   7.684 -0.2732  0.7925  0.7251
  167SAPE  H16R18854   0.254   0.961   7.677 -0.3858  0.8388  1.6019
  167SAPE  H16S18855   0.303   1.127   7.710  0.7846  1.1621  0.9827
  167SAPE  C21718856   0.436   0.979   7.794 -0.4892  0.3686  0.6975
  167SAPE  H17R18857   0.520   1.043   7.829  0.1345  0.0891 -0.2653
  167SAPE  H17S18858   0.485   0.887   7.757  2.1256  1.7838  0.3744
  167SAPE  C21818859   0.341   0.948   7.916  0.2163 -0.4286 -0.6890
  167SAPE  H18R18860   0.270   0.870   7.883  0.8015 -0.6650 -1.4393
  167SAPE  H18S18861   0.282   1.039   7.939 -1.4087 -2.0219  1.9075
  167SAPE  C21918862   0.402   0.900   8.047 -0.5341 -0.3767 -0.4398
  167SAPE  H19R18863   0.447   0.799   8.035  0.9796 -0.1643  2.4781
  167SAPE  H19S18864   0.312   0.885   8.109  0.4547  1.1868  1.4858
  167SAPE  C22018865   0.499   0.999   8.126 -0.0264  0.1709 -0.0901
  167SAPE  H20R18866   0.528   0.958   8.225 -0.8773 -0.7819 -0.2116
  167SAPE  H20S18867   0.436   1.085   8.158  2.2281  1.3260  1.5353
  167SAPE  H20T18868   0.584   1.034   8.064  0.6924  0.9034  1.2718
  167SAPE   C3318869  -0.254   1.053   6.707  0.0723 -1.1471 -0.5936
  167SAPE   H3X18870  -0.249   0.945   6.733 -0.0836 -0.8346  0.7950
  167SAPE   H3Y18871  -0.357   1.080   6.674 -0.0138 -1.2812 -0.4394
  167SAPE   C3418872  -0.234   1.151   6.830 -0.4660 -0.1737  0.5561
  167SAPE   H4X18873  -0.254   1.255   6.797 -1.5413 -0.2373  0.9650
  167SAPE   H4Y18874  -0.126   1.160   6.852  0.7200  1.7988 -4.5598
  167SAPE   C3518875  -0.320   1.129   6.950 -0.0656  0.1109 -0.0476
  167SAPE   H5X18876  -0.279   1.038   6.997  0.2278 -0.2397 -0.9717
  167SAPE   H5Y18877  -0.421   1.103   6.912 -0.5818 -3.1411  3.0295
  167SAPE   C3618878  -0.341   1.253   7.044 -0.1824  0.6162  0.9339
  167SAPE   H6X18879  -0.417   1.317   6.995  0.6679  0.7010 -0.3329
  167SAPE   H6Y18880  -0.246   1.310   7.039  0.5313 -0.5751  0.2938
  167SAPE   C3718881  -0.374   1.227   7.189  0.0009 -0.1393  0.9519
  167SAPE   H7X18882  -0.287   1.170   7.227  0.3111 -0.9613 -0.8975
  167SAPE   H7Y18883  -0.467   1.167   7.194  0.0188 -0.2792 -0.1756
  167SAPE   C3818884  -0.377   1.356   7.269 -0.3309  0.3896 -0.4215
  167SAPE   H8X18885  -0.472   1.410   7.246 -0.0661  0.3042 -1.8030
  167SAPE   H8Y18886  -0.293   1.421   7.238  0.3930  0.1929  1.0462
  167SAPE   C3918887  -0.381   1.327   7.417  0.1534  0.3549  0.3685
  167SAPE   H9X18888  -0.298   1.257   7.441 -0.6999 -0.9576 -0.3706
  167SAPE   H9Y18889  -0.477   1.273   7.432  1.2886 -1.5245  1.1800
  167SAPE  C31018890  -0.370   1.458   7.488  1.1153 -0.5677 -0.9238
  167SAPE  H10X18891  -0.459   1.524   7.474  1.6349 -0.1137 -2.2724
  167SAPE  H10Y18892  -0.281   1.509   7.446 -0.2738  2.7634 -0.1669
  167SAPE  C31118893  -0.334   1.440   7.637 -0.1330  0.1728 -0.9137
  167SAPE  H11X18894  -0.309   1.538   7.683 -0.8292  0.2494 -0.6792
  167SAPE  H11Y18895  -0.240   1.382   7.639 -0.8125 -0.9611 -0.6588
  167SAPE  C31218896  -0.449   1.377   7.721 -0.3169 -0.4028 -0.1330
  167SAPE  H12X18897  -0.443   1.269   7.697 -3.3196 -0.5282 -0.6541
  167SAPE  H12Y18898  -0.541   1.403   7.665  0.1127  0.7290 -0.3355
  167SAPE  C31318899  -0.451   1.418   7.868 -0.1202 -0.5275  0.2114
  167SAPE  H13X18900  -0.385   1.507   7.880 -0.4367 -0.1017 -1.1214
  167SAPE  H13Y18901  -0.395   1.341   7.926 -0.0074  0.8233  2.0091
  167SAPE  C31418902  -0.589   1.453   7.920  0.1294  0.5004  0.3865
  167SAPE  H14X18903  -0.653   1.364   7.902  2.1250 -1.0257  0.4855
  167SAPE  H14Y18904  -0.624   1.539   7.860  1.1564  0.7598  0.1291
  167SAPE  C31518905  -0.593   1.486   8.064  0.1977  0.3572  0.1726
  167SAPE  H15X18906  -0.513   1.555   8.096  1.3069 -1.1110  0.7020
  167SAPE  H15Y18907  -0.584   1.394   8.126 -0.1148  0.3643  0.2328
  167SAPE  C31618908  -0.731   1.555   8.092  0.3013 -0.2972  1.0252
  167SAPE  H16X18909  -0.802   1.472   8.074 -1.8634  1.5252  0.7334
  167SAPE  H16Y18910  -0.750   1.639   8.022 -0.7523 -1.0351  0.4169
  167SAPE  C31718911  -0.751   1.609   8.226 -0.2961  0.2698 -0.5979
  167SAPE  H17X18912  -0.686   1.699   8.235  1.6523 -1.2095  1.3137
  167SAPE  H17Y18913  -0.718   1.542   8.308  0.1981  1.1901 -0.0216
  167SAPE  C31818914  -0.896   1.652   8.245 -0.0322 -0.0291  0.2009
  167SAPE  H18X18915  -0.957   1.571   8.201  1.7015 -0.6625 -1.1550
  167SAPE  H18Y18916  -0.909   1.750   8.194  0.3869 -0.7698 -1.3749
  167SAPE  H18Z18917  -0.926   1.685   8.347 -2.4594  0.8708 -0.7479
  168SAPE     N18918   2.126   2.818   6.570  0.4305  0.3421 -0.1978
  168SAPE   HN118919   2.192   2.898   6.562  0.7553  0.1101  0.1810
  168SAPE   HN218920   2.042   2.851   6.622  0.2344 -0.4566 -0.0020
  168SAPE   HN318921   2.165   2.739   6.623 -0.8234  0.4537  0.9355
  168SAPE   C1218922   2.084   2.789   6.430  0.0513  0.1370 -0.1193
  168SAPE  H12A18923   2.023   2.696   6.428 -1.1387  0.8966 -0.0956
  168SAPE  H12B18924   2.177   2.770   6.373 -1.2589 -0.5424 -2.1557
  168SAPE   C1118925   2.030   2.911   6.353 -0.1011 -0.8741  0.8664
  168SAPE  H11A18926   1.941   2.942   6.411 -1.0095 -1.8448  0.0289
  168SAPE  H11B18927   2.009   2.876   6.250  0.1554  2.4630 -0.4415
  168SAPE     P18928   2.108   3.163   6.367  0.4192 -0.0506  0.4544
  168SAPE   O1318929   2.201   3.240   6.277 -0.0036  0.1496  0.0410
  168SAPE   O1418930   1.969   3.196   6.342  0.3836  0.3218  0.7387
  168SAPE   O1218931   2.136   3.007   6.349  0.5430 -0.5508 -0.8394
  168SAPE   O1118932   2.155   3.198   6.514 -0.0668 -0.0881 -0.0633
  168SAPE    C118933   2.072   3.273   6.611 -0.6891  0.3420  0.0902
  168SAPE    HA18934   2.103   3.379   6.606 -0.8069  0.3624 -0.2646
  168SAPE    HB18935   1.965   3.256   6.585  0.0541 -2.6738 -1.5986
  168SAPE    C218936   2.088   3.215   6.757  0.3324  0.1083 -0.0134
  168SAPE    HS18937   2.045   3.113   6.745  0.2838  0.3748 -2.7287
  168SAPE   O2118938   2.024   3.300   6.856  0.1630 -0.0089 -0.1040
  168SAPE   C2118939   1.941   3.233   6.937 -0.3984  0.7427  0.0006
  168SAPE   O2218940   1.912   3.116   6.938 -0.1223 -0.0827  0.7816
  168SAPE   C2218941   1.877   3.331   7.031  0.2877 -0.3866  0.0830
  168SAPE   H2R18942   1.953   3.400   7.073  0.4902 -0.9814  0.7093
  168SAPE   H2S18943   1.805   3.390   6.970  1.2746 -0.5641 -1.3092
  168SAPE    C318944   2.236   3.203   6.802  0.1330  0.3510  0.1901
  168SAPE    HX18945   2.295   3.297   6.807  1.6172 -0.3459 -2.3073
  168SAPE    HY18946   2.291   3.146   6.723  0.4097  0.6199  0.1857
  168SAPE   O3118947   2.247   3.139   6.933 -0.4519  0.2168  0.1972
  168SAPE   C3118948   2.257   3.012   6.941  0.7124 -0.2265 -0.9399
  168SAPE   O3218949   2.241   2.931   6.852 -0.1118  0.1568 -0.3750
  168SAPE   C3218950   2.295   2.969   7.087  0.4963 -0.3725 -0.6942
  168SAPE   H2X18951   2.235   3.033   7.156  0.8225 -2.9731  2.2418
  168SAPE   H2Y18952   2.402   2.991   7.106  0.4772 -0.0215 -0.9814
  168SAPE   C2318953   1.819   3.256   7.144 -0.2699 -0.2263 -0.2910
  168SAPE   H3R18954   1.757   3.171   7.109 -1.0815  0.6591 -1.0914
  168SAPE   H3S18955   1.745   3.326   7.189 -2.5274 -1.4551 -1.8590
  168SAPE   C2418956   1.917   3.211   7.255 -0.0123 -0.1433 -0.6678
  168SAPE   H4R18957   1.991   3.145   7.205  0.6330  0.2065 -0.1907
  168SAPE   H4S18958   1.853   3.146   7.318  0.4805  0.3854  0.4142
  168SAPE   C2518959   1.986   3.315   7.344 -0.2044  0.3727  0.0887
  168SAPE   H5R18960   2.027   3.390   7.275 -0.4322 -1.1911 -1.8254
  168SAPE   C2618961   1.985   3.319   7.477 -0.7308 -0.4372  0.4434
  168SAPE   H6R18962   2.057   3.396   7.510  0.7654 -0.4983 -2.3242
  168SAPE   C2718963   1.918   3.225   7.575  0.3670 -0.8347 -0.0288
  168SAPE   H7R18964   1.894   3.127   7.528 -2.2587 -0.0071 -0.5870
  168SAPE   H7S18965   1.816   3.264   7.595  0.4579  0.3614 -1.6620
  168SAPE   C2818966   2.011   3.194   7.691 -0.3953 -0.2766 -0.2878
  168SAPE   H8R18967   2.108   3.165   7.649 -1.7802 -0.7227 -3.5187
  168SAPE   C2918968   1.994   3.208   7.829  0.2559 -0.0241 -0.4294
  168SAPE   H9R18969   2.074   3.180   7.900  0.2568  0.0407 -0.4046
  168SAPE  C21018970   1.868   3.261   7.895  0.1410 -0.5009 -0.3653
  168SAPE  H10R18971   1.788   3.302   7.829 -0.3740  2.0988  1.7249
  168SAPE  H10S18972   1.902   3.341   7.963 -1.1816  1.6314 -2.0904
  168SAPE  C21118973   1.809   3.140   7.963 -0.1021 -0.1345 -0.2106
  168SAPE  H11R18974   1.780   3.053   7.902 -2.2332  0.4036 -0.0368
  168SAPE  C21218975   1.794   3.136   8.098 -0.9944  1.4240  0.0287
  168SAPE  H12R18976   1.756   3.041   8.138  0.6203  1.2672  1.2986
  168SAPE  C21318977   1.837   3.229   8.201 -0.0292  0.4077 -0.0639
  168SAPE  H13R18978   1.746   3.291   8.218  0.0630  0.2840  0.9886
  168SAPE  H13S18979   1.919   3.292   8.161  1.4453  0.2054  2.4094
  168SAPE  C21418980   1.887   3.180   8.334 -0.1261  0.3147  0.1642
  168SAPE  H14R18981   1.976   3.115   8.333  0.9624  1.7685 -0.1428
  168SAPE  C21518982   1.834   3.203   8.462 -0.2274 -0.3463 -0.0782
  168SAPE  H15R18983   1.878   3.149   8.547 -1.1840  0.0823  0.6961
  168SAPE  C21618984   1.711   3.285   8.489  0.1737  0.7149 -0.0209
  168SAPE  H16R18985   1.652   3.239   8.571 -0.4301 -1.5886 -1.6449
  168SAPE  H16S18986   1.636   3.279   8.407 -2.2613 -0.0078  2.1210
  168SAPE  C21718987   1.748   3.433   8.527 -0.0020  0.2891 -0.1127
  168SAPE  H17R18988   1.768   3.502   8.443  0.4238  2.2238  1.4958
  168SAPE  H17S18989   1.842   3.433   8.586 -1.3363  1.8945  2.1953
  168SAPE  C21818990   1.648   3.495   8.626  0.7979  0.2900 -0.0082
  168SAPE  H18R18991   1.644   3.419   8.707  1.4937 -0.2975 -0.5098
  168SAPE  H18S18992   1.548   3.485   8.580  0.8507 -0.7286  0.0676
  168SAPE  C21918993   1.686   3.628   8.686  0.8195 -0.4901 -0.6443
  168SAPE  H19R18994   1.671   3.700   8.602  1.6507 -0.3926 -0.7174
  168SAPE  H19S18995   1.794   3.618   8.711  0.5021 -3.1844 -0.0444
  168SAPE  C22018996   1.613   3.685   8.812  0.4773 -0.0908  0.4430
  168SAPE  H20R18997   1.617   3.631   8.909 -1.9103  1.0541  1.2597
  168SAPE  H20S18998   1.505   3.703   8.791  0.4294 -1.4924 -0.7799
  168SAPE  H20T18999   1.664   3.780   8.837  0.4437  0.0761 -0.0967
  168SAPE   C3319000   2.256   2.830   7.130  0.2654  0.4108 -0.1064
  168SAPE   H3X19001   2.342   2.763   7.107  0.5290  1.4417 -2.3952
  168SAPE   H3Y19002   2.165   2.792   7.079  2.4301 -0.1578 -3.9071
  168SAPE   C3419003   2.210   2.819   7.279 -0.9451  0.0798  0.5852
  168SAPE   H4X19004   2.174   2.714   7.286  0.4767 -0.4269  0.6276
  168SAPE   H4Y19005   2.126   2.889   7.298 -0.3725  0.6701  1.0070
  168SAPE   C3519006   2.310   2.849   7.381  1.2339 -0.1186  0.7371
  168SAPE   H5X19007   2.337   2.953   7.355 -0.4811  0.4090  0.9678
  168SAPE   H5Y19008   2.396   2.779   7.372 -0.8507 -2.5661 -2.4679
  168SAPE   C3619009   2.268   2.847   7.527  0.0620  0.8687 -0.4037
  168SAPE   H6X19010   2.225   2.746   7.547  1.7150  0.4398  1.2618
  168SAPE   H6Y19011   2.185   2.919   7.542 -0.5815  1.0073 -3.7324
  168SAPE   C3719012   2.383   2.862   7.628  0.0112 -0.5284 -0.3952
  168SAPE   H7X19013   2.448   2.944   7.591 -0.9347  1.0894  1.3540
  168SAPE   H7Y19014   2.432   2.762   7.632 -0.8640 -0.9737 -0.6272
  168SAPE   C3819015   2.344   2.905   7.772  0.5787 -0.3133 -0.4352
  168SAPE   H8X19016   2.307   3.010   7.772 -2.5785 -1.3256 -0.3488
  168SAPE   H8Y19017   2.430   2.908   7.841  1.0583 -1.5964 -0.9500
  168SAPE   C3919018   2.229   2.820   7.826 -0.1236  0.4195 -0.1738
  168SAPE   H9X19019   2.262   2.716   7.804  0.6817  0.1907  1.8505
  168SAPE   H9Y19020   2.128   2.844   7.788  0.3740  1.3029 -0.9961
  168SAPE  C31019021   2.239   2.834   7.981 -1.1775  0.8337 -0.3458
  168SAPE  H10X19022   2.239   2.943   8.001 -0.0693  0.6121  0.9789
  168SAPE  H10Y19023   2.343   2.806   8.008 -0.8213  2.4665  0.0708
  168SAPE  C31119024   2.138   2.760   8.064 -0.6303 -0.2637  0.2899
  168SAPE  H11X19025   2.168   2.791   8.166 -1.7636  0.1441  0.5127
  168SAPE  H11Y19026   2.150   2.650   8.051  1.3923 -0.1142  0.6242
  168SAPE  C31219027   1.993   2.792   8.043 -0.2934  0.4735 -0.2246
  168SAPE  H12X19028   1.974   2.752   7.941 -0.2434  0.8980 -0.4067
  168SAPE  H12Y19029   1.981   2.902   8.031 -0.6279  0.3570 -1.0806
  168SAPE  C31319030   1.877   2.734   8.143 -0.0430  1.2216  0.2222
  168SAPE  H13X19031   1.881   2.623   8.135 -0.7651  1.2709 -1.0152
  168SAPE  H13Y19032   1.772   2.748   8.110 -0.5695 -2.3679 -0.0425
  168SAPE  C31419033   1.912   2.763   8.285 -0.5837  0.1797  0.4499
  168SAPE  H14X19034   1.916   2.871   8.309 -0.1089  0.0785  0.8378
  168SAPE  H14Y19035   2.014   2.723   8.300  0.0514  1.0454 -1.2987
  168SAPE  C31519036   1.808   2.703   8.382  1.0876 -0.3881  0.5198
  168SAPE  H15X19037   1.800   2.598   8.348 -0.0298 -0.7974  1.9615
  168SAPE  H15Y19038   1.710   2.751   8.360  0.4457 -2.1730 -0.7803
  168SAPE  C31619039   1.856   2.703   8.532 -0.1840 -0.6380 -0.5476
  168SAPE  H16X19040   1.963   2.673   8.530 -0.2513 -0.8527 -1.8354
  168SAPE  H16Y19041   1.792   2.641   8.599  0.4149 -0.1610  0.4755
  168SAPE  C31719042   1.853   2.839   8.606 -0.2063  0.5709  0.4762
  168SAPE  H17X19043   1.903   2.919   8.548 -1.1673  1.3944  0.7610
  168SAPE  H17Y19044   1.911   2.844   8.700  0.0746  1.7598  0.2573
  168SAPE  C31819045   1.715   2.884   8.643  0.2627  0.6122 -0.6968
  168SAPE  H18X19046   1.693   2.828   8.736 -1.2154 -1.6765 -2.3209
  168SAPE  H18Y19047   1.637   2.858   8.568 -1.2024 -1.1575  1.3149
  168SAPE  H18Z19048   1.705   2.992   8.665 -0.8993  0.3525  0.1891
  169SAPE     N19049   0.558   5.162   6.390  0.4567 -0.1308  0.2116
  169SAPE   HN119050   0.584   5.062   6.377  3.3092  0.9594 -5.9113
  169SAPE   HN219051   0.644   5.220   6.393  0.5507 -0.2529 -0.0971
  169SAPE   HN319052   0.500   5.169   6.476 -0.3534 -0.0216 -0.3255
  169SAPE   C1219053   0.484   5.207   6.260  0.2286  0.6258  0.0189
  169SAPE  H12A19054   0.527   5.149   6.174  0.5599  0.6167  0.1887
  169SAPE  H12B19055   0.507   5.315   6.247  0.0403  0.8499  1.4469
  169SAPE   C1119056   0.338   5.169   6.276  0.7744 -0.4023 -0.3679
  169SAPE  H11A19057   0.271   5.166   6.188 -0.0097  1.5935  0.1071
  169SAPE  H11B19058   0.287   5.254   6.328  1.6736  0.0360 -0.1760
  169SAPE     P19059   0.266   4.919   6.301 -0.0085  0.1277 -0.1662
  169SAPE   O1319060   0.287   4.924   6.155 -0.3597  1.0880 -0.4236
  169SAPE   O1419061   0.306   4.798   6.378  0.5976  0.0336 -0.2071
  169SAPE   O1219062   0.329   5.052   6.355  0.3181 -0.5386  0.0479
  169SAPE   O1119063   0.111   4.927   6.320  0.9667  0.0369 -0.2231
  169SAPE    C119064   0.054   5.019   6.409  0.2532 -0.9043 -0.1323
  169SAPE    HA19065   0.065   5.128   6.389 -0.8443 -0.6465  0.6076
  169SAPE    HB19066  -0.055   4.995   6.410  0.3095 -1.5828 -2.7266
  169SAPE    C219067   0.098   4.993   6.562  0.0383 -0.7625 -0.0517
  169SAPE    HS19068   0.198   5.039   6.576 -0.6128  0.8154 -0.4268
  169SAPE   O2119069   0.105   4.852   6.591  0.2463 -0.5177 -0.2146
  169SAPE   C2119070   0.190   4.825   6.689 -0.1194  0.1164  0.8535
  169SAPE   O2219071   0.280   4.900   6.728  0.2021 -0.0417 -0.6753
  169SAPE   C2219072   0.160   4.686   6.732 -0.0897 -0.1568 -0.1884
  169SAPE   H2R19073   0.171   4.624   6.640 -0.8265 -1.2858  0.4675
  169SAPE   H2S19074   0.245   4.652   6.795 -0.5868 -0.7979  0.1384
  169SAPE    C319075   0.000   5.059   6.661  0.6650  0.1090 -0.5056
  169SAPE    HX19076  -0.101   5.014   6.656  0.2738  0.5241  2.1288
  169SAPE    HY19077  -0.021   5.164   6.632 -1.6134 -0.0590  0.3766
  169SAPE   O3119078   0.041   5.059   6.803 -0.4264  0.2159 -0.1113
  169SAPE   C3119079   0.138   5.148   6.830 -0.0316 -0.4867  0.0598
  169SAPE   O3219080   0.178   5.226   6.748  0.0242  0.2550  0.1608
  169SAPE   C3219081   0.211   5.124   6.962 -0.2246 -0.0901 -0.0725
  169SAPE   H2X19082   0.179   5.024   6.998 -1.9508  0.4754  0.0324
  169SAPE   H2Y19083   0.166   5.200   7.029  2.5748  0.2744  1.5532
  169SAPE   C2319084   0.031   4.664   6.815  0.3940 -0.4335 -0.3671
  169SAPE   H3R19085  -0.006   4.559   6.810  0.0669 -0.5500  2.5984
  169SAPE   H3S19086  -0.047   4.737   6.784 -0.4820 -0.2809  1.9800
  169SAPE   C2419087   0.052   4.689   6.962 -0.2860  0.0773 -0.9232
  169SAPE   H4R19088   0.118   4.775   6.988 -1.1318 -0.0441  1.9831
  169SAPE   H4S19089   0.105   4.602   7.008  0.1061  0.6845 -0.2022
  169SAPE   C2519090  -0.083   4.717   7.038  0.3312  0.0767  0.3808
  169SAPE   H5R19091  -0.139   4.798   6.989  1.3131  0.1372 -0.6615
  169SAPE   C2619092  -0.129   4.668   7.158 -0.3257  0.4674 -0.3451
  169SAPE   H6R19093  -0.215   4.723   7.197  0.3620  0.9085  0.5712
  169SAPE   C2719094  -0.077   4.562   7.247  0.1988  0.0196 -0.0642
  169SAPE   H7R19095  -0.094   4.583   7.355  1.1439 -0.3354  0.1691
  169SAPE   H7S19096   0.033   4.571   7.234  0.3443 -1.2336  0.1661
  169SAPE   C2819097  -0.112   4.421   7.218  0.2894  0.8189 -0.3101
  169SAPE   H8R19098  -0.101   4.390   7.113 -2.1428 -1.1444 -0.0612
  169SAPE   C2919099  -0.144   4.319   7.306  0.4550  0.1271 -0.1661
  169SAPE   H9R19100  -0.160   4.217   7.267  1.5335 -1.5463  3.3449
  169SAPE  C21019101  -0.159   4.336   7.459  0.0027  0.1965  0.1052
  169SAPE  H10R19102  -0.207   4.244   7.497 -0.5324  0.4770  0.1276
  169SAPE  H10S19103  -0.233   4.415   7.483 -1.4925 -0.4655 -2.0266
  169SAPE  C21119104  -0.028   4.363   7.532 -0.1478 -0.6382  0.3900
  169SAPE  H11R19105   0.058   4.385   7.467  0.2529 -1.3083  0.6821
  169SAPE  C21219106  -0.009   4.359   7.670 -0.7855 -0.3059  0.2777
  169SAPE  H12R19107   0.093   4.367   7.708 -1.1552  0.2578  1.1907
  169SAPE  C21319108  -0.138   4.342   7.754  0.0751 -0.1636 -0.1386
  169SAPE  H13R19109  -0.139   4.244   7.805  1.3414  0.2725  0.7808
  169SAPE  H13S19110  -0.234   4.331   7.699 -0.2049  0.7285  0.1528
  169SAPE  C21419111  -0.156   4.449   7.858 -0.2038 -0.4216  0.7930
  169SAPE  H14R19112  -0.208   4.536   7.814  0.7580 -0.2585 -0.0593
  169SAPE  C21519113  -0.098   4.466   7.978 -0.1910  0.2754  0.0824
  169SAPE  H15R19114  -0.127   4.555   8.034 -0.9462 -1.3153  2.3472
  169SAPE  C21619115   0.001   4.386   8.061 -0.4108  0.2547  0.2658
  169SAPE  H16R19116   0.042   4.446   8.145  0.6622 -0.2725  0.1379
  169SAPE  H16S19117   0.091   4.346   8.010 -0.2305  1.2855 -0.2542
  169SAPE  C21719118  -0.068   4.268   8.130 -0.6195 -0.7472  0.2370
  169SAPE  H17R19119   0.007   4.196   8.170  0.6440  0.8725  0.8590
  169SAPE  H17S19120  -0.137   4.226   8.054 -0.4997 -1.3976  0.4777
  169SAPE  C21819121  -0.150   4.324   8.247  0.2492  0.5241 -0.1211
  169SAPE  H18R19122  -0.228   4.251   8.281 -0.1384  1.6768  1.6195
  169SAPE  H18S19123  -0.206   4.417   8.227 -0.4903  0.0253 -0.4090
  169SAPE  C21919124  -0.062   4.354   8.372 -0.2881  0.0524 -0.4324
  169SAPE  H19R19125  -0.134   4.397   8.445  1.6065 -0.1163  1.6201
  169SAPE  H19S19126   0.022   4.419   8.341  1.0961 -0.5317  1.8762
  169SAPE  C22019127  -0.014   4.228   8.437  0.6529  0.2981 -0.5364
  169SAPE  H20R19128  -0.091   4.168   8.490  0.5570  1.3342  0.5272
  169SAPE  H20S19129   0.067   4.250   8.509  0.0812 -1.3096  0.6427
  169SAPE  H20T19130   0.027   4.153   8.365 -0.1387  1.2837 -2.0799
  169SAPE   C3319131   0.366   5.134   6.940  0.1796  0.2524 -0.6092
  169SAPE   H3X19132   0.393   5.239   6.916 -2.5845  0.5957 -2.6236
  169SAPE   H3Y19133   0.401   5.078   6.851  0.0753  2.2175 -1.9212
  169SAPE   C3419134   0.444   5.094   7.072  0.1350  0.4608 -0.4831
  169SAPE   H4X19135   0.552   5.097   7.046  0.4562 -0.1396  0.7262
  169SAPE   H4Y19136   0.405   4.992   7.094  1.1420  0.0581 -0.5105
  169SAPE   C3519137   0.410   5.181   7.193  0.2175 -0.5915 -0.5205
  169SAPE   H5X19138   0.302   5.176   7.214  0.5056 -3.0756  0.6740
  169SAPE   H5Y19139   0.445   5.285   7.174  0.6592 -0.4271  1.0277
  169SAPE   C3619140   0.479   5.121   7.314  0.7535 -1.1005  0.7554
  169SAPE   H6X19141   0.588   5.145   7.310  0.1052  2.2682  0.9499
  169SAPE   H6Y19142   0.462   5.012   7.303 -0.2017 -0.8918  0.1122
  169SAPE   C3719143   0.417   5.159   7.452 -0.2426 -0.2075 -0.0701
  169SAPE   H7X19144   0.453   5.263   7.466  1.9747 -0.6988 -1.5510
  169SAPE   H7Y19145   0.465   5.104   7.536 -1.2376  0.9954  1.3564
  169SAPE   C3819146   0.269   5.160   7.470  0.7600 -0.3210  0.1946
  169SAPE   H8X19147   0.242   5.068   7.414  0.3701  0.5057 -1.0379
  169SAPE   H8Y19148   0.223   5.247   7.417  1.2497 -0.4334 -0.4337
  169SAPE   C3919149   0.209   5.163   7.613 -0.0449 -0.1685  0.3697
  169SAPE   H9X19150   0.119   5.099   7.600 -1.2643  1.7573 -1.2637
  169SAPE   H9Y19151   0.169   5.265   7.634  0.8996  0.3281 -0.1701
  169SAPE  C31019152   0.304   5.115   7.726 -0.0181  0.8219  0.4265
  169SAPE  H10X19153   0.403   5.167   7.723  0.6965 -0.4937  0.2753
  169SAPE  H10Y19154   0.314   5.010   7.692 -0.9272  0.4335  1.3062
  169SAPE  C31119155   0.245   5.109   7.860  0.8146  0.1097  0.2509
  169SAPE  H11X19156   0.296   5.033   7.922  0.8626  1.3214  1.7652
  169SAPE  H11Y19157   0.141   5.071   7.845  0.8781 -0.3339  0.9273
  169SAPE  C31219158   0.240   5.241   7.932 -0.1252 -0.3060 -0.2297
  169SAPE  H12X19159   0.154   5.300   7.893 -0.0409  1.5498  2.1735
  169SAPE  H12Y19160   0.331   5.298   7.906  0.5679 -0.1408  2.3629
  169SAPE  C31319161   0.213   5.231   8.080  1.3124  0.2805  0.0893
  169SAPE  H13X19162   0.123   5.168   8.096  1.5861  0.2025  1.4007
  169SAPE  H13Y19163   0.184   5.336   8.100  3.8449  0.8753  1.0886
  169SAPE  C31419164   0.320   5.184   8.175 -0.0596  0.1565  0.0848
  169SAPE  H14X19165   0.358   5.082   8.151  2.1625  1.2802 -1.5566
  169SAPE  H14Y19166   0.264   5.177   8.271 -2.9766  0.1590 -1.5423
  169SAPE  C31519167   0.441   5.277   8.190 -0.2158  0.5372 -0.0410
  169SAPE  H15X19168   0.416   5.381   8.220 -0.7184 -0.3901  3.2120
  169SAPE  H15Y19169   0.485   5.288   8.089  0.0386  1.1426  0.1342
  169SAPE  C31619170   0.546   5.232   8.302  0.1866  0.1338  0.8000
  169SAPE  H16X19171   0.638   5.274   8.255 -0.5192  1.4267  0.5145
  169SAPE  H16Y19172   0.561   5.122   8.299  3.2732  0.3929 -3.4791
  169SAPE  C31719173   0.515   5.295   8.435 -0.9010  0.0724  0.3452
  169SAPE  H17X19174   0.449   5.232   8.498 -1.0995  0.4435  0.5064
  169SAPE  H17Y19175   0.458   5.388   8.416 -1.1907  0.1011  1.2882
  169SAPE  C31819176   0.635   5.325   8.536 -0.0672 -0.7565  0.2564
  169SAPE  H18X19177   0.728   5.334   8.476  0.4294 -2.4493  0.7149
  169SAPE  H18Y19178   0.662   5.239   8.601  0.7133 -0.8077 -0.1195
  169SAPE  H18Z19179   0.617   5.421   8.590 -2.5793 -0.9063 -0.2095
  170SAPE     N19180   0.933   2.014   6.334  0.1303  0.3593 -0.2582
  170SAPE   HN119181   0.943   1.913   6.316  3.3775  0.6048 -0.4005
  170SAPE   HN219182   0.982   2.023   6.425  0.2535 -1.5365 -0.0977
  170SAPE   HN319183   0.832   2.038   6.344  0.0169  0.1008 -0.7591
  170SAPE   C1219184   0.996   2.106   6.232 -1.0861 -0.0462  0.0611
  170SAPE  H12A19185   0.959   2.209   6.254  1.7064  1.2358 -0.7109
  170SAPE  H12B19186   0.965   2.075   6.131 -0.2346 -0.4691 -0.0779
  170SAPE   C1119187   1.148   2.117   6.257 -0.2197  0.5083  0.6416
  170SAPE  H11A19188   1.199   2.039   6.196  0.9586  1.1351  0.7963
  170SAPE  H11B19189   1.185   2.108   6.361  2.1801 -4.0961 -0.3420
  170SAPE     P19190   1.327   2.299   6.239 -0.0904  0.5044 -0.1725
  170SAPE   O1319191   1.434   2.204   6.207  0.0140 -0.3288 -0.4029
  170SAPE   O1419192   1.339   2.436   6.186 -0.4167  0.3211 -0.1529
  170SAPE   O1219193   1.180   2.249   6.198 -0.6632 -0.1711  0.0531
  170SAPE   O1119194   1.322   2.315   6.394 -0.7153  0.5852  0.2762
  170SAPE    C119195   1.212   2.384   6.448  0.2997  0.3554 -0.4138
  170SAPE    HA19196   1.207   2.486   6.404  0.3070  1.1815  1.4003
  170SAPE    HB19197   1.124   2.317   6.442 -0.0408  0.9181 -2.7927
  170SAPE    C219198   1.236   2.409   6.595 -0.7516  0.5761 -0.2310
  170SAPE    HS19199   1.321   2.481   6.596  0.5271 -0.8673  1.4298
  170SAPE   O2119200   1.262   2.285   6.660  0.4038  0.0446 -0.4264
  170SAPE   C2119201   1.392   2.259   6.681 -0.1543 -0.3486  0.2460
  170SAPE   O2219202   1.478   2.337   6.651 -0.0530  0.7969 -0.4081
  170SAPE   C2219203   1.401   2.122   6.749 -0.8005 -0.3560 -0.4304
  170SAPE   H2R19204   1.305   2.086   6.793 -0.8034  1.1457  0.9119
  170SAPE   H2S19205   1.430   2.061   6.661  1.5896  0.9233 -0.6027
  170SAPE    C319206   1.115   2.474   6.655 -0.4268 -0.2973  0.7676
  170SAPE    HX19207   1.024   2.409   6.660 -0.5801 -0.3333 -1.5842
  170SAPE    HY19208   1.077   2.551   6.586 -0.5541 -0.1567  0.9928
  170SAPE   O3119209   1.161   2.530   6.780 -0.4974  0.3615  0.1222
  170SAPE   C3119210   1.138   2.459   6.884  0.2652 -0.3816  0.0754
  170SAPE   O3219211   1.072   2.354   6.890 -0.1764 -0.2428  0.0660
  170SAPE   C3219212   1.191   2.542   7.004  0.4705 -0.2451  0.3463
  170SAPE   H2X19213   1.139   2.640   7.010  0.8062  0.1437 -2.0212
  170SAPE   H2Y19214   1.302   2.550   7.000  0.3584  1.2846 -1.1687
  170SAPE   C2319215   1.515   2.112   6.854  0.0058  0.2568 -0.2108
  170SAPE   H3R19216   1.496   2.178   6.941  0.9012 -0.1542  0.3109
  170SAPE   H3S19217   1.608   2.150   6.807  1.7223 -2.1962  0.9647
  170SAPE   C2419218   1.535   1.965   6.897  0.2623  0.1194  0.7168
  170SAPE   H4R19219   1.624   1.950   6.962  2.4827 -3.7197 -2.7486
  170SAPE   H4S19220   1.540   1.901   6.806  0.0408  1.2341 -0.1027
  170SAPE   C2519221   1.422   1.920   6.984 -0.5979 -0.9211 -0.1374
  170SAPE   H5R19222   1.323   1.938   6.940 -0.6966  0.1642  0.4918
  170SAPE   C2619223   1.430   1.858   7.107  0.0775 -0.2374  0.1314
  170SAPE   H6R19224   1.336   1.830   7.156 -0.8088 -1.3159 -2.0242
  170SAPE   C2719225   1.555   1.825   7.184 -0.5240  0.2306 -0.0471
  170SAPE   H7R19226   1.621   1.914   7.174 -0.3917 -0.0219 -1.7285
  170SAPE   H7S19227   1.607   1.737   7.140  0.3703  0.6883  0.0718
  170SAPE   C2819228   1.535   1.803   7.330 -0.4713 -0.3916 -0.9734
  170SAPE   H8R19229   1.429   1.789   7.357 -1.2031  0.2895 -3.2869
  170SAPE   C2919230   1.638   1.810   7.426 -0.2581  0.4836  0.7838
  170SAPE   H9R19231   1.631   1.787   7.533  2.4213 -1.1786  0.6925
  170SAPE  C21019232   1.781   1.827   7.389  0.1480  0.5517  0.0178
  170SAPE  H10R19233   1.802   1.935   7.375  0.3630  0.4110 -0.8023
  170SAPE  H10S19234   1.808   1.775   7.295  0.4887 -0.5317  0.6974
  170SAPE  C21119235   1.883   1.774   7.484 -0.1908  0.1238  0.0100
  170SAPE  H11R19236   1.910   1.670   7.459 -3.3468 -0.4402 -1.5819
  170SAPE  C21219237   1.922   1.822   7.603  0.5783  0.2614 -0.0872
  170SAPE  H12R19238   1.990   1.774   7.675 -0.9947  0.2114  1.4310
  170SAPE  C21319239   1.876   1.953   7.658  0.4387  0.2348  0.2936
  170SAPE  H13R19240   1.858   2.020   7.571 -0.2631 -1.8645 -1.2451
  170SAPE  H13S19241   1.955   2.002   7.719  0.9495 -0.3813  0.1394
  170SAPE  C21419242   1.759   1.969   7.749  0.7475 -0.2671  0.5931
  170SAPE  H14R19243   1.667   1.994   7.693  0.5998 -1.9964  0.0292
  170SAPE  C21519244   1.765   1.968   7.880  0.5418  0.0544 -0.1476
  170SAPE  H15R19245   1.671   1.984   7.934  0.5503  0.3194 -0.2119
  170SAPE  C21619246   1.888   1.944   7.967  0.0840  0.0744 -0.0857
  170SAPE  H16R19247   1.948   2.038   7.968  0.7197 -0.2558 -2.2894
  170SAPE  H16S19248   1.954   1.876   7.908 -2.6730 -0.5462 -2.6904
  170SAPE  C21719249   1.843   1.883   8.106 -1.1371  0.2592 -0.6279
  170SAPE  H17R19250   1.846   1.773   8.092  1.5276  0.1193  0.3424
  170SAPE  H17S19251   1.744   1.924   8.134 -1.5946 -1.7720  0.9425
  170SAPE  C21819252   1.947   1.900   8.216  0.0623  0.8854 -0.2119
  170SAPE  H18R19253   1.962   2.006   8.242 -2.6616  1.5531 -1.0557
  170SAPE  H18S19254   2.048   1.863   8.186 -0.4483  0.0085 -0.9308
  170SAPE  C21919255   1.903   1.840   8.354  0.7254  0.1456  0.1880
  170SAPE  H19R19256   1.822   1.900   8.402  2.0325  1.5812  0.7096
  170SAPE  H19S19257   1.984   1.849   8.430  0.6077 -0.2993  0.3705
  170SAPE  C22019258   1.852   1.694   8.360  0.1844  0.1231 -0.1987
  170SAPE  H20R19259   1.819   1.672   8.464  0.9611  1.2968  0.3167
  170SAPE  H20S19260   1.925   1.618   8.326 -2.5690 -3.2100  0.7069
  170SAPE  H20T19261   1.756   1.685   8.304 -1.6593 -0.5912  2.8162
  170SAPE   C3319262   1.150   2.476   7.135 -0.2752  0.9580  0.5538
  170SAPE   H3X19263   1.184   2.371   7.145 -0.2909  1.1081  2.4528
  170SAPE   H3Y19264   1.041   2.483   7.154 -0.0773  0.7459  1.8560
  170SAPE   C3419265   1.211   2.543   7.266 -0.3885 -0.0522  0.2896
  170SAPE   H4X19266   1.207   2.653   7.256 -0.8049 -0.1748 -1.0211
  170SAPE   H4Y19267   1.315   2.507   7.284 -0.5828 -1.7302 -1.5699
  170SAPE   C3519268   1.120   2.521   7.387  0.0109 -0.1298 -0.8170
  170SAPE   H5X19269   1.118   2.412   7.407  2.2360  0.3629  3.2518
  170SAPE   H5Y19270   1.024   2.573   7.367  0.5068  0.9395 -0.5199
  170SAPE   C3619271   1.178   2.576   7.522 -0.5755 -0.3934  0.6656
  170SAPE   H6X19272   1.161   2.686   7.519  1.0045 -0.1209  0.7934
  170SAPE   H6Y19273   1.288   2.570   7.514 -0.6081  1.2093 -1.9865
  170SAPE   C3719274   1.117   2.513   7.642  0.3606  0.4026  0.1143
  170SAPE   H7X19275   1.099   2.404   7.629  0.1218  0.5426 -0.7730
  170SAPE   H7Y19276   1.014   2.553   7.659 -1.0733 -2.5303 -0.9413
  170SAPE   C3819277   1.205   2.541   7.772  0.0953  0.5428  0.0312
  170SAPE   H8X19278   1.221   2.650   7.790  0.9232  0.5881 -0.8353
  170SAPE   H8Y19279   1.305   2.494   7.760 -0.9146 -0.9970 -3.8985
  170SAPE   C3919280   1.152   2.476   7.898  0.5017  0.1147 -0.0965
  170SAPE   H9X19281   1.146   2.366   7.878 -0.9311  0.1539  0.0024
  170SAPE   H9Y19282   1.045   2.506   7.899  0.9291  1.6763  0.0804
  170SAPE  C31019283   1.212   2.519   8.031 -0.4821 -0.4249 -0.4973
  170SAPE  H10X19284   1.175   2.617   8.067  3.4564  1.2452 -0.4851
  170SAPE  H10Y19285   1.322   2.523   8.024 -0.2802 -1.3086  1.3187
  170SAPE  C31119286   1.175   2.416   8.146  0.2966 -0.3988  0.3645
  170SAPE  H11X19287   1.203   2.310   8.126 -3.7868 -1.6494  0.3352
  170SAPE  H11Y19288   1.065   2.409   8.154  0.4353 -0.7421  2.7417
  170SAPE  C31219289   1.238   2.462   8.286 -0.0217 -0.2609 -0.0586
  170SAPE  H12X19290   1.193   2.560   8.316 -0.4471 -0.5957  0.4143
  170SAPE  H12Y19291   1.343   2.482   8.256 -0.4677 -2.2828 -3.4614
  170SAPE  C31319292   1.228   2.359   8.402  0.5712  0.5056  0.2159
  170SAPE  H13X19293   1.257   2.407   8.498  1.9000 -1.1207  0.6629
  170SAPE  H13Y19294   1.297   2.274   8.385 -0.6839 -0.1111 -2.2205
  170SAPE  C31419295   1.084   2.306   8.404  0.0375 -0.0784  0.0760
  170SAPE  H14X19296   1.062   2.246   8.313 -1.4141  0.6028 -0.0551
  170SAPE  H14Y19297   1.015   2.393   8.415  0.8272  0.5503  0.1922
  170SAPE  C31519298   1.069   2.225   8.532  0.0649  0.3571  0.2434
  170SAPE  H15X19299   1.075   2.301   8.613 -1.4678 -2.4217  3.1640
  170SAPE  H15Y19300   1.148   2.147   8.541  0.0674  0.5524  2.3868
  170SAPE  C31619301   0.930   2.165   8.549  0.3688  0.1336 -0.2455
  170SAPE  H16X19302   0.855   2.247   8.539  1.8898  2.1159  2.9358
  170SAPE  H16Y19303   0.917   2.122   8.651 -1.1454  0.4443 -0.2854
  170SAPE  C31719304   0.897   2.053   8.455 -0.2347  0.2412 -0.2984
  170SAPE  H17X19305   0.937   2.083   8.356  1.5205 -0.6040  0.1185
  170SAPE  H17Y19306   0.787   2.041   8.444 -0.1515 -1.9625  0.7806
  170SAPE  C31819307   0.960   1.920   8.496 -0.1292 -0.5273 -0.1651
  170SAPE  H18X19308   0.946   1.844   8.416  2.0599  0.1175 -1.2226
  170SAPE  H18Y19309   0.925   1.885   8.595  1.2358  0.1005  0.5620
  170SAPE  H18Z19310   1.068   1.938   8.511 -0.2927  1.0962 -0.7238
  171SAPE     N19311   3.562   2.933   6.225 -0.3407 -0.0909 -0.0687
  171SAPE   HN119312   3.504   2.875   6.289  0.4696 -0.3934  0.4037
  171SAPE   HN219313   3.563   3.027   6.268 -2.5634  0.0920 -0.2886
  171SAPE   HN319314   3.527   2.934   6.127 -0.7441  0.7639  0.0747
  171SAPE   C1219315   3.702   2.876   6.218  0.3670  0.7617 -0.5816
  171SAPE  H12A19316   3.775   2.938   6.162  0.2081  0.7715 -0.7811
  171SAPE  H12B19317   3.691   2.772   6.183  0.6723 -0.0431  1.5337
  171SAPE   C1119318   3.752   2.868   6.371 -0.5589  0.6003  0.1571
  171SAPE  H11A19319   3.739   2.965   6.423 -0.2535 -1.1283  3.6968
  171SAPE  H11B19320   3.862   2.854   6.371 -0.6901 -1.1676 -1.9457
  171SAPE     P19321   3.756   2.658   6.528 -0.1436  0.0775  0.1180
  171SAPE   O1319322   3.754   2.522   6.464  0.9257 -0.5414  0.7952
  171SAPE   O1419323   3.895   2.711   6.559  0.5038  0.3360  1.1327
  171SAPE   O1219324   3.690   2.757   6.428  0.7108  0.3171  0.1799
  171SAPE   O1119325   3.660   2.668   6.655 -0.3539  0.4423 -0.8633
  171SAPE    C119326   3.604   2.794   6.697 -0.3624  0.0179  0.4831
  171SAPE    HA19327   3.683   2.866   6.726 -2.0775  1.3829  2.0384
  171SAPE    HB19328   3.535   2.829   6.617 -0.3973 -1.8050 -0.3526
  171SAPE    C219329   3.528   2.769   6.828 -0.3641  0.0337  1.0892
  171SAPE    HS19330   3.467   2.678   6.814  2.7581 -2.1125  0.5869
  171SAPE   O2119331   3.469   2.892   6.871  0.8837  0.3045  0.2300
  171SAPE   C2119332   3.350   2.921   6.820  1.0000  0.1683  0.3262
  171SAPE   O2219333   3.289   2.861   6.734  0.2909  0.1544  0.2887
  171SAPE   C2219334   3.297   3.044   6.893 -0.5907 -0.3985  0.0989
  171SAPE   H2R19335   3.368   3.069   6.975  0.3540 -0.0966 -0.7890
  171SAPE   H2S19336   3.303   3.132   6.826 -1.6509  1.6828  2.5510
  171SAPE    C319337   3.628   2.725   6.939 -0.0363 -0.2891 -0.2266
  171SAPE    HX19338   3.711   2.798   6.929  0.6024 -1.1524 -1.6325
  171SAPE    HY19339   3.673   2.629   6.908 -0.2215 -0.1380 -0.9908
  171SAPE   O3119340   3.576   2.729   7.074 -0.1614  0.6429 -0.6641
  171SAPE   C3119341   3.494   2.631   7.091  0.8414 -0.3354 -0.2374
  171SAPE   O3219342   3.469   2.539   7.013  0.4736  0.2629 -0.0829
  171SAPE   C3219343   3.425   2.642   7.228 -0.0867  0.1652 -0.4228
  171SAPE   H2X19344   3.503   2.633   7.306 -1.2293  0.9006  0.8316
  171SAPE   H2Y19345   3.362   2.550   7.226  1.5299 -0.9721 -2.2105
  171SAPE   C2319346   3.158   3.020   6.947 -0.5975  0.3910  0.1265
  171SAPE   H3R19347   3.156   2.935   7.019  1.9305  0.8127  0.8107
  171SAPE   H3S19348   3.090   2.989   6.865  0.7724 -0.7927 -0.5976
  171SAPE   C2419349   3.095   3.142   7.021 -0.5637  0.1224 -0.1956
  171SAPE   H4R19350   3.092   3.226   6.948  0.7501 -0.4187 -0.9080
  171SAPE   H4S19351   3.166   3.178   7.099  0.6123 -0.0732 -1.1440
  171SAPE   C2519352   2.956   3.095   7.066 -0.6937 -0.0312 -0.0690
  171SAPE   H5R19353   2.894   3.071   6.978  2.9656 -1.8885 -2.4046
  171SAPE   C2619354   2.915   3.096   7.194 -0.2006  0.5845  0.0773
  171SAPE   H6R19355   2.813   3.066   7.224  0.2019 -0.5426  0.3997
  171SAPE   C2719356   2.994   3.139   7.317 -0.3825 -0.4390 -1.1260
  171SAPE   H7R19357   3.099   3.149   7.283 -0.4277 -0.0366 -1.1428
  171SAPE   H7S19358   2.973   3.067   7.399 -3.6293  3.2573  1.6327
  171SAPE   C2819359   2.955   3.277   7.363 -0.7460 -0.2696 -0.2433
  171SAPE   H8R19360   2.910   3.342   7.287 -1.7834  2.0735  2.2168
  171SAPE   C2919361   2.963   3.325   7.493  0.1469  0.1664  0.4561
  171SAPE   H9R19362   2.929   3.428   7.511 -0.6665  0.2859 -1.4830
  171SAPE  C21019363   3.022   3.249   7.611 -0.2127 -0.3013 -0.3224
  171SAPE  H10R19364   3.103   3.314   7.649 -0.7769 -0.3492  1.0275
  171SAPE  H10S19365   3.063   3.147   7.596 -1.1043 -0.2141 -4.6015
  171SAPE  C21119366   2.916   3.253   7.723 -0.6935 -0.3422  0.2336
  171SAPE  H11R19367   2.819   3.211   7.694 -1.2413 -0.7392  2.4765
  171SAPE  C21219368   2.932   3.295   7.851 -0.2858 -0.6295 -0.3125
  171SAPE  H12R19369   2.839   3.289   7.909 -1.3518  1.8725 -1.5643
  171SAPE  C21319370   3.057   3.361   7.914 -0.1355  0.2292  0.4267
  171SAPE  H13R19371   3.147   3.318   7.865  1.6492  2.5274  1.4988
  171SAPE  H13S19372   3.054   3.328   8.020 -2.4450 -3.0670 -0.5217
  171SAPE  C21419373   3.057   3.509   7.888 -0.4897 -0.5410 -0.0064
  171SAPE  H14R19374   3.094   3.536   7.788  1.4310 -2.6847  0.0383
  171SAPE  C21519375   3.014   3.605   7.970  0.4591 -0.2535 -0.8487
  171SAPE  H15R19376   3.015   3.709   7.934 -1.8065  0.2148  0.2659
  171SAPE  C21619377   2.961   3.590   8.112  0.2860 -0.0164  0.6600
  171SAPE  H16R19378   3.043   3.593   8.187 -0.0785 -0.4953  1.0839
  171SAPE  H16S19379   2.911   3.490   8.117 -0.6383  0.3940  0.0069
  171SAPE  C21719380   2.854   3.700   8.132 -0.4773  0.1664 -0.1779
  171SAPE  H17R19381   2.787   3.669   8.215 -2.8056  1.1828 -1.5794
  171SAPE  H17S19382   2.791   3.699   8.040 -0.0772 -2.7780 -0.5127
  171SAPE  C21819383   2.893   3.848   8.148 -0.5172 -0.2729  0.5667
  171SAPE  H18R19384   2.814   3.915   8.107 -0.8516 -1.0095 -0.0456
  171SAPE  H18S19385   2.978   3.876   8.082 -1.5892 -0.3197 -0.8985
  171SAPE  C21919386   2.937   3.889   8.290 -0.1715 -0.1534 -0.3278
  171SAPE  H19R19387   3.026   3.833   8.326  1.5745  2.8643  0.4292
  171SAPE  H19S19388   2.848   3.857   8.348  0.1428  0.2890  0.4044
  171SAPE  C22019389   2.950   4.041   8.320 -0.4595  0.1901  0.6714
  171SAPE  H20R19390   2.966   4.059   8.429  0.7336 -0.5454  0.6395
  171SAPE  H20S19391   2.854   4.094   8.303 -0.1328  0.7269  0.4686
  171SAPE  H20T19392   3.028   4.089   8.257 -0.9391  2.3764  1.6262
  171SAPE   C3319393   3.348   2.770   7.253  0.1675  0.4387 -0.1633
  171SAPE   H3X19394   3.293   2.803   7.162  1.2551  0.8341 -0.6867
  171SAPE   H3Y19395   3.421   2.849   7.275 -0.6244  1.2680 -0.4399
  171SAPE   C3419396   3.265   2.745   7.381 -0.1032 -0.0937 -0.4859
  171SAPE   H4X19397   3.327   2.715   7.469  0.5361 -1.3214 -1.3161
  171SAPE   H4Y19398   3.200   2.655   7.371 -1.3960  0.6409  0.8380
  171SAPE   C3519399   3.173   2.865   7.406 -0.0395  0.8071 -0.6770
  171SAPE   H5X19400   3.095   2.871   7.328 -0.3103  1.0593 -0.3893
  171SAPE   H5Y19401   3.235   2.957   7.401  0.9696  0.1010 -1.4952
  171SAPE   C3619402   3.114   2.862   7.549 -0.5801 -0.0995 -0.3190
  171SAPE   H6X19403   3.057   2.767   7.559  0.1114 -0.5183 -0.2375
  171SAPE   H6Y19404   3.035   2.938   7.564  0.9416  1.2555  1.3209
  171SAPE   C3719405   3.213   2.859   7.668 -0.0751 -0.0767 -0.2723
  171SAPE   H7X19406   3.288   2.939   7.651 -3.4714  3.0058 -2.0917
  171SAPE   H7Y19407   3.265   2.760   7.664 -0.0565 -0.2063  1.8128
  171SAPE   C3819408   3.134   2.872   7.799 -0.3136 -0.2049  0.1014
  171SAPE   H8X19409   3.054   2.795   7.800 -0.9875  0.3002 -3.1512
  171SAPE   H8Y19410   3.087   2.973   7.801  1.1986  0.5384  2.5304
  171SAPE   C3919411   3.202   2.854   7.941  0.1240  0.1452 -0.4167
  171SAPE   H9X19412   3.131   2.885   8.020  2.4975 -1.0626  2.3797
  171SAPE   H9Y19413   3.283   2.930   7.944  1.8965 -1.6596 -0.4985
  171SAPE  C31019414   3.249   2.715   7.969 -0.4903 -0.2344  0.3250
  171SAPE  H10X19415   3.308   2.683   7.880  0.4179 -1.3818  1.3011
  171SAPE  H10Y19416   3.155   2.655   7.964 -0.8574  0.2570  1.1172
  171SAPE  C31119417   3.323   2.689   8.095 -0.3098  0.2309 -0.3569
  171SAPE  H11X19418   3.256   2.710   8.181 -0.7630 -1.4768 -0.2703
  171SAPE  H11Y19419   3.406   2.764   8.102 -0.7208  0.5343  1.6899
  171SAPE  C31219420   3.369   2.546   8.102 -0.1721 -0.0733  0.0471
  171SAPE  H12X19421   3.456   2.534   8.034  0.1775 -0.7333  0.5969
  171SAPE  H12Y19422   3.285   2.482   8.070 -2.6431  3.1484 -0.4545
  171SAPE  C31319423   3.428   2.520   8.247  0.2273 -0.3183 -0.5123
  171SAPE  H13X19424   3.480   2.616   8.268 -0.2132  0.1937 -1.7236
  171SAPE  H13Y19425   3.503   2.438   8.247  1.0025  0.3618  0.0580
  171SAPE  C31419426   3.328   2.500   8.361  1.3751  0.6501  0.4390
  171SAPE  H14X19427   3.312   2.391   8.372 -0.5073  0.6468 -1.7277
  171SAPE  H14Y19428   3.234   2.549   8.328  0.5357  0.0014  1.7663
  171SAPE  C31519429   3.391   2.558   8.488  0.0184  0.3557  0.5892
  171SAPE  H15X19430   3.409   2.665   8.462 -0.3017 -0.3589 -3.1639
  171SAPE  H15Y19431   3.486   2.507   8.510  0.0961  0.5257  0.6516
  171SAPE  C31619432   3.306   2.555   8.619 -0.1491  0.0111  0.1621
  171SAPE  H16X19433   3.221   2.626   8.608 -2.7926 -3.0960 -1.1941
  171SAPE  H16Y19434   3.372   2.586   8.702  1.0205 -0.3922 -0.5872
  171SAPE  C31719435   3.265   2.411   8.656  1.2586 -0.1727 -0.5308
  171SAPE  H17X19436   3.219   2.358   8.571 -0.9411 -1.5876  1.4136
  171SAPE  H17Y19437   3.185   2.422   8.733  2.3327 -0.7578  0.6980
  171SAPE  C31819438   3.373   2.326   8.710  0.2296 -0.7506  1.1080
  171SAPE  H18X19439   3.395   2.378   8.806 -0.8506 -0.7410  1.3733
  171SAPE  H18Y19440   3.463   2.336   8.647 -0.5747  3.1383  0.2561
  171SAPE  H18Z19441   3.331   2.225   8.729 -1.5095 -0.5337 -1.1325
  172SAPE     N19442   3.135   2.182   6.149 -0.0478 -0.1104 -0.0906
  172SAPE   HN119443   3.126   2.102   6.084 -0.7743 -1.9241  2.1270
  172SAPE   HN219444   3.038   2.213   6.171 -0.9100 -1.1089 -2.2210
  172SAPE   HN319445   3.195   2.261   6.119  1.4488  0.0203  2.8268
  172SAPE   C1219446   3.211   2.140   6.278  0.1100  0.3387  0.5464
  172SAPE  H12A19447   3.233   2.237   6.328 -0.7386  0.2133  1.1894
  172SAPE  H12B19448   3.305   2.096   6.239 -0.6597  0.3785 -1.4520
  172SAPE   C1119449   3.126   2.052   6.370 -0.6937  0.4542  0.7268
  172SAPE  H11A19450   3.045   2.118   6.409 -4.4738 -2.4558 -1.4908
  172SAPE  H11B19451   3.189   2.026   6.458 -3.0156  2.8309  3.3028
  172SAPE     P19452   3.124   1.805   6.254 -0.5236  0.4149  0.0077
  172SAPE   O1319453   3.045   1.754   6.138 -0.0680 -0.0688  0.1882
  172SAPE   O1419454   3.273   1.815   6.254 -0.8199 -0.3552  0.2434
  172SAPE   O1219455   3.051   1.935   6.310 -0.1232 -0.0386  0.1168
  172SAPE   O1119456   3.096   1.707   6.375  0.4289  0.1879  0.3152
  172SAPE    C119457   2.962   1.670   6.414 -0.0239  0.0811  0.0408
  172SAPE    HA19458   2.886   1.684   6.335  0.8846 -0.9449 -1.0339
  172SAPE    HB19459   2.963   1.561   6.434  0.2294 -0.2604 -1.7251
  172SAPE    C219460   2.919   1.728   6.556  0.2095  0.5099  0.1784
  172SAPE    HS19461   2.907   1.837   6.537 -0.9621  0.1452 -1.3740
  172SAPE   O2119462   3.022   1.687   6.651  0.9992  0.3571 -0.2081
  172SAPE   C2119463   3.031   1.768   6.761  0.1428  0.0947  0.3104
  172SAPE   O2219464   2.979   1.877   6.771 -0.2560 -0.4075 -0.4450
  172SAPE   C2219465   3.110   1.694   6.873  0.7753 -0.1257 -0.5500
  172SAPE   H2R19466   3.212   1.737   6.862  1.3120 -0.6164  1.9285
  172SAPE   H2S19467   3.051   1.718   6.964  0.6336 -2.0614 -0.0821
  172SAPE    C319468   2.783   1.678   6.604 -0.6684  0.5880 -0.0113
  172SAPE    HX19469   2.801   1.570   6.622  1.2458  0.6206 -1.4084
  172SAPE    HY19470   2.710   1.690   6.522 -1.7082 -1.0885  0.6089
  172SAPE   O3119471   2.746   1.732   6.733  0.0776  0.6560  0.2213
  172SAPE   C3119472   2.665   1.832   6.717 -1.0608 -0.2594 -0.0648
  172SAPE   O3219473   2.657   1.901   6.615 -0.3117  0.2638 -0.2424
  172SAPE   C3219474   2.581   1.850   6.842 -0.1237  0.6698  0.5058
  172SAPE   H2X19475   2.645   1.841   6.933  0.1036  0.0308  0.2862
  172SAPE   H2Y19476   2.505   1.770   6.846  0.2465  0.2691 -0.3147
  172SAPE   C2319477   3.113   1.550   6.852 -0.8177  1.4280 -0.6276
  172SAPE   H3R19478   3.171   1.522   6.762 -1.2578  0.8987 -0.7573
  172SAPE   H3S19479   3.011   1.512   6.828 -0.1517  0.7455 -2.4876
  172SAPE   C2419480   3.159   1.473   6.982 -0.0568  0.3681  0.0088
  172SAPE   H4R19481   3.158   1.363   6.976 -1.2786  0.3353  0.4513
  172SAPE   H4S19482   3.078   1.493   7.056 -0.0509  0.6694 -0.0635
  172SAPE   C2519483   3.295   1.513   7.029 -0.0627  0.8855  0.1005
  172SAPE   H5R19484   3.383   1.478   6.973 -0.9118  0.7240 -1.1806
  172SAPE   C2619485   3.322   1.575   7.143  0.0733 -0.3159 -0.4433
  172SAPE   H6R19486   3.424   1.600   7.173  0.0588  1.6486 -1.8169
  172SAPE   C2719487   3.223   1.619   7.247  0.3194  0.4154 -0.3857
  172SAPE   H7R19488   3.126   1.639   7.198  0.6075 -1.6089 -1.9208
  172SAPE   H7S19489   3.252   1.719   7.284  0.2998 -0.1296  1.1865
  172SAPE   C2819490   3.212   1.517   7.356  0.1533 -0.7433 -0.4874
  172SAPE   H8R19491   3.190   1.415   7.321 -0.6652 -0.2314 -1.5290
  172SAPE   C2919492   3.214   1.536   7.497  0.1566  0.5216 -0.1524
  172SAPE   H9R19493   3.207   1.447   7.561  0.6242 -0.3027 -1.2211
  172SAPE  C21019494   3.214   1.666   7.573 -0.2147 -0.3146  0.3613
  172SAPE  H10R19495   3.143   1.658   7.657 -1.0337  1.3288 -0.1256
  172SAPE  H10S19496   3.169   1.745   7.508  1.0534  1.4760  1.5595
  172SAPE  C21119497   3.347   1.700   7.626 -0.0136  0.2062 -0.5331
  172SAPE  H11R19498   3.419   1.714   7.544 -0.6519 -0.8131 -1.2900
  172SAPE  C21219499   3.396   1.708   7.752 -0.1119  0.1451 -0.1404
  172SAPE  H12R19500   3.500   1.735   7.778  0.2002 -0.8638 -0.3044
  172SAPE  C21319501   3.311   1.697   7.879  0.3694 -0.0808  0.0032
  172SAPE  H13R19502   3.210   1.653   7.860  1.2308 -2.0339 -0.2593
  172SAPE  H13S19503   3.296   1.794   7.930 -0.6350  0.2923 -0.9673
  172SAPE  C21419504   3.368   1.590   7.969  0.0336  0.1081 -0.4689
  172SAPE  H14R19505   3.417   1.503   7.923  2.0996  0.2179  1.3482
  172SAPE  C21519506   3.351   1.577   8.104 -0.0542  0.0491 -0.3584
  172SAPE  H15R19507   3.360   1.476   8.146 -1.8040 -0.0086 -0.0314
  172SAPE  C21619508   3.275   1.669   8.201 -0.2433 -0.3047 -0.4227
  172SAPE  H16R19509   3.167   1.648   8.187  0.1592 -2.9566 -0.0406
  172SAPE  H16S19510   3.299   1.772   8.165 -0.7300  0.0306  0.1908
  172SAPE  C21719511   3.311   1.641   8.352  0.3231  0.5136 -0.0140
  172SAPE  H17R19512   3.270   1.543   8.383  1.5982  0.5153  1.8034
  172SAPE  H17S19513   3.259   1.722   8.408 -0.9933  0.8068 -1.5645
  172SAPE  C21819514   3.466   1.647   8.378  0.4157 -0.2113  0.2372
  172SAPE  H18R19515   3.520   1.569   8.319  0.0832 -1.7983  1.9571
  172SAPE  H18S19516   3.482   1.624   8.485 -1.2969  1.0934  0.8208
  172SAPE  C21919517   3.521   1.783   8.348 -0.2847 -0.8087  0.1919
  172SAPE  H19R19518   3.461   1.871   8.379  2.6054  2.0617 -1.6904
  172SAPE  H19S19519   3.521   1.791   8.237  1.4164 -0.6612  0.1710
  172SAPE  C22019520   3.653   1.789   8.417  0.2901  0.2004  0.8811
  172SAPE  H20R19521   3.705   1.885   8.398  0.3045 -0.2955 -2.0694
  172SAPE  H20S19522   3.722   1.709   8.381  0.7028  0.5425  0.9073
  172SAPE  H20T19523   3.635   1.787   8.527 -0.3808 -0.5238  0.7649
  172SAPE   C3319524   2.513   1.987   6.846  0.1925  0.5471 -0.6693
  172SAPE   H3X19525   2.472   2.017   6.747  1.0394  0.0301 -1.1875
  172SAPE   H3Y19526   2.589   2.065   6.866  1.2122 -0.4752 -0.4698
  172SAPE   C3419527   2.404   1.992   6.951 -0.5504 -0.2214  0.7010
  172SAPE   H4X19528   2.331   1.915   6.919 -1.6482  0.5800  1.2023
  172SAPE   H4Y19529   2.356   2.092   6.939  0.5057  0.1577 -0.6974
  172SAPE   C3519530   2.458   1.957   7.092 -0.0031  0.2168  0.0500
  172SAPE   H5X19531   2.549   2.020   7.109  0.7766 -0.4952 -1.3452
  172SAPE   H5Y19532   2.495   1.853   7.090  3.0338  1.1767 -0.0427
  172SAPE   C3619533   2.352   1.980   7.203 -0.1936 -0.5430  0.2635
  172SAPE   H6X19534   2.262   1.916   7.189 -1.0762  0.9181 -1.0973
  172SAPE   H6Y19535   2.315   2.084   7.189 -1.0324 -1.0537 -1.5767
  172SAPE   C3719536   2.414   1.961   7.334 -0.4509  0.6905  0.4611
  172SAPE   H7X19537   2.494   2.035   7.354  0.9786 -0.3482 -1.2025
  172SAPE   H7Y19538   2.471   1.866   7.331  1.0801  1.5739  0.5226
  172SAPE   C3819539   2.319   1.955   7.453  0.3464 -0.0857  0.3641
  172SAPE   H8X19540   2.248   1.870   7.443  1.1435 -1.1039  2.6340
  172SAPE   H8Y19541   2.256   2.046   7.444 -0.1039 -0.3840  0.4656
  172SAPE   C3919542   2.403   1.941   7.583  0.3889  0.0764 -0.6830
  172SAPE   H9X19543   2.485   2.016   7.579  2.2559 -1.7423  1.0115
  172SAPE   H9Y19544   2.466   1.849   7.581  3.0205  1.7707 -1.7121
  172SAPE  C31019545   2.321   1.952   7.716  0.0673 -0.0676 -0.1659
  172SAPE  H10X19546   2.255   1.862   7.713  0.1887 -0.1458 -1.7130
  172SAPE  H10Y19547   2.269   2.048   7.696  0.9785  0.0647 -2.2068
  172SAPE  C31119548   2.411   1.963   7.845  0.0772  0.2213  0.1008
  172SAPE  H11X19549   2.480   2.050   7.844 -0.4667  0.7189 -3.0517
  172SAPE  H11Y19550   2.468   1.868   7.849  1.9460  1.1351 -2.5466
  172SAPE  C31219551   2.324   1.986   7.966  0.5327  0.3885  0.2290
  172SAPE  H12X19552   2.265   1.894   7.984  0.3399  0.8978  2.4214
  172SAPE  H12Y19553   2.270   2.082   7.955  0.7510  0.4451 -0.4118
  172SAPE  C31319554   2.412   1.989   8.094  0.5942  0.4469  0.4094
  172SAPE  H13X19555   2.494   2.063   8.076  1.9479 -1.3332 -1.1754
  172SAPE  H13Y19556   2.461   1.889   8.102  3.9106  2.0120  1.7931
  172SAPE  C31419557   2.326   2.025   8.216 -0.3748 -0.3248  0.8915
  172SAPE  H14X19558   2.274   1.940   8.265 -1.8116 -1.4681 -2.3391
  172SAPE  H14Y19559   2.245   2.086   8.171 -0.5035 -0.9495  0.2696
  172SAPE  C31519560   2.415   2.110   8.312  0.9006  0.0648 -0.0719
  172SAPE  H15X19561   2.507   2.052   8.337  0.9221  0.1918  0.1481
  172SAPE  H15Y19562   2.367   2.119   8.412  0.0962  0.0752 -0.4534
  172SAPE  C31619563   2.444   2.260   8.270  0.2925 -0.5323 -0.2381
  172SAPE  H16X19564   2.495   2.251   8.172 -1.8010  0.1367 -1.4541
  172SAPE  H16Y19565   2.511   2.305   8.345  0.0329 -0.0502 -0.2879
  172SAPE  C31719566   2.324   2.356   8.260 -0.8516  0.0203  0.7022
  172SAPE  H17X19567   2.255   2.335   8.345 -2.1341 -1.5585 -0.6606
  172SAPE  H17Y19568   2.261   2.313   8.179  0.5799  0.4540 -0.6854
  172SAPE  C31819569   2.347   2.505   8.236  0.2072 -0.1312  0.5567
  172SAPE  H18X19570   2.365   2.515   8.127 -2.2939 -1.0701 -0.0097
  172SAPE  H18Y19571   2.430   2.550   8.296 -0.7918  0.4552  1.5402
  172SAPE  H18Z19572   2.252   2.558   8.259 -0.4111 -1.7409  1.9925
  173SOPE     N19573   5.084   6.025  10.999  0.0855 -0.0344  0.3861
  173SOPE   HN119574   4.994   5.974  11.002 -0.4603  0.9365  1.0821
  173SOPE   HN219575   5.131   6.023  11.091 -2.3699 -1.6030  1.7097
  173SOPE   HN319576   5.068   6.126  10.981  1.0703 -0.0992 -1.0528
  173SOPE   C1219577   5.166   5.975  10.882 -0.0813 -0.1635  0.3723
  173SOPE  H12A19578   5.151   6.040  10.793  1.5479  0.4941  0.5453
  173SOPE  H12B19579   5.113   5.880  10.858 -0.8432  0.3757 -0.1290
  173SOPE   C1119580   5.314   5.961  10.931  0.0373  0.8079 -0.0074
  173SOPE  H11A19581   5.382   5.919  10.854  0.5436  2.2311 -0.3667
  173SOPE  H11B19582   5.316   5.890  11.016  2.1871  0.9702  0.1410
  173SOPE     P19583   5.516   6.124  10.962  0.1358  0.2619  0.0788
  173SOPE   O1319584   5.611   6.017  11.010 -0.0075 -0.6878  0.2315
  173SOPE   O1419585   5.538   6.250  11.030 -0.5518 -0.0315 -0.2780
  173SOPE   O1219586   5.362   6.088  10.979 -0.3377 -0.5650 -0.2773
  173SOPE   O1119587   5.526   6.144  10.808 -0.0608  0.1625 -0.0969
  173SOPE    C119588   5.423   6.193  10.715 -0.5028 -0.1734  0.7085
  173SOPE    HA19589   5.446   6.301  10.706 -3.2117  0.3066 -1.6403
  173SOPE    HB19590   5.319   6.187  10.752 -0.3620 -2.8526  0.8788
  173SOPE    C219591   5.432   6.131  10.571 -0.5994  0.3504  0.1624
  173SOPE    HS19592   5.363   6.044  10.572 -0.1466 -0.0090  0.5519
  173SOPE   O2119593   5.565   6.087  10.531  0.1933  0.1296 -0.1192
  173SOPE   C2119594   5.596   5.965  10.561  0.4452  0.3315  0.2933
  173SOPE   O2219595   5.526   5.884  10.612 -0.1917  0.5999  0.5889
  173SOPE   C2219596   5.742   5.944  10.524  0.1017  0.9626 -0.3798
  173SOPE   H2R19597   5.781   5.924  10.626 -2.0709  0.8750  0.4993
  173SOPE   H2S19598   5.782   6.028  10.463 -0.7587  1.5715 -0.1344
  173SOPE    C319599   5.382   6.245  10.474 -0.5372 -0.0041 -0.1044
  173SOPE    HX19600   5.453   6.330  10.480 -2.0093  1.1454  1.6250
  173SOPE    HY19601   5.279   6.277  10.499 -0.2658  0.1737  0.7945
  173SOPE   O3119602   5.393   6.183  10.352  1.0400  0.1363  0.0994
  173SOPE   C3119603   5.349   6.262  10.250  0.6511  0.2559  0.3657
  173SOPE   O3219604   5.316   6.379  10.262 -0.2051 -0.2893 -0.5910
  173SOPE   C3219605   5.352   6.177  10.121  0.1797  0.0752 -0.1236
  173SOPE   H2X19606   5.263   6.111  10.127  0.2070  0.0475 -0.0210
  173SOPE   H2Y19607   5.442   6.113  10.130 -0.8861 -1.4678 -0.1024
  173SOPE   C2319608   5.756   5.815  10.449 -0.5210  0.3309  0.1288
  173SOPE   H3R19609   5.746   5.734  10.525 -0.3767  1.2486  1.1456
  173SOPE   H3S19610   5.857   5.805  10.405 -1.1061 -0.6208 -1.0707
  173SOPE   C2419611   5.658   5.794  10.333 -1.1953 -0.3990  0.2417
  173SOPE   H4R19612   5.665   5.691  10.292  1.0295 -1.1302  2.2111
  173SOPE   H4S19613   5.557   5.791  10.379 -1.3323  1.2599  0.0959
  173SOPE   C2519614   5.661   5.901  10.214 -0.2076  0.3494  0.3291
  173SOPE   H5R19615   5.628   5.998  10.257 -1.3014  0.0053  0.2895
  173SOPE   H5S19616   5.765   5.926  10.186 -0.1300  0.9287  1.1051
  173SOPE   C2619617   5.575   5.875  10.086  0.0645  0.0380 -1.0961
  173SOPE   H6R19618   5.468   5.883  10.113 -0.0990 -1.8100 -1.0587
  173SOPE   H6S19619   5.602   5.962  10.022  1.0371  0.1179 -0.5899
  173SOPE   C2719620   5.590   5.740  10.024 -0.8707  0.7534 -0.2316
  173SOPE   H7R19621   5.699   5.720  10.019 -0.8738  0.7248 -0.1873
  173SOPE   H7S19622   5.543   5.667  10.093  0.1499  2.9853  3.0988
  173SOPE   C2819623   5.530   5.746   9.886 -0.2484  0.8306 -0.4114
  173SOPE   H8R19624   5.589   5.810   9.817 -2.1392 -0.8908 -3.8689
  173SOPE   H8S19625   5.549   5.651   9.832  2.6315  1.1455 -0.1202
  173SOPE   C2919626   5.385   5.778   9.872  0.1382 -0.2374  0.1107
  173SOPE   H9119627   5.352   5.870   9.924  0.5393 -0.0005 -0.0499
  173SOPE  C21019628   5.289   5.700   9.819 -0.2621 -0.4871 -1.1020
  173SOPE  H10119629   5.191   5.748   9.803  0.0628  0.2587 -0.9062
  173SOPE  C21119630   5.318   5.569   9.754 -0.2735  0.1735 -0.1146
  173SOPE  H11R19631   5.232   5.501   9.775 -0.4202 -0.3119 -2.0902
  173SOPE  H11S19632   5.404   5.513   9.795  0.3480  2.4956  2.0114
  173SOPE  C21219633   5.317   5.565   9.594 -0.4613 -0.3382  0.3281
  173SOPE  H12R19634   5.221   5.605   9.555 -0.1067 -1.3656 -1.7584
  173SOPE  H12S19635   5.314   5.460   9.558  1.3534 -0.8358  1.4834
  173SOPE  C21319636   5.431   5.635   9.522 -0.2191 -0.1418  0.2049
  173SOPE  H13R19637   5.527   5.587   9.549 -0.6875 -1.0792  0.2555
  173SOPE  H13S19638   5.424   5.742   9.551 -2.8153 -0.7194  2.0960
  173SOPE  C21419639   5.407   5.623   9.372  0.4757 -0.2291  0.2743
  173SOPE  H14R19640   5.318   5.678   9.335  1.2099  0.9239  0.1382
  173SOPE  H14S19641   5.401   5.515   9.347  0.6650 -0.4463  1.1496
  173SOPE  C21519642   5.530   5.685   9.297 -0.4415  0.0572 -0.3795
  173SOPE  H15R19643   5.618   5.620   9.318  0.5588  1.9694  1.8493
  173SOPE  H15S19644   5.546   5.788   9.334 -0.4846  0.1438 -0.6035
  173SOPE  C21619645   5.521   5.710   9.146 -0.0322 -0.6157  0.3383
  173SOPE  H16R19646   5.613   5.758   9.106  1.0950 -0.6736  2.6695
  173SOPE  H16S19647   5.437   5.777   9.119  0.2342 -0.0791  0.8106
  173SOPE  C21719648   5.500   5.585   9.065 -0.3283  0.5352  0.0848
  173SOPE  H17R19649   5.417   5.521   9.102 -2.3854  0.6615 -3.7807
  173SOPE  H17S19650   5.593   5.527   9.079  0.2399  1.5433  0.6174
  173SOPE  C21819651   5.459   5.611   8.918 -0.5565  0.2570  0.0302
  173SOPE  H18R19652   5.415   5.526   8.862 -2.1608  1.1843 -0.1633
  173SOPE  H18S19653   5.542   5.662   8.864 -1.5045 -0.6537 -2.4433
  173SOPE  H18T19654   5.377   5.684   8.901 -0.3530  0.8582  1.5008
  173SOPE   C3319655   5.357   6.258   9.985 -0.5887  0.2885 -0.4111
  173SOPE   H3X19656   5.459   6.301   9.976 -0.2410 -0.2693  0.7143
  173SOPE   H3Y19657   5.289   6.346   9.995 -1.9881 -0.8827  0.9000
  173SOPE   C3419658   5.322   6.168   9.869  0.8507 -0.2885  0.5004
  173SOPE   H4X19659   5.217   6.137   9.883  0.1251  2.8031  2.9687
  173SOPE   H4Y19660   5.402   6.091   9.864  1.4064  0.3239 -2.8113
  173SOPE   C3519661   5.331   6.236   9.734 -0.1858 -0.5286 -0.0021
  173SOPE   H5X19662   5.429   6.288   9.725 -1.0004  0.8412 -1.3707
  173SOPE   H5Y19663   5.255   6.313   9.711  1.3402  0.7420 -1.0194
  173SOPE   C3619664   5.332   6.137   9.614 -0.7421 -0.3952 -0.5252
  173SOPE   H6X19665   5.419   6.068   9.626 -2.0568 -1.6188  3.9199
  173SOPE   H6Y19666   5.351   6.202   9.526  0.7168 -2.5210 -1.8790
  173SOPE   C3719667   5.205   6.065   9.580  0.1866  0.2369 -0.5377
  173SOPE   H7X19668   5.115   6.129   9.568 -1.2049 -1.4101  0.6735
  173SOPE   H7Y19669   5.181   6.006   9.671 -0.3240  1.5610  0.2238
  173SOPE   C3819670   5.217   5.970   9.457 -0.3033  0.6022 -0.1941
  173SOPE   H8X19671   5.130   5.900   9.456 -0.4710  0.8167 -0.5475
  173SOPE   H8Y19672   5.307   5.905   9.471 -1.3247 -0.4622  2.0617
  173SOPE   C3919673   5.205   6.052   9.332 -0.2106 -0.3973  0.1532
  173SOPE   H9X19674   5.294   6.115   9.306 -0.8682  0.2361 -0.6173
  173SOPE   H9Y19675   5.122   6.126   9.339 -0.5921 -0.9467  1.8997
  173SOPE  C31019676   5.166   5.964   9.211 -0.0707  0.0087 -0.0268
  173SOPE  H10X19677   5.077   5.907   9.245  1.8567 -2.4027  1.2885
  173SOPE  H10Y19678   5.251   5.893   9.210 -0.1789 -0.1270 -1.0562
  173SOPE  C31119679   5.150   6.034   9.076  0.2487  0.4148 -0.5683
  173SOPE  H11X19680   5.247   6.073   9.040  0.5057  1.1263  0.8389
  173SOPE  H11Y19681   5.077   6.118   9.086  1.2701  1.4779 -1.7530
  173SOPE  C31219682   5.078   5.938   8.974 -0.6054  1.3149 -0.4390
  173SOPE  H12X19683   5.077   5.838   9.023  1.0074  1.3987 -0.1857
  173SOPE  H12Y19684   5.141   5.940   8.882  0.6137  0.7987  0.3601
  173SOPE  C31319685   4.935   5.970   8.922  0.0948  0.2539 -0.1972
  173SOPE  H13X19686   4.933   6.073   8.879 -1.0522  0.3383  0.0334
  173SOPE  H13Y19687   4.862   5.953   9.004 -1.2395 -0.5218 -1.5019
  173SOPE  C31419688   4.886   5.885   8.813  0.1841  1.0698  0.5867
  173SOPE  H14X19689   4.822   5.800   8.846 -0.9466 -0.0345 -3.7457
  173SOPE  H14Y19690   4.978   5.840   8.770  1.0237 -0.4461  3.6301
  173SOPE  C31519691   4.804   5.964   8.712  0.3637 -0.4466  0.6025
  173SOPE  H15X19692   4.882   6.027   8.665 -0.7272 -0.0727 -0.7651
  173SOPE  H15Y19693   4.717   6.022   8.750  1.1366  0.5484  0.8906
  173SOPE  C31619694   4.733   5.859   8.618  0.0902 -0.1640  1.0108
  173SOPE  H16X19695   4.633   5.827   8.655  0.1579 -1.6823 -0.0364
  173SOPE  H16Y19696   4.798   5.772   8.598 -1.3034 -1.2012  0.8701
  173SOPE  C31719697   4.724   5.934   8.481 -0.1746  0.1526 -1.3006
  173SOPE  H17X19698   4.813   6.000   8.470 -0.9322  1.5060  0.2673
  173SOPE  H17Y19699   4.640   6.007   8.481  0.4825  1.0122  1.3448
  173SOPE  C31819700   4.704   5.844   8.353 -1.0502  0.2064  0.2271
  173SOPE  H18X19701   4.789   5.774   8.343 -2.7972 -1.9611 -0.1358
  173SOPE  H18Y19702   4.678   5.903   8.263 -0.0599  0.1851 -0.0786
  173SOPE  H18Z19703   4.614   5.779   8.366 -1.4684  0.5468 -0.8538
  174SOPE     N19704   3.253   5.642  10.953  0.9001  0.2355  0.0706
  174SOPE   HN119705   3.248   5.561  11.018 -3.5313  3.0528  3.9199
  174SOPE   HN219706   3.348   5.656  10.913  0.4214 -0.6035 -1.4620
  174SOPE   HN319707   3.217   5.720  11.012 -1.7972 -0.5697 -0.3538
  174SOPE   C1219708   3.169   5.604  10.829  0.5576 -0.3207  0.1657
  174SOPE  H12A19709   3.075   5.563  10.869  0.0764  0.8935  0.3360
  174SOPE  H12B19710   3.224   5.526  10.773 -1.1746 -0.1574 -1.9111
  174SOPE   C1119711   3.143   5.724  10.742 -0.8356  0.1238  0.2667
  174SOPE  H11A19712   3.099   5.707  10.642 -0.7474 -1.2963  0.4439
  174SOPE  H11B19713   3.243   5.760  10.713 -0.5639 -0.1360  0.8525
  174SOPE     P19714   2.923   5.833  10.819  0.2584  0.1389 -0.4080
  174SOPE   O1319715   2.900   5.937  10.926  0.1569  0.0041 -0.2458
  174SOPE   O1419716   2.864   5.702  10.854 -0.1232  0.0397  0.2106
  174SOPE   O1219717   3.083   5.827  10.817  0.3885  0.3267 -0.3865
  174SOPE   O1119718   2.891   5.885  10.677 -0.2658 -0.2236 -0.2455
  174SOPE    C119719   2.836   5.793  10.581 -0.3691  0.5621 -0.3843
  174SOPE    HA19720   2.752   5.729  10.615 -0.7184 -1.1608 -4.0606
  174SOPE    HB19721   2.910   5.723  10.538 -2.3776 -1.4479 -0.7420
  174SOPE    C219722   2.788   5.872  10.454 -0.6476 -0.5310 -0.0821
  174SOPE    HS19723   2.699   5.932  10.482 -0.4477 -1.5239  3.0444
  174SOPE   O2119724   2.763   5.785  10.344  0.0835 -1.0781 -0.2355
  174SOPE   C2119725   2.652   5.713  10.347  0.5228 -0.2838 -0.5952
  174SOPE   O2219726   2.575   5.706  10.442 -0.1324 -0.1483 -0.3303
  174SOPE   C2219727   2.643   5.627  10.227 -0.2582 -0.5636 -0.3019
  174SOPE   H2R19728   2.710   5.538  10.227  1.5445  0.7320 -0.7481
  174SOPE   H2S19729   2.676   5.679  10.135  0.6671 -3.9999 -2.1006
  174SOPE    C319730   2.896   5.985  10.407 -0.4655 -0.3036 -0.3902
  174SOPE    HX19731   2.990   5.927  10.418  0.3099  0.7110 -1.3747
  174SOPE    HY19732   2.886   6.065  10.483 -0.1138 -2.4112  2.0248
  174SOPE   O3119733   2.863   6.034  10.274  0.2449 -0.7075 -0.2721
  174SOPE   C3119734   2.952   6.005  10.184 -0.0358  1.0402 -0.5238
  174SOPE   O3219735   3.058   5.956  10.205  0.2645 -0.3468 -0.8209
  174SOPE   C3219736   2.895   6.049  10.042 -1.0445  0.1320  0.3247
  174SOPE   H2X19737   2.918   6.157  10.029 -2.3382  0.4918  0.8043
  174SOPE   H2Y19738   2.787   6.022  10.036 -0.4358 -2.5505  0.3674
  174SOPE   C2319739   2.503   5.563  10.211 -0.0571 -0.0773  0.0651
  174SOPE   H3R19740   2.445   5.634  10.148 -0.1470  0.3361  0.6061
  174SOPE   H3S19741   2.444   5.544  10.304 -0.5743 -0.4326 -0.3291
  174SOPE   C2419742   2.501   5.423  10.141 -0.2790 -0.2407 -0.4624
  174SOPE   H4R19743   2.558   5.350  10.203  0.4889  0.1951 -0.6486
  174SOPE   H4S19744   2.398   5.388  10.161 -0.2883 -0.6223 -1.1608
  174SOPE   C2519745   2.547   5.426   9.998  0.1629  0.4689  0.4751
  174SOPE   H5R19746   2.627   5.501   9.977  0.6499 -0.6581 -2.0930
  174SOPE   H5S19747   2.582   5.326   9.965 -1.3849  0.2113 -0.4860
  174SOPE   C2619748   2.428   5.479   9.915 -1.1488  0.2245 -1.1346
  174SOPE   H6R19749   2.338   5.421   9.943 -1.1190 -0.5285 -2.5070
  174SOPE   H6S19750   2.404   5.582   9.949  1.0796  0.8619 -1.3556
  174SOPE   C2719751   2.449   5.477   9.765  0.5134  0.4179  0.2904
  174SOPE   H7R19752   2.366   5.530   9.714 -0.4282 -1.7764 -0.6065
  174SOPE   H7S19753   2.535   5.541   9.737 -0.4284  2.3126  1.5083
  174SOPE   C2819754   2.453   5.332   9.700  0.5269 -0.4480  0.3390
  174SOPE   H8R19755   2.525   5.264   9.750  0.2713 -1.7712 -1.0127
  174SOPE   H8S19756   2.351   5.291   9.718 -0.1847  1.1004  0.0027
  174SOPE   C2919757   2.492   5.327   9.560  0.1474  0.2284 -0.4777
  174SOPE   H9119758   2.598   5.347   9.539  0.1590 -1.1028 -1.8271
  174SOPE  C21019759   2.415   5.288   9.455 -0.7101 -0.3032  0.5145
  174SOPE  H10119760   2.468   5.288   9.359  0.3562  0.3829  1.0859
  174SOPE  C21119761   2.267   5.257   9.454 -0.4380  0.6715  0.2814
  174SOPE  H11R19762   2.218   5.288   9.549 -1.0982 -0.3629  0.2889
  174SOPE  H11S19763   2.253   5.149   9.432 -0.2920  0.5161  0.9386
  174SOPE  C21219764   2.193   5.349   9.353  0.4098  0.7069 -0.5564
  174SOPE  H12R19765   2.192   5.454   9.390 -0.7610  1.3434 -2.2859
  174SOPE  H12S19766   2.091   5.308   9.365  1.0213 -0.4344  1.1420
  174SOPE  C21319767   2.225   5.339   9.204  0.3923  0.2815  0.0974
  174SOPE  H13R19768   2.243   5.233   9.177  1.2484  0.7628 -1.3605
  174SOPE  H13S19769   2.314   5.402   9.183  0.4181 -0.8408 -4.0275
  174SOPE  C21419770   2.117   5.395   9.121 -0.1111  0.6301  0.4911
  174SOPE  H14R19771   2.100   5.499   9.155 -0.2399  0.4654  0.9275
  174SOPE  H14S19772   2.023   5.340   9.140  0.1398  0.1164  0.2521
  174SOPE  C21519773   2.153   5.373   8.966  0.7520  0.1653 -0.1879
  174SOPE  H15R19774   2.191   5.269   8.972 -0.3675 -0.1610  3.0944
  174SOPE  H15S19775   2.240   5.433   8.931  0.1733  0.3162 -1.4164
  174SOPE  C21619776   2.033   5.411   8.884 -0.3163 -0.3979  0.4158
  174SOPE  H16R19777   2.004   5.518   8.892 -0.2176 -0.1538 -1.9606
  174SOPE  H16S19778   1.948   5.353   8.927 -0.1162 -1.7388 -0.9237
  174SOPE  C21719779   2.058   5.379   8.738 -0.3424  0.0441 -0.1596
  174SOPE  H17R19780   2.095   5.275   8.725  1.5017  0.7760 -1.3242
  174SOPE  H17S19781   2.145   5.440   8.703  0.9918 -1.6374  0.1225
  174SOPE  C21819782   1.933   5.401   8.658  0.5193  0.0504 -0.0394
  174SOPE  H18R19783   1.886   5.501   8.666  1.4595  0.4529  0.5613
  174SOPE  H18S19784   1.860   5.319   8.677  0.2337  0.0019 -1.2369
  174SOPE  H18T19785   1.956   5.385   8.550 -0.8052  0.6955 -0.4395
  174SOPE   C3319786   2.969   5.973   9.927 -0.3754 -0.4528 -0.7554
  174SOPE   H3X19787   3.078   5.982   9.944 -0.5813  0.9595  0.0249
  174SOPE   H3Y19788   2.950   6.037   9.838  1.8779  2.6334  0.7885
  174SOPE   C3419789   2.929   5.830   9.925  0.4146  0.3630 -0.3007
  174SOPE   H4X19790   2.821   5.824   9.952  0.5025  0.0477 -0.0071
  174SOPE   H4Y19791   2.989   5.771   9.997 -0.7919 -1.1469 -0.4800
  174SOPE   C3519792   2.943   5.767   9.789 -0.1663  0.2440  0.5540
  174SOPE   H5X19793   3.051   5.782   9.765 -0.6988  3.1136 -0.4829
  174SOPE   H5Y19794   2.891   5.819   9.706 -0.6396 -3.1305 -1.4168
  174SOPE   C3619795   2.893   5.622   9.782  0.3528  0.3141  0.0437
  174SOPE   H6X19796   2.783   5.607   9.789  0.0159  2.2965 -0.3948
  174SOPE   H6Y19797   2.928   5.559   9.867 -1.7472 -1.8441 -0.5808
  174SOPE   C3719798   2.927   5.554   9.643 -0.6146  0.0466 -0.3730
  174SOPE   H7X19799   2.876   5.455   9.646  0.9003 -0.8044 -1.4131
  174SOPE   H7Y19800   3.035   5.534   9.631 -0.7032 -0.7943  0.1056
  174SOPE   C3819801   2.874   5.624   9.508 -0.0398  0.0328 -0.2287
  174SOPE   H8X19802   2.913   5.572   9.418 -0.1206 -0.6314  0.1143
  174SOPE   H8Y19803   2.911   5.729   9.502 -0.5502  0.1454 -3.8621
  174SOPE   C3919804   2.717   5.641   9.502 -0.0507 -0.0661  0.0751
  174SOPE   H9X19805   2.688   5.711   9.583 -0.1163  0.0555 -0.0525
  174SOPE   H9Y19806   2.662   5.546   9.515 -0.1783 -0.0589 -0.3998
  174SOPE  C31019807   2.671   5.729   9.388  0.0708  0.4539  0.6195
  174SOPE  H10X19808   2.721   5.829   9.385 -2.0808  1.6126  0.8837
  174SOPE  H10Y19809   2.562   5.746   9.400 -0.5053 -1.4835 -1.2883
  174SOPE  C31119810   2.674   5.661   9.245  0.1155  0.1979 -0.5116
  174SOPE  H11X19811   2.773   5.669   9.196 -0.2859 -0.6054 -1.5062
  174SOPE  H11Y19812   2.613   5.722   9.176 -0.1009  1.1913  0.5317
  174SOPE  C31219813   2.625   5.517   9.246 -0.0768 -1.0884  0.0801
  174SOPE  H12X19814   2.556   5.499   9.330  1.3151  1.9288  2.0367
  174SOPE  H12Y19815   2.710   5.453   9.278 -1.5198 -3.2631 -0.2562
  174SOPE  C31319816   2.590   5.460   9.114 -0.1317 -0.6653 -0.0039
  174SOPE  H13X19817   2.647   5.512   9.033 -2.8596  1.0031 -0.9982
  174SOPE  H13Y19818   2.485   5.492   9.100  0.2559  2.3100  2.7522
  174SOPE  C31419819   2.618   5.307   9.097 -0.8831  1.2169 -1.0106
  174SOPE  H14X19820   2.581   5.276   9.198  0.0016  0.3383 -0.9467
  174SOPE  H14Y19821   2.727   5.287   9.102 -1.1287 -0.0547 -0.0371
  174SOPE  C31519822   2.551   5.238   8.976  0.8849  0.1737 -0.9910
  174SOPE  H15X19823   2.443   5.261   8.987  1.1616  0.5142  1.6187
  174SOPE  H15Y19824   2.561   5.128   8.985  0.2286  0.1696 -0.1450
  174SOPE  C31619825   2.616   5.296   8.851  0.5202  0.8691 -0.3009
  174SOPE  H16X19826   2.726   5.279   8.854  0.1550 -1.7816  1.3477
  174SOPE  H16Y19827   2.608   5.407   8.842 -0.4082  0.8109 -0.2720
  174SOPE  C31719828   2.567   5.226   8.728 -0.0762  0.2730 -0.0141
  174SOPE  H17X19829   2.577   5.117   8.745 -3.0401  0.0455  0.8673
  174SOPE  H17Y19830   2.618   5.247   8.631 -0.7507 -4.5523 -1.6968
  174SOPE  C31819831   2.416   5.248   8.714 -0.7788  0.2801  0.1250
  174SOPE  H18X19832   2.378   5.217   8.614 -0.2584  1.2254 -0.3723
  174SOPE  H18Y19833   2.390   5.353   8.737  1.4816  0.4142  2.4487
  174SOPE  H18Z19834   2.365   5.180   8.786 -0.9670 -1.4841 -1.5836
  175SOPE     N19835   5.131   0.063  10.916 -0.5904  0.5038  0.6464
  175SOPE   HN119836   5.042   0.094  10.958 -0.6960 -0.4338  1.1297
  175SOPE   HN219837   5.187   0.008  10.984 -0.9052 -1.0598 -0.3041
  175SOPE   HN319838   5.190   0.143  10.884 -0.7799  0.4304  0.1070
  175SOPE   C1219839   5.117  -0.014  10.786 -0.4586 -0.6201  0.3138
  175SOPE  H12A19840   5.020  -0.069  10.790 -0.9671  0.2139 -0.3922
  175SOPE  H12B19841   5.205  -0.081  10.783  0.0929  0.0200  1.6028
  175SOPE   C1119842   5.118   0.074  10.660 -0.6960  0.2959  0.1859
  175SOPE  H11A19843   5.016   0.120  10.655 -1.0652 -0.0424  2.7771
  175SOPE  H11B19844   5.144   0.014  10.571  4.4135 -0.0487  1.6009
  175SOPE     P19845   5.213   0.297  10.571 -0.0331 -0.0481 -0.0522
  175SOPE   O1319846   5.353   0.346  10.540  0.3347  0.0504  0.2231
  175SOPE   O1419847   5.125   0.396  10.638 -0.0907  0.4204  0.3493
  175SOPE   O1219848   5.216   0.173  10.663 -0.0731  0.3694  0.7142
  175SOPE   O1119849   5.157   0.231  10.445  0.5288  0.7843 -0.5980
  175SOPE    C119850   5.241   0.223  10.323  0.5261 -0.3257 -0.1549
  175SOPE    HA19851   5.212   0.145  10.250  1.4571  0.1153 -1.0137
  175SOPE    HB19852   5.347   0.194  10.342  0.3488 -0.1985  1.1716
  175SOPE    C219853   5.239   0.360  10.246  0.1291  0.2670 -0.5318
  175SOPE    HS19854   5.289   0.432  10.315 -0.6152 -0.5121  0.8572
  175SOPE   O2119855   5.106   0.400  10.219  0.6051  0.0818 -0.3725
  175SOPE   C2119856   5.082   0.517  10.161 -0.2162  0.1301 -0.0192
  175SOPE   O2219857   5.164   0.604  10.141  0.2961 -0.3910  0.1395
  175SOPE   C2219858   4.930   0.529  10.141  0.2551  0.2379 -0.0194
  175SOPE   H2R19859   4.902   0.629  10.182 -1.9355  0.6025 -2.2201
  175SOPE   H2S19860   4.888   0.441  10.193 -0.8115 -0.5702 -2.1558
  175SOPE    C319861   5.324   0.342  10.118  0.3217 -0.2329  0.4232
  175SOPE    HX19862   5.424   0.308  10.154  0.4608 -0.6853 -0.3661
  175SOPE    HY19863   5.334   0.445  10.077 -0.1148 -0.0550  0.7694
  175SOPE   O3119864   5.263   0.262  10.020  0.9762  0.3661  0.7643
  175SOPE   C3119865   5.331   0.174   9.958  0.1691 -0.4426 -0.3811
  175SOPE   O3219866   5.444   0.139   9.986 -0.1423 -0.8830  0.5575
  175SOPE   C3219867   5.246   0.123   9.834  0.2926 -0.1442  0.1752
  175SOPE   H2X19868   5.255   0.193   9.748 -2.7903 -1.4344 -1.3494
  175SOPE   H2Y19869   5.144   0.145   9.873  0.2206  1.6860 -0.9157
  175SOPE   C2319870   4.904   0.537   9.992  0.9203 -0.2477  0.0368
  175SOPE   H3R19871   4.961   0.612   9.933 -1.6732  2.2139  0.3979
  175SOPE   H3S19872   4.795   0.553   9.980  0.8329  0.3751  1.4934
  175SOPE   C2419873   4.917   0.394   9.934 -0.0320  0.2985  0.4561
  175SOPE   H4R19874   5.022   0.356   9.937 -0.1735 -0.5531 -2.5869
  175SOPE   H4S19875   4.842   0.327   9.980  0.9827 -1.0751  0.1697
  175SOPE   C2519876   4.892   0.397   9.781 -0.1492  0.0401 -0.4338
  175SOPE   H5R19877   4.781   0.391   9.776 -0.1894  1.3350 -1.6864
  175SOPE   H5S19878   4.919   0.490   9.726 -0.4958 -1.0484 -2.5449
  175SOPE   C2619879   4.958   0.285   9.705  0.0394  0.1208  0.6277
  175SOPE   H6R19880   5.068   0.299   9.698  0.9996 -5.1198  1.6899
  175SOPE   H6S19881   4.953   0.196   9.770 -1.4870 -1.1079 -1.0527
  175SOPE   C2719882   4.896   0.249   9.569 -0.2757  0.0120 -0.3552
  175SOPE   H7R19883   4.955   0.158   9.544  1.0820  0.6153  0.5331
  175SOPE   H7S19884   4.791   0.222   9.591 -0.7338  1.7825 -0.2441
  175SOPE   C2819885   4.885   0.358   9.462  0.0777 -0.1972 -0.0139
  175SOPE   H8R19886   4.812   0.327   9.384 -1.2246  1.5184  0.4625
  175SOPE   H8S19887   4.847   0.448   9.514  2.6899  0.8367  0.2976
  175SOPE   C2919888   5.025   0.386   9.412  0.6901  0.0386 -0.3706
  175SOPE   H9119889   5.085   0.455   9.473 -0.1839  1.4127 -1.0158
  175SOPE  C21019890   5.088   0.346   9.304  0.3574  0.6260  0.4168
  175SOPE  H10119891   5.188   0.387   9.284  0.0829 -0.0595 -2.9641
  175SOPE  C21119892   5.030   0.264   9.194  0.0177  0.3339  0.2359
  175SOPE  H11R19893   5.057   0.317   9.101  1.5212  1.5502  1.3269
  175SOPE  H11S19894   4.919   0.269   9.194 -0.0207  0.4743 -1.8978
  175SOPE  C21219895   5.084   0.117   9.190 -0.1331 -0.5803 -0.1282
  175SOPE  H12R19896   5.000   0.044   9.191  2.0055 -3.2086  0.9043
  175SOPE  H12S19897   5.138   0.090   9.283  1.2044  0.7358 -0.4944
  175SOPE  C21319898   5.160   0.093   9.056  0.0977  0.2041 -0.5855
  175SOPE  H13R19899   5.262   0.068   9.093 -0.0553 -1.8913 -1.4436
  175SOPE  H13S19900   5.173   0.191   9.006  1.7810  0.6626  0.6441
  175SOPE  C21419901   5.092  -0.012   8.972  0.8687 -0.3824  0.3336
  175SOPE  H14R19902   5.010  -0.060   9.030 -0.9355  2.5926  0.4234
  175SOPE  H14S19903   5.162  -0.094   8.946 -0.2470 -1.1986 -0.1678
  175SOPE  C21519904   5.033   0.036   8.841 -0.4320  0.1361 -0.5939
  175SOPE  H15R19905   4.964   0.122   8.854  1.8244  2.0140 -0.4237
  175SOPE  H15S19906   4.967  -0.044   8.801 -1.8441  1.8876 -1.8795
  175SOPE  C21619907   5.142   0.063   8.730  0.1870 -1.0066  0.2591
  175SOPE  H16R19908   5.194  -0.033   8.711 -1.1797 -1.2489 -2.7838
  175SOPE  H16S19909   5.197   0.146   8.781 -2.6727  1.6184 -0.6287
  175SOPE  C21719910   5.089   0.119   8.601  0.0227 -0.5915 -0.8029
  175SOPE  H17R19911   5.045   0.217   8.630  0.1199 -0.9458  0.5959
  175SOPE  H17S19912   5.005   0.057   8.562 -2.5400  1.7217  0.7183
  175SOPE  C21819913   5.187   0.141   8.494  0.0096  0.2035  0.1898
  175SOPE  H18R19914   5.138   0.168   8.398  0.7653  2.3706  0.3651
  175SOPE  H18S19915   5.260   0.059   8.478  1.5871  0.9247  3.0599
  175SOPE  H18T19916   5.244   0.230   8.529 -0.5193  0.6164  0.0224
  175SOPE   C3319917   5.253  -0.025   9.792  0.2985  0.2971  0.0426
  175SOPE   H3X19918   5.228  -0.083   9.883 -0.4099  1.5536  0.6707
  175SOPE   H3Y19919   5.361  -0.041   9.770 -0.5246 -2.0407 -3.0495
  175SOPE   C3419920   5.156  -0.063   9.684  0.2746  0.8960  0.7867
  175SOPE   H4X19921   5.088   0.025   9.690 -2.1652 -0.8683  0.4852
  175SOPE   H4Y19922   5.093  -0.149   9.715  0.6401  0.2065 -0.3161
  175SOPE   C3519923   5.226  -0.068   9.544  0.3620  0.5242 -0.4139
  175SOPE   H5X19924   5.304   0.010   9.542  2.2092 -1.2364 -0.3718
  175SOPE   H5Y19925   5.161  -0.040   9.458  2.0696  2.5276 -1.1218
  175SOPE   C3619926   5.284  -0.211   9.532  0.0315  0.1392 -0.1043
  175SOPE   H6X19927   5.203  -0.287   9.534 -0.3488  0.4878  3.4806
  175SOPE   H6Y19928   5.346  -0.231   9.622  0.5749 -0.1884 -0.5437
  175SOPE   C3719929   5.363  -0.240   9.406 -0.2260  0.3407  0.4910
  175SOPE   H7X19930   5.410  -0.340   9.420  0.1745  0.3983 -0.3634
  175SOPE   H7Y19931   5.438  -0.160   9.388  0.6265 -0.8546 -1.7141
  175SOPE   C3819932   5.272  -0.247   9.282  0.0580  0.1116  0.3603
  175SOPE   H8X19933   5.335  -0.229   9.192 -0.9455  0.0146 -0.3705
  175SOPE   H8Y19934   5.196  -0.166   9.287 -0.3328 -0.1116 -1.3069
  175SOPE   C3919935   5.195  -0.379   9.271  0.2659 -0.0625  0.5426
  175SOPE   H9X19936   5.147  -0.390   9.370  0.0241 -0.2330  0.4104
  175SOPE   H9Y19937   5.268  -0.461   9.258  0.4749 -0.0653  1.6640
  175SOPE  C31019938   5.094  -0.378   9.156  0.3549 -0.2386 -0.3915
  175SOPE  H10X19939   5.020  -0.296   9.164 -1.2234 -1.2711 -3.0371
  175SOPE  H10Y19940   5.023  -0.463   9.168 -0.8364  0.8358  0.4826
  175SOPE  C31119941   5.149  -0.385   9.013  0.0360 -0.2760  0.1095
  175SOPE  H11X19942   5.208  -0.479   9.011 -0.2637 -0.4488 -2.0332
  175SOPE  H11Y19943   5.233  -0.315   8.995  1.7274 -2.5693 -1.4650
  175SOPE  C31219944   5.053  -0.364   8.893 -0.1015 -0.5704 -0.3466
  175SOPE  H12X19945   4.990  -0.272   8.903  0.7869 -0.0203  0.3370
  175SOPE  H12Y19946   4.986  -0.452   8.885  0.2429 -0.9275  0.5651
  175SOPE  C31319947   5.139  -0.356   8.761  0.8340  0.1068  0.5937
  175SOPE  H13X19948   5.216  -0.436   8.765  1.2350  0.0097 -3.7776
  175SOPE  H13Y19949   5.184  -0.256   8.745  0.4985 -0.0915 -2.2899
  175SOPE  C31419950   5.059  -0.394   8.639  0.3080 -0.0390  0.7643
  175SOPE  H14X19951   5.016  -0.496   8.645  0.8603 -0.2385  1.4004
  175SOPE  H14Y19952   5.129  -0.404   8.553  1.6296  0.4258  1.7474
  175SOPE  C31519953   4.942  -0.300   8.600  0.5216  0.0943 -0.2587
  175SOPE  H15X19954   4.977  -0.197   8.578  1.3649 -0.0008  0.5655
  175SOPE  H15Y19955   4.876  -0.287   8.688  1.0106 -1.0397  0.3004
  175SOPE  C31619956   4.842  -0.326   8.474 -0.5618 -0.5476  0.7112
  175SOPE  H16X19957   4.785  -0.419   8.496  0.1878 -0.5015  3.0193
  175SOPE  H16Y19958   4.912  -0.327   8.387  1.0185  1.6386  1.8753
  175SOPE  C31719959   4.757  -0.204   8.456  0.3784  0.9923  0.1471
  175SOPE  H17X19960   4.830  -0.130   8.417  2.0459 -1.0140 -0.6971
  175SOPE  H17Y19961   4.718  -0.167   8.554 -1.0541  0.3631 -0.1510
  175SOPE  C31819962   4.632  -0.219   8.364  0.3201  0.1929 -0.3649
  175SOPE  H18X19963   4.619  -0.131   8.296  2.1514  0.2674 -0.6717
  175SOPE  H18Y19964   4.547  -0.224   8.435  0.2497  0.3716 -0.4362
  175SOPE  H18Z19965   4.638  -0.314   8.306 -0.7182 -0.8019  1.0849
  176SOPE     N19966   6.204   4.848  11.325 -0.0513  0.1243 -0.4374
  176SOPE   HN119967   6.183   4.944  11.291  0.7901 -0.0951 -1.6308
  176SOPE   HN219968   6.114   4.803  11.349  0.5273 -0.7119  0.2379
  176SOPE   HN319969   6.259   4.849  11.414 -1.7553 -1.1317  0.6887
  176SOPE   C1219970   6.288   4.772  11.224  0.8307  0.3129 -0.1386
  176SOPE  H12A19971   6.340   4.693  11.283 -1.5041 -1.5387 -0.3898
  176SOPE  H12B19972   6.372   4.831  11.182  1.1282 -0.4434 -0.6358
  176SOPE   C1119973   6.217   4.723  11.099  0.2157  0.2093 -0.1605
  176SOPE  H11A19974   6.157   4.638  11.138 -0.1593  1.4596  2.1815
  176SOPE  H11B19975   6.294   4.677  11.033 -1.3735 -0.2766 -1.7550
  176SOPE     P19976   6.162   4.869  10.889 -0.0857 -0.2096 -0.0060
  176SOPE   O1319977   6.276   4.949  10.876  0.2219 -0.2710 -0.1364
  176SOPE   O1419978   6.032   4.929  10.842  0.0084  0.2472  0.1727
  176SOPE   O1219979   6.134   4.829  11.041 -0.0501 -0.0159 -0.0822
  176SOPE   O1119980   6.196   4.731  10.816 -0.2652  0.2648  0.4242
  176SOPE    C119981   6.262   4.722  10.692  0.6941  0.7669  0.4715
  176SOPE    HA19982   6.287   4.615  10.675 -1.1762  0.4060 -0.1812
  176SOPE    HB19983   6.356   4.780  10.701  1.1117 -0.0060  1.3287
  176SOPE    C219984   6.167   4.761  10.568 -0.4695 -0.3906  0.2126
  176SOPE    HS19985   6.214   4.719  10.477  1.8120  1.0198  0.6398
  176SOPE   O2119986   6.142   4.904  10.550 -0.7266 -0.3590  0.1145
  176SOPE   C2119987   6.246   4.965  10.496 -0.5696 -0.1803 -0.2768
  176SOPE   O2219988   6.350   4.917  10.452  0.2888 -0.5657  0.2831
  176SOPE   C2219989   6.218   5.112  10.508  0.8625 -0.2941  0.4872
  176SOPE   H2R19990   6.315   5.167  10.497  1.3979 -1.5027 -1.1916
  176SOPE   H2S19991   6.171   5.129  10.607  0.1839 -1.2351  0.3353
  176SOPE    C319992   6.024   4.708  10.584  0.8313 -0.8132  0.1113
  176SOPE    HX19993   5.972   4.757  10.669 -0.9703 -2.1767 -0.1368
  176SOPE    HY19994   6.018   4.599  10.606 -0.0034 -0.6317  0.8355
  176SOPE   O3119995   5.947   4.733  10.464  0.2439 -0.2231 -0.0664
  176SOPE   C3119996   5.965   4.646  10.363 -0.2101 -0.6099  0.3058
  176SOPE   O3219997   6.035   4.552  10.369 -0.2841  0.4005  0.7064
  176SOPE   C3219998   5.891   4.696  10.234 -0.0394  0.2557 -0.4927
  176SOPE   H2X19999   5.825   4.776  10.274 -0.0230  0.4572 -0.8651
  176SOPE   H2Y20000   5.834   4.617  10.182 -1.0421  0.2523  0.5654
  176SOPE   C2320001   6.131   5.170  10.395  0.3302 -0.8736  0.1459
  176SOPE   H3R20002   6.144   5.280  10.395  0.9343 -0.9402  0.1328
  176SOPE   H3S20003   6.025   5.160  10.424  0.5746  0.9794  1.8524
  176SOPE   C2420004   6.168   5.117  10.257 -0.3792  0.6245  0.7558
  176SOPE   H4R20005   6.278   5.109  10.245 -0.5733 -1.0725 -0.0754
  176SOPE   H4S20006   6.133   5.012  10.248  2.2859 -0.4309  1.7014
  176SOPE   C2520007   6.103   5.204  10.146 -0.9017  0.5445  1.0476
  176SOPE   H5R20008   5.999   5.236  10.169 -1.7721 -1.2864 -0.1071
  176SOPE   H5S20009   6.166   5.295  10.137 -0.4602  0.2350  0.9493
  176SOPE   C2620010   6.098   5.151  10.003 -0.1322 -0.4498 -0.2094
  176SOPE   H6R20011   6.038   5.059  10.016  2.0346 -1.9446 -0.2889
  176SOPE   H6S20012   6.048   5.208   9.921  1.2892 -0.9623 -1.4777
  176SOPE   C2720013   6.245   5.123   9.952 -0.2530  0.0920  0.2719
  176SOPE   H7R20014   6.303   5.215   9.973 -0.9328  1.0516 -1.7231
  176SOPE   H7S20015   6.285   5.036  10.009 -1.7367 -1.1169 -0.4541
  176SOPE   C2820016   6.255   5.104   9.799  0.2346 -1.2351  0.0088
  176SOPE   H8R20017   6.360   5.077   9.776 -0.2237 -1.5815 -1.8558
  176SOPE   H8S20018   6.183   5.022   9.779  0.0255 -0.7882 -1.1232
  176SOPE   C2920019   6.229   5.234   9.732 -0.6602  0.6175 -0.3393
  176SOPE   H9120020   6.276   5.318   9.786 -0.7087  0.8643 -0.6763
  176SOPE  C21020021   6.141   5.261   9.642  0.1740  0.9073  0.1201
  176SOPE  H10120022   6.145   5.365   9.604 -0.3248  1.7581  2.2578
  176SOPE  C21120023   6.030   5.188   9.572  0.1357  0.0057 -0.0892
  176SOPE  H11R20024   5.944   5.231   9.628  0.3644 -1.0632  1.1188
  176SOPE  H11S20025   6.037   5.083   9.605 -0.4370 -0.4470 -1.3328
  176SOPE  C21220026   6.031   5.212   9.424  0.3148 -0.0790  0.2527
  176SOPE  H12R20027   6.042   5.320   9.399  4.4719 -0.5097 -0.4136
  176SOPE  H12S20028   5.936   5.172   9.383 -0.4206  0.4998  1.3258
  176SOPE  C21320029   6.142   5.128   9.364  0.5158  0.3163 -0.4401
  176SOPE  H13R20030   6.110   5.025   9.338  0.7059  0.4435 -1.2023
  176SOPE  H13S20031   6.224   5.114   9.438 -0.8958 -1.2516  0.9231
  176SOPE  C21420032   6.181   5.177   9.227 -0.4912  0.3316  0.7181
  176SOPE  H14R20033   6.092   5.150   9.166  1.5891 -2.4500 -1.3293
  176SOPE  H14S20034   6.265   5.118   9.186 -1.4058 -0.6336  0.1907
  176SOPE  C21520035   6.212   5.326   9.219  0.2997 -0.0497 -0.6188
  176SOPE  H15R20036   6.260   5.368   9.310  0.6589 -1.1511 -0.2841
  176SOPE  H15S20037   6.111   5.368   9.201  0.7440  1.2747 -0.1564
  176SOPE  C21620038   6.284   5.363   9.088 -0.3547  0.0500  0.0879
  176SOPE  H16R20039   6.236   5.297   9.013  0.2229 -0.4143  0.1159
  176SOPE  H16S20040   6.392   5.358   9.115 -0.9119 -0.1878  2.5622
  176SOPE  C21720041   6.245   5.506   9.039 -0.0921  0.3008 -0.2458
  176SOPE  H17R20042   6.329   5.542   8.975 -1.9208  0.7495 -2.5535
  176SOPE  H17S20043   6.231   5.569   9.129 -1.3105  0.0686 -0.2567
  176SOPE  C21820044   6.114   5.514   8.961  0.0236 -0.0391  0.2108
  176SOPE  H18R20045   6.115   5.439   8.880 -1.3634 -1.5222  1.4961
  176SOPE  H18S20046   6.102   5.618   8.922  0.1667 -0.2607 -0.4280
  176SOPE  H18T20047   6.026   5.488   9.024 -1.4903 -2.2093 -2.5928
  176SOPE   C3320048   5.994   4.756  10.135 -0.2581  0.4597  0.7929
  176SOPE   H3X20049   6.070   4.677  10.118 -2.4375 -1.4358 -0.9142
  176SOPE   H3Y20050   6.058   4.838  10.173  0.6211 -0.2988  0.9983
  176SOPE   C3420051   5.929   4.774   9.995 -0.1230 -0.0758 -0.5219
  176SOPE   H4X20052   6.004   4.820   9.927  0.0110  0.1911 -0.1983
  176SOPE   H4Y20053   5.841   4.840  10.009  2.0256  2.8287  0.1710
  176SOPE   C3520054   5.882   4.639   9.921 -0.1563 -1.0888 -0.1122
  176SOPE   H5X20055   5.794   4.590   9.968  0.5210 -0.1986  2.2463
  176SOPE   H5Y20056   5.961   4.561   9.931  1.3083  0.4118  0.3892
  176SOPE   C3620057   5.853   4.657   9.772 -0.3115 -0.1055  0.0361
  176SOPE   H6X20058   5.769   4.729   9.763 -2.0213 -2.1839 -1.6724
  176SOPE   H6Y20059   5.821   4.556   9.740 -2.0016  0.6596 -0.7951
  176SOPE   C3720060   5.978   4.693   9.689  0.0817 -0.1224 -0.0021
  176SOPE   H7X20061   6.069   4.643   9.730  0.3627  0.0675 -0.3870
  176SOPE   H7Y20062   5.991   4.803   9.695  0.3493 -0.1443 -0.1504
  176SOPE   C3820063   5.966   4.660   9.542  0.7297  0.3030  0.0173
  176SOPE   H8X20064   5.907   4.567   9.528  1.4820 -0.2265  0.2743
  176SOPE   H8Y20065   6.066   4.636   9.500  0.7313  1.0618 -0.4221
  176SOPE   C3920066   5.900   4.769   9.458 -0.0574  0.2552 -0.2852
  176SOPE   H9X20067   5.961   4.860   9.441  1.1779 -0.5253 -0.1693
  176SOPE   H9Y20068   5.801   4.783   9.507 -0.7878 -1.7892 -1.0384
  176SOPE  C31020069   5.863   4.726   9.321 -0.3135  0.3506 -0.5921
  176SOPE  H10X20070   5.783   4.651   9.336 -1.0501  1.1298 -0.5459
  176SOPE  H10Y20071   5.945   4.667   9.275  0.5513  0.8290  0.3070
  176SOPE  C31120072   5.798   4.834   9.236  0.5434 -0.3540  0.1807
  176SOPE  H11X20073   5.873   4.912   9.211  1.1182 -1.1064 -0.5179
  176SOPE  H11Y20074   5.726   4.887   9.301  0.7225  1.9655 -1.3827
  176SOPE  C31220075   5.716   4.783   9.114  0.7037 -0.4287  0.6330
  176SOPE  H12X20076   5.679   4.879   9.072 -0.6222 -0.5848  1.3807
  176SOPE  H12Y20077   5.631   4.720   9.147 -0.4215 -0.0776 -1.4267
  176SOPE  C31320078   5.806   4.716   9.019  0.4373 -0.5484 -0.4263
  176SOPE  H13X20079   5.832   4.623   9.073 -0.7958 -0.5245  0.2392
  176SOPE  H13Y20080   5.900   4.774   9.007 -0.5989  0.9292 -2.0285
  176SOPE  C31420081   5.741   4.701   8.883  0.4198  0.0371 -0.5748
  176SOPE  H14X20082   5.751   4.805   8.847 -1.7428 -0.0552 -1.6158
  176SOPE  H14Y20083   5.636   4.669   8.897  0.3366  0.5015 -0.1109
  176SOPE  C31520084   5.815   4.595   8.795  0.5029  0.0135  0.5874
  176SOPE  H15X20085   5.804   4.493   8.836  1.3851 -1.4972 -2.6386
  176SOPE  H15Y20086   5.926   4.606   8.792  0.5013 -0.1132  0.1149
  176SOPE  C31620087   5.748   4.584   8.656  0.0870 -0.0287 -0.4257
  176SOPE  H16X20088   5.638   4.581   8.671 -0.0023 -1.7130 -1.2551
  176SOPE  H16Y20089   5.793   4.488   8.624 -0.2105 -1.5827  3.2827
  176SOPE  C31720090   5.790   4.690   8.553 -0.3979  0.3935 -0.0146
  176SOPE  H17X20091   5.759   4.785   8.601  0.6511  0.2935  0.8904
  176SOPE  H17Y20092   5.729   4.674   8.461  0.7620 -1.9159 -0.4423
  176SOPE  C31820093   5.944   4.710   8.532  0.3166  0.2109  0.1399
  176SOPE  H18X20094   5.977   4.757   8.628 -2.2873 -0.0665  1.2536
  176SOPE  H18Y20095   5.964   4.784   8.452  1.6357 -0.8605 -0.5657
  176SOPE  H18Z20096   6.010   4.621   8.528  1.1376  0.6496  2.2711
  177SOPE     N20097   3.856   4.897  11.226 -0.4461  0.2797  0.3132
  177SOPE   HN120098   3.816   4.847  11.144 -1.0954 -0.3963  1.0224
  177SOPE   HN220099   3.948   4.851  11.237 -0.7061 -0.1044  0.9890
  177SOPE   HN320100   3.795   4.880  11.309 -1.1675  2.1630  0.2137
  177SOPE   C1220101   3.864   5.043  11.196  0.2076 -0.2289  0.3676
  177SOPE  H12A20102   3.892   5.110  11.280  2.4649  1.8882 -1.9352
  177SOPE  H12B20103   3.766   5.072  11.152  0.9446  0.6574 -0.7498
  177SOPE   C1120104   3.958   5.077  11.082  0.6438 -0.5095  0.2223
  177SOPE  H11A20105   3.938   5.181  11.048  2.6642 -0.4329 -0.8599
  177SOPE  H11B20106   3.929   5.008  11.000 -2.4021  0.1288  0.6376
  177SOPE     P20107   4.194   4.956  11.124  0.0797  0.1767  0.2560
  177SOPE   O1320108   4.117   4.828  11.098 -0.2212 -0.4925  0.2553
  177SOPE   O1420109   4.279   4.977  11.246 -0.2091  0.8252  0.1709
  177SOPE   O1220110   4.095   5.076  11.125 -0.1389 -0.0220 -0.3209
  177SOPE   O1120111   4.281   4.989  10.993 -0.0970  0.1583 -0.0257
  177SOPE    C120112   4.213   5.052  10.882 -0.9381 -0.0778 -0.4144
  177SOPE    HA20113   4.180   5.155  10.906 -2.2378 -0.7414  0.8444
  177SOPE    HB20114   4.124   4.988  10.862 -0.2834 -0.9292 -0.6697
  177SOPE    C220115   4.295   5.076  10.753  0.2440 -0.3460 -0.2279
  177SOPE    HS20116   4.269   5.178  10.716 -1.2610 -0.4043  0.5837
  177SOPE   O2120117   4.256   4.966  10.666 -0.1730 -0.0344 -0.0750
  177SOPE   C2120118   4.159   4.992  10.594  0.4877  0.2945 -0.2615
  177SOPE   O2220119   4.098   5.096  10.584  0.0610 -0.0948 -0.3563
  177SOPE   C2220120   4.134   4.863  10.504 -0.2732 -0.5665  0.0448
  177SOPE   H2R20121   4.114   4.782  10.577 -0.2080 -2.1798 -1.6362
  177SOPE   H2S20122   4.235   4.846  10.462 -0.3788 -0.1252 -0.4032
  177SOPE    C320123   4.446   5.075  10.788  0.1450  0.1998 -0.6011
  177SOPE    HX20124   4.462   4.981  10.845 -0.1208 -0.0795 -0.9891
  177SOPE    HY20125   4.469   5.162  10.853 -0.3882 -0.0895 -0.0079
  177SOPE   O3120126   4.519   5.099  10.666 -0.7237  0.0966 -0.3776
  177SOPE   C3120127   4.565   4.986  10.609 -0.2392  0.3757 -0.0841
  177SOPE   O3220128   4.550   4.877  10.657 -0.1820  0.3881  0.4720
  177SOPE   C3220129   4.636   5.014  10.478 -0.0344 -0.0799 -0.5537
  177SOPE   H2X20130   4.727   4.951  10.477 -0.4682 -0.8588  1.7205
  177SOPE   H2Y20131   4.669   5.120  10.475  1.3853 -0.5123 -1.0330
  177SOPE   C2320132   4.023   4.871  10.394  0.3614  0.1907 -0.2616
  177SOPE   H3R20133   4.036   4.961  10.330 -0.1553  0.9076  0.6248
  177SOPE   H3S20134   3.925   4.892  10.442  1.0820  0.4663  1.1389
  177SOPE   C2420135   4.014   4.737  10.325  0.6589 -0.4662 -0.3342
  177SOPE   H4R20136   4.107   4.724  10.266 -1.6403 -0.0880 -4.3497
  177SOPE   H4S20137   4.015   4.653  10.397 -3.1644  0.2402  0.7777
  177SOPE   C2520138   3.887   4.726  10.241 -0.2839 -0.0379 -0.2642
  177SOPE   H5R20139   3.798   4.746  10.304 -0.3203  2.3720 -0.9802
  177SOPE   H5S20140   3.885   4.799  10.157 -4.9733 -0.8546 -1.1191
  177SOPE   C2620141   3.862   4.589  10.174  0.0942  0.0035  0.3042
  177SOPE   H6R20142   3.955   4.573  10.115 -0.2549 -2.3267  0.2889
  177SOPE   H6S20143   3.840   4.507  10.246  0.6126 -3.5551 -3.2162
  177SOPE   C2720144   3.743   4.587  10.078 -0.1124 -0.8172  0.3492
  177SOPE   H7R20145   3.656   4.577  10.145 -0.2988 -0.3768  0.1737
  177SOPE   H7S20146   3.725   4.678  10.016  0.5061 -0.8258  0.1458
  177SOPE   C2820147   3.736   4.462   9.981  0.3943 -0.7398 -0.2340
  177SOPE   H8R20148   3.729   4.371  10.044 -0.2456 -0.8506 -0.4561
  177SOPE   H8S20149   3.642   4.473   9.923  0.0085  0.8614  0.6224
  177SOPE   C2920150   3.857   4.445   9.885 -0.0148 -0.8746 -0.3269
  177SOPE   H9120151   3.938   4.390   9.936  0.5230  0.5357  0.4002
  177SOPE  C21020152   3.873   4.501   9.764 -0.3766 -0.4648 -0.5008
  177SOPE  H10120153   3.965   4.481   9.706  0.2510 -1.4882  0.7993
  177SOPE  C21120154   3.763   4.582   9.696 -0.6081  0.5369  0.0945
  177SOPE  H11R20155   3.812   4.646   9.620 -1.5444  0.1628 -0.8380
  177SOPE  H11S20156   3.705   4.638   9.773  1.8902  0.3678  2.2543
  177SOPE  C21220157   3.663   4.497   9.625 -0.1279 -0.6561  0.1819
  177SOPE  H12R20158   3.581   4.570   9.607 -0.2884 -1.2177 -1.6035
  177SOPE  H12S20159   3.634   4.418   9.697  1.5758 -3.5319 -2.0759
  177SOPE  C21320160   3.711   4.429   9.494 -0.3959  0.4909 -0.5898
  177SOPE  H13R20161   3.634   4.358   9.457  0.8468 -0.0283 -2.2946
  177SOPE  H13S20162   3.792   4.362   9.529  0.0469  1.2009 -0.2373
  177SOPE  C21420163   3.740   4.534   9.386  0.6977 -0.3480 -0.7940
  177SOPE  H14R20164   3.817   4.611   9.411  0.0547 -0.2948  1.1974
  177SOPE  H14S20165   3.644   4.590   9.378 -1.2378 -3.5675 -2.5618
  177SOPE  C21520166   3.765   4.466   9.249 -0.1630 -0.8904 -0.5398
  177SOPE  H15R20167   3.775   4.544   9.170  2.1720  3.5454  3.5860
  177SOPE  H15S20168   3.676   4.407   9.218 -1.3935 -0.4836  2.0156
  177SOPE  C21620169   3.889   4.374   9.261 -0.1693  0.1296  0.2147
  177SOPE  H16R20170   3.867   4.277   9.312  0.3810  0.7944  1.7619
  177SOPE  H16S20171   3.968   4.420   9.325 -2.4083  0.4991  2.8934
  177SOPE  C21720172   3.956   4.345   9.126 -0.5691 -0.0194  0.1793
  177SOPE  H17R20173   4.044   4.283   9.152 -0.9289 -0.2644  0.8481
  177SOPE  H17S20174   3.987   4.433   9.066 -0.3099 -0.3431 -0.1622
  177SOPE  C21820175   3.862   4.258   9.043  0.4788 -0.0958  0.7500
  177SOPE  H18R20176   3.774   4.319   9.013 -0.5362 -0.6143  2.5468
  177SOPE  H18S20177   3.829   4.166   9.097  1.5572 -0.4409  0.8411
  177SOPE  H18T20178   3.916   4.218   8.955 -2.6208  0.0000 -1.3658
  177SOPE   C3320179   4.547   4.974  10.356  0.5887  0.0498  0.4206
  177SOPE   H3X20180   4.506   4.870  10.360  2.3894 -0.7073  0.3121
  177SOPE   H3Y20181   4.614   4.983  10.267 -0.0860 -4.2632 -0.7568
  177SOPE   C3420182   4.439   5.081  10.344  0.5110 -0.2227 -0.5631
  177SOPE   H4X20183   4.485   5.182  10.338  0.7983 -0.3047  0.0818
  177SOPE   H4Y20184   4.382   5.083  10.440  3.2877 -0.9764  1.2418
  177SOPE   C3520185   4.335   5.060  10.230 -0.0277  0.2404 -0.4422
  177SOPE   H5X20186   4.271   4.970  10.244  2.1666 -1.4583 -0.7552
  177SOPE   H5Y20187   4.402   5.054  10.141  1.9457  0.1933  0.9683
  177SOPE   C3620188   4.235   5.181  10.222 -0.0611 -0.0942 -0.6204
  177SOPE   H6X20189   4.288   5.278  10.231 -1.5192  0.7525 -0.8230
  177SOPE   H6Y20190   4.166   5.175  10.309 -3.3847 -0.0644 -3.0416
  177SOPE   C3720191   4.150   5.183  10.092  0.2388  0.5640 -0.0722
  177SOPE   H7X20192   4.213   5.207  10.004 -1.2965 -1.3510 -1.7750
  177SOPE   H7Y20193   4.077   5.266  10.092  0.9791  1.4000 -3.8798
  177SOPE   C3820194   4.072   5.054  10.058 -0.0898  0.0329  0.8741
  177SOPE   H8X20195   4.008   5.020  10.142  1.6809 -0.4654  2.0981
  177SOPE   H8Y20196   4.142   4.973  10.028  0.0190  1.1864 -2.3633
  177SOPE   C3920197   3.992   5.080   9.925  0.1658 -0.3738  0.1164
  177SOPE   H9X20198   4.062   5.104   9.842 -0.5179  0.6017 -0.1958
  177SOPE   H9Y20199   3.918   5.162   9.939 -0.4745 -0.1522 -3.5435
  177SOPE  C31020200   3.898   4.968   9.873  0.3949 -0.8138 -0.2644
  177SOPE  H10X20201   3.835   4.935   9.959 -4.0759  3.3588 -1.5071
  177SOPE  H10Y20202   3.958   4.879   9.845  3.2266  1.2059 -1.0436
  177SOPE  C31120203   3.812   5.005   9.751  0.0342 -0.1559  0.7287
  177SOPE  H11X20204   3.756   5.099   9.768  0.4982  0.4533 -0.8385
  177SOPE  H11Y20205   3.738   4.925   9.730 -0.0874  0.6013 -2.1406
  177SOPE  C31220206   3.898   5.020   9.621  0.3561  1.2632 -0.4315
  177SOPE  H12X20207   3.950   4.923   9.608 -2.5853 -0.2055 -2.3217
  177SOPE  H12Y20208   3.987   5.085   9.639  1.0361  0.0849  0.5418
  177SOPE  C31320209   3.818   5.054   9.495  0.2680  0.4569  0.2375
  177SOPE  H13X20210   3.774   5.154   9.515 -2.4481 -0.6387  0.0885
  177SOPE  H13Y20211   3.726   4.993   9.486 -0.4385  1.7338 -1.9985
  177SOPE  C31420212   3.897   5.053   9.363  0.1444 -0.5656  0.4285
  177SOPE  H14X20213   3.986   5.119   9.372  0.5071  0.2708 -5.3768
  177SOPE  H14Y20214   3.829   5.114   9.299  1.0302  0.1912  0.1894
  177SOPE  C31520215   3.933   4.922   9.299  0.8539 -0.5615  0.1644
  177SOPE  H15X20216   3.851   4.854   9.330  0.8627 -0.4590  0.4177
  177SOPE  H15Y20217   4.033   4.904   9.344  1.6911  2.1072 -0.4733
  177SOPE  C31620218   3.928   4.943   9.149 -0.3221 -0.8165  0.7739
  177SOPE  H16X20219   4.022   4.990   9.113 -1.2070  1.1589  0.9348
  177SOPE  H16Y20220   3.854   5.022   9.124  0.1503 -0.5891  0.0690
  177SOPE  C31720221   3.915   4.805   9.068 -0.5641 -0.4331 -0.0109
  177SOPE  H17X20222   3.822   4.761   9.110  1.0889 -2.7805  1.4007
  177SOPE  H17Y20223   3.998   4.739   9.103  0.0744  1.7362  3.0195
  177SOPE  C31820224   3.923   4.846   8.922 -0.5228 -0.4224 -0.3813
  177SOPE  H18X20225   3.832   4.901   8.888 -0.4984 -0.0701  0.1141
  177SOPE  H18Y20226   3.931   4.754   8.861 -1.4527 -0.9193  0.2120
  177SOPE  H18Z20227   4.020   4.898   8.906 -1.0991  1.1612  0.9469
  178SOPE     N20228   1.587   3.525  10.425 -0.5099  0.1884  1.3795
  178SOPE   HN120229   1.657   3.533  10.348 -2.6108  2.5386 -0.4849
  178SOPE   HN220230   1.587   3.424  10.450  0.3844  0.1310  1.1896
  178SOPE   HN320231   1.488   3.544  10.399 -0.6448 -0.6316  1.2820
  178SOPE   C1220232   1.620   3.612  10.540  0.4791  0.3323 -0.1192
  178SOPE  H12A20233   1.534   3.611  10.610  1.1684 -0.1580  0.7604
  178SOPE  H12B20234   1.653   3.715  10.516 -1.2267  0.9061 -0.1312
  178SOPE   C1120235   1.742   3.540  10.604  0.1767  0.4623  0.0737
  178SOPE  H11A20236   1.713   3.436  10.630 -0.2428 -0.2480 -2.8148
  178SOPE  H11B20237   1.758   3.609  10.689  3.4027 -0.6487  0.5048
  178SOPE     P20238   1.989   3.597  10.557 -0.6808  0.1434 -0.0138
  178SOPE   O1320239   1.983   3.652  10.694 -0.7781  0.0111 -0.3287
  178SOPE   O1420240   2.017   3.695  10.451 -0.3882  0.5045  0.3361
  178SOPE   O1220241   1.852   3.529  10.519  0.3057  0.1800  0.8203
  178SOPE   O1120242   2.091   3.479  10.557 -0.1126  0.4464  0.2674
  178SOPE    C120243   2.076   3.354  10.489  0.7734  0.0311  0.1416
  178SOPE    HA20244   1.996   3.289  10.530  0.1245 -1.5767 -3.2743
  178SOPE    HB20245   2.165   3.293  10.516 -1.6379 -3.7210  0.4237
  178SOPE    C220246   2.079   3.372  10.333 -0.0209  0.2180  0.1445
  178SOPE    HS20247   1.989   3.426  10.297 -0.0770  0.1464  0.1787
  178SOPE   O2120248   2.091   3.244  10.259  0.5271  0.3306 -0.8665
  178SOPE   C2120249   1.989   3.162  10.268  0.0771 -0.4010  0.5816
  178SOPE   O2220250   1.879   3.182  10.316 -0.1037 -0.1394  0.5777
  178SOPE   C2220251   2.027   3.035  10.203 -0.6832 -0.4303 -0.6102
  178SOPE   H2R20252   1.952   2.957  10.229 -0.6309 -0.8994 -1.8184
  178SOPE   H2S20253   2.124   3.005  10.249 -0.7940  1.8470  1.3190
  178SOPE    C320254   2.203   3.454  10.287 -0.9503  0.3093 -0.8456
  178SOPE    HX20255   2.293   3.404  10.329 -1.1659 -0.3742 -1.1693
  178SOPE    HY20256   2.193   3.555  10.330  0.1360  0.9200 -1.9535
  178SOPE   O3120257   2.223   3.463  10.146 -0.1288  0.0455  0.1044
  178SOPE   C3120258   2.134   3.516  10.080  0.4958  0.4275  0.3289
  178SOPE   O3220259   2.031   3.577  10.118  0.0849 -0.5023  0.0570
  178SOPE   C3220260   2.163   3.476   9.927  0.2906  0.1647 -0.5493
  178SOPE   H2X20261   2.188   3.368   9.936 -1.4796 -0.1574  1.1022
  178SOPE   H2Y20262   2.255   3.534   9.902 -0.0403  1.0980  0.3330
  178SOPE   C2320263   2.044   3.056  10.051  0.9213  0.0653  0.1480
  178SOPE   H3R20264   2.147   3.016  10.037  1.1613  1.1148 -1.3617
  178SOPE   H3S20265   2.059   3.161  10.019 -0.1810 -0.0336 -0.7906
  178SOPE   C2420266   1.943   2.986   9.958  0.0392  0.7343  0.1368
  178SOPE   H4R20267   1.949   2.881   9.995 -0.0133 -0.2850 -2.4771
  178SOPE   H4S20268   1.840   3.021   9.979  0.3240 -0.0005  3.2291
  178SOPE   C2520269   1.972   3.020   9.811 -0.5222  0.2102 -0.4733
  178SOPE   H5R20270   1.954   3.126   9.783  2.9774  0.3083 -2.9421
  178SOPE   H5S20271   2.077   3.000   9.783 -0.3105  0.3135  0.2109
  178SOPE   C2620272   1.883   2.936   9.726  0.1164  0.1045  1.0338
  178SOPE   H6R20273   1.887   2.835   9.771  1.2356  0.3590  1.5550
  178SOPE   H6S20274   1.779   2.973   9.742  0.2566  0.0494  2.1976
  178SOPE   C2720275   1.930   2.929   9.585  0.2829  0.2321  0.3672
  178SOPE   H7R20276   1.941   3.031   9.542  0.8932 -0.8358 -2.1628
  178SOPE   H7S20277   2.037   2.900   9.585  0.3600  0.4784  1.4804
  178SOPE   C2820278   1.846   2.849   9.490  0.1303 -0.2634  0.0700
  178SOPE   H8R20279   1.748   2.899   9.504  0.7396  1.0033 -0.1050
  178SOPE   H8S20280   1.872   2.871   9.385  1.5588  0.6017  0.5746
  178SOPE   C2920281   1.835   2.703   9.522  0.0834 -0.2310 -0.2670
  178SOPE   H9120282   1.769   2.672   9.605 -0.5633 -1.5437 -1.2399
  178SOPE  C21020283   1.884   2.597   9.453  0.2566 -0.2033  0.5242
  178SOPE  H10120284   1.862   2.496   9.491 -0.8570 -0.6393 -1.1846
  178SOPE  C21120285   1.948   2.599   9.317  0.2355 -0.0540  0.0574
  178SOPE  H11R20286   2.032   2.527   9.314  0.1872 -0.0860 -1.9677
  178SOPE  H11S20287   2.001   2.694   9.294 -0.7197 -0.1457 -2.9279
  178SOPE  C21220288   1.856   2.591   9.189  0.7823  0.2307  1.6974
  178SOPE  H12R20289   1.809   2.490   9.185 -1.1373  1.0980 -0.2814
  178SOPE  H12S20290   1.930   2.597   9.106  0.1034 -2.2506  0.8051
  178SOPE  C21320291   1.743   2.699   9.195 -0.3285  0.4249  0.0002
  178SOPE  H13R20292   1.786   2.797   9.227  1.7895 -0.9737  1.7500
  178SOPE  H13S20293   1.672   2.665   9.273 -0.6088 -1.5942 -1.0757
  178SOPE  C21420294   1.676   2.715   9.053 -0.3457 -0.1152 -0.1581
  178SOPE  H14R20295   1.763   2.747   8.992 -0.2573  0.2310  0.1443
  178SOPE  H14S20296   1.611   2.805   9.054  0.4714  0.4946 -0.7430
  178SOPE  C21520297   1.608   2.586   8.996  0.5333 -0.2508  0.0213
  178SOPE  H15R20298   1.520   2.568   9.062  0.7767  1.8923  1.0215
  178SOPE  H15S20299   1.670   2.494   9.004  0.7849 -0.1604 -0.7840
  178SOPE  C21620300   1.598   2.603   8.850 -0.0610 -0.0900  0.6003
  178SOPE  H16R20301   1.695   2.626   8.800 -0.9123  2.3623 -0.0600
  178SOPE  H16S20302   1.534   2.694   8.844 -0.9618 -0.7135  0.5568
  178SOPE  C21720303   1.533   2.477   8.781  0.4494  0.6105 -0.1117
  178SOPE  H17R20304   1.445   2.439   8.836  0.5445 -1.0477 -1.0381
  178SOPE  H17S20305   1.605   2.393   8.784  1.6385  1.6179  0.5968
  178SOPE  C21820306   1.483   2.504   8.638  0.2088  0.5129  0.7899
  178SOPE  H18R20307   1.452   2.406   8.594 -0.6437  0.5278  1.3205
  178SOPE  H18S20308   1.570   2.535   8.577 -0.6962 -0.8134 -1.3112
  178SOPE  H18T20309   1.399   2.576   8.627 -0.2984 -0.1682  0.0512
  178SOPE   C3320310   2.047   3.510   9.828 -0.2138 -0.2094  0.6719
  178SOPE   H3X20311   2.021   3.618   9.827 -0.8230 -0.2869 -2.2620
  178SOPE   H3Y20312   1.960   3.443   9.846  0.4937 -2.0200 -2.0148
  178SOPE   C3420313   2.087   3.490   9.683 -0.5108  0.3472  0.1022
  178SOPE   H4X20314   2.136   3.391   9.686  1.4515  1.2974  1.6680
  178SOPE   H4Y20315   2.154   3.568   9.641 -1.5640 -0.7139 -3.9760
  178SOPE   C3520316   1.964   3.485   9.582  0.6653  0.3508 -0.1669
  178SOPE   H5X20317   1.962   3.562   9.503 -2.7436  1.1928  0.5638
  178SOPE   H5Y20318   1.872   3.500   9.643  1.5199  1.0250  0.9875
  178SOPE   C3620319   1.950   3.358   9.513 -0.4298  0.1661  0.2164
  178SOPE   H6X20320   1.846   3.340   9.478 -0.7787 -4.6415  2.7192
  178SOPE   H6Y20321   1.966   3.268   9.577  1.8039  0.0605 -0.4048
  178SOPE   C3720322   2.047   3.355   9.391 -0.2106  0.0034 -0.1936
  178SOPE   H7X20323   2.153   3.373   9.421 -0.0803  1.8554 -1.6077
  178SOPE   H7Y20324   2.021   3.448   9.335  0.0142  0.5221  0.5477
  178SOPE   C3820325   2.046   3.223   9.307  0.9149 -0.5308 -0.9161
  178SOPE   H8X20326   2.064   3.137   9.375 -2.3988 -3.1211 -2.9816
  178SOPE   H8Y20327   2.128   3.224   9.232 -1.2203 -0.1572 -3.3817
  178SOPE   C3920328   1.917   3.213   9.221 -0.2604 -0.3146 -0.2518
  178SOPE   H9X20329   1.907   3.296   9.149  1.4044  0.9034  0.8606
  178SOPE   H9Y20330   1.827   3.218   9.286  0.1789  1.0212  0.2652
  178SOPE  C31020331   1.906   3.088   9.124  0.4000 -0.2675 -0.8874
  178SOPE  H10X20332   1.831   3.110   9.046 -2.3054  0.3571  1.7246
  178SOPE  H10Y20333   1.851   3.004   9.171 -0.5372  0.6703 -0.2641
  178SOPE  C31120334   2.042   3.033   9.076 -0.2460  0.1793  0.5635
  178SOPE  H11X20335   2.098   3.014   9.170  0.5871  0.4114  0.1246
  178SOPE  H11Y20336   2.097   3.109   9.016  0.7334 -1.4846 -0.7065
  178SOPE  C31220337   2.032   2.906   9.000 -0.3432  0.5539  0.1810
  178SOPE  H12X20338   1.961   2.911   8.916  2.6412  0.3163 -2.5526
  178SOPE  H12Y20339   2.002   2.829   9.074 -0.2328  1.6712  1.4239
  178SOPE  C31320340   2.168   2.871   8.933 -0.3493  0.5384  0.1332
  178SOPE  H13X20341   2.164   2.768   8.893 -1.7495  0.5046  0.3306
  178SOPE  H13Y20342   2.251   2.867   9.007 -0.7531 -1.8355  0.5296
  178SOPE  C31420343   2.214   2.967   8.823 -0.6943 -0.3965 -0.1862
  178SOPE  H14X20344   2.242   3.067   8.861 -2.1890  0.1693 -0.5046
  178SOPE  H14Y20345   2.135   2.996   8.751  0.8909 -0.0051 -1.8620
  178SOPE  C31520346   2.321   2.919   8.733 -0.3544  0.2256  0.2659
  178SOPE  H15X20347   2.399   2.852   8.774  1.0791  1.1487 -0.8583
  178SOPE  H15Y20348   2.370   2.997   8.670  1.2742 -1.4015 -0.5637
  178SOPE  C31620349   2.257   2.833   8.627  0.6684 -0.3920  0.8308
  178SOPE  H16X20350   2.168   2.889   8.590 -1.0459 -1.4559  3.1096
  178SOPE  H16Y20351   2.217   2.738   8.669 -1.9144 -0.8213 -2.2283
  178SOPE  C31720352   2.341   2.802   8.500 -0.5114 -0.4158 -0.4047
  178SOPE  H17X20353   2.295   2.713   8.453  1.2957 -2.5840  1.7261
  178SOPE  H17Y20354   2.444   2.769   8.528 -1.0300 -1.3120  0.5137
  178SOPE  C31820355   2.344   2.909   8.396 -0.0210  0.4557  0.3666
  178SOPE  H18X20356   2.378   3.006   8.438  1.1616  0.1961  0.0401
  178SOPE  H18Y20357   2.247   2.926   8.344 -0.3184 -2.2509 -0.1284
  178SOPE  H18Z20358   2.421   2.889   8.318 -0.3853 -0.8210  0.3030
  179SOPE     N20359   0.392   3.751   6.267  0.2922  0.3982  0.0794
  179SOPE   HN120360   0.404   3.681   6.342 -0.1063  1.6067  1.3242
  179SOPE   HN220361   0.433   3.840   6.304  1.7603  0.0251 -0.5817
  179SOPE   HN320362   0.289   3.762   6.258 -0.4851 -3.8059  1.7881
  179SOPE   C1220363   0.479   3.722   6.153 -0.7345 -0.4101 -0.2336
  179SOPE  H12A20364   0.514   3.823   6.122 -1.8729 -0.3665 -1.4421
  179SOPE  H12B20365   0.411   3.683   6.074 -0.5957 -0.3751 -0.3722
  179SOPE   C1120366   0.598   3.626   6.178 -0.0784  0.6426 -0.0758
  179SOPE  H11A20367   0.664   3.633   6.089 -1.4045 -1.1865 -1.2856
  179SOPE  H11B20368   0.561   3.521   6.180  2.1770 -0.2005 -0.2092
  179SOPE     P20369   0.658   3.570   6.425  0.2415 -0.1084 -0.2029
  179SOPE   O1320370   0.746   3.454   6.418 -0.0451  0.2779 -0.1473
  179SOPE   O1420371   0.511   3.542   6.440 -0.0686  0.2013  0.0877
  179SOPE   O1220372   0.670   3.668   6.293  0.1254 -0.1586 -0.4389
  179SOPE   O1120373   0.695   3.665   6.550 -0.3964  0.3278  0.1434
  179SOPE    C120374   0.799   3.767   6.541  0.1270 -0.0400 -0.9580
  179SOPE    HA20375   0.766   3.837   6.462 -1.1066  1.1339  0.5199
  179SOPE    HB20376   0.897   3.720   6.516  1.4353  1.4650  0.9465
  179SOPE    C220377   0.809   3.854   6.670  0.3819 -0.4569  0.2518
  179SOPE    HS20378   0.914   3.892   6.675  0.1844  0.1845 -0.3045
  179SOPE   O2120379   0.786   3.768   6.780 -0.3923  0.2368  0.0840
  179SOPE   C2120380   0.861   3.667   6.802  0.1151  0.0886 -0.6601
  179SOPE   O2220381   0.969   3.650   6.751 -0.6068 -0.1427 -0.6452
  179SOPE   C2220382   0.786   3.571   6.887  0.3034 -0.0719  0.1690
  179SOPE   H2R20383   0.848   3.479   6.893 -1.3810 -1.3565 -1.0236
  179SOPE   H2S20384   0.694   3.540   6.832  0.7624  0.5502 -0.9730
  179SOPE    C320385   0.721   3.976   6.663  0.1936 -0.3959  0.0767
  179SOPE    HX20386   0.614   3.952   6.651 -0.1601  1.6988 -1.5767
  179SOPE    HY20387   0.749   4.036   6.574  0.9441 -0.6847  0.1079
  179SOPE   O3120388   0.740   4.065   6.775 -0.5423  0.4372 -0.3881
  179SOPE   C3120389   0.652   4.066   6.869  0.0085  0.3045 -0.8564
  179SOPE   O3220390   0.554   3.997   6.867 -0.3071 -0.2268  0.0252
  179SOPE   C3220391   0.705   4.156   6.985 -0.1487  0.2822 -0.7576
  179SOPE   H2X20392   0.619   4.211   7.029  0.0587  2.6667 -3.0807
  179SOPE   H2Y20393   0.785   4.221   6.943  0.3991 -0.4377 -0.8444
  179SOPE   C2320394   0.756   3.623   7.032 -0.0456  0.1174 -0.2309
  179SOPE   H3R20395   0.713   3.538   7.089  0.0705  2.2024  3.2555
  179SOPE   H3S20396   0.683   3.706   7.042  1.9831  2.3139 -2.4332
  179SOPE   C2420397   0.888   3.671   7.097 -0.4184 -0.0059  0.3275
  179SOPE   H4R20398   0.978   3.609   7.080  1.1280  1.9280  1.0569
  179SOPE   H4S20399   0.908   3.769   7.048 -0.7228 -0.6731 -1.1879
  179SOPE   C2520400   0.889   3.680   7.250 -0.3058 -0.1067 -0.3091
  179SOPE   H5R20401   0.824   3.765   7.279  0.1242 -0.9078  3.5555
  179SOPE   H5S20402   0.845   3.584   7.284 -2.6119  0.5982 -1.0840
  179SOPE   C2620403   1.028   3.703   7.313 -0.1665 -0.4846  0.3212
  179SOPE   H6R20404   1.108   3.657   7.252 -1.2342  2.2279 -3.4677
  179SOPE   H6S20405   1.055   3.811   7.314 -0.3020 -0.4524  0.7159
  179SOPE   C2720406   1.032   3.649   7.452 -0.3732  0.3313 -0.3754
  179SOPE   H7R20407   0.938   3.679   7.503 -0.0843  0.0378  0.3437
  179SOPE   H7S20408   1.039   3.538   7.450  3.8655  0.3642  1.6600
  179SOPE   C2820409   1.140   3.714   7.543 -1.0650  0.0909 -0.1478
  179SOPE   H8R20410   1.120   3.823   7.550  1.0046  0.4619  0.8394
  179SOPE   H8S20411   1.136   3.660   7.640  0.2790 -0.9382 -0.6250
  179SOPE   C2920412   1.279   3.698   7.482 -0.3652  0.0552  0.0212
  179SOPE   H9120413   1.300   3.760   7.394 -1.8020 -1.0845 -1.1816
  179SOPE  C21020414   1.376   3.615   7.515 -0.2619 -0.1752  0.4456
  179SOPE  H10120415   1.473   3.635   7.468 -0.6806  0.7914 -0.0321
  179SOPE  C21120416   1.368   3.516   7.627 -0.2509  0.6409  0.0309
  179SOPE  H11R20417   1.298   3.547   7.708 -2.0765 -3.0096  0.0213
  179SOPE  H11S20418   1.467   3.516   7.679 -1.1625  1.3016  1.8698
  179SOPE  C21220419   1.330   3.373   7.587 -0.3692  0.0467 -0.1084
  179SOPE  H12R20420   1.405   3.337   7.513 -0.4515 -2.4249  0.9315
  179SOPE  H12S20421   1.234   3.378   7.533 -0.8353  2.6450  0.8058
  179SOPE  C21320422   1.327   3.284   7.719 -0.1314 -0.3428  0.0573
  179SOPE  H13R20423   1.407   3.314   7.789 -0.2213 -0.5223  0.2354
  179SOPE  H13S20424   1.336   3.180   7.682  0.0780 -0.1067 -0.5774
  179SOPE  C21420425   1.192   3.301   7.796 -0.4892 -0.5695  0.5833
  179SOPE  H14R20426   1.139   3.203   7.801  0.3239 -1.0479  0.1219
  179SOPE  H14S20427   1.127   3.358   7.726 -0.1048  0.9575  1.4317
  179SOPE  C21520428   1.206   3.351   7.938 -0.1925  0.1969  0.1730
  179SOPE  H15R20429   1.257   3.450   7.929 -0.8883  0.4073 -1.8213
  179SOPE  H15S20430   1.281   3.299   8.001  1.3928  1.3744 -0.6455
  179SOPE  C21620431   1.074   3.376   8.003  0.1171 -0.0506 -0.0352
  179SOPE  H16R20432   1.012   3.285   8.017 -2.0161  0.8777 -2.6316
  179SOPE  H16S20433   1.010   3.446   7.944  0.2201 -0.4768 -0.6612
  179SOPE  C21720434   1.097   3.435   8.144  0.0268 -0.0233  0.3255
  179SOPE  H17R20435   1.158   3.526   8.127  1.0002 -1.2847 -4.2235
  179SOPE  H17S20436   1.145   3.364   8.214 -2.2376 -0.5939  1.4217
  179SOPE  C21820437   0.968   3.470   8.213 -0.5094 -0.4612 -0.3101
  179SOPE  H18R20438   0.989   3.502   8.317  0.2814 -2.0424  0.0508
  179SOPE  H18S20439   0.907   3.378   8.221 -0.7936 -0.3311 -0.9006
  179SOPE  H18T20440   0.900   3.544   8.165  2.5201  2.5088 -0.3536
  179SOPE   C3320441   0.759   4.072   7.098  0.0760 -0.7346  0.0062
  179SOPE   H3X20442   0.858   4.026   7.079  1.3896  1.6157  0.8109
  179SOPE   H3Y20443   0.676   4.001   7.119 -1.2198  0.3190 -1.3394
  179SOPE   C3420444   0.773   4.161   7.229  0.0702 -0.4807  0.2990
  179SOPE   H4X20445   0.713   4.254   7.223 -1.0650 -1.2894 -4.9802
  179SOPE   H4Y20446   0.881   4.188   7.241  0.8447 -2.5865 -1.4412
  179SOPE   C3520447   0.718   4.085   7.347  0.0723  0.7444 -0.1435
  179SOPE   H5X20448   0.779   3.992   7.348  0.3278  0.9177  0.4164
  179SOPE   H5Y20449   0.610   4.069   7.325  0.4970 -0.4268 -1.5922
  179SOPE   C3620450   0.749   4.153   7.482 -0.5909 -0.4955  0.7039
  179SOPE   H6X20451   0.689   4.097   7.556  0.5725 -3.4850 -0.4365
  179SOPE   H6Y20452   0.716   4.258   7.471 -0.4939 -0.0393  3.8702
  179SOPE   C3720453   0.897   4.138   7.519 -0.8279  0.7179  0.3536
  179SOPE   H7X20454   0.966   4.167   7.438  0.4031  0.8779  1.4259
  179SOPE   H7Y20455   0.910   4.032   7.549 -3.3965  0.0161 -0.7360
  179SOPE   C3820456   0.918   4.231   7.640  0.2304 -0.5499 -0.0562
  179SOPE   H8X20457   0.890   4.334   7.609 -1.9116 -0.2416  2.5519
  179SOPE   H8Y20458   1.027   4.232   7.662  0.4632  1.9345 -0.9586
  179SOPE   C3920459   0.824   4.205   7.761 -0.0697  0.6778  0.2562
  179SOPE   H9X20460   0.792   4.099   7.763  2.7695 -0.2850 -0.7980
  179SOPE   H9Y20461   0.731   4.265   7.755 -1.9292 -1.9235  1.2154
  179SOPE  C31020462   0.897   4.243   7.897  0.1896 -0.3417  0.1416
  179SOPE  H10X20463   0.951   4.337   7.874 -0.9431  0.4125  0.4852
  179SOPE  H10Y20464   0.977   4.170   7.922  0.7458  0.3016  0.3036
  179SOPE  C31120465   0.799   4.258   8.015 -0.3911  0.4778  0.5277
  179SOPE  H11X20466   0.798   4.170   8.083 -0.5126  1.9180  2.4787
  179SOPE  H11Y20467   0.698   4.279   7.975 -0.4823 -1.0329 -0.1026
  179SOPE  C31220468   0.843   4.362   8.122 -0.2660  0.1116 -0.1182
  179SOPE  H12X20469   0.769   4.376   8.205  0.0028 -2.5139  0.6457
  179SOPE  H12Y20470   0.858   4.457   8.067  2.1726  0.0793  0.3661
  179SOPE  C31320471   0.978   4.316   8.190  0.6515 -0.1508  0.4532
  179SOPE  H13X20472   1.056   4.331   8.111  0.4905 -0.9277  0.1333
  179SOPE  H13Y20473   0.965   4.215   8.233  0.3857 -0.7769 -1.0193
  179SOPE  C31420474   1.026   4.416   8.297  0.0976 -0.1742 -0.4162
  179SOPE  H14X20475   1.019   4.523   8.268 -0.7392  0.0242  0.4664
  179SOPE  H14Y20476   1.129   4.395   8.334 -0.8489 -1.0711  1.8854
  179SOPE  C31520477   0.942   4.402   8.421  0.2867  0.0225 -0.4452
  179SOPE  H15X20478   0.969   4.309   8.476  2.3237  0.8636  0.0972
  179SOPE  H15Y20479   0.835   4.400   8.394  0.4364 -0.6068 -1.0206
  179SOPE  C31620480   0.973   4.521   8.518 -0.0422 -0.0974 -0.0235
  179SOPE  H16X20481   0.955   4.615   8.461  2.1777 -1.6278 -3.5831
  179SOPE  H16Y20482   1.079   4.514   8.550  0.9180  1.1253 -2.6174
  179SOPE  C31720483   0.888   4.510   8.643 -0.2979  0.2984 -1.1940
  179SOPE  H17X20484   0.928   4.417   8.689 -0.9355 -0.0507 -1.3418
  179SOPE  H17Y20485   0.781   4.496   8.620 -0.9655  3.3148 -0.3594
  179SOPE  C31820486   0.896   4.631   8.738 -0.1474 -0.2145 -0.2900
  179SOPE  H18X20487   0.840   4.615   8.832 -0.5914  2.4959 -0.0141
  179SOPE  H18Y20488   0.857   4.719   8.683 -0.7174 -0.6805 -0.6454
  179SOPE  H18Z20489   1.002   4.655   8.762 -0.1981 -0.7699  0.4881
  180SOPE     N20490   0.121   3.247   6.024  0.7118 -0.0359 -0.5820
  180SOPE   HN120491   0.134   3.335   6.077 -1.0900 -0.0896 -0.0068
  180SOPE   HN220492   0.208   3.226   5.970  1.9617 -1.2851  1.7438
  180SOPE   HN320493   0.037   3.244   5.963 -0.6782 -1.3176  1.2743
  180SOPE   C1220494   0.119   3.130   6.117  0.3898 -0.4694 -0.4793
  180SOPE  H12A20495   0.205   3.132   6.188  0.7233 -2.5827 -0.7614
  180SOPE  H12B20496   0.133   3.046   6.045  0.9745 -1.1139  0.3616
  180SOPE   C1120497  -0.011   3.118   6.194  0.2003 -0.0574  0.0122
  180SOPE  H11A20498  -0.024   3.211   6.254  2.1452 -0.9191  1.8810
  180SOPE  H11B20499   0.012   3.037   6.266  1.0245 -1.6405 -1.9296
  180SOPE     P20500  -0.272   3.076   6.125 -0.3871 -0.5161  0.4272
  180SOPE   O1320501  -0.315   2.945   6.081 -0.5520  0.0725 -0.2940
  180SOPE   O1420502  -0.338   3.190   6.060  0.3376 -0.5450 -0.2380
  180SOPE   O1220503  -0.120   3.099   6.101 -0.5588 -0.0507 -0.3946
  180SOPE   O1120504  -0.284   3.087   6.282  0.8765  0.1781 -0.3714
  180SOPE    C120505  -0.276   3.214   6.353 -0.3171  0.1678 -0.2580
  180SOPE    HA20506  -0.376   3.252   6.383 -1.3723 -2.5082 -0.0985
  180SOPE    HB20507  -0.241   3.306   6.301 -2.2734  1.6450  0.8918
  180SOPE    C220508  -0.207   3.197   6.494 -0.4871  0.2544 -0.0233
  180SOPE    HS20509  -0.098   3.189   6.473 -0.4638  0.4485  0.0185
  180SOPE   O2120510  -0.253   3.075   6.564  0.0933 -0.3913  0.0095
  180SOPE   C2120511  -0.190   2.966   6.525  0.3759 -0.8823 -0.7662
  180SOPE   O2220512  -0.085   2.959   6.468  0.4974 -0.3559  0.2630
  180SOPE   C2220513  -0.267   2.842   6.572 -0.0875  0.1834  0.2622
  180SOPE   H2R20514  -0.237   2.754   6.512  0.3365 -0.5930  1.5813
  180SOPE   H2S20515  -0.371   2.872   6.547  0.8096  2.6000 -0.8327
  180SOPE    C320516  -0.233   3.325   6.571  0.2001 -0.8020 -0.0205
  180SOPE    HX20517  -0.201   3.416   6.515  1.3703 -0.4180  1.2322
  180SOPE    HY20518  -0.165   3.319   6.658 -0.6972 -0.3313  0.7258
  180SOPE   O3120519  -0.374   3.354   6.601 -0.0694 -0.1194  0.1169
  180SOPE   C3120520  -0.390   3.383   6.728  0.1980 -0.2025 -0.5453
  180SOPE   O3220521  -0.320   3.345   6.817  0.4272  0.1211 -0.0104
  180SOPE   C3220522  -0.524   3.462   6.759 -0.8417 -0.1943 -0.0080
  180SOPE   H2X20523  -0.599   3.381   6.774  1.4005 -2.4792 -0.4578
  180SOPE   H2Y20524  -0.554   3.522   6.671 -0.3116  0.3541  0.1854
  180SOPE   C2320525  -0.257   2.799   6.722 -0.0623  1.0237 -0.4124
  180SOPE   H3R20526  -0.325   2.714   6.742  1.0154  0.1311 -0.4286
  180SOPE   H3S20527  -0.280   2.884   6.791  1.1175  0.0540  1.2612
  180SOPE   C2420528  -0.121   2.733   6.751 -0.0363  0.2918  0.7147
  180SOPE   H4R20529  -0.091   2.659   6.673 -1.4091 -1.2326  1.5646
  180SOPE   H4S20530  -0.040   2.809   6.749  1.4014 -1.1635  1.3343
  180SOPE   C2520531  -0.110   2.647   6.871  0.1326  0.0237  0.3883
  180SOPE   H5R20532  -0.173   2.556   6.860 -1.5834  1.0492  1.2713
  180SOPE   H5S20533  -0.004   2.615   6.886 -0.0333 -0.9119 -0.3342
  180SOPE   C2620534  -0.148   2.722   7.004  0.0585  0.2826 -0.2981
  180SOPE   H6R20535  -0.078   2.806   7.022 -1.4276  1.2070  1.5238
  180SOPE   H6S20536  -0.243   2.779   6.998  0.4921  1.0504 -0.0084
  180SOPE   C2720537  -0.150   2.632   7.126  0.2104  0.2461  0.4481
  180SOPE   H7R20538  -0.239   2.566   7.119 -0.5666  1.0114  2.2958
  180SOPE   H7S20539  -0.056   2.573   7.120  1.2970  1.8864  0.6122
  180SOPE   C2820540  -0.173   2.716   7.255 -0.7613 -1.0116  0.0924
  180SOPE   H8R20541  -0.083   2.780   7.266  0.2650 -1.8649 -2.4076
  180SOPE   H8S20542  -0.263   2.779   7.239 -1.7161 -1.7702  2.1498
  180SOPE   C2920543  -0.209   2.620   7.360 -0.0163 -0.3048 -0.0812
  180SOPE   H9120544  -0.296   2.557   7.337  0.1626 -0.1364 -1.2401
  180SOPE  C21020545  -0.150   2.617   7.480 -0.1228  0.6691 -0.3030
  180SOPE  H10120546  -0.184   2.545   7.557  1.9628 -0.3999 -0.3210
  180SOPE  C21120547  -0.033   2.695   7.532  0.5362 -0.3421 -0.8770
  180SOPE  H11R20548  -0.009   2.776   7.460  0.4565  0.1238 -0.3865
  180SOPE  H11S20549   0.055   2.629   7.548 -0.1226 -0.8272  1.0174
  180SOPE  C21220550  -0.066   2.759   7.672 -0.7639 -0.6940  0.2881
  180SOPE  H12R20551  -0.168   2.804   7.665  0.2487  2.3043  2.6554
  180SOPE  H12S20552   0.010   2.840   7.674 -0.1650 -1.2584  1.6835
  180SOPE  C21320553  -0.057   2.675   7.798 -0.3892  0.2982  0.2584
  180SOPE  H13R20554   0.046   2.634   7.797 -0.6423 -0.3526 -0.1735
  180SOPE  H13S20555  -0.123   2.586   7.787 -0.1017  0.0213  0.7631
  180SOPE  C21420556  -0.106   2.752   7.926  0.0111  0.1164 -0.0004
  180SOPE  H14R20557  -0.203   2.804   7.911 -0.7451 -1.7508 -2.2163
  180SOPE  H14S20558  -0.024   2.826   7.936  1.1811 -1.2179  0.4849
  180SOPE  C21520559  -0.112   2.662   8.045  0.4574 -0.1692 -0.4145
  180SOPE  H15R20560  -0.014   2.623   8.079  0.5529  2.0060  2.1327
  180SOPE  H15S20561  -0.176   2.573   8.025 -0.1068 -0.5661  2.6410
  180SOPE  C21620562  -0.177   2.729   8.166  0.4775  0.0625  0.2453
  180SOPE  H16R20563  -0.129   2.829   8.175  3.8265 -1.4437  0.9645
  180SOPE  H16S20564  -0.139   2.675   8.256  1.5536  0.4502  0.0428
  180SOPE  C21720565  -0.330   2.726   8.149  1.0316  0.4378 -0.1925
  180SOPE  H17R20566  -0.368   2.624   8.167 -0.6423  1.0311 -0.1426
  180SOPE  H17S20567  -0.368   2.738   8.045 -2.0001  0.5474  0.8160
  180SOPE  C21820568  -0.413   2.830   8.222 -0.1388  0.0497 -0.6221
  180SOPE  H18R20569  -0.372   2.824   8.325  1.0732 -0.2705 -1.1037
  180SOPE  H18S20570  -0.522   2.809   8.229  0.0448 -1.2814 -1.3991
  180SOPE  H18T20571  -0.374   2.928   8.187 -0.8148  0.6521  0.2616
  180SOPE   C3320572  -0.509   3.546   6.886  0.0755  0.3405  0.1108
  180SOPE   H3X20573  -0.603   3.604   6.883 -0.1870 -0.1153 -0.9023
  180SOPE   H3Y20574  -0.421   3.613   6.882  1.4099 -1.2030  1.6425
  180SOPE   C3420575  -0.516   3.464   7.020  0.3400 -0.5346 -0.1200
  180SOPE   H4X20576  -0.426   3.401   7.034 -0.6353 -1.6692  1.2516
  180SOPE   H4Y20577  -0.605   3.400   7.033 -0.2687  0.5726  1.5745
  180SOPE   C3520578  -0.518   3.558   7.141 -0.7510  0.3006  0.1040
  180SOPE   H5X20579  -0.587   3.641   7.116 -2.6963 -1.6212 -1.3185
  180SOPE   H5Y20580  -0.414   3.595   7.152 -1.1024  0.6848  2.6899
  180SOPE   C3620581  -0.571   3.493   7.264 -0.8121 -0.3514 -0.3132
  180SOPE   H6X20582  -0.514   3.399   7.275 -2.0250 -0.9131  1.7259
  180SOPE   H6Y20583  -0.675   3.459   7.245 -0.5844 -2.5750  1.8939
  180SOPE   C3720584  -0.554   3.567   7.394  0.2744  0.8695  0.9208
  180SOPE   H7X20585  -0.627   3.650   7.396 -1.8351 -0.8377 -0.3332
  180SOPE   H7Y20586  -0.454   3.615   7.401  1.4572 -1.4436  1.1221
  180SOPE   C3820587  -0.580   3.487   7.515 -0.0293 -0.6568 -0.6921
  180SOPE   H8X20588  -0.541   3.383   7.513 -1.3326 -1.1570 -1.9326
  180SOPE   H8Y20589  -0.691   3.478   7.521  0.0988 -1.7926  0.2453
  180SOPE   C3920590  -0.534   3.565   7.642 -0.2609 -0.4619  0.1767
  180SOPE   H9X20591  -0.564   3.672   7.635  0.7924 -0.1688 -0.0047
  180SOPE   H9Y20592  -0.426   3.542   7.652 -0.7387 -2.4483  1.4568
  180SOPE  C31020593  -0.607   3.517   7.766 -1.0088  0.2159  0.0826
  180SOPE  H10X20594  -0.575   3.413   7.790 -0.3621 -0.3679 -2.9045
  180SOPE  H10Y20595  -0.718   3.518   7.759 -1.0292 -0.0450  0.3374
  180SOPE  C31120596  -0.575   3.618   7.884  0.1136  0.9463  0.6228
  180SOPE  H11X20597  -0.659   3.690   7.878  1.4725  2.6065  0.9110
  180SOPE  H11Y20598  -0.480   3.667   7.856  0.5258  0.4474  1.1394
  180SOPE  C31220599  -0.585   3.536   8.013 -0.6415  0.0914  0.7102
  180SOPE  H12X20600  -0.500   3.465   8.017 -0.3468  0.4450  0.7497
  180SOPE  H12Y20601  -0.680   3.479   8.022  0.2273 -1.3527  1.0689
  180SOPE  C31320602  -0.567   3.623   8.145  0.7939 -0.8083 -0.7856
  180SOPE  H13X20603  -0.651   3.696   8.145  1.8818  0.6158  1.9522
  180SOPE  H13Y20604  -0.472   3.681   8.138  0.7761 -0.6617  0.0516
  180SOPE  C31420605  -0.568   3.553   8.282 -0.0868 -0.1589 -0.2458
  180SOPE  H14X20606  -0.489   3.475   8.292  0.5854  0.6097  0.5439
  180SOPE  H14Y20607  -0.660   3.492   8.291  0.5483 -0.9346  1.4364
  180SOPE  C31520608  -0.555   3.661   8.389 -0.4474 -0.1510 -0.1674
  180SOPE  H15X20609  -0.650   3.717   8.401  0.9555  1.8612  2.8578
  180SOPE  H15Y20610  -0.471   3.730   8.364 -0.2209 -0.3929 -0.0776
  180SOPE  C31620611  -0.522   3.611   8.527 -0.0415  0.7574  0.4464
  180SOPE  H16X20612  -0.440   3.538   8.515 -1.6831 -0.9627 -1.1265
  180SOPE  H16Y20613  -0.602   3.552   8.577 -0.0961  1.3319  1.0407
  180SOPE  C31720614  -0.485   3.726   8.622 -0.0032  0.3005 -1.3772
  180SOPE  H17X20615  -0.582   3.772   8.654 -0.8957 -1.7544 -0.9825
  180SOPE  H17Y20616  -0.438   3.811   8.568  1.5501  1.1509  1.1357
  180SOPE  C31820617  -0.396   3.675   8.735  0.1394 -0.7779  0.1596
  180SOPE  H18X20618  -0.394   3.757   8.811  1.2750 -3.0633  2.7526
  180SOPE  H18Y20619  -0.295   3.650   8.697  1.2656 -0.5301  2.7557
  180SOPE  H18Z20620  -0.432   3.590   8.796  2.3886 -2.7949 -1.1293
  181SOPE     N20621   5.215   0.786   5.965 -0.1406 -0.6065 -0.1028
  181SOPE   HN120622   5.259   0.800   5.872 -0.0466  0.2998  0.0647
  181SOPE   HN220623   5.166   0.694   5.967  0.8492 -1.1644 -0.6955
  181SOPE   HN320624   5.154   0.869   5.980  0.8368  0.0474  0.3705
  181SOPE   C1220625   5.316   0.788   6.084  0.7653  0.4725 -0.5410
  181SOPE  H12A20626   5.265   0.756   6.177  2.0227 -0.6973 -0.2191
  181SOPE  H12B20627   5.353   0.892   6.096 -0.6615  0.8528  0.8846
  181SOPE   C1120628   5.442   0.701   6.047  0.4051  0.1901 -0.4163
  181SOPE  H11A20629   5.526   0.728   6.114 -0.6950  1.4091  0.5377
  181SOPE  H11B20630   5.482   0.741   5.951  0.7206 -0.7431 -0.6746
  181SOPE     P20631   5.323   0.478   6.141 -0.1921  0.1082 -0.3146
  181SOPE   O1320632   5.351   0.335   6.115  0.1916 -0.3663  0.6454
  181SOPE   O1420633   5.185   0.510   6.120  0.4739  0.8037 -0.1197
  181SOPE   O1220634   5.412   0.562   6.040  0.2227  0.0451 -0.0889
  181SOPE   O1120635   5.369   0.520   6.286 -0.0197 -0.6056 -0.1992
  181SOPE    C120636   5.501   0.484   6.336  0.1472  0.1743  0.2415
  181SOPE    HA20637   5.535   0.576   6.390 -3.4342  0.3934  2.5526
  181SOPE    HB20638   5.577   0.457   6.260 -1.2640 -0.8208 -0.8641
  181SOPE    C220639   5.483   0.382   6.450 -0.3280 -0.4715 -0.1944
  181SOPE    HS20640   5.447   0.294   6.393  0.0327 -0.9801  0.3517
  181SOPE   O2120641   5.386   0.432   6.540 -0.0111 -0.5172  0.1567
  181SOPE   C2120642   5.292   0.341   6.584  0.4515 -0.9702  0.6068
  181SOPE   O2220643   5.295   0.223   6.557  0.5805  0.5087 -0.2180
  181SOPE   C2220644   5.194   0.409   6.683 -0.1894  0.1801  0.1887
  181SOPE   H2R20645   5.115   0.460   6.624  0.7920 -0.8609 -2.1799
  181SOPE   H2S20646   5.236   0.485   6.751 -1.7773 -0.7898  2.3677
  181SOPE    C320647   5.620   0.350   6.528 -0.1328  0.2268 -0.2377
  181SOPE    HX20648   5.692   0.314   6.451 -0.3443 -1.0393  0.1314
  181SOPE    HY20649   5.607   0.261   6.593  1.1932 -0.5491 -0.9760
  181SOPE   O3120650   5.665   0.460   6.601  0.0774  0.3611 -0.5338
  181SOPE   C3120651   5.616   0.471   6.718  0.8301 -0.3263 -0.7003
  181SOPE   O3220652   5.544   0.394   6.785 -0.2396 -0.3308  0.6456
  181SOPE   C3220653   5.665   0.606   6.771  0.0662  0.2607 -0.3391
  181SOPE   H2X20654   5.721   0.658   6.691 -1.9188  1.2815 -1.1373
  181SOPE   H2Y20655   5.729   0.579   6.858  0.2776  0.5191 -0.4153
  181SOPE   C2320656   5.120   0.296   6.755  0.0885 -0.0581 -0.2692
  181SOPE   H3R20657   5.183   0.220   6.807  0.1210  0.5409  0.5823
  181SOPE   H3S20658   5.052   0.242   6.686 -0.4696  1.1200 -0.6720
  181SOPE   C2420659   5.051   0.357   6.886 -1.2900  0.3499 -0.1175
  181SOPE   H4R20660   4.992   0.447   6.857 -0.2177  1.1846  0.2483
  181SOPE   H4S20661   4.970   0.287   6.915  0.5063 -1.1366  1.5509
  181SOPE   C2520662   5.143   0.384   7.002 -0.6685 -0.3219 -0.3315
  181SOPE   H5R20663   5.212   0.297   7.007  0.4417  0.5928  1.2511
  181SOPE   H5S20664   5.213   0.469   6.982 -0.8189 -0.3159 -0.8396
  181SOPE   C2620665   5.067   0.420   7.128  0.1153  0.3476  0.2810
  181SOPE   H6R20666   5.027   0.521   7.108  1.4629  1.1056  1.2525
  181SOPE   H6S20667   4.990   0.342   7.147 -0.2233  0.3416 -1.0062
  181SOPE   C2720668   5.163   0.422   7.249 -1.0622 -0.6728 -0.5957
  181SOPE   H7R20669   5.195   0.317   7.266  0.0129 -0.4498 -1.1991
  181SOPE   H7S20670   5.251   0.482   7.219 -0.3385 -0.3434  1.9354
  181SOPE   C2820671   5.091   0.485   7.369  0.3513  0.9526 -0.2241
  181SOPE   H8R20672   5.068   0.592   7.346  0.8659  1.7813  2.7519
  181SOPE   H8S20673   4.997   0.427   7.381  0.6696  0.3492 -0.5766
  181SOPE   C2920674   5.183   0.488   7.489 -0.3424  0.1031 -0.1059
  181SOPE   H9120675   5.287   0.475   7.456 -0.7905 -0.1005 -1.5308
  181SOPE  C21020676   5.149   0.471   7.620 -0.3631 -0.6338 -0.1231
  181SOPE  H10120677   5.233   0.489   7.690 -0.5366 -0.4593  0.0400
  181SOPE  C21120678   5.007   0.462   7.668 -0.4189 -0.5584  0.4959
  181SOPE  H11R20679   5.005   0.376   7.738  0.9037 -2.4997 -1.7098
  181SOPE  H11S20680   4.930   0.459   7.588 -0.4551 -0.0005  0.5072
  181SOPE  C21220681   4.956   0.591   7.737  0.0220  0.3414 -0.6746
  181SOPE  H12R20682   4.852   0.572   7.771  0.1871  2.1183  1.0401
  181SOPE  H12S20683   4.938   0.664   7.656 -0.1375  0.1019 -0.8551
  181SOPE  C21320684   5.033   0.648   7.857  0.3480  0.0977  0.1659
  181SOPE  H13R20685   4.989   0.744   7.892  1.2389  0.8962 -0.8100
  181SOPE  H13S20686   5.134   0.678   7.820  1.6038 -0.4239  2.9067
  181SOPE  C21420687   5.037   0.538   7.961 -0.3658  0.0681 -0.4841
  181SOPE  H14R20688   5.075   0.444   7.915  1.3780  1.4509 -2.0097
  181SOPE  H14S20689   4.930   0.519   7.983  0.1200  0.0976  2.2725
  181SOPE  C21520690   5.125   0.574   8.073  0.1326  0.1881  0.0155
  181SOPE  H15R20691   5.079   0.656   8.131 -0.5540 -0.4939  0.4462
  181SOPE  H15S20692   5.228   0.601   8.039  0.3640  1.1394  1.4107
  181SOPE  C21620693   5.149   0.453   8.163 -0.3646 -0.2165  0.1031
  181SOPE  H16R20694   5.205   0.370   8.115 -2.5054 -1.1148 -0.9429
  181SOPE  H16S20695   5.046   0.423   8.192 -0.7946  0.9449 -0.1477
  181SOPE  C21720696   5.229   0.485   8.284 -0.4654  0.0538  0.7982
  181SOPE  H17R20697   5.323   0.541   8.261 -0.6297 -0.2836 -0.8358
  181SOPE  H17S20698   5.278   0.401   8.337  0.9096  0.4640  0.2241
  181SOPE  C21820699   5.140   0.568   8.382  0.4235  0.1816 -0.8511
  181SOPE  H18R20700   5.048   0.513   8.413 -1.1315  2.4478 -1.1992
  181SOPE  H18S20701   5.106   0.666   8.342  0.5803 -0.2473 -2.0855
  181SOPE  H18T20702   5.197   0.599   8.472 -1.0788  1.8528 -0.4148
  181SOPE   C3320703   5.553   0.701   6.817  0.4676 -0.0693 -0.2425
  181SOPE   H3X20704   5.607   0.781   6.871  2.7839 -1.5310 -0.2497
  181SOPE   H3Y20705   5.479   0.660   6.889 -1.1517  1.1870 -1.1162
  181SOPE   C3420706   5.463   0.760   6.704 -0.3325 -0.4348  0.0782
  181SOPE   H4X20707   5.395   0.681   6.665  0.7802 -1.9630  1.0998
  181SOPE   H4Y20708   5.522   0.778   6.611 -2.1553 -1.6810 -1.4045
  181SOPE   C3520709   5.361   0.877   6.742  0.1167 -0.6416  0.3851
  181SOPE   H5X20710   5.272   0.837   6.795 -1.2837  1.9563  0.1147
  181SOPE   H5Y20711   5.327   0.919   6.645  1.8756  0.6910  0.2910
  181SOPE   C3620712   5.418   0.989   6.825 -1.0529 -0.1687  0.4097
  181SOPE   H6X20713   5.527   0.986   6.806 -0.5579  1.9367  2.5218
  181SOPE   H6Y20714   5.395   0.973   6.932 -2.0112  1.8309  0.5537
  181SOPE   C3720715   5.364   1.126   6.793  0.1659  0.1525  0.4920
  181SOPE   H7X20716   5.262   1.140   6.836  0.7897  0.4067  1.9433
  181SOPE   H7Y20717   5.356   1.131   6.682  1.8008 -1.2671  0.2678
  181SOPE   C3820718   5.439   1.250   6.853  0.8836  0.7178 -0.2372
  181SOPE   H8X20719   5.389   1.349   6.854 -1.4979 -0.3966  2.1194
  181SOPE   H8Y20720   5.542   1.264   6.814  0.3625  1.4845 -1.3967
  181SOPE   C3920721   5.461   1.244   7.009 -0.8147 -0.6340 -0.2090
  181SOPE   H9X20722   5.514   1.148   7.028  2.1582  1.0168  0.3091
  181SOPE   H9Y20723   5.366   1.223   7.063  0.0853 -0.6668  1.4258
  181SOPE  C31020724   5.518   1.372   7.058  0.7513 -0.3570 -0.0546
  181SOPE  H10X20725   5.458   1.459   7.023  0.1459 -0.3194  1.0244
  181SOPE  H10Y20726   5.611   1.379   6.998  0.7149 -0.1798 -0.0901
  181SOPE  C31120727   5.538   1.377   7.210 -0.3320 -0.4035  0.0421
  181SOPE  H11X20728   5.604   1.464   7.230  2.3779 -2.0377 -1.2474
  181SOPE  H11Y20729   5.597   1.291   7.247 -0.2130 -0.0161  0.7642
  181SOPE  C31220730   5.415   1.385   7.303 -0.4026  0.0680  0.5217
  181SOPE  H12X20731   5.347   1.304   7.268 -2.0403  0.9412  1.5583
  181SOPE  H12Y20732   5.357   1.479   7.295  0.2855  0.4808  0.2821
  181SOPE  C31320733   5.458   1.352   7.446  0.0800  0.2756  0.4193
  181SOPE  H13X20734   5.558   1.395   7.466 -0.0980  0.5259  0.7784
  181SOPE  H13Y20735   5.463   1.241   7.450  2.0258  0.1844 -2.2520
  181SOPE  C31420736   5.366   1.406   7.552 -0.4923 -0.1747  0.2377
  181SOPE  H14X20737   5.268   1.355   7.563 -2.5949  3.2266 -1.1206
  181SOPE  H14Y20738   5.328   1.503   7.512 -3.0507 -1.0854  0.2446
  181SOPE  C31520739   5.431   1.422   7.690  0.0746 -0.0709  0.9690
  181SOPE  H15X20740   5.513   1.494   7.669  0.1156 -0.6538 -1.0854
  181SOPE  H15Y20741   5.479   1.324   7.710 -0.2441 -0.5075 -0.2870
  181SOPE  C31620742   5.339   1.468   7.807  0.0715  0.4468  0.1240
  181SOPE  H16X20743   5.244   1.413   7.819 -0.2521  1.5981  3.9618
  181SOPE  H16Y20744   5.308   1.567   7.767 -1.7956  0.4037  1.3413
  181SOPE  C31720745   5.405   1.469   7.948 -0.3310  0.1131  0.0872
  181SOPE  H17X20746   5.483   1.547   7.936  0.8955 -1.2530 -1.3015
  181SOPE  H17Y20747   5.470   1.381   7.970 -0.3209 -0.2831 -1.4272
  181SOPE  C31820748   5.315   1.505   8.065  0.5049  0.2616 -0.3065
  181SOPE  H18X20749   5.261   1.601   8.048  0.9754  0.3190 -1.5837
  181SOPE  H18Y20750   5.371   1.521   8.159  2.6062 -3.8813 -0.6329
  181SOPE  H18Z20751   5.245   1.420   8.080 -0.2041  0.7421 -0.7858
  182SOPE     N20752   0.368   3.462   6.666  0.1954  0.3395 -0.7064
  182SOPE   HN120753   0.418   3.487   6.578 -2.3531  0.7536 -2.1483
  182SOPE   HN220754   0.309   3.542   6.697  2.0192  2.5092 -2.4796
  182SOPE   HN320755   0.438   3.430   6.736 -0.2083  1.4362  0.2379
  182SOPE   C1220756   0.273   3.346   6.639  0.3870  0.1381 -0.0808
  182SOPE  H12A20757   0.178   3.376   6.689  0.3848  0.6924 -0.4085
  182SOPE  H12B20758   0.315   3.255   6.687  0.6597  0.2483 -0.1106
  182SOPE   C1120759   0.237   3.329   6.496  0.8387  0.0072 -0.2268
  182SOPE  H11A20760   0.196   3.425   6.458  0.4553 -0.7314 -1.7391
  182SOPE  H11B20761   0.154   3.256   6.490 -1.5470  2.3951  1.5459
  182SOPE     P20762   0.414   3.169   6.410  0.0354  0.2817 -0.4617
  182SOPE   O1320763   0.493   3.161   6.286 -0.0031 -0.5671  0.4864
  182SOPE   O1420764   0.324   3.060   6.435  0.1746  0.9315  0.1578
  182SOPE   O1220765   0.337   3.302   6.405 -0.3474 -0.3484  0.2182
  182SOPE   O1120766   0.507   3.186   6.532  0.1717 -0.4472  0.1527
  182SOPE    C120767   0.607   3.090   6.553 -0.0636 -0.3827  0.5462
  182SOPE    HA20768   0.705   3.125   6.513  1.4969 -1.4484  3.1557
  182SOPE    HB20769   0.588   2.992   6.503 -0.5844 -0.1882  0.3501
  182SOPE    C220770   0.626   3.079   6.708 -0.2009  0.1547  0.1701
  182SOPE    HS20771   0.714   3.017   6.739 -1.0788 -1.4821 -0.4682
  182SOPE   O2120772   0.506   3.030   6.774 -0.5256 -0.4877 -1.6747
  182SOPE   C2120773   0.483   2.903   6.770  0.2364  0.0626 -0.0326
  182SOPE   O2220774   0.541   2.825   6.694 -0.2189  0.3565 -0.2569
  182SOPE   C2220775   0.374   2.877   6.868  0.2916  0.9802 -0.2893
  182SOPE   H2R20776   0.283   2.934   6.838 -0.4239 -0.0403 -0.1238
  182SOPE   H2S20777   0.408   2.917   6.966 -1.8460  1.8988  0.1441
  182SOPE    C320778   0.673   3.219   6.771 -0.1880 -0.0684  0.4871
  182SOPE    HX20779   0.611   3.301   6.728 -2.1425 -0.9243  1.5157
  182SOPE    HY20780   0.781   3.235   6.752 -0.3970  0.5873 -0.2285
  182SOPE   O3120781   0.651   3.223   6.912 -0.0878 -0.1765  0.7260
  182SOPE   C3120782   0.544   3.282   6.955 -0.8420 -0.3281 -0.0035
  182SOPE   O3220783   0.472   3.358   6.891  0.9006  0.3964 -0.1323
  182SOPE   C3220784   0.534   3.249   7.103  0.0521 -0.3608  0.2250
  182SOPE   H2X20785   0.591   3.335   7.143 -0.4472  0.5333 -0.9134
  182SOPE   H2Y20786   0.593   3.161   7.134  0.4161  0.1863  1.1271
  182SOPE   C2320787   0.348   2.722   6.886 -0.2174 -0.1215  0.1682
  182SOPE   H3R20788   0.444   2.669   6.871  2.0053  3.0517  1.9947
  182SOPE   H3S20789   0.276   2.691   6.807 -2.1288  0.9096  1.4340
  182SOPE   C2420790   0.274   2.697   7.022 -0.3428 -0.4994  0.1129
  182SOPE   H4R20791   0.332   2.748   7.102 -0.6820 -1.2008  0.8184
  182SOPE   H4S20792   0.178   2.748   7.000 -0.0821  0.7028  1.6235
  182SOPE   C2520793   0.260   2.545   7.050 -0.4749 -0.3332  0.0498
  182SOPE   H5R20794   0.166   2.513   6.999 -0.9317  0.5246  0.3313
  182SOPE   H5S20795   0.343   2.494   6.996  1.0334  1.9058  0.1315
  182SOPE   C2620796   0.268   2.514   7.206 -0.1393 -0.4096  0.1939
  182SOPE   H6R20797   0.368   2.525   7.254 -1.2349 -1.3467  2.8679
  182SOPE   H6S20798   0.217   2.591   7.267  0.5251  0.2801 -0.1037
  182SOPE   C2720799   0.207   2.376   7.246  0.6039  0.0556  0.1719
  182SOPE   H7R20800   0.127   2.358   7.171 -0.3585 -1.8301  1.5863
  182SOPE   H7S20801   0.293   2.306   7.249  0.9596  0.4379 -0.7525
  182SOPE   C2820802   0.123   2.392   7.376  0.2998  0.2782  0.4687
  182SOPE   H8R20803   0.042   2.466   7.363  1.4227  1.7690  1.6553
  182SOPE   H8S20804   0.079   2.292   7.398 -0.7553  0.1975 -1.7418
  182SOPE   C2920805   0.216   2.417   7.494 -0.2375 -0.3345 -0.2755
  182SOPE   H9120806   0.313   2.463   7.471 -0.8476  0.9670 -0.2962
  182SOPE  C21020807   0.191   2.400   7.630 -0.0150  0.5233  0.2040
  182SOPE  H10120808   0.265   2.433   7.704  0.1401 -0.2051  0.3753
  182SOPE  C21120809   0.065   2.346   7.687 -0.6712  0.2630 -0.1169
  182SOPE  H11R20810   0.017   2.270   7.622 -0.3792 -0.4278  0.4609
  182SOPE  H11S20811  -0.013   2.424   7.701 -1.1017 -0.2005  0.0727
  182SOPE  C21220812   0.085   2.277   7.822 -0.2323 -0.1085 -0.2750
  182SOPE  H12R20813   0.149   2.187   7.812  0.1961  0.0619  0.7730
  182SOPE  H12S20814  -0.016   2.249   7.861 -1.0188  2.1827 -0.5146
  182SOPE  C21320815   0.159   2.354   7.931  0.5386  0.0815  0.3828
  182SOPE  H13R20816   0.102   2.441   7.969  1.7536  0.2130  2.0077
  182SOPE  H13S20817   0.253   2.402   7.896  1.2720 -0.2707  1.7790
  182SOPE  C21420818   0.197   2.259   8.047  0.6227  0.2745  0.7407
  182SOPE  H14R20819   0.272   2.191   8.001 -0.1155 -0.4821  0.6249
  182SOPE  H14S20820   0.112   2.195   8.079 -0.1356  0.4149 -0.8871
  182SOPE  C21520821   0.276   2.328   8.154  0.6648 -0.1910 -0.2269
  182SOPE  H15R20822   0.344   2.393   8.094  1.7639 -0.2093  0.9468
  182SOPE  H15S20823   0.335   2.256   8.216  0.1303  0.8123  1.5273
  182SOPE  C21620824   0.198   2.423   8.245  0.1300  0.6235  0.7353
  182SOPE  H16R20825   0.152   2.508   8.190  0.3045  1.3042  1.6090
  182SOPE  H16S20826   0.280   2.462   8.309  1.1232 -0.6516  0.2738
  182SOPE  C21720827   0.104   2.341   8.331 -0.2102 -0.1936  0.4761
  182SOPE  H17R20828   0.159   2.259   8.382 -1.0420  0.2138  2.1236
  182SOPE  H17S20829   0.038   2.293   8.255  2.0716 -2.7293 -0.0332
  182SOPE  C21820830   0.015   2.426   8.425 -0.1197  0.5305  0.0205
  182SOPE  H18R20831   0.069   2.440   8.521  0.0627  0.9183 -0.1368
  182SOPE  H18S20832  -0.079   2.370   8.446 -1.0455  2.8843  2.7411
  182SOPE  H18T20833  -0.013   2.529   8.395  0.0781  1.4596  2.7916
  182SOPE   C3320834   0.392   3.244   7.170 -0.4012 -0.3961 -0.1124
  182SOPE   H3X20835   0.331   3.174   7.110  0.9066 -1.2360 -0.4954
  182SOPE   H3Y20836   0.336   3.337   7.145 -0.4375 -0.2786  0.3915
  182SOPE   C3420837   0.391   3.216   7.321 -0.5922  0.0409  0.2544
  182SOPE   H4X20838   0.384   3.106   7.337  0.6156  0.1902  2.1398
  182SOPE   H4Y20839   0.296   3.253   7.364 -0.8230 -0.4211  0.1372
  182SOPE   C3520840   0.514   3.278   7.388 -0.3985  0.1174 -0.2379
  182SOPE   H5X20841   0.531   3.382   7.352  0.5567  0.1391  0.2317
  182SOPE   H5Y20842   0.608   3.225   7.360 -1.3769 -1.9578  0.2648
  182SOPE   C3620843   0.497   3.284   7.541 -0.1371  0.2303 -0.8031
  182SOPE   H6X20844   0.457   3.195   7.595  5.2193 -2.6232 -0.9417
  182SOPE   H6Y20845   0.419   3.360   7.561 -0.6579  0.0088 -1.9006
  182SOPE   C3720846   0.623   3.316   7.628 -0.5815  0.6202 -0.0121
  182SOPE   H7X20847   0.679   3.401   7.583 -0.1671  0.1654 -0.3751
  182SOPE   H7Y20848   0.693   3.230   7.628 -0.4146  0.6957  2.2461
  182SOPE   C3820849   0.605   3.326   7.777 -0.0260  0.2162 -0.0473
  182SOPE   H8X20850   0.505   3.364   7.807  0.1987  0.5016  0.3450
  182SOPE   H8Y20851   0.686   3.383   7.828 -1.5933  2.0002  0.5429
  182SOPE   C3920852   0.613   3.191   7.841 -0.5538 -0.3566  0.2804
  182SOPE   H9X20853   0.712   3.141   7.840 -0.8257 -0.9814  1.9091
  182SOPE   H9Y20854   0.541   3.123   7.791 -0.6401  0.0175 -0.1164
  182SOPE  C31020855   0.580   3.189   7.992 -0.2922 -0.5901  0.6711
  182SOPE  H10X20856   0.591   3.084   8.025 -2.6182 -0.7455  1.1089
  182SOPE  H10Y20857   0.478   3.232   7.990 -0.0268  0.0403 -1.2493
  182SOPE  C31120858   0.664   3.285   8.075  0.2096  0.2555 -0.2796
  182SOPE  H11X20859   0.639   3.391   8.052 -1.1145  0.9627  3.6906
  182SOPE  H11Y20860   0.770   3.258   8.058  1.2281  2.7658  1.4682
  182SOPE  C31220861   0.645   3.264   8.234  0.4153 -0.2830 -0.0586
  182SOPE  H12X20862   0.733   3.310   8.284 -0.3861 -0.2217  1.3279
  182SOPE  H12Y20863   0.627   3.157   8.256 -0.6496  0.3212  2.3324
  182SOPE  C31320864   0.523   3.335   8.295  0.2976 -0.4428 -0.2989
  182SOPE  H13X20865   0.440   3.264   8.274  0.9493 -1.3219  0.0634
  182SOPE  H13Y20866   0.507   3.436   8.251  1.4895 -0.0738  0.0881
  182SOPE  C31420867   0.535   3.356   8.450  0.8764 -1.1649 -0.3120
  182SOPE  H14X20868   0.625   3.420   8.461 -1.1664  1.9558 -0.7103
  182SOPE  H14Y20869   0.553   3.257   8.498  1.9094 -1.1079 -0.5512
  182SOPE  C31520870   0.422   3.421   8.532  1.0506  0.1939 -0.3661
  182SOPE  H15X20871   0.356   3.337   8.563  2.1734  0.1336  2.0080
  182SOPE  H15Y20872   0.352   3.489   8.479  1.2582  0.7186  0.0249
  182SOPE  C31620873   0.472   3.494   8.651 -0.2408  1.0136  0.4441
  182SOPE  H16X20874   0.551   3.552   8.598  0.6882 -2.2154 -2.0356
  182SOPE  H16Y20875   0.525   3.419   8.714 -0.1771  0.3810 -0.3436
  182SOPE  C31720876   0.356   3.558   8.716 -0.5947  0.6730 -0.6660
  182SOPE  H17X20877   0.275   3.489   8.747  1.2435 -0.3783  2.1660
  182SOPE  H17Y20878   0.308   3.622   8.638 -4.4560 -1.9742 -0.7095
  182SOPE  C31820879   0.393   3.637   8.835  1.0905  0.0014  0.0703
  182SOPE  H18X20880   0.486   3.697   8.821  0.8581  0.4981  0.6039
  182SOPE  H18Y20881   0.385   3.574   8.925  0.0415  1.2205  0.8710
  182SOPE  H18Z20882   0.309   3.708   8.853  0.3344 -0.4453 -1.4923
  183SOPE     N20883   1.716   1.621   6.181 -0.2825 -0.0792  0.1416
  183SOPE   HN120884   1.637   1.687   6.170  1.3013  1.7179 -1.2620
  183SOPE   HN220885   1.690   1.527   6.215 -0.3879  0.1481  0.6957
  183SOPE   HN320886   1.785   1.663   6.247 -0.4057  0.4254 -0.0460
  183SOPE   C1220887   1.775   1.601   6.043 -0.8675  0.1912 -0.5125
  183SOPE  H12A20888   1.790   1.698   5.990 -1.6830 -0.5466 -2.1880
  183SOPE  H12B20889   1.700   1.546   5.981 -1.4335  0.1242  0.2152
  183SOPE   C1120890   1.896   1.505   6.044 -0.1095 -0.0849  0.5609
  183SOPE  H11A20891   1.991   1.558   6.068  2.0832 -2.5889 -1.8891
  183SOPE  H11B20892   1.903   1.460   5.943  1.9018 -2.5590  1.6981
  183SOPE     P20893   2.018   1.339   6.208  0.2126  0.2083  0.0553
  183SOPE   O1320894   2.129   1.345   6.109 -0.3928 -0.4530 -0.1422
  183SOPE   O1420895   1.986   1.209   6.269  0.9889 -0.0085  0.2399
  183SOPE   O1220896   1.887   1.394   6.139  0.3608  0.0214  0.1187
  183SOPE   O1120897   2.043   1.452   6.314 -0.2148  0.4431  0.4677
  183SOPE    C120898   1.951   1.483   6.419  0.0067  0.1504 -0.3063
  183SOPE    HA20899   1.848   1.452   6.391  0.4057 -2.7499  1.1269
  183SOPE    HB20900   1.953   1.591   6.445 -1.1040  0.1568 -0.1805
  183SOPE    C220901   1.992   1.413   6.555  0.1387 -0.0138 -0.0072
  183SOPE    HS20902   1.940   1.315   6.559 -0.7969  0.4106 -1.1601
  183SOPE   O2120903   1.946   1.487   6.661  0.5982 -0.2083  0.9224
  183SOPE   C2120904   1.832   1.544   6.668  0.0606 -0.4041 -0.5914
  183SOPE   O2220905   1.728   1.509   6.607 -0.8134 -1.0257 -0.0369
  183SOPE   C2220906   1.826   1.660   6.763  0.7861  0.4695  0.4906
  183SOPE   H2R20907   1.778   1.746   6.712 -0.2117  0.3548  1.2212
  183SOPE   H2S20908   1.927   1.695   6.793  1.1990  0.2400 -0.5704
  183SOPE    C320909   2.145   1.396   6.571 -0.1221  0.1874  0.2585
  183SOPE    HX20910   2.191   1.492   6.537 -2.8666  1.2086 -0.8325
  183SOPE    HY20911   2.159   1.325   6.486  0.5225  3.2370 -2.3952
  183SOPE   O3120912   2.191   1.352   6.705 -0.4649  0.6746  0.3736
  183SOPE   C3120913   2.241   1.446   6.778  1.0518  0.5326  0.3677
  183SOPE   O3220914   2.233   1.563   6.755  0.1093  0.0539 -0.4772
  183SOPE   C3220915   2.308   1.387   6.903  0.0322 -1.0979 -0.8654
  183SOPE   H2X20916   2.410   1.350   6.879  0.7561  0.8760 -1.0353
  183SOPE   H2Y20917   2.247   1.320   6.966  0.8866 -0.0714  1.1328
  183SOPE   C2320918   1.736   1.621   6.876 -0.2996 -0.3496 -0.0827
  183SOPE   H3R20919   1.640   1.580   6.839 -2.9377  4.3475  0.8736
  183SOPE   H3S20920   1.712   1.715   6.929  0.3696 -0.6943  0.8658
  183SOPE   C2420921   1.805   1.526   6.979 -0.0409  0.4640  0.2987
  183SOPE   H4R20922   1.718   1.485   7.036 -0.0058 -0.0539 -0.0061
  183SOPE   H4S20923   1.851   1.435   6.935 -2.3029 -1.4963  1.6758
  183SOPE   C2520924   1.909   1.598   7.063 -0.2330  0.0800 -0.0937
  183SOPE   H5R20925   1.991   1.634   6.997  1.2175 -0.7515  1.2075
  183SOPE   H5S20926   1.859   1.690   7.101 -0.6733 -0.1026 -0.2171
  183SOPE   C2620927   1.968   1.514   7.177  0.3680  0.2976  0.0952
  183SOPE   H6R20928   2.012   1.423   7.131 -2.2490  0.7504 -3.8113
  183SOPE   H6S20929   2.041   1.576   7.234  1.5722 -1.8708  1.0139
  183SOPE   C2720930   1.863   1.461   7.274  0.5165  0.5876  0.3354
  183SOPE   H7R20931   1.800   1.550   7.293  0.2508  1.3608 -3.3518
  183SOPE   H7S20932   1.803   1.385   7.220  0.5146  0.3360  0.6916
  183SOPE   C2820933   1.925   1.389   7.397 -0.1273 -0.8829  0.3929
  183SOPE   H8R20934   1.971   1.294   7.362  1.1478 -0.4042  0.7144
  183SOPE   H8S20935   1.999   1.464   7.434 -1.2664  0.4383  0.0719
  183SOPE   C2920936   1.808   1.353   7.491 -0.3828 -0.0948 -0.2166
  183SOPE   H9120937   1.734   1.287   7.445  0.0367  0.0831 -1.1698
  183SOPE  C21020938   1.802   1.385   7.625 -0.0098  0.5237  0.0173
  183SOPE  H10120939   1.714   1.350   7.681 -0.2177  1.2204  0.1314
  183SOPE  C21120940   1.900   1.462   7.706 -0.1177 -0.1465  0.6304
  183SOPE  H11R20941   1.979   1.511   7.645 -1.7526  2.0034  0.0850
  183SOPE  H11S20942   1.937   1.388   7.780 -0.6607  0.2348  1.3025
  183SOPE  C21220943   1.836   1.576   7.790  0.2105  0.0534 -0.3118
  183SOPE  H12R20944   1.772   1.640   7.726 -0.3139 -0.3140 -0.1591
  183SOPE  H12S20945   1.908   1.637   7.849 -0.1292  0.7949 -0.6570
  183SOPE  C21320946   1.744   1.525   7.907 -0.3101  0.4392 -0.1940
  183SOPE  H13R20947   1.664   1.466   7.857 -0.9817  0.4713  0.8082
  183SOPE  H13S20948   1.699   1.613   7.957  2.5081 -0.0913  3.7287
  183SOPE  C21420949   1.807   1.437   8.012  0.2386 -0.0519 -0.3574
  183SOPE  H14R20950   1.884   1.491   8.071  0.1433  2.0512 -2.0055
  183SOPE  H14S20951   1.854   1.344   7.974  0.4847  0.2005 -0.6874
  183SOPE  C21520952   1.700   1.392   8.111 -0.6325 -0.1860  0.4042
  183SOPE  H15R20953   1.657   1.487   8.149 -1.9713 -0.6289  0.0541
  183SOPE  H15S20954   1.743   1.341   8.200  1.3432  1.9315  0.7300
  183SOPE  C21620955   1.581   1.315   8.052 -0.3373  0.0564 -0.7576
  183SOPE  H16R20956   1.616   1.227   7.995 -1.7019 -1.2820  0.3797
  183SOPE  H16S20957   1.525   1.376   7.978  1.5095  2.4824 -0.2828
  183SOPE  C21720958   1.484   1.260   8.160 -0.2448 -0.2451  0.1665
  183SOPE  H17R20959   1.470   1.334   8.242 -0.7165  1.1994 -1.1627
  183SOPE  H17S20960   1.531   1.164   8.189  1.6901  0.4550 -0.5243
  183SOPE  C21820961   1.339   1.228   8.111 -0.3330  0.1873  0.3398
  183SOPE  H18R20962   1.347   1.165   8.019 -0.7204  0.4283  0.1394
  183SOPE  H18S20963   1.293   1.326   8.088 -0.0899  0.3112  0.3711
  183SOPE  H18T20964   1.272   1.181   8.186 -2.0854 -0.5308 -1.5934
  183SOPE   C3320965   2.335   1.497   7.005 -0.0085  0.3409 -0.2109
  183SOPE   H3X20966   2.277   1.592   7.006 -0.6918 -0.0775  0.6076
  183SOPE   H3Y20967   2.434   1.533   6.971  0.7931 -2.6790 -1.3894
  183SOPE   C3420968   2.348   1.442   7.150 -0.1452  0.1279  0.4420
  183SOPE   H4X20969   2.418   1.355   7.150 -0.9023 -0.6059 -2.7853
  183SOPE   H4Y20970   2.245   1.405   7.170 -1.3500  2.7648 -0.4710
  183SOPE   C3520971   2.370   1.551   7.257 -0.2228  0.0895  0.1225
  183SOPE   H5X20972   2.291   1.629   7.248  1.1464  1.3884 -1.4588
  183SOPE   H5Y20973   2.470   1.601   7.256 -0.3196  0.2841 -0.2085
  183SOPE   C3620974   2.365   1.495   7.404 -0.5147  0.6350  0.1919
  183SOPE   H6X20975   2.470   1.469   7.428 -0.9190 -0.3840  0.9246
  183SOPE   H6Y20976   2.324   1.392   7.414  0.4119  0.3130  0.8548
  183SOPE   C3720977   2.316   1.590   7.501 -0.2805 -0.1097 -0.3449
  183SOPE   H7X20978   2.205   1.588   7.510 -0.4173 -1.1655 -1.9517
  183SOPE   H7Y20979   2.343   1.695   7.480 -2.2691  0.6954  0.8191
  183SOPE   C3820980   2.369   1.563   7.639  0.2099 -0.3039  0.0983
  183SOPE   H8X20981   2.344   1.644   7.710 -1.1246 -1.0575  0.5254
  183SOPE   H8Y20982   2.479   1.570   7.626  0.4728  0.1608  2.2159
  183SOPE   C3920983   2.334   1.430   7.708  0.3353 -0.0192 -0.1873
  183SOPE   H9X20984   2.398   1.348   7.671  0.1234 -0.1265 -0.3206
  183SOPE   H9Y20985   2.230   1.398   7.682  0.6897 -1.4323  0.0427
  183SOPE  C31020986   2.345   1.442   7.858 -0.9267  0.9514  0.6643
  183SOPE  H10X20987   2.430   1.507   7.886  1.8669 -2.7913  1.8175
  183SOPE  H10Y20988   2.383   1.347   7.901 -0.6358  0.1085 -1.3495
  183SOPE  C31120989   2.214   1.492   7.917  0.1093  0.5921 -0.2808
  183SOPE  H11X20990   2.127   1.431   7.883 -0.6229  2.3065 -1.6337
  183SOPE  H11Y20991   2.195   1.589   7.866  1.5315 -0.2695 -2.6476
  183SOPE  C31220992   2.219   1.521   8.067  0.4581 -0.3663 -0.0857
  183SOPE  H12X20993   2.155   1.611   8.083 -0.1388 -0.8777  0.4750
  183SOPE  H12Y20994   2.323   1.541   8.100 -0.4934  0.7798  2.4641
  183SOPE  C31320995   2.154   1.409   8.156  0.0555  0.3060 -0.5475
  183SOPE  H13X20996   2.216   1.316   8.158  0.5324  0.6318  0.0807
  183SOPE  H13Y20997   2.056   1.384   8.111 -0.0810  0.4720 -0.3400
  183SOPE  C31420998   2.148   1.451   8.301 -0.0210  0.4768  0.1766
  183SOPE  H14X20999   2.110   1.555   8.302 -1.1898  0.0730  1.0406
  183SOPE  H14Y21000   2.254   1.460   8.330 -0.1349  2.7196  0.0753
  183SOPE  C31521001   2.072   1.352   8.385  0.0784 -0.6813 -0.5269
  183SOPE  H15X21002   2.113   1.248   8.381  1.8335 -0.0334 -0.0362
  183SOPE  H15Y21003   1.972   1.339   8.338  0.0591  1.4214 -1.1765
  183SOPE  C31621004   2.048   1.395   8.535 -0.0838 -0.2913  0.1919
  183SOPE  H16X21005   2.012   1.500   8.537 -1.5585 -0.7788 -0.1300
  183SOPE  H16Y21006   2.140   1.376   8.595 -0.6818  0.2015  1.3054
  183SOPE  C31721007   1.935   1.321   8.589  0.6597  0.4538 -0.0133
  183SOPE  H17X21008   1.943   1.211   8.602  2.2284  0.4457 -0.8302
  183SOPE  H17Y21009   1.855   1.322   8.512 -0.5738 -3.0748  1.0507
  183SOPE  C31821010   1.877   1.372   8.726 -0.7122 -0.2796  0.4336
  183SOPE  H18X21011   1.824   1.469   8.713  1.1243  0.6997  0.0210
  183SOPE  H18Y21012   1.967   1.383   8.790 -0.2401 -0.9257 -0.0990
  183SOPE  H18Z21013   1.804   1.294   8.757  0.0186 -0.9459  0.5009
  184SOPE     N21014   1.151   1.281   5.940  0.1519 -0.1301  0.1268
  184SOPE   HN121015   1.108   1.198   5.894  1.0893 -1.2650  1.2478
  184SOPE   HN221016   1.147   1.362   5.875 -2.4912 -0.8195 -0.6924
  184SOPE   HN321017   1.243   1.242   5.967  0.6161  0.3836 -0.6690
  184SOPE   C1221018   1.090   1.310   6.068  0.7595 -0.0107 -0.7333
  184SOPE  H12A21019   0.983   1.337   6.051  1.1551  2.8266  0.7166
  184SOPE  H12B21020   1.134   1.403   6.109  1.8659  0.4637 -2.8700
  184SOPE   C1121021   1.101   1.188   6.166 -0.0530 -0.2841 -0.1818
  184SOPE  H11A21022   1.056   1.208   6.266  0.0593 -5.8654  1.2901
  184SOPE  H11B21023   1.208   1.165   6.182 -0.2201 -0.4286  0.7818
  184SOPE     P21024   0.896   1.027   6.105  0.3959  0.0659  0.1593
  184SOPE   O1321025   0.882   0.897   6.034  0.0634  0.2058  0.3801
  184SOPE   O1421026   0.813   1.141   6.050  0.1688 -0.5181 -0.5458
  184SOPE   O1221027   1.042   1.077   6.096 -0.8627  0.3169 -0.4545
  184SOPE   O1121028   0.870   1.003   6.257  0.1433 -0.0209  0.7397
  184SOPE    C121029   0.944   0.935   6.356 -0.7244 -0.1906 -0.5690
  184SOPE    HA21030   1.052   0.949   6.337 -1.1808  0.5006 -3.0424
  184SOPE    HB21031   0.923   0.826   6.361 -1.0937 -0.0635  1.3352
  184SOPE    C221032   0.918   0.985   6.504  0.3696  0.1313  0.4243
  184SOPE    HS21033   0.967   1.084   6.510  0.6620 -0.0586  1.2675
  184SOPE   O2121034   0.973   0.877   6.588  0.3248  0.3921  0.2036
  184SOPE   C2121035   1.011   0.921   6.706 -0.5364 -0.0648 -0.9529
  184SOPE   O2221036   1.003   1.038   6.747 -0.1324 -0.2498 -0.3055
  184SOPE   C2221037   1.081   0.801   6.784  0.0151 -0.4859 -0.5042
  184SOPE   H2R21038   1.188   0.794   6.755  0.2343 -0.6640  0.3178
  184SOPE   H2S21039   1.036   0.704   6.751  0.3979 -0.5389 -0.8708
  184SOPE    C321040   0.763   0.997   6.527 -0.1686 -0.6777 -0.1051
  184SOPE    HX21041   0.731   0.891   6.513  1.1327 -1.0376 -0.5672
  184SOPE    HY21042   0.718   1.064   6.451  1.2332  2.3686  1.5597
  184SOPE   O3121043   0.731   1.046   6.659  0.0244 -0.4125  0.0550
  184SOPE   C3121044   0.735   1.173   6.672 -0.6470 -0.3540 -0.4932
  184SOPE   O3221045   0.772   1.252   6.590 -0.4947  0.0941  0.3253
  184SOPE   C3221046   0.692   1.208   6.808  0.2016  0.0030 -0.0808
  184SOPE   H2X21047   0.585   1.240   6.805 -0.4177 -1.9800 -0.7260
  184SOPE   H2Y21048   0.747   1.301   6.832 -0.7423  0.6602 -0.3930
  184SOPE   C2321049   1.086   0.830   6.933 -0.2598 -0.2324  0.1498
  184SOPE   H3R21050   0.991   0.807   6.985 -0.9829 -0.6092 -1.2626
  184SOPE   H3S21051   1.101   0.938   6.954 -0.6197 -0.2949  0.7546
  184SOPE   C2421052   1.198   0.750   7.002 -0.1214 -0.6673 -0.2305
  184SOPE   H4R21053   1.179   0.641   6.999 -1.3410 -0.4492 -0.7506
  184SOPE   H4S21054   1.289   0.761   6.938 -1.7060 -0.1163 -2.5034
  184SOPE   C2521055   1.240   0.804   7.138  0.6340 -0.0228 -0.2390
  184SOPE   H5R21056   1.334   0.759   7.176  0.3567 -0.1469  0.3191
  184SOPE   H5S21057   1.259   0.914   7.136 -0.9212  0.2863  0.1872
  184SOPE   C2621058   1.134   0.787   7.248 -0.7424 -0.3514  0.1338
  184SOPE   H6R21059   1.039   0.838   7.221 -0.4358  0.1402 -0.0559
  184SOPE   H6S21060   1.109   0.680   7.262 -1.6139 -0.6202 -2.7483
  184SOPE   C2721061   1.194   0.844   7.380 -0.6040  0.1224  0.0402
  184SOPE   H7R21062   1.284   0.780   7.392  0.8514  2.3518  1.9132
  184SOPE   H7S21063   1.229   0.949   7.366  1.5429 -0.5339  0.1085
  184SOPE   C2821064   1.108   0.817   7.505 -0.2280  0.2907 -0.0004
  184SOPE   H8R21065   1.027   0.893   7.503 -3.7788 -3.1343  0.6677
  184SOPE   H8S21066   1.063   0.717   7.483 -1.3983  1.3855 -3.1393
  184SOPE   C2921067   1.179   0.821   7.634 -0.2428 -0.6674 -0.2446
  184SOPE   H9121068   1.237   0.912   7.658 -0.6011 -1.2405  3.3813
  184SOPE  C21021069   1.168   0.737   7.743 -0.1088  0.3055  0.3599
  184SOPE  H10121070   1.226   0.767   7.831 -0.6762  0.6832  0.6123
  184SOPE  C21121071   1.084   0.612   7.748  0.2007  0.7694  0.5674
  184SOPE  H11R21072   1.144   0.527   7.711 -1.3506  0.1655 -0.6939
  184SOPE  H11S21073   0.991   0.621   7.688 -0.9439  2.2869  2.4276
  184SOPE  C21221074   1.032   0.574   7.886  0.1237 -0.4667 -0.1093
  184SOPE  H12R21075   1.121   0.541   7.943  1.1173  1.1808 -0.6401
  184SOPE  H12S21076   0.964   0.487   7.878 -0.3658 -0.3163  1.8561
  184SOPE  C21321077   0.956   0.683   7.963  1.0913 -0.3001 -0.6801
  184SOPE  H13R21078   0.877   0.726   7.898  0.3401 -0.7241 -0.0641
  184SOPE  H13S21079   1.025   0.767   7.987 -0.2811  0.2628  1.6595
  184SOPE  C21421080   0.882   0.627   8.095  0.5511 -0.3634 -0.7240
  184SOPE  H14R21081   0.941   0.576   8.174 -0.0435 -0.3030 -0.2302
  184SOPE  H14S21082   0.792   0.564   8.079 -0.6331  1.1929 -0.4990
  184SOPE  C21521083   0.809   0.744   8.168 -0.2387  0.0458 -0.4753
  184SOPE  H15R21084   0.733   0.703   8.238 -1.3243  1.5780 -0.7149
  184SOPE  H15S21085   0.760   0.807   8.091 -1.1307 -0.3815 -0.2758
  184SOPE  C21621086   0.884   0.837   8.262 -0.2450 -0.0541  0.5486
  184SOPE  H16R21087   0.980   0.863   8.213  0.7975 -1.0087  1.9841
  184SOPE  H16S21088   0.921   0.783   8.352  0.9426  0.0938  0.1577
  184SOPE  C21721089   0.796   0.957   8.289 -0.4332 -0.2880 -1.0384
  184SOPE  H17R21090   0.710   0.922   8.351 -1.3826  4.4522  0.7541
  184SOPE  H17S21091   0.759   0.995   8.192 -0.4415  1.1079 -0.5142
  184SOPE  C21821092   0.871   1.062   8.382  0.1615  0.6006  0.1046
  184SOPE  H18R21093   0.900   1.018   8.480  1.9311  0.2708 -0.5480
  184SOPE  H18S21094   0.800   1.142   8.413  0.1183  0.0757  1.4489
  184SOPE  H18T21095   0.959   1.107   8.332 -0.9131  0.5246 -1.9667
  184SOPE   C3321096   0.717   1.113   6.924  0.0790  0.2402  0.9377
  184SOPE   H3X21097   0.806   1.048   6.921 -1.8718 -2.5550 -1.2848
  184SOPE   H3Y21098   0.633   1.040   6.929  0.9767 -1.0359 -1.3064
  184SOPE   C3421099   0.718   1.172   7.064  0.1737 -0.0007  0.4977
  184SOPE   H4X21100   0.612   1.197   7.087 -0.5522  0.0370 -2.5171
  184SOPE   H4Y21101   0.776   1.266   7.073 -0.1496  0.2419  0.1178
  184SOPE   C3521102   0.759   1.070   7.171 -0.5060  0.4055  0.9563
  184SOPE   H5X21103   0.862   1.043   7.141 -1.0641  0.0825 -0.8202
  184SOPE   H5Y21104   0.707   0.973   7.157  1.8344 -0.8596  0.5806
  184SOPE   C3621105   0.734   1.119   7.317 -0.4748 -0.4755  0.2278
  184SOPE   H6X21106   0.626   1.137   7.340 -0.5651 -1.0062  0.2206
  184SOPE   H6Y21107   0.793   1.212   7.329  1.2840 -1.2917 -1.6107
  184SOPE   C3721108   0.786   1.025   7.421  0.2683  0.5684 -0.4043
  184SOPE   H7X21109   0.870   0.969   7.373  1.2933  1.0150  0.8035
  184SOPE   H7Y21110   0.701   0.956   7.441 -0.1119  0.6370 -1.7027
  184SOPE   C3821111   0.834   1.096   7.551 -0.1445 -0.2311  0.5289
  184SOPE   H8X21112   0.784   1.191   7.577 -0.7050 -0.2107 -0.5689
  184SOPE   H8Y21113   0.941   1.123   7.533 -0.8099  1.5211 -1.2560
  184SOPE   C3921114   0.819   1.004   7.671  0.3285 -0.6013 -0.5505
  184SOPE   H9X21115   0.839   0.895   7.657  1.3405 -0.5565  0.4075
  184SOPE   H9Y21116   0.714   1.002   7.707  0.7539 -0.3905  0.7559
  184SOPE  C31021117   0.908   1.062   7.785  0.1225  0.1694  0.0996
  184SOPE  H10X21118   1.006   1.097   7.747 -0.4331  2.5178  0.6301
  184SOPE  H10Y21119   0.931   0.982   7.859 -0.4814 -1.2057 -1.1514
  184SOPE  C31121120   0.854   1.175   7.876 -0.0542 -0.4073 -0.3306
  184SOPE  H11X21121   0.763   1.130   7.920 -0.1675  2.0384  2.2121
  184SOPE  H11Y21122   0.828   1.259   7.807  0.9284 -0.7037 -1.1043
  184SOPE  C31221123   0.944   1.234   7.995 -0.2518  0.0105  0.6681
  184SOPE  H12X21124   1.039   1.266   7.948 -1.7486  0.9683 -1.8524
  184SOPE  H12Y21125   0.953   1.152   8.070 -0.0518 -1.2506 -0.6810
  184SOPE  C31321126   0.887   1.353   8.078  0.4511 -0.2938  0.4628
  184SOPE  H13X21127   0.794   1.326   8.133  0.6510 -0.6570  0.6278
  184SOPE  H13Y21128   0.857   1.433   8.008  0.5948 -0.8157 -0.2002
  184SOPE  C31421129   0.987   1.413   8.182  0.0978 -0.1955 -0.5373
  184SOPE  H14X21130   1.084   1.444   8.137  0.3584 -0.8905 -0.4645
  184SOPE  H14Y21131   1.020   1.330   8.248 -0.0788 -1.5205 -2.0688
  184SOPE  C31521132   0.939   1.533   8.267  0.0607  0.0816  0.1787
  184SOPE  H15X21133   0.848   1.496   8.319  0.9003 -1.1464  0.8353
  184SOPE  H15Y21134   0.916   1.609   8.189  2.4411 -0.5903 -1.2876
  184SOPE  C31621135   1.044   1.572   8.367  0.7296  0.2608  0.2974
  184SOPE  H16X21136   1.013   1.664   8.421 -0.9340 -0.6719  0.9826
  184SOPE  H16Y21137   1.144   1.593   8.322  0.3338 -0.5286 -1.0073
  184SOPE  C31721138   1.046   1.474   8.483  0.1287  0.0066 -0.9080
  184SOPE  H17X21139   1.092   1.376   8.459  0.1855 -1.1926  3.2858
  184SOPE  H17Y21140   0.945   1.453   8.524  1.0783 -1.0829  1.0077
  184SOPE  C31821141   1.138   1.510   8.600  0.3433  0.2881  0.3457
  184SOPE  H18X21142   1.122   1.433   8.678  2.0957 -1.4038 -0.8646
  184SOPE  H18Y21143   1.127   1.612   8.644 -0.3358  0.2442  0.2802
  184SOPE  H18Z21144   1.245   1.505   8.569  0.0694  2.8970 -1.3743
  185SAPI   C1221145   4.661   4.873  11.044 -0.3513 -0.5606 -0.0827
  185SAPI    H221146   4.661   4.944  10.958  1.4951  1.3857  1.3968
  185SAPI    O221147   4.527   4.830  11.060  0.4136  0.1336  0.3369
  185SAPI   HO221148   4.468   4.904  11.076 -1.7284 -1.5619  0.6491
  185SAPI   C1321149   4.764   4.768  11.023 -1.1513  0.0528 -0.5913
  185SAPI    H321150   4.863   4.816  11.015 -0.8434 -0.6657 -1.3674
  185SAPI    O321151   4.741   4.698  10.899 -0.7355 -0.4035  0.5281
  185SAPI   HO321152   4.815   4.638  10.888 -0.0448  0.4016  0.7204
  185SAPI   C1421153   4.771   4.676  11.146  0.1646 -0.0065  0.4666
  185SAPI    H421154   4.672   4.629  11.162  0.1300 -0.1343 -0.1089
  185SAPI    O421155   4.863   4.573  11.113 -0.7959  0.4727 -0.4908
  185SAPI   HO421156   4.828   4.500  11.061 -0.2339 -0.7660  0.7928
  185SAPI   C1521157   4.809   4.754  11.263 -0.4066  0.0883  0.6591
  185SAPI    H521158   4.911   4.790  11.238 -0.1808 -1.7942 -1.4167
  185SAPI    O521159   4.809   4.675  11.383 -0.4925  1.0094 -0.1281
  185SAPI   HO521160   4.890   4.689  11.434 -0.3760 -1.3353  0.4431
  185SAPI   C1621161   4.713   4.878  11.286 -0.1972  1.1612  0.6010
  185SAPI    H621162   4.613   4.837  11.312 -0.2465 -0.2810 -1.6252
  185SAPI    O621163   4.765   4.961  11.393  0.6490  0.5794  0.1761
  185SAPI   HO621164   4.700   5.029  11.412  0.0382  0.2667 -0.6824
  185SAPI   C1121165   4.711   4.958  11.158 -0.4728  0.4475  0.1126
  185SAPI    H121166   4.819   4.979  11.142 -0.0358 -1.9495 -0.4826
  185SAPI     P21167   4.693   5.227  11.135  0.2671  0.0207  0.1076
  185SAPI   O1321168   4.819   5.244  11.203  0.0662 -0.7829  0.3942
  185SAPI   O1421169   4.589   5.327  11.157 -0.1895 -0.4409  0.1987
  185SAPI   O1221170   4.629   5.076  11.163 -0.8112 -0.5536  0.2417
  185SAPI   O1121171   4.721   5.224  10.982  0.2095 -0.4653 -0.2324
  185SAPI    C121172   4.803   5.323  10.930  0.3994  0.2972 -0.0385
  185SAPI    HA21173   4.768   5.426  10.951  1.2663  0.3566  1.2045
  185SAPI    HB21174   4.906   5.310  10.970  0.2840  0.0456  0.1855
  185SAPI    C221175   4.826   5.312  10.774  0.4217 -0.0503 -0.2161
  185SAPI    HS21176   4.909   5.379  10.743  0.1757  0.2204 -0.2930
  185SAPI   O2121177   4.711   5.351  10.699  0.0779 -0.1565 -0.4586
  185SAPI   C2121178   4.693   5.481  10.677 -0.0511  0.2088 -0.1720
  185SAPI   O2221179   4.771   5.567  10.719  0.5725  0.4272  0.4399
  185SAPI   C2221180   4.580   5.511  10.586 -0.0435  0.5503  0.2015
  185SAPI   H2R21181   4.520   5.419  10.565  0.9789  0.3356 -2.0392
  185SAPI   H2S21182   4.510   5.589  10.624 -1.3751 -0.1281 -0.7626
  185SAPI    C321183   4.865   5.172  10.739 -0.4724 -0.0303 -0.4603
  185SAPI    HX21184   4.785   5.107  10.780 -1.8823  2.0565  0.3074
  185SAPI    HY21185   4.956   5.146  10.797 -0.4031  0.6170 -0.2726
  185SAPI   O3121186   4.890   5.153  10.599  0.3223 -0.7681 -0.2267
  185SAPI   C3121187   5.000   5.202  10.550  0.8584 -0.0075 -0.5697
  185SAPI   O3221188   5.083   5.273  10.601 -0.5879  0.4338  0.9523
  185SAPI   C3221189   5.004   5.155  10.401  0.3075  0.4158 -0.3119
  185SAPI   H2X21190   4.930   5.222  10.352 -3.2217 -4.2771 -2.1550
  185SAPI   H2Y21191   4.962   5.053  10.385 -1.5994  1.1899 -0.4859
  185SAPI   C2321192   4.634   5.545  10.441  0.2917 -0.3515 -0.5455
  185SAPI   H3R21193   4.700   5.633  10.447  1.1558 -0.8787 -1.8381
  185SAPI   H3S21194   4.551   5.579  10.375  2.3004  1.3932 -2.2959
  185SAPI   C2421195   4.698   5.433  10.362  0.3531 -0.6145 -0.0969
  185SAPI   H4R21196   4.626   5.350  10.343  0.3384 -0.7970  0.6983
  185SAPI   H4S21197   4.775   5.381  10.423  2.5345  0.9396 -1.3831
  185SAPI   C2521198   4.756   5.480  10.230 -0.1481  0.0585 -0.2040
  185SAPI   H5R21199   4.838   5.552  10.241  0.3942 -0.6244  0.2758
  185SAPI   C2621200   4.729   5.437  10.103 -0.1032 -0.0928 -0.3236
  185SAPI   H6R21201   4.778   5.491  10.021  1.0142  3.1532  2.2532
  185SAPI   C2721202   4.618   5.343  10.063  0.2171  0.5341 -0.4762
  185SAPI   H7R21203   4.598   5.360   9.955  2.2794  0.6336 -0.8973
  185SAPI   H7S21204   4.530   5.374  10.123 -0.2259 -0.1582 -0.7584
  185SAPI   C2821205   4.648   5.195  10.084  0.8559  0.6537  0.2047
  185SAPI   H8R21206   4.665   5.160  10.186 -0.6014 -0.2343  0.1816
  185SAPI   C2921207   4.645   5.091   9.995 -0.5479  0.0043 -0.0622
  185SAPI   H9R21208   4.671   4.994  10.039 -2.2017 -0.5498 -0.2230
  185SAPI  C21021209   4.606   5.081   9.846  0.5120  0.5972 -0.3826
  185SAPI  H10R21210   4.679   5.028   9.780  0.9293  0.9947 -0.2523
  185SAPI  H10S21211   4.591   5.187   9.814 -0.5381  0.5130 -0.1956
  185SAPI  C21121212   4.471   5.011   9.823  0.0402  0.6131  0.4722
  185SAPI  H11R21213   4.474   4.906   9.857 -0.7777  1.0715  2.0557
  185SAPI  C21221214   4.359   5.063   9.775 -0.4962  0.4788  0.8776
  185SAPI  H12R21215   4.266   5.005   9.768 -1.8285  2.3980  1.8192
  185SAPI  C21321216   4.332   5.203   9.734  0.0149  0.3541 -0.1006
  185SAPI  H13R21217   4.409   5.279   9.759 -2.3223  2.9859 -0.4409
  185SAPI  H13S21218   4.247   5.237   9.798  0.9663 -0.1761  1.5081
  185SAPI  C21421219   4.294   5.199   9.588  0.1173  0.7231 -0.5082
  185SAPI  H14R21220   4.210   5.129   9.574  0.7564  0.0709 -1.2263
  185SAPI  C21521221   4.360   5.247   9.480 -0.1165 -0.1024  0.4779
  185SAPI  H15R21222   4.329   5.218   9.378  1.8275  0.3870 -0.3033
  185SAPI  C21621223   4.482   5.335   9.475  0.1722 -0.1729 -0.5112
  185SAPI  H16R21224   4.500   5.388   9.571 -0.4484  0.3776 -0.6896
  185SAPI  H16S21225   4.461   5.414   9.399 -2.5622 -0.8474 -0.5689
  185SAPI  C21721226   4.607   5.256   9.425  0.0633  0.2208 -0.7275
  185SAPI  H17R21227   4.616   5.158   9.476  3.4229  0.1413 -1.2518
  185SAPI  H17S21228   4.694   5.320   9.450 -1.3641  2.7196 -1.7041
  185SAPI  C21821229   4.603   5.242   9.280 -0.1724 -0.0891  0.3862
  185SAPI  H18R21230   4.585   5.341   9.233 -0.3894  0.5344  1.7556
  185SAPI  H18S21231   4.519   5.177   9.247 -2.8432  2.9948  0.6335
  185SAPI  C21921232   4.742   5.185   9.227  0.8121  0.4306 -0.4966
  185SAPI  H19R21233   4.820   5.241   9.283  0.4061  0.5283 -0.0238
  185SAPI  H19S21234   4.748   5.198   9.117  0.5748  0.2943 -0.5277
  185SAPI  C22021235   4.762   5.036   9.259 -0.3915 -0.3230 -0.3733
  185SAPI  H20R21236   4.838   4.993   9.190  1.4531 -1.2154  2.0674
  185SAPI  H20S21237   4.664   4.987   9.242 -1.4227  1.0555  1.3040
  185SAPI  H20T21238   4.808   5.011   9.357  0.7210 -0.3665 -0.8900
  185SAPI   C3321239   5.142   5.188  10.338 -0.0000 -0.1299 -0.2940
  185SAPI   H3X21240   5.218   5.118  10.380  1.1240 -0.6019 -2.9318
  185SAPI   H3Y21241   5.176   5.292  10.357  0.7360 -0.5229  0.6978
  185SAPI   C3421242   5.145   5.162  10.188  0.6723 -0.5519  0.0911
  185SAPI   H4X21243   5.076   5.078  10.164 -3.4537  1.0458  4.7018
  185SAPI   H4Y21244   5.248   5.152  10.148  0.6963 -1.7446  0.4167
  185SAPI   C3521245   5.072   5.274  10.110 -0.4133 -0.0337 -0.3450
  185SAPI   H5X21246   5.141   5.361  10.113  0.4104 -0.5642 -2.1842
  185SAPI   H5Y21247   4.980   5.308  10.162 -0.1741  0.1927 -0.0719
  185SAPI   C3621248   5.049   5.215   9.971 -0.1394  0.2859 -0.3636
  185SAPI   H6X21249   5.020   5.305   9.912 -3.1165  0.3927  1.0797
  185SAPI   H6Y21250   4.962   5.145   9.969  0.5426 -0.5708 -2.4624
  185SAPI   C3721251   5.174   5.168   9.897 -0.1971  0.1359  0.2305
  185SAPI   H7X21252   5.191   5.063   9.928 -0.8609 -0.8832 -2.5459
  185SAPI   H7Y21253   5.267   5.226   9.918  0.3877 -1.0053  0.9402
  185SAPI   C3821254   5.148   5.168   9.751 -0.3119 -0.4780  0.8648
  185SAPI   H8X21255   5.116   5.269   9.718 -1.1509 -1.1389 -0.4487
  185SAPI   H8Y21256   5.066   5.099   9.720 -2.4693  1.7463  1.3125
  185SAPI   C3921257   5.269   5.136   9.660  0.2464  0.6063  0.4692
  185SAPI   H9X21258   5.348   5.079   9.712 -0.4540  0.1704  1.0783
  185SAPI   H9Y21259   5.312   5.236   9.638 -0.7933  0.6757 -1.4359
  185SAPI  C31021260   5.234   5.052   9.521 -0.3517  0.2827  0.0427
  185SAPI  H10X21261   5.188   4.954   9.544  2.3724 -1.5713 -1.8556
  185SAPI  H10Y21262   5.324   5.041   9.458  0.5187 -0.0010  1.2926
  185SAPI  C31121263   5.153   5.131   9.424  0.2037 -0.1418  0.7408
  185SAPI  H11X21264   5.194   5.232   9.402 -1.4593  0.0054 -2.0189
  185SAPI  H11Y21265   5.050   5.142   9.465 -0.9095  1.7477 -2.2570
  185SAPI  C31221266   5.132   5.051   9.286  0.0856  0.2220  0.0401
  185SAPI  H12X21267   5.041   5.094   9.239  0.5671  1.6562  0.3756
  185SAPI  H12Y21268   5.098   4.945   9.294  0.6120 -0.1393 -1.8305
  185SAPI  C31321269   5.240   5.068   9.189  0.6702 -0.1703  0.4251
  185SAPI  H13X21270   5.326   5.008   9.227  0.5835 -0.6341 -0.0945
  185SAPI  H13Y21271   5.281   5.171   9.189 -1.9046  0.9245  0.0545
  185SAPI  C31421272   5.213   5.046   9.039 -0.3987 -0.0479  0.0661
  185SAPI  H14X21273   5.145   5.130   9.015 -0.5271 -0.8327 -2.5720
  185SAPI  H14Y21274   5.163   4.947   9.029 -0.8868 -0.2264  3.1948
  185SAPI  C31521275   5.340   5.047   8.957  1.3677  0.3297  0.4167
  185SAPI  H15X21276   5.401   4.960   8.989  2.6719  0.8695 -0.5058
  185SAPI  H15Y21277   5.400   5.139   8.971  0.2996  1.3603 -1.3222
  185SAPI  C31621278   5.321   5.035   8.805  0.0078 -0.4293  0.7559
  185SAPI  H16X21279   5.254   5.117   8.769  1.2232  0.6666  0.9110
  185SAPI  H16Y21280   5.288   4.936   8.768 -0.9478  0.8956 -2.3065
  185SAPI  C31721281   5.453   5.066   8.729  1.3787  0.1716 -0.2718
  185SAPI  H17X21282   5.529   5.007   8.785 -0.9448 -4.0217 -1.1756
  185SAPI  H17Y21283   5.473   5.176   8.725  2.3690  0.0043 -0.2033
  185SAPI  C31821284   5.443   5.018   8.591 -0.8430  0.1174  0.3271
  185SAPI  H18X21285   5.405   4.915   8.577 -0.2498  0.2083 -2.2831
  185SAPI  H18Y21286   5.525   5.025   8.517  0.8300 -2.3588  1.7919
  185SAPI  H18Z21287   5.366   5.082   8.542 -1.2761 -1.0551 -0.5479
  186SAPI   C1221288   5.068   3.508  11.061  1.1614  0.2277  0.0154
  186SAPI    H221289   5.066   3.400  11.035  0.6785  0.0940  0.6125
  186SAPI    O221290   4.963   3.566  10.977  0.6636 -0.1195 -0.0245
  186SAPI   HO221291   4.945   3.502  10.908 -4.2480  1.0714 -0.2025
  186SAPI   C1321292   5.042   3.539  11.208 -0.1588  0.0997 -0.1242
  186SAPI    H321293   5.115   3.482  11.268  1.0973 -1.1128 -2.6614
  186SAPI    O321294   4.905   3.499  11.248 -0.0064 -0.4635  0.7747
  186SAPI   HO321295   4.846   3.549  11.191  0.9962 -0.8500 -0.6872
  186SAPI   C1421296   5.066   3.686  11.235  0.3247 -0.9094 -0.2595
  186SAPI    H421297   4.997   3.749  11.174  0.3994  0.5068  1.0872
  186SAPI    O421298   5.035   3.705  11.373 -0.2175 -0.1778 -0.0852
  186SAPI   HO421299   5.108   3.730  11.429 -0.8602  1.0073  0.2628
  186SAPI   C1521300   5.209   3.722  11.204  0.7370  0.5221 -0.1602
  186SAPI    H521301   5.272   3.653  11.264 -1.9909 -1.3265  0.7398
  186SAPI    O521302   5.239   3.856  11.250 -0.2263 -0.2360  0.5416
  186SAPI   HO521303   5.333   3.869  11.238  0.1679 -3.1200 -0.2203
  186SAPI   C1621304   5.232   3.700  11.054  0.1757  0.1633  0.4339
  186SAPI    H621305   5.165   3.760  10.988  2.4505  0.1190 -2.1223
  186SAPI    O621306   5.365   3.736  11.028 -0.2409  0.6069  0.6289
  186SAPI   HO621307   5.369   3.802  10.958 -1.6240 -1.1571 -1.2112
  186SAPI   C1121308   5.205   3.555  11.023  0.0744 -0.1217  0.0541
  186SAPI    H121309   5.278   3.505  11.090  1.0779  0.7613 -0.3608
  186SAPI     P21310   5.280   3.395  10.819 -0.0297  0.0935 -0.1142
  186SAPI   O1321311   5.175   3.361  10.717 -0.6563  0.8214  0.1241
  186SAPI   O1421312   5.317   3.295  10.920  0.0374  0.0512  0.2388
  186SAPI   O1221313   5.242   3.535  10.889 -1.0489 -0.0189 -0.0314
  186SAPI   O1121314   5.410   3.434  10.745 -0.5803 -0.0580  0.1212
  186SAPI    C121315   5.461   3.569  10.728 -0.5289  0.2210 -0.4642
  186SAPI    HA21316   5.386   3.650  10.719 -2.4096 -1.0919  2.2540
  186SAPI    HB21317   5.524   3.612  10.809 -0.4098  2.9520 -1.8832
  186SAPI    C221318   5.548   3.569  10.594  0.7244  0.3469  0.9450
  186SAPI    HS21319   5.572   3.677  10.585  1.6083  0.3404  2.6956
  186SAPI   O2121320   5.474   3.512  10.482 -0.3812  0.2645 -0.3422
  186SAPI   C2121321   5.364   3.580  10.455  0.0855  0.7132 -0.8408
  186SAPI   O2221322   5.326   3.685  10.503 -0.4939  0.2559 -0.2683
  186SAPI   C2221323   5.293   3.534  10.327  0.4785  0.5330 -0.2033
  186SAPI   H2R21324   5.288   3.423  10.329  0.3162  0.5173 -0.9780
  186SAPI   H2S21325   5.188   3.571  10.324  0.1123 -0.4707 -0.2245
  186SAPI    C321326   5.688   3.502  10.611 -0.1683  0.4010  0.0362
  186SAPI    HX21327   5.666   3.404  10.659 -2.4891 -0.2417 -2.1120
  186SAPI    HY21328   5.755   3.564  10.674 -1.3591  1.1402  0.6209
  186SAPI   O3121329   5.750   3.468  10.486  0.4717 -0.3157 -0.0350
  186SAPI   C3121330   5.866   3.406  10.514  0.2839 -0.2931  0.0968
  186SAPI   O3221331   5.915   3.405  10.628  0.6046  0.2792  0.1238
  186SAPI   C3221332   5.924   3.346  10.386 -0.3675  0.3021  0.3281
  186SAPI   H2X21333   5.995   3.263  10.404 -1.8956 -1.0783  0.2394
  186SAPI   H2Y21334   5.975   3.433  10.339  2.8156 -1.5180  0.0777
  186SAPI   C2321335   5.372   3.588  10.204  0.0822 -0.7016 -0.5611
  186SAPI   H3R21336   5.470   3.536  10.196 -0.3174 -1.5910  0.2146
  186SAPI   H3S21337   5.382   3.698  10.210  1.2637 -0.7673 -0.9787
  186SAPI   C2421338   5.285   3.585  10.070  0.3563  0.5513 -0.2188
  186SAPI   H4R21339   5.337   3.661  10.009  1.1528  2.4013  2.5597
  186SAPI   H4S21340   5.183   3.627  10.079  0.5104  1.0022 -0.5731
  186SAPI   C2521341   5.308   3.444  10.016 -0.2951  1.0802 -0.0937
  186SAPI   H5R21342   5.292   3.366  10.092 -1.6655  0.3148 -1.1192
  186SAPI   C2621343   5.349   3.407   9.889 -0.1627 -0.2027  0.0603
  186SAPI   H6R21344   5.363   3.303   9.857  0.2983  0.1839 -1.0322
  186SAPI   C2721345   5.374   3.508   9.775  0.0833  0.2956 -0.0804
  186SAPI   H7R21346   5.437   3.458   9.699 -1.7446  2.3423 -3.1763
  186SAPI   H7S21347   5.441   3.590   9.808  0.1614  0.4360 -0.5749
  186SAPI   C2821348   5.236   3.542   9.724 -0.3477  0.4728 -0.0538
  186SAPI   H8R21349   5.172   3.588   9.801 -0.6926 -0.0945  0.0035
  186SAPI   C2921350   5.187   3.531   9.602  0.0067 -0.0164  1.3530
  186SAPI   H9R21351   5.081   3.558   9.592 -0.9218 -2.7442  2.6361
  186SAPI  C21021352   5.254   3.473   9.476 -0.0096  0.8105 -0.7301
  186SAPI  H10R21353   5.364   3.474   9.493  0.0992  1.8587 -1.3935
  186SAPI  H10S21354   5.237   3.542   9.391  0.4914  0.4961 -1.0903
  186SAPI  C21121355   5.205   3.328   9.445 -0.5027 -1.0615 -0.6833
  186SAPI  H11R21356   5.204   3.259   9.531  3.1845  1.6494  1.8835
  186SAPI  C21221357   5.196   3.278   9.322  0.2549  0.4634  0.8048
  186SAPI  H12R21358   5.161   3.175   9.301 -0.5102  0.5149  1.7766
  186SAPI  C21321359   5.222   3.355   9.189 -0.5465  0.3325  0.4919
  186SAPI  H13R21360   5.156   3.444   9.183 -1.0841 -0.1178 -0.6351
  186SAPI  H13S21361   5.186   3.292   9.105  0.7672 -0.7664  0.7162
  186SAPI  C21421362   5.365   3.391   9.165 -0.0418 -0.7408 -0.0178
  186SAPI  H14R21363   5.409   3.454   9.243 -0.5471 -2.4401  1.7130
  186SAPI  C21521364   5.449   3.326   9.081 -0.2352 -0.7917 -1.3187
  186SAPI  H15R21365   5.552   3.365   9.084 -0.8945  1.0357 -0.6611
  186SAPI  C21621366   5.416   3.217   8.986 -0.5601  0.0503 -0.6300
  186SAPI  H16R21367   5.305   3.210   8.985 -0.5548 -2.2098  2.0371
  186SAPI  H16S21368   5.458   3.128   9.037  0.9108  1.7967  1.4050
  186SAPI  C21721369   5.481   3.234   8.846  0.4926 -0.0695 -0.7542
  186SAPI  H17R21370   5.590   3.226   8.868  0.8802  0.5906 -2.3005
  186SAPI  H17S21371   5.454   3.332   8.802 -1.0314 -0.0979  0.0766
  186SAPI  C21821372   5.435   3.128   8.748  0.0050 -0.3350 -0.1591
  186SAPI  H18R21373   5.324   3.121   8.752  0.0445 -0.4263  1.2516
  186SAPI  H18S21374   5.474   3.031   8.787  3.2212  0.7296 -0.3851
  186SAPI  C21921375   5.476   3.149   8.606 -0.4577 -0.2004 -0.0313
  186SAPI  H19R21376   5.587   3.148   8.599 -0.4677 -0.9934 -0.0932
  186SAPI  H19S21377   5.439   3.242   8.558  2.2522  0.7229 -0.5378
  186SAPI  C22021378   5.432   3.024   8.528 -0.0842  0.4320 -0.2740
  186SAPI  H20R21379   5.482   3.013   8.429  1.2658 -0.5510  0.4873
  186SAPI  H20S21380   5.322   3.018   8.513 -0.6011  1.2655  2.6586
  186SAPI  H20T21381   5.459   2.931   8.582 -1.6559 -0.2410 -0.5807
  186SAPI   C3321382   5.824   3.288  10.280 -0.2345 -0.1167 -0.6657
  186SAPI   H3X21383   5.771   3.382  10.256  0.2606  0.3389 -0.0070
  186SAPI   H3Y21384   5.749   3.225  10.334  1.3857 -0.6887  1.0546
  186SAPI   C3421385   5.888   3.228  10.158 -0.0083  0.4620  0.3027
  186SAPI   H4X21386   5.896   3.119  10.181 -2.9322  0.4958  1.9477
  186SAPI   H4Y21387   5.993   3.265  10.151  0.0879  0.6751  2.4415
  186SAPI   C3521388   5.821   3.257  10.027  0.4951  0.1905 -0.1691
  186SAPI   H5X21389   5.819   3.366  10.011 -1.0652  0.0850 -0.8549
  186SAPI   H5Y21390   5.714   3.227  10.033 -0.2010  2.6753  1.8778
  186SAPI   C3621391   5.885   3.195   9.905  0.1042  0.4431  0.2787
  186SAPI   H6X21392   5.871   3.086   9.921  1.8000  0.0251 -0.7816
  186SAPI   H6Y21393   5.996   3.210   9.908  0.2978 -0.9772  0.7925
  186SAPI   C3721394   5.828   3.257   9.773  0.0986  0.2735 -0.3615
  186SAPI   H7X21395   5.841   3.367   9.762 -1.7461  0.5249 -0.4233
  186SAPI   H7Y21396   5.722   3.224   9.769  0.7185 -1.9505  0.1211
  186SAPI   C3821397   5.893   3.182   9.666  0.3876  0.6133  0.8022
  186SAPI   H8X21398   5.861   3.076   9.653 -0.9247  0.9710  0.9882
  186SAPI   H8Y21399   6.001   3.169   9.688  0.8590 -0.4422 -1.7551
  186SAPI   C3921400   5.890   3.267   9.539  0.6361 -0.3800 -0.4795
  186SAPI   H9X21401   5.943   3.362   9.565 -0.5562 -0.3515  2.2246
  186SAPI   H9Y21402   5.786   3.280   9.501  0.9954 -2.6432 -2.4685
  186SAPI  C31021403   5.954   3.189   9.420  0.2170  0.8145  0.0379
  186SAPI  H10X21404   5.910   3.087   9.421  0.6962  0.6043 -0.5889
  186SAPI  H10Y21405   6.062   3.183   9.445  0.7169  3.4356 -1.1696
  186SAPI  C31121406   5.932   3.247   9.285 -0.1993 -0.4197  0.1399
  186SAPI  H11X21407   5.931   3.358   9.298  0.4226 -0.5193  1.1122
  186SAPI  H11Y21408   5.834   3.222   9.239  0.2969 -0.5916 -0.8500
  186SAPI  C31221409   6.046   3.211   9.197 -0.0569 -0.4450 -0.2811
  186SAPI  H12X21410   6.065   3.102   9.210 -1.1226 -0.6429 -0.2938
  186SAPI  H12Y21411   6.135   3.269   9.230  0.7145 -1.1188 -1.0956
  186SAPI  C31321412   6.030   3.242   9.050 -0.4334  0.1873 -0.4565
  186SAPI  H13X21413   6.133   3.214   9.019  0.6142  1.1131  1.9266
  186SAPI  H13Y21414   6.020   3.352   9.035  0.5100  0.1892 -1.1969
  186SAPI  C31421415   5.941   3.156   8.964  0.5578 -0.6159  0.7129
  186SAPI  H14X21416   5.835   3.187   8.977  0.2872 -1.5805  0.8815
  186SAPI  H14Y21417   5.935   3.049   8.994 -2.5978 -0.7762 -0.1221
  186SAPI  C31521418   5.988   3.152   8.813 -0.0155  0.1688 -0.0323
  186SAPI  H15X21419   6.046   3.242   8.783 -1.3819 -0.0234 -3.7735
  186SAPI  H15Y21420   5.894   3.134   8.756 -0.1544 -1.2613  0.6020
  186SAPI  C31621421   6.076   3.024   8.780 -0.1965  0.0148 -0.1488
  186SAPI  H16X21422   6.025   2.931   8.813  0.7323 -0.2064  0.6994
  186SAPI  H16Y21423   6.166   3.035   8.845  0.3825 -1.3818 -0.6635
  186SAPI  C31721424   6.105   3.013   8.626  0.8413  0.0705 -0.1903
  186SAPI  H17X21425   6.149   3.111   8.595 -0.6261  0.9281  0.3417
  186SAPI  H17Y21426   6.006   3.021   8.577  0.0685  0.3620  1.3652
  186SAPI  C31821427   6.189   2.898   8.587 -0.7581 -0.4751 -0.4793
  186SAPI  H18X21428   6.185   2.884   8.477  0.7550 -1.4491 -0.4448
  186SAPI  H18Y21429   6.153   2.802   8.631 -0.2096 -0.3655  0.2326
  186SAPI  H18Z21430   6.297   2.909   8.609 -0.6626 -0.7071 -0.8165
  187SAPI   C1221431   2.504   3.384   6.506 -0.2224 -0.1817  0.1611
  187SAPI    H221432   2.399   3.399   6.536  0.0177  0.4607  0.7048
  187SAPI    O221433   2.583   3.359   6.623 -0.2115 -0.1461  0.3747
  187SAPI   HO221434   2.610   3.444   6.659  0.2133 -0.1338  0.0351
  187SAPI   C1321435   2.515   3.272   6.401  0.9498  0.1469  0.1935
  187SAPI    H321436   2.441   3.301   6.324 -0.2987  1.1230  1.6967
  187SAPI    O321437   2.469   3.150   6.459  0.4252  0.3915  0.1762
  187SAPI   HO321438   2.375   3.163   6.476  0.5802 -1.0324  2.6256
  187SAPI   C1421439   2.654   3.255   6.359 -0.0330 -0.3189  0.9010
  187SAPI    H421440   2.705   3.229   6.454 -3.1434 -1.4789  2.4141
  187SAPI    O421441   2.679   3.141   6.277 -0.2050 -0.4977  0.0577
  187SAPI   HO421442   2.602   3.126   6.223  0.1443  1.9523 -1.3016
  187SAPI   C1521443   2.708   3.382   6.298 -0.4614  0.1571  0.5362
  187SAPI    H521444   2.647   3.407   6.209 -0.8266 -1.0036  0.4501
  187SAPI    O521445   2.844   3.364   6.253 -0.5955 -1.0144  0.4786
  187SAPI   HO521446   2.903   3.382   6.327 -1.2307 -0.3632  0.8424
  187SAPI   C1621447   2.693   3.498   6.389  0.6344 -0.4437  0.5552
  187SAPI    H621448   2.761   3.480   6.475 -0.3239 -0.2340  1.3750
  187SAPI    O621449   2.739   3.619   6.331 -0.9521 -0.2085 -0.0284
  187SAPI   HO621450   2.754   3.680   6.404 -0.1708  0.2138 -0.5349
  187SAPI   C1121451   2.555   3.515   6.439 -0.1889  0.0083 -0.7062
  187SAPI    H121452   2.498   3.535   6.345  0.8736 -0.4713 -1.4845
  187SAPI     P21453   2.415   3.726   6.524  0.1955  0.3337 -0.2145
  187SAPI   O1321454   2.294   3.640   6.511 -0.0581 -0.8630 -0.2052
  187SAPI   O1421455   2.436   3.842   6.436  0.3934 -0.0451  0.4538
  187SAPI   O1221456   2.554   3.628   6.529  0.2649 -0.2547 -0.6576
  187SAPI   O1121457   2.424   3.779   6.677 -0.5256 -0.2266 -0.0929
  187SAPI    C121458   2.357   3.715   6.785 -0.2031  0.4282  0.4189
  187SAPI    HA21459   2.349   3.604   6.787  0.2045  0.3011 -1.6902
  187SAPI    HB21460   2.416   3.734   6.877  0.0616 -0.0032  0.3408
  187SAPI    C221461   2.214   3.776   6.802 -0.9006 -0.1414  0.4068
  187SAPI    HS21462   2.168   3.763   6.702 -0.9843  2.5900  0.0227
  187SAPI   O2121463   2.221   3.921   6.831  0.4658  0.1175  0.3306
  187SAPI   C2121464   2.108   3.985   6.829 -0.1452 -0.3670  0.6856
  187SAPI   O2221465   1.996   3.947   6.804 -0.5103  0.0100  0.3302
  187SAPI   C2221466   2.130   4.133   6.846 -0.2016  0.2605  0.1219
  187SAPI   H2R21467   2.162   4.182   6.752  1.0757  0.0058  0.4053
  187SAPI   H2S21468   2.025   4.166   6.864 -0.1953 -1.2014  3.5633
  187SAPI    C321469   2.135   3.688   6.909 -0.8093 -0.1647  0.2083
  187SAPI    HX21470   2.126   3.582   6.877 -2.9973 -0.8570  2.7155
  187SAPI    HY21471   2.030   3.726   6.909 -0.5686  0.5309 -0.8138
  187SAPI   O3121472   2.199   3.699   7.037 -0.7491  0.1630  0.2324
  187SAPI   C3121473   2.142   3.773   7.130 -0.2200  0.0610  0.1120
  187SAPI   O3221474   2.044   3.843   7.120 -0.2119  0.8322  0.1514
  187SAPI   C3221475   2.224   3.744   7.261  0.1157 -0.0210  0.2258
  187SAPI   H2X21476   2.320   3.800   7.270 -0.2107  1.0633 -2.1793
  187SAPI   H2Y21477   2.266   3.641   7.263  1.9991  0.6850 -0.0330
  187SAPI   C2321478   2.217   4.187   6.960 -0.7368  0.4928 -0.2092
  187SAPI   H3R21479   2.325   4.182   6.937 -0.0803  5.2171  0.8583
  187SAPI   H3S21480   2.194   4.138   7.057 -1.6990  1.6209  0.1538
  187SAPI   C2421481   2.193   4.338   6.960 -0.1134 -0.4307  0.0417
  187SAPI   H4R21482   2.259   4.385   7.036  0.4527  1.4527 -1.5086
  187SAPI   H4S21483   2.087   4.345   6.991  0.1049 -1.9582  1.2440
  187SAPI   C2521484   2.220   4.415   6.834 -0.3043  0.2457 -0.4538
  187SAPI   H5R21485   2.327   4.420   6.808 -0.5415  3.8942 -1.2321
  187SAPI   C2621486   2.141   4.482   6.752  0.1624  0.6626  0.3300
  187SAPI   H6R21487   2.196   4.512   6.661  1.5732 -2.5890 -0.0595
  187SAPI   C2721488   1.989   4.495   6.760 -0.1969  0.2533 -0.9303
  187SAPI   H7R21489   1.955   4.494   6.865 -0.6925 -1.2668 -1.0818
  187SAPI   H7S21490   1.931   4.413   6.713 -1.5153  1.4107 -1.3930
  187SAPI   C2821491   1.918   4.612   6.695  0.1941  0.2522  0.7540
  187SAPI   H8R21492   1.964   4.637   6.598 -0.2136  1.4126  0.8496
  187SAPI   C2921493   1.827   4.693   6.745 -0.1986 -0.3574 -0.0502
  187SAPI   H9R21494   1.777   4.775   6.691  0.4407  0.2878  0.3173
  187SAPI  C21021495   1.779   4.681   6.887  0.0593 -0.6136  0.6750
  187SAPI  H10R21496   1.734   4.582   6.910  1.1483 -1.3681 -0.3330
  187SAPI  H10S21497   1.677   4.726   6.885  0.0279 -0.6888 -0.2808
  187SAPI  C21121498   1.862   4.723   7.000  0.4427 -0.5619 -0.3869
  187SAPI  H11R21499   1.929   4.806   6.974 -1.5545  0.6835 -1.8326
  187SAPI  C21221500   1.862   4.661   7.121  0.3532 -0.0526  0.1389
  187SAPI  H12R21501   1.930   4.690   7.203 -1.0092  0.2921  1.2008
  187SAPI  C21321502   1.773   4.547   7.164  0.9796 -0.3675  0.2073
  187SAPI  H13R21503   1.820   4.512   7.258  2.1024  0.4491 -0.0274
  187SAPI  H13S21504   1.781   4.469   7.085 -1.0381 -0.4643  0.0445
  187SAPI  C21421505   1.632   4.596   7.171 -0.3764 -0.0251  0.2011
  187SAPI  H14R21506   1.600   4.661   7.088 -1.4228  0.5604  1.0484
  187SAPI  C21521507   1.547   4.558   7.265 -0.1304  0.2671 -0.1061
  187SAPI  H15R21508   1.446   4.603   7.271  0.5620  1.7081  3.3802
  187SAPI  C21621509   1.580   4.478   7.383  0.0699  0.2692  0.6763
  187SAPI  H16R21510   1.690   4.469   7.397 -0.0619  0.6875  2.0958
  187SAPI  H16S21511   1.554   4.374   7.352 -5.2264  1.5760 -0.1191
  187SAPI  C21721512   1.520   4.497   7.520 -0.7692 -1.2855  0.0526
  187SAPI  H17R21513   1.420   4.448   7.520 -1.0662 -0.6851  0.4807
  187SAPI  H17S21514   1.502   4.602   7.549  2.8101 -0.8216  1.0824
  187SAPI  C21821515   1.607   4.435   7.626 -0.3597  1.1728  0.5308
  187SAPI  H18R21516   1.707   4.483   7.626 -0.5573  1.7539  3.2018
  187SAPI  H18S21517   1.622   4.329   7.596 -1.8143  1.6969 -2.4033
  187SAPI  C21921518   1.559   4.445   7.770 -0.3287  0.2742 -0.0542
  187SAPI  H19R21519   1.623   4.379   7.832  0.2368 -0.1865 -1.0911
  187SAPI  H19S21520   1.454   4.408   7.766  0.3540 -1.7315 -2.1534
  187SAPI  C22021521   1.575   4.587   7.817 -0.0102 -0.0298  0.0702
  187SAPI  H20R21522   1.564   4.605   7.926  1.0129  1.5936 -0.0502
  187SAPI  H20S21523   1.500   4.654   7.769  0.7663  0.8153 -0.0159
  187SAPI  H20T21524   1.672   4.620   7.774 -0.4299 -0.5237 -1.3206
  187SAPI   C3321525   2.140   3.752   7.390  0.4235 -0.0582 -0.3689
  187SAPI   H3X21526   2.072   3.664   7.391 -0.4875  0.6335  0.4725
  187SAPI   H3Y21527   2.078   3.845   7.390  0.6496  0.0966 -0.6766
  187SAPI   C3421528   2.221   3.755   7.518 -0.9696 -0.0503  0.5284
  187SAPI   H4X21529   2.273   3.854   7.522 -3.7438  1.5191  0.0641
  187SAPI   H4Y21530   2.303   3.680   7.513 -1.0402 -0.1506  0.8217
  187SAPI   C3521531   2.154   3.750   7.661 -0.5244  0.2012 -0.2677
  187SAPI   H5X21532   2.076   3.828   7.670 -1.5345 -0.7611 -0.4772
  187SAPI   H5Y21533   2.232   3.772   7.737  0.0846 -1.8874 -0.2161
  187SAPI   C3621534   2.076   3.622   7.684 -0.3157 -0.0635 -0.1143
  187SAPI   H6X21535   2.140   3.538   7.649  0.6627 -0.4646  2.4481
  187SAPI   H6Y21536   1.991   3.622   7.611  1.8431  0.8650 -2.8243
  187SAPI   C3721537   2.033   3.583   7.824  0.2996  0.1479 -0.2917
  187SAPI   H7X21538   2.113   3.515   7.862 -1.8059 -1.6063  1.2514
  187SAPI   H7Y21539   1.931   3.539   7.826  0.2274  0.2474  2.3618
  187SAPI   C3821540   2.033   3.705   7.929 -0.0197  0.4550 -0.1242
  187SAPI   H8X21541   1.978   3.794   7.892 -0.8625 -0.0475 -0.1208
  187SAPI   H8Y21542   2.138   3.729   7.954 -0.7688  1.5723  2.2753
  187SAPI   C3921543   1.979   3.656   8.062  0.6877  0.3245  0.3936
  187SAPI   H9X21544   2.037   3.564   8.082 -1.8080 -1.3566  0.3133
  187SAPI   H9Y21545   1.868   3.649   8.052  0.7648  1.0403 -1.3591
  187SAPI  C31021546   2.000   3.749   8.183  0.2612  0.2500 -0.4147
  187SAPI  H10X21547   1.941   3.843   8.175 -1.7973 -0.9189  0.4548
  187SAPI  H10Y21548   2.108   3.776   8.179  0.7347 -1.4090  0.2950
  187SAPI  C31121549   1.972   3.670   8.310 -0.0713  0.5489  0.1569
  187SAPI  H11X21550   2.031   3.577   8.323 -3.0337 -1.2476  2.0602
  187SAPI  H11Y21551   1.872   3.621   8.312 -0.7854  1.9387 -0.0281
  187SAPI  C31221552   1.984   3.747   8.446 -0.1806 -0.1796  0.0061
  187SAPI  H12X21553   2.092   3.771   8.460 -0.2246  0.0529 -0.0542
  187SAPI  H12Y21554   1.962   3.683   8.534  0.5439 -0.1309  0.2301
  187SAPI  C31321555   1.894   3.874   8.459  0.1208 -0.1636 -0.9608
  187SAPI  H13X21556   1.789   3.839   8.463  0.8017 -2.2394  1.0520
  187SAPI  H13Y21557   1.904   3.946   8.375 -1.1818  1.8899  0.5503
  187SAPI  C31421558   1.911   3.954   8.591  0.3681 -0.2242 -0.6319
  187SAPI  H14X21559   1.883   3.889   8.677  0.3595  1.2435  0.5209
  187SAPI  H14Y21560   1.836   4.036   8.593 -0.1228 -0.6741  1.1608
  187SAPI  C31521561   2.052   4.019   8.610  0.1208  0.1216 -0.2782
  187SAPI  H15X21562   2.047   4.121   8.567  0.0920  0.2244 -0.0294
  187SAPI  H15Y21563   2.119   3.946   8.559 -1.9563  0.3846 -3.7412
  187SAPI  C31621564   2.096   4.036   8.758  0.1899  1.0357  0.0356
  187SAPI  H16X21565   2.042   3.955   8.811 -1.9611  0.1219 -3.2520
  187SAPI  H16Y21566   2.042   4.128   8.789  1.6509  2.5724 -1.7177
  187SAPI  C31721567   2.244   4.035   8.772  0.8442  0.2040 -0.9513
  187SAPI  H17X21568   2.286   3.937   8.740  0.7399 -0.0706 -0.2676
  187SAPI  H17Y21569   2.259   4.061   8.879 -1.4043 -0.9710 -0.2944
  187SAPI  C31821570   2.301   4.150   8.686  0.2541 -0.0879  0.1165
  187SAPI  H18X21571   2.292   4.137   8.576 -0.9327  0.3869  0.1484
  187SAPI  H18Y21572   2.406   4.166   8.717  0.1519 -1.1437  1.0502
  187SAPI  H18Z21573   2.247   4.240   8.722  2.4568  1.3570 -0.0147
  188SAPI   C1221574   3.176   1.176   6.626 -0.3534 -1.0552 -0.1181
  188SAPI    H221575   3.188   1.084   6.688  1.1715 -0.9936 -0.2840
  188SAPI    O221576   3.075   1.261   6.678 -0.4797 -0.3424 -0.1924
  188SAPI   HO221577   2.993   1.227   6.643  0.1423 -2.3165  0.1775
  188SAPI   C1321578   3.310   1.243   6.624  0.2677  0.2135 -0.0662
  188SAPI    H321579   3.392   1.187   6.575 -0.8237 -0.3178 -1.3534
  188SAPI    O321580   3.339   1.275   6.760  0.2724  0.2389  0.2048
  188SAPI   HO321581   3.261   1.320   6.792 -0.6917  1.6513 -3.6403
  188SAPI   C1421582   3.304   1.368   6.541  0.0574  0.3801  0.4016
  188SAPI    H421583   3.223   1.437   6.575 -1.0545 -0.3615 -0.6623
  188SAPI    O421584   3.429   1.443   6.548 -0.0193  0.0796  0.3432
  188SAPI   HO421585   3.440   1.473   6.638 -1.5407  0.4531  0.4274
  188SAPI   C1521586   3.262   1.328   6.399  0.2523  0.8707  0.6250
  188SAPI    H521587   3.336   1.257   6.355 -0.6633 -0.0769  0.5962
  188SAPI    O521588   3.268   1.445   6.318 -0.3036 -0.6438 -0.3744
  188SAPI   HO521589   3.226   1.515   6.369 -0.1280 -0.4907 -0.4415
  188SAPI   C1621590   3.123   1.262   6.403 -0.5123 -0.1118  0.0724
  188SAPI    H621591   3.051   1.333   6.450 -0.9330 -0.8757  0.6112
  188SAPI    O621592   3.084   1.228   6.266  0.1499 -0.1781  0.0483
  188SAPI   HO621593   2.988   1.218   6.265  0.0011  1.0931 -0.4331
  188SAPI   C1121594   3.135   1.137   6.485 -0.4890  0.0737 -0.1459
  188SAPI    H121595   3.212   1.077   6.431 -2.1324 -2.4264  0.1606
  188SAPI     P21596   3.007   0.909   6.496  0.2085  0.9231 -0.1633
  188SAPI   O1321597   3.121   0.858   6.426 -0.4610  0.1229  0.2632
  188SAPI   O1421598   2.880   0.853   6.454  0.6215 -0.1117 -0.6625
  188SAPI   O1221599   3.013   1.070   6.495  0.0975 -0.5867 -0.9239
  188SAPI   O1121600   3.028   0.871   6.652  0.2418  0.2853  0.6044
  188SAPI    C121601   2.943   0.907   6.747  0.0943  0.1835  0.2418
  188SAPI    HA21602   2.950   1.018   6.748 -1.5182  0.3131  0.5071
  188SAPI    HB21603   2.840   0.884   6.712  0.6459 -0.0991 -1.2661
  188SAPI    C221604   2.979   0.840   6.881  0.0046  0.3210 -0.1572
  188SAPI    HS21605   2.896   0.859   6.953  1.4122  1.3889  1.2440
  188SAPI   O2121606   3.103   0.882   6.932 -0.4119 -0.0515 -0.3398
  188SAPI   C2121607   3.103   1.000   6.987  0.0903 -0.1996  0.0046
  188SAPI   O2221608   3.011   1.076   6.993  0.7281  0.1707 -0.5594
  188SAPI   C2221609   3.243   1.024   7.050 -0.1578 -0.0406 -0.5841
  188SAPI   H2R21610   3.271   0.927   7.098 -0.1754  0.3279  0.1686
  188SAPI   H2S21611   3.305   1.047   6.960  3.4980  0.2922  1.7943
  188SAPI    C321612   2.976   0.689   6.866 -0.0353  0.0559 -0.2845
  188SAPI    HX21613   3.065   0.666   6.804  1.3873 -4.5551  2.8516
  188SAPI    HY21614   2.889   0.656   6.805  0.2145 -0.0407 -0.5926
  188SAPI   O3121615   2.983   0.623   6.993  0.0169  0.1919 -0.1309
  188SAPI   C3121616   2.861   0.610   7.053 -0.0965 -0.3821  0.3766
  188SAPI   O3221617   2.756   0.662   7.011 -0.0541  0.1526  0.2174
  188SAPI   C3221618   2.878   0.532   7.181 -0.5341 -0.8109 -0.3592
  188SAPI   H2X21619   2.960   0.457   7.177  1.0076  0.5688  2.4088
  188SAPI   H2Y21620   2.779   0.483   7.192 -0.0763 -1.7876 -0.4976
  188SAPI   C2321621   3.244   1.133   7.162 -0.4470  0.0926  0.4222
  188SAPI   H3R21622   3.205   1.229   7.123 -1.9398 -0.2408  1.0289
  188SAPI   H3S21623   3.355   1.139   7.175 -0.3778  1.5531 -0.6337
  188SAPI   C2421624   3.165   1.098   7.286  0.0982  0.0394 -0.4359
  188SAPI   H4R21625   3.062   1.075   7.251  0.2698 -0.9920 -0.3226
  188SAPI   H4S21626   3.161   1.196   7.336  5.4784  1.5704 -2.2425
  188SAPI   C2521627   3.229   0.988   7.366  0.2581 -0.1522 -0.1110
  188SAPI   H5R21628   3.280   0.910   7.307  0.7581  1.7457 -2.3539
  188SAPI   C2621629   3.220   0.977   7.498 -0.1634 -0.0905 -0.4519
  188SAPI   H6R21630   3.259   0.892   7.555 -1.5662 -0.9879 -0.7877
  188SAPI   C2721631   3.142   1.070   7.591  0.0678  0.4115 -0.2705
  188SAPI   H7R21632   3.080   1.009   7.659  0.2826  0.0145 -0.4221
  188SAPI   H7S21633   3.062   1.129   7.542 -1.8452 -0.6200  1.4968
  188SAPI   C2821634   3.223   1.170   7.671 -0.0504 -0.4285 -1.4843
  188SAPI   H8R21635   3.319   1.196   7.624  0.8544 -1.8865 -0.5538
  188SAPI   C2921636   3.191   1.223   7.790  0.0295 -0.2906 -0.6193
  188SAPI   H9R21637   3.262   1.292   7.839  0.1327 -1.3299  0.7627
  188SAPI  C21021638   3.060   1.195   7.870 -0.6865 -0.1203  1.2382
  188SAPI  H10R21639   2.988   1.160   7.793  0.6017  0.1577 -0.1336
  188SAPI  H10S21640   3.022   1.291   7.910 -0.7442  0.0557  0.7709
  188SAPI  C21121641   3.073   1.088   7.979 -0.5218 -0.2413 -0.4021
  188SAPI  H11R21642   3.008   1.001   7.966 -1.6086  0.2291  1.5594
  188SAPI  C21221643   3.163   1.081   8.083 -0.0920  1.3292 -0.3121
  188SAPI  H12R21644   3.154   0.996   8.153 -1.1579  1.9256  0.2964
  188SAPI  C21321645   3.270   1.182   8.122  0.2879  0.3640  0.1761
  188SAPI  H13R21646   3.239   1.202   8.227  1.6522  3.2810  0.0966
  188SAPI  H13S21647   3.253   1.279   8.073 -0.5384 -0.4944 -1.2969
  188SAPI  C21421648   3.412   1.135   8.120 -0.0117 -0.7105  0.2792
  188SAPI  H14R21649   3.438   1.052   8.052  1.4242  0.9213 -1.2581
  188SAPI  C21521650   3.508   1.167   8.204 -0.5604 -1.2733  0.6709
  188SAPI  H15R21651   3.605   1.122   8.179 -0.7628 -0.9217 -0.8562
  188SAPI  C21621652   3.491   1.259   8.323  0.2421  0.1298  0.3664
  188SAPI  H16R21653   3.401   1.322   8.308 -0.7241 -1.4770 -1.0405
  188SAPI  H16S21654   3.574   1.333   8.321 -0.3049  0.7404 -1.3107
  188SAPI  C21721655   3.467   1.198   8.459 -0.8117 -0.1528  0.5131
  188SAPI  H17R21656   3.537   1.117   8.489  0.9911  1.2387  0.1848
  188SAPI  H17S21657   3.368   1.150   8.443 -0.2377 -0.6120 -1.9842
  188SAPI  C21821658   3.458   1.293   8.569 -0.7911 -0.2861  0.5145
  188SAPI  H18R21659   3.444   1.394   8.524  1.4674  0.0899  0.5501
  188SAPI  H18S21660   3.541   1.301   8.642 -2.0449  0.2553  1.9487
  188SAPI  C21921661   3.330   1.279   8.650  0.0865  1.0503 -0.5888
  188SAPI  H19R21662   3.359   1.216   8.737  1.1926  1.0184 -0.9753
  188SAPI  H19S21663   3.253   1.233   8.583  1.5864 -2.7262  0.0070
  188SAPI  C22021664   3.271   1.413   8.691 -0.0688  0.1310  0.4489
  188SAPI  H20R21665   3.251   1.465   8.595  1.7275 -0.8481 -0.5102
  188SAPI  H20S21666   3.346   1.469   8.750  0.8049  0.9783 -1.3870
  188SAPI  H20T21667   3.175   1.405   8.745 -1.6321  0.5300 -2.1307
  188SAPI   C3321668   2.909   0.628   7.300 -0.1404  0.2691 -0.0584
  188SAPI   H3X21669   2.826   0.702   7.308  0.6195  1.3036 -1.3007
  188SAPI   H3Y21670   3.003   0.686   7.292  0.3565 -0.4028  0.8289
  188SAPI   C3421671   2.926   0.560   7.438  1.4457 -0.0126  0.7638
  188SAPI   H4X21672   3.031   0.526   7.443  2.8654  3.8715  0.8493
  188SAPI   H4Y21673   2.850   0.481   7.460  1.5711 -0.5658 -0.6786
  188SAPI   C3521674   2.917   0.672   7.543 -0.1624  0.3640 -0.6950
  188SAPI   H5X21675   2.816   0.717   7.559  0.4309  0.6237  3.1753
  188SAPI   H5Y21676   2.975   0.764   7.522 -1.2110  1.4076  0.8037
  188SAPI   C3621677   2.976   0.609   7.670  0.1851 -0.6685  0.3778
  188SAPI   H6X21678   3.083   0.586   7.653  0.5788  1.2404  0.0634
  188SAPI   H6Y21679   2.922   0.516   7.698 -0.3014 -0.2756  0.7650
  188SAPI   C3721680   2.963   0.698   7.796 -0.1936 -0.7097  0.5976
  188SAPI   H7X21681   2.857   0.710   7.828  0.2559 -0.8972  2.2497
  188SAPI   H7Y21682   3.003   0.799   7.772 -2.1736  0.2431  1.1438
  188SAPI   C3821683   3.032   0.638   7.920  0.2918  0.7762  1.0086
  188SAPI   H8X21684   3.126   0.587   7.891 -0.0823 -0.4625  1.9218
  188SAPI   H8Y21685   2.966   0.558   7.959  1.0862 -0.8502 -0.8580
  188SAPI   C3921686   3.044   0.750   8.025 -0.0594 -0.6304  0.3248
  188SAPI   H9X21687   2.947   0.804   8.036 -0.1541 -0.2347 -1.9193
  188SAPI   H9Y21688   3.122   0.819   7.985  0.3679 -1.0311  0.4624
  188SAPI  C31021689   3.075   0.690   8.161  0.6006  0.2908  0.3672
  188SAPI  H10X21690   3.173   0.718   8.204 -0.1408  0.5326  1.9753
  188SAPI  H10Y21691   3.067   0.579   8.158 -2.5662  0.4227  0.3813
  188SAPI  C31121692   2.960   0.714   8.267  0.2403  0.2105  0.1069
  188SAPI  H11X21693   2.861   0.680   8.229 -0.9691  0.6123  2.6710
  188SAPI  H11Y21694   2.965   0.822   8.291  1.3997 -0.2779  2.2943
  188SAPI  C31221695   2.981   0.630   8.390  0.1178  0.1874  0.2737
  188SAPI  H12X21696   3.078   0.656   8.438 -0.4782  1.4929  0.8222
  188SAPI  H12Y21697   2.969   0.520   8.385 -2.1583  0.3907  0.0176
  188SAPI  C31321698   2.878   0.664   8.508 -0.1133  0.7695  0.4166
  188SAPI  H13X21699   2.780   0.664   8.456 -0.5412 -2.6991  0.9963
  188SAPI  H13Y21700   2.901   0.765   8.548 -1.2509  1.7444 -1.2413
  188SAPI  C31421701   2.882   0.558   8.616  0.3656 -0.1312  0.5987
  188SAPI  H14X21702   2.987   0.536   8.646  0.2179  0.4922  1.6243
  188SAPI  H14Y21703   2.845   0.460   8.579  0.7270  0.4886 -1.5957
  188SAPI  C31521704   2.806   0.595   8.742  0.6208 -0.4657 -0.7022
  188SAPI  H15X21705   2.835   0.696   8.777  0.7610 -0.6112 -0.4005
  188SAPI  H15Y21706   2.841   0.525   8.820 -1.9603 -0.8549  0.2160
  188SAPI  C31621707   2.652   0.587   8.725 -0.1676 -0.0500 -0.0649
  188SAPI  H16X21708   2.637   0.484   8.685 -1.2876 -0.4972  1.4147
  188SAPI  H16Y21709   2.620   0.661   8.649 -1.1974 -0.0771  0.3376
  188SAPI  C31721710   2.584   0.615   8.860  0.3175 -0.2590 -0.1996
  188SAPI  H17X21711   2.635   0.703   8.905 -0.3649  0.1277 -0.1751
  188SAPI  H17Y21712   2.598   0.533   8.933 -1.1017  0.3266  0.7791
  188SAPI  C31821713   2.436   0.644   8.836 -0.5279 -0.5567  0.2580
  188SAPI  H18X21714   2.382   0.644   8.933 -0.2109  0.8419  0.4492
  188SAPI  H18Y21715   2.397   0.557   8.779 -2.7585 -0.7170  1.8931
  188SAPI  H18Z21716   2.420   0.735   8.774 -1.7870 -1.7978 -1.3489
  189POPC     N21717   3.868   3.345  11.139 -0.2694 -0.1875 -0.1620
  189POPC   C1221718   3.774   3.232  11.146  0.0490 -0.3446  0.2832
  189POPC  H12A21719   3.819   3.149  11.200  1.7587 -0.9729 -1.9424
  189POPC  H12B21720   3.750   3.194  11.047  1.0669 -0.5643  0.1094
  189POPC   C1321721   3.997   3.300  11.080  0.4863  0.1640 -0.4447
  189POPC  H13A21722   4.050   3.246  11.157  0.7007 -1.1275 -1.4670
  189POPC  H13B21723   3.981   3.254  10.984 -0.1799 -0.2578 -0.1395
  189POPC  H13C21724   4.053   3.391  11.061  1.4758 -0.2465  0.4252
  189POPC   C1421725   3.814   3.458  11.062  0.0877  0.2775 -0.1480
  189POPC  H14A21726   3.884   3.539  11.052 -0.0887  0.6322  1.2975
  189POPC  H14B21727   3.791   3.424  10.962 -1.5055  1.4362 -0.2054
  189POPC  H14C21728   3.724   3.497  11.106  0.5583  0.1253  0.9728
  189POPC   C1521729   3.897   3.405  11.279 -0.5244  0.1900 -0.0857
  189POPC  H15A21730   3.819   3.471  11.316 -2.0943 -0.7223 -1.6051
  189POPC  H15B21731   3.995   3.451  11.278 -0.1267 -0.5319  1.9267
  189POPC  H15C21732   3.908   3.331  11.357  0.0009  3.3407  3.0841
  189POPC   C1121733   3.633   3.255  11.211  0.6901 -0.1653 -0.2142
  189POPC  H11A21734   3.629   3.341  11.281 -0.0170  0.2404 -0.7445
  189POPC  H11B21735   3.596   3.173  11.276  0.3743  0.8083  0.8672
  189POPC     P21736   3.481   3.184  11.004  0.3687 -0.1376  0.0792
  189POPC   O1321737   3.394   3.069  11.058  0.3277  0.7862 -0.1664
  189POPC   O1421738   3.597   3.140  10.925 -0.5023  0.5701 -0.2241
  189POPC   O1221739   3.534   3.285  11.116  0.0123  0.5416 -0.1282
  189POPC   O1121740   3.388   3.284  10.919  0.2210 -0.1719 -0.0974
  189POPC    C121741   3.446   3.401  10.860 -0.7946  0.1190 -0.9303
  189POPC    HA21742   3.557   3.405  10.861 -0.8210  1.1323  0.0603
  189POPC    HB21743   3.426   3.482  10.933  1.2684 -0.0235 -0.1381
  189POPC    C221744   3.380   3.436  10.724 -0.4157 -0.3435 -0.5759
  189POPC    HS21745   3.272   3.454  10.739  0.0000  1.0091  1.0833
  189POPC   O2121746   3.410   3.328  10.630  0.1309  0.2681 -0.2779
  189POPC   C2121747   3.303   3.287  10.562  0.2936 -0.2178  0.3826
  189POPC   O2221748   3.194   3.339  10.559  0.1424 -0.1449  0.1593
  189POPC   C2221749   3.350   3.161  10.492  0.7060  0.2682 -0.5463
  189POPC   H2R21750   3.254   3.120  10.456  1.3111 -1.0571 -0.7108
  189POPC   H2S21751   3.402   3.091  10.561  0.0246  0.9774  0.7258
  189POPC    C321752   3.438   3.567  10.663  0.1001 -0.3105 -0.2223
  189POPC    HX21753   3.545   3.546  10.639  0.6227  0.9754  0.8160
  189POPC    HY21754   3.426   3.648  10.739  2.6539  0.5515 -0.6246
  189POPC   O3121755   3.357   3.599  10.545 -0.2263 -0.1013  0.2917
  189POPC   C3121756   3.416   3.684  10.467 -0.2863 -0.3131  0.4424
  189POPC   O3221757   3.520   3.751  10.487  0.4926 -0.0976  0.5256
  189POPC   C3221758   3.330   3.713  10.337 -0.0929  0.1135 -0.2321
  189POPC   H2X21759   3.265   3.799  10.363 -0.6540 -0.5751  0.6833
  189POPC   H2Y21760   3.246   3.641  10.321 -0.6340  0.3514  1.3704
  189POPC   C2321761   3.451   3.200  10.380  0.3009 -0.3563  0.2274
  189POPC   H3R21762   3.547   3.236  10.424  0.6809  3.1458 -2.9563
  189POPC   H3S21763   3.406   3.273  10.310 -0.1640 -1.6361 -0.8305
  189POPC   C2421764   3.484   3.070  10.299 -0.3810 -0.2232 -0.4207
  189POPC   H4R21765   3.385   3.029  10.270 -0.5258 -0.9103  0.9261
  189POPC   H4S21766   3.540   3.002  10.368 -1.6286  0.0538  0.9356
  189POPC   C2521767   3.573   3.081  10.175 -0.0246  0.2104  0.0878
  189POPC   H5R21768   3.589   2.983  10.124  3.3089  0.4669  0.3693
  189POPC   H5S21769   3.675   3.108  10.209 -0.4213 -0.1436  1.6374
  189POPC   C2621770   3.523   3.182  10.069  0.3547 -0.2374 -0.3064
  189POPC   H6R21771   3.514   3.282  10.116 -1.4865 -1.5445  2.3907
  189POPC   H6S21772   3.425   3.153  10.026  0.9484  0.1829 -2.0608
  189POPC   C2721773   3.620   3.179   9.942  0.0630 -0.0843  0.1888
  189POPC   H7R21774   3.721   3.205   9.980 -0.6844  2.1284  0.7937
  189POPC   H7S21775   3.579   3.259   9.878  0.2951 -1.1862 -1.4087
  189POPC   C2821776   3.633   3.051   9.851  0.0715  0.0536  0.5511
  189POPC   H8R21777   3.673   2.967   9.911 -0.8277  0.6906  2.0898
  189POPC   H8S21778   3.708   3.078   9.773  0.9461 -0.1077  1.3258
  189POPC   C2921779   3.501   3.020   9.784  0.3215  0.1826 -0.1910
  189POPC   H9121780   3.412   3.033   9.847  0.7426  0.5236  0.3434
  189POPC  C21021781   3.481   2.992   9.650 -0.0585 -0.7996 -0.5677
  189POPC  H10121782   3.379   2.997   9.610 -0.1550  0.4909 -0.2177
  189POPC  C21121783   3.589   2.980   9.544  0.3048  0.0743 -0.4430
  189POPC  H11R21784   3.654   2.895   9.576  0.4826  0.0507 -0.8638
  189POPC  H11S21785   3.656   3.068   9.548 -0.6907  0.9272 -1.7368
  189POPC  C21221786   3.533   2.946   9.404  0.3946  0.9610 -0.1406
  189POPC  H12R21787   3.448   3.013   9.380 -0.5750  0.7001  2.3002
  189POPC  H12S21788   3.494   2.843   9.412 -1.4857  1.6051 -0.5533
  189POPC  C21321789   3.642   2.960   9.296  0.1704 -0.3573 -0.5653
  189POPC  H13R21790   3.720   2.883   9.313 -0.4548 -0.7090  0.8638
  189POPC  H13S21791   3.699   3.055   9.308  2.0645 -1.5974  0.8239
  189POPC  C21421792   3.586   2.927   9.159 -0.6790 -0.1762 -0.5551
  189POPC  H14R21793   3.605   3.023   9.108 -2.8034 -0.1241 -1.3798
  189POPC  H14S21794   3.475   2.913   9.161 -1.1534  2.9284  1.5146
  189POPC  C21521795   3.656   2.823   9.078 -0.4044  0.4771 -0.0923
  189POPC  H15R21796   3.672   2.730   9.137  0.9783  1.0599  0.4705
  189POPC  H15S21797   3.756   2.868   9.061  1.4541 -3.2622 -0.1156
  189POPC  C21621798   3.600   2.795   8.943 -0.6005 -0.5127  0.2750
  189POPC  H16R21799   3.568   2.882   8.883  0.6023 -1.8312 -2.4739
  189POPC  H16S21800   3.517   2.725   8.969  0.5241 -1.5095  1.3547
  189POPC  C21721801   3.701   2.719   8.853  0.2765  0.3215 -0.1590
  189POPC  H17R21802   3.778   2.793   8.822 -0.3861  1.4431  0.7918
  189POPC  H17S21803   3.644   2.693   8.761 -0.1599  4.7860 -1.3677
  189POPC  C21821804   3.772   2.595   8.920  0.0482 -0.4005  0.5761
  189POPC  H18R21805   3.702   2.526   8.971 -0.3057 -0.2042  0.3609
  189POPC  H18S21806   3.846   2.616   9.001  0.1123  0.9701  0.1888
  189POPC  H18T21807   3.828   2.541   8.840 -0.3493  0.8167 -0.5640
  189POPC   C3321808   3.406   3.742  10.207 -0.2804  0.6486  0.3591
  189POPC   H3X21809   3.488   3.817  10.208 -0.0153  0.7844 -4.6930
  189POPC   H3Y21810   3.342   3.790  10.130  0.5556 -0.8134 -1.3198
  189POPC   C3421811   3.470   3.617  10.150 -0.5510  0.7150 -0.0525
  189POPC   H4X21812   3.390   3.554  10.105 -0.1020 -2.4772  3.1468
  189POPC   H4Y21813   3.510   3.553  10.232 -2.3413 -0.0760  0.2544
  189POPC   C3521814   3.593   3.644  10.053 -0.0673 -0.1624 -0.2899
  189POPC   H5X21815   3.662   3.559  10.038  2.8131  2.1419 -0.8940
  189POPC   H5Y21816   3.651   3.720  10.110 -1.1499  0.5077 -0.0301
  189POPC   C3621817   3.557   3.696   9.915  0.2493 -0.4988  0.1829
  189POPC   H6X21818   3.639   3.739   9.855  0.0341 -1.1518 -0.6071
  189POPC   H6Y21819   3.483   3.779   9.911 -0.8023 -1.3789  0.5663
  189POPC   C3721820   3.499   3.585   9.820 -0.1668 -0.0877 -0.5009
  189POPC   H7X21821   3.400   3.562   9.866  0.0410  1.6884  0.9576
  189POPC   H7Y21822   3.569   3.500   9.829  1.4540  1.3673  2.2022
  189POPC   C3821823   3.487   3.628   9.668 -0.1599  0.1858 -0.8409
  189POPC   H8X21824   3.581   3.666   9.623  0.4385 -1.1306 -0.7726
  189POPC   H8Y21825   3.412   3.710   9.672 -0.1334  0.1630  1.1275
  189POPC   C3921826   3.424   3.515   9.577 -0.8937 -0.1592 -0.5867
  189POPC   H9X21827   3.321   3.491   9.611 -0.4896  0.0263  0.8101
  189POPC   H9Y21828   3.489   3.426   9.589 -2.0087 -1.0321 -0.8061
  189POPC  C31021829   3.425   3.556   9.432  0.3677 -0.0509 -0.5807
  189POPC  H10X21830   3.514   3.615   9.403 -0.5782  1.3315 -0.7369
  189POPC  H10Y21831   3.334   3.615   9.407  0.8234  1.2792  0.7782
  189POPC  C31121832   3.412   3.444   9.328  0.0882  0.4495  0.3887
  189POPC  H11X21833   3.316   3.387   9.327 -0.0272  0.5911  1.8502
  189POPC  H11Y21834   3.491   3.365   9.339  0.0859  0.6929  2.5245
  189POPC  C31221835   3.424   3.506   9.185 -0.3971  0.5368 -0.1247
  189POPC  H12X21836   3.515   3.569   9.190 -0.4882  0.5828  2.8920
  189POPC  H12Y21837   3.339   3.577   9.179 -1.7534 -1.0701 -0.7406
  189POPC  C31321838   3.418   3.404   9.071 -0.3090  0.4048 -0.3047
  189POPC  H13X21839   3.325   3.345   9.087 -0.0394  0.3914  1.4510
  189POPC  H13Y21840   3.501   3.332   9.088 -0.7626  0.3893  2.4320
  189POPC  C31421841   3.423   3.465   8.931 -0.6862  0.8851 -0.3292
  189POPC  H14X21842   3.321   3.509   8.928 -1.0491  0.1005  0.0529
  189POPC  H14Y21843   3.423   3.381   8.858 -2.3305  0.0602  0.5557
  189POPC  C31521844   3.546   3.554   8.900 -0.3863 -0.1125  0.5439
  189POPC  H15X21845   3.625   3.483   8.869 -2.3799 -2.4448  0.4285
  189POPC  H15Y21846   3.589   3.601   8.991  1.0543  0.5580 -0.4437
  189POPC  C31621847   3.520   3.662   8.792  0.5682  0.1517 -0.7002
  189POPC  H16X21848   3.460   3.624   8.707 -0.4442 -1.9651  0.8606
  189POPC  H16Y21849   3.621   3.695   8.760  1.4413 -2.1277 -0.4637
  189POPC  H16Z21850   3.465   3.747   8.838 -0.9715 -1.1829  0.0362
  190POPC     N21851   5.201   4.293  11.120  0.0313 -0.0143  0.3257
  190POPC   C1221852   5.254   4.385  11.012  0.2822 -0.3935  0.1452
  190POPC  H12A21853   5.286   4.475  11.062  0.9153 -0.2525 -0.4952
  190POPC  H12B21854   5.170   4.417  10.952 -0.3377  0.4128  1.4111
  190POPC   C1321855   5.150   4.159  11.072 -0.0391  0.5254 -0.4442
  190POPC  H13A21856   5.231   4.121  11.012  0.5829  0.8291  0.1828
  190POPC  H13B21857   5.129   4.089  11.152 -0.2800  0.1526 -0.8302
  190POPC  H13C21858   5.066   4.152  11.005  1.0870  1.4635 -2.0227
  190POPC   C1421859   5.316   4.260  11.210  0.7160 -0.2566  0.1116
  190POPC  H14A21860   5.409   4.225  11.168  1.3132 -0.6943  1.7177
  190POPC  H14B21861   5.331   4.348  11.271  0.0056  0.3265 -0.5315
  190POPC  H14C21862   5.286   4.194  11.290 -1.6881  3.2838  2.4495
  190POPC   C1521863   5.090   4.350  11.197  0.9447 -0.2301  0.7689
  190POPC  H15A21864   5.055   4.278  11.270 -0.4644  1.8088  2.1882
  190POPC  H15B21865   5.007   4.372  11.133  3.5237 -0.6779 -3.0409
  190POPC  H15C21866   5.109   4.443  11.249  0.9583  0.2126 -0.0205
  190POPC   C1121867   5.366   4.335  10.922 -0.4907 -0.3511  0.5816
  190POPC  H11A21868   5.364   4.394  10.828 -0.4564 -0.9466  0.1968
  190POPC  H11B21869   5.323   4.237  10.892  0.2774 -0.4041 -0.4261
  190POPC     P21870   5.583   4.465  11.007 -0.3523  0.2978 -0.0941
  190POPC   O1321871   5.661   4.443  11.130 -0.1038 -0.0424 -0.1946
  190POPC   O1421872   5.500   4.587  11.003 -0.8899  1.0080  0.7077
  190POPC   O1221873   5.499   4.334  10.977  0.4650 -0.3504 -0.2178
  190POPC   O1121874   5.672   4.465  10.883 -0.6487 -0.1959  0.1421
  190POPC    C121875   5.764   4.359  10.859  0.8366  0.1280  0.7580
  190POPC    HA21876   5.748   4.273  10.929  0.1253 -1.9149 -1.7573
  190POPC    HB21877   5.869   4.392  10.872  1.3940 -1.7369  1.3329
  190POPC    C221878   5.746   4.315  10.712 -0.3612  0.4657  0.8292
  190POPC    HS21879   5.646   4.268  10.701 -0.8944  1.0286  2.8901
  190POPC   O2121880   5.856   4.224  10.672  0.1463 -0.3082 -0.0285
  190POPC   C2121881   5.842   4.110  10.734 -0.2173  0.6783  0.1993
  190POPC   O2221882   5.750   4.072  10.807  0.7598  0.0631 -0.1358
  190POPC   C2221883   5.952   4.019  10.687 -0.1637  0.3251 -0.5151
  190POPC   H2R21884   5.956   3.932  10.755  2.2531  2.4191  2.2903
  190POPC   H2S21885   6.047   4.074  10.708 -0.7475  0.8011  0.9341
  190POPC    C321886   5.753   4.436  10.630 -0.1862 -0.2510  0.2375
  190POPC    HX21887   5.828   4.505  10.674 -0.0916  1.1625 -1.9808
  190POPC    HY21888   5.658   4.490  10.649 -0.1844 -0.6214  1.4007
  190POPC   O3121889   5.782   4.412  10.489  0.1102 -0.3104  0.7705
  190POPC   C3121890   5.678   4.358  10.426  0.9091  0.5443 -0.0054
  190POPC   O3221891   5.583   4.299  10.474 -0.2073 -0.3641 -0.1113
  190POPC   C3221892   5.705   4.356  10.275 -0.0694 -0.3939  0.0959
  190POPC   H2X21893   5.783   4.430  10.246 -0.7187 -0.1823 -1.1248
  190POPC   H2Y21894   5.613   4.388  10.223  0.9511  1.9065 -0.4126
  190POPC   C2321895   5.928   3.964  10.544 -0.5076 -0.5569 -0.0825
  190POPC   H3R21896   6.016   3.904  10.514 -0.4696  0.7441 -2.8714
  190POPC   H3S21897   5.933   4.053  10.477 -0.6643  1.1149  2.0190
  190POPC   C2421898   5.801   3.877  10.534  0.1162  0.1092 -0.2087
  190POPC   H4R21899   5.710   3.920  10.583  0.0805 -0.2726  0.0676
  190POPC   H4S21900   5.815   3.782  10.590 -3.8005 -1.2452 -1.1469
  190POPC   C2521901   5.758   3.834  10.391  0.2556  0.0909 -0.0068
  190POPC   H5R21902   5.757   3.922  10.323 -0.5235 -0.2074 -0.3986
  190POPC   H5S21903   5.659   3.783  10.391 -0.1642  0.8808  0.5740
  190POPC   C2621904   5.859   3.736  10.327  0.0491  0.5315  0.2110
  190POPC   H6R21905   5.910   3.667  10.398 -0.0278  0.7282  0.4594
  190POPC   H6S21906   5.944   3.795  10.288 -0.5641  1.0139 -0.4279
  190POPC   C2721907   5.789   3.653  10.213  0.5029  0.0176 -0.1159
  190POPC   H7R21908   5.690   3.615  10.246  0.7069 -0.5499 -0.1594
  190POPC   H7S21909   5.849   3.565  10.183  1.4852  0.5228  0.3151
  190POPC   C2821910   5.751   3.746  10.094  0.9821  0.8053 -0.6093
  190POPC   H8R21911   5.845   3.804  10.077  1.1300  0.9139  0.5459
  190POPC   H8S21912   5.673   3.814  10.131 -0.9691 -0.4332 -2.2338
  190POPC   C2921913   5.690   3.660   9.984 -0.3284  0.2560  0.9088
  190POPC   H9121914   5.580   3.647   9.982 -0.4777  1.5173  0.0750
  190POPC  C21021915   5.750   3.625   9.878 -0.3748  0.3574  0.9722
  190POPC  H10121916   5.699   3.560   9.805  0.5029 -0.4982  1.1011
  190POPC  C21121917   5.898   3.653   9.851  0.8390  0.2552 -0.4592
  190POPC  H11R21918   5.941   3.554   9.826 -0.7818 -0.3621 -0.9736
  190POPC  H11S21919   5.952   3.697   9.937  0.2807 -0.5874  0.3527
  190POPC  C21221920   5.924   3.739   9.719 -0.0386 -0.4656 -0.6979
  190POPC  H12R21921   6.033   3.757   9.707 -0.7118  3.1160 -2.7361
  190POPC  H12S21922   5.886   3.843   9.726  2.0061  0.2237  2.2163
  190POPC  C21321923   5.871   3.667   9.591 -0.4665  0.2640 -0.0540
  190POPC  H13R21924   5.762   3.644   9.591 -0.2179 -1.0043 -0.1295
  190POPC  H13S21925   5.921   3.568   9.583 -0.9689  0.1229 -2.1630
  190POPC  C21421926   5.891   3.746   9.464 -0.2107  0.2078  0.0730
  190POPC  H14R21927   5.995   3.783   9.465 -0.0423 -0.0163  3.4226
  190POPC  H14S21928   5.828   3.837   9.461  1.1263  1.1235 -1.3783
  190POPC  C21521929   5.874   3.659   9.341  0.0491 -0.0659  0.7583
  190POPC  H15R21930   5.772   3.617   9.334 -0.2973  1.0213 -1.5688
  190POPC  H15S21931   5.949   3.576   9.344 -0.0117 -0.0882  3.4233
  190POPC  C21621932   5.894   3.739   9.210 -1.0086 -0.4913  0.3726
  190POPC  H16R21933   5.992   3.790   9.208 -0.1663 -2.0606  0.4248
  190POPC  H16S21934   5.817   3.820   9.211  0.7737  1.3824 -1.8999
  190POPC  C21721935   5.874   3.666   9.077 -0.4294 -0.7540 -0.5504
  190POPC  H17R21936   5.768   3.638   9.066 -0.8622  0.1634  0.9060
  190POPC  H17S21937   5.915   3.563   9.079 -2.2901 -1.6275  3.3294
  190POPC  C21821938   5.914   3.741   8.950 -0.9146  0.4008 -0.4514
  190POPC  H18R21939   5.910   3.670   8.864  0.5710  0.9279 -0.9875
  190POPC  H18S21940   6.019   3.774   8.962  0.1681 -1.9105 -2.5455
  190POPC  H18T21941   5.852   3.833   8.948  0.4692  1.5004  2.2359
  190POPC   C3321942   5.756   4.220  10.244 -0.4956 -0.4535 -0.3339
  190POPC   H3X21943   5.675   4.144  10.235  0.2839 -1.1372 -1.9557
  190POPC   H3Y21944   5.837   4.172  10.304  2.3539 -1.4514 -4.5459
  190POPC   C3421945   5.826   4.224  10.104 -0.2953 -0.2746 -0.1407
  190POPC   H4X21946   5.863   4.126  10.067  1.5819  0.6929 -1.0063
  190POPC   H4Y21947   5.911   4.296  10.094  0.1109 -0.5011  1.3897
  190POPC   C3521948   5.722   4.259   9.990  0.2226  0.2027  0.4986
  190POPC   H5X21949   5.708   4.368   9.999  0.9666  0.2153  1.6800
  190POPC   H5Y21950   5.628   4.203  10.009  0.0553  0.2400 -0.1967
  190POPC   C3621951   5.770   4.220   9.848 -0.1561  0.1666  0.0397
  190POPC   H6X21952   5.794   4.112   9.851 -0.3125  0.0006 -2.3369
  190POPC   H6Y21953   5.866   4.270   9.822 -0.4648  0.0691 -1.4122
  190POPC   C3721954   5.663   4.245   9.740  0.3177 -0.0752 -0.4900
  190POPC   H7X21955   5.663   4.352   9.708  0.6973 -0.6834 -2.6693
  190POPC   H7Y21956   5.562   4.213   9.773  0.5186 -1.5650 -1.2440
  190POPC   C3821957   5.691   4.165   9.615  0.6612 -0.5347  0.4743
  190POPC   H8X21958   5.681   4.055   9.613 -2.3853 -0.3575 -1.6176
  190POPC   H8Y21959   5.793   4.198   9.584  0.2011  0.7457  0.2384
  190POPC   C3921960   5.594   4.220   9.503 -0.2786 -0.3319 -0.1501
  190POPC   H9X21961   5.612   4.329   9.493  0.8290 -0.3143  1.6637
  190POPC   H9Y21962   5.491   4.198   9.541 -0.3184 -0.7909 -0.5106
  190POPC  C31021963   5.600   4.152   9.365 -0.2055 -0.1558  0.1810
  190POPC  H10X21964   5.509   4.166   9.303 -0.8219 -2.4579  0.4448
  190POPC  H10Y21965   5.607   4.041   9.375 -1.9322 -0.2244  0.9947
  190POPC  C31121966   5.710   4.219   9.277  0.2967 -0.1394 -0.0683
  190POPC  H11X21967   5.810   4.209   9.324 -0.0695  2.6195  1.5631
  190POPC  H11Y21968   5.693   4.329   9.273  0.6117 -0.1050 -0.6085
  190POPC  C31221969   5.714   4.150   9.138 -0.1703 -0.4117  0.0001
  190POPC  H12X21970   5.664   4.053   9.159 -2.4254  0.8122  0.6052
  190POPC  H12Y21971   5.815   4.119   9.103 -0.3766 -1.2109  0.0918
  190POPC  C31321972   5.637   4.224   9.028  0.5409  0.2309 -0.6041
  190POPC  H13X21973   5.659   4.333   9.018 -0.8164  0.5053 -0.7887
  190POPC  H13Y21974   5.528   4.215   9.047  0.5662 -2.0741 -1.2114
  190POPC  C31421975   5.650   4.161   8.881  0.5711 -0.3499 -0.4945
  190POPC  H14X21976   5.614   4.057   8.865 -1.1417  0.4837 -2.5335
  190POPC  H14Y21977   5.758   4.166   8.855  1.0984  1.4247  1.6686
  190POPC  C31521978   5.590   4.245   8.764  0.0771 -0.1942 -0.1430
  190POPC  H15X21979   5.616   4.348   8.798 -3.3258  0.5542  0.5363
  190POPC  H15Y21980   5.481   4.226   8.776  0.0485  0.1129  0.0962
  190POPC  C31621981   5.636   4.211   8.627  0.1928 -0.0146  0.1642
  190POPC  H16X21982   5.746   4.197   8.626  0.1267 -0.5589  0.1082
  190POPC  H16Y21983   5.610   4.285   8.548  1.8829  0.7062  0.2497
  190POPC  H16Z21984   5.585   4.121   8.586  0.8869 -0.2872 -0.1211
  191POPC     N21985   5.989   5.358   6.166  0.0227  0.2135 -0.7691
  191POPC   C1221986   6.038   5.363   6.313  0.4497 -0.1992  0.6401
  191POPC  H12A21987   6.146   5.363   6.319  0.5270  1.7572 -0.1209
  191POPC  H12B21988   6.010   5.278   6.373  0.2669  0.8765  2.1224
  191POPC   C1321989   5.840   5.374   6.171 -0.0451  0.2592  0.4475
  191POPC  H13A21990   5.801   5.306   6.246  2.0041 -0.5084  0.9000
  191POPC  H13B21991   5.811   5.476   6.190  0.9074  0.7584 -0.6622
  191POPC  H13C21992   5.787   5.337   6.085 -0.1144 -1.2688  1.1114
  191POPC   C1421993   6.054   5.459   6.076  0.3892  0.5896 -0.1398
  191POPC  H14A21994   6.039   5.554   6.125 -0.5708 -0.3916  1.5660
  191POPC  H14B21995   6.158   5.440   6.054  0.5917  0.0752  1.2093
  191POPC  H14C21996   5.999   5.457   5.983  1.3080 -3.1735 -0.7471
  191POPC   C1521997   6.019   5.222   6.109 -0.4813 -0.0747 -0.0027
  191POPC  H15A21998   5.997   5.223   6.003 -0.8621 -2.6690 -0.0183
  191POPC  H15B21999   5.952   5.147   6.148  0.6416 -1.4591 -0.5883
  191POPC  H15C22000   6.123   5.199   6.129  0.0796  0.8643 -1.6610
  191POPC   C1122001   5.984   5.473   6.413  0.5083  0.5532 -0.4092
  191POPC  H11A22002   6.049   5.456   6.502 -0.2719 -0.5571 -0.0170
  191POPC  H11B22003   5.878   5.454   6.440  0.3970  1.7024  0.0032
  191POPC     P22004   6.125   5.690   6.362  0.1182  0.4729  0.0233
  191POPC   O1322005   6.118   5.790   6.257 -0.2938 -0.3410  0.1335
  191POPC   O1422006   6.243   5.602   6.356 -0.0176  0.3755  0.4574
  191POPC   O1222007   5.989   5.599   6.350  0.0831 -0.5676  0.2691
  191POPC   O1122008   6.119   5.767   6.502  0.2483  0.1346  0.1914
  191POPC    C122009   5.989   5.772   6.561  0.0249 -0.1097 -0.1017
  191POPC    HA22010   5.968   5.668   6.595 -0.5736 -0.7644 -2.3038
  191POPC    HB22011   5.909   5.807   6.492  1.2224  0.5776 -1.1789
  191POPC    C222012   5.987   5.871   6.681  0.5755  0.2094  0.4101
  191POPC    HS22013   5.890   5.868   6.734  1.3369 -2.2533  1.8021
  191POPC   O2122014   6.029   6.001   6.642 -0.5257  0.2547  0.4503
  191POPC   C2122015   5.966   6.098   6.712  0.1890  0.0848  0.8857
  191POPC   O2222016   5.883   6.079   6.798 -0.0224  0.5675  0.3293
  191POPC   C2222017   6.019   6.239   6.682 -0.3335  0.2636  0.6345
  191POPC   H2R22018   5.945   6.318   6.708 -1.7958 -0.6266 -0.6608
  191POPC   H2S22019   6.047   6.254   6.576  0.3796 -0.5533  0.6967
  191POPC    C322020   6.088   5.805   6.789  0.0675 -0.0000  0.6953
  191POPC    HX22021   6.183   5.840   6.743  0.0561 -0.5181  0.2740
  191POPC    HY22022   6.083   5.694   6.780 -1.1550  0.2327 -3.5548
  191POPC   O3122023   6.076   5.868   6.919 -0.5634 -0.1505  0.2391
  191POPC   C3122024   5.962   5.840   6.968  0.2899  0.5407 -0.2553
  191POPC   O3222025   5.880   5.758   6.928  0.1785  0.6127 -0.3185
  191POPC   C3222026   5.953   5.912   7.105  0.5036 -0.3255  0.1461
  191POPC   H2X22027   5.906   6.010   7.084  1.1626 -0.2925 -1.3352
  191POPC   H2Y22028   6.055   5.937   7.142  1.0078 -1.8957 -0.0903
  191POPC   C2322029   6.146   6.262   6.765  0.3949  0.1493  0.3451
  191POPC   H3R22030   6.190   6.360   6.738  1.3332 -0.6716 -1.3274
  191POPC   H3S22031   6.220   6.185   6.733 -0.5524 -0.8919  0.5896
  191POPC   C2422032   6.119   6.251   6.917  0.5555  0.3653 -0.5638
  191POPC   H4R22033   6.213   6.274   6.971  0.2913 -1.4163  0.7164
  191POPC   H4S22034   6.096   6.147   6.948 -2.9368  1.1566 -0.0545
  191POPC   C2522035   6.014   6.340   6.968  0.3692  0.0200  0.0767
  191POPC   H5R22036   5.919   6.313   6.917  0.7030  0.4392 -0.7764
  191POPC   H5S22037   6.034   6.442   6.928 -1.3044 -0.6163 -2.6176
  191POPC   C2622038   5.983   6.336   7.119 -0.2184  0.4437  0.0420
  191POPC   H6R22039   5.959   6.230   7.137  0.1579  0.2755 -0.4071
  191POPC   H6S22040   5.892   6.394   7.145 -1.8618 -2.3784  0.9467
  191POPC   C2722041   6.102   6.370   7.213 -0.4655 -0.3180  0.3021
  191POPC   H7R22042   6.096   6.481   7.207  0.8900 -0.2237  0.3352
  191POPC   H7S22043   6.201   6.340   7.174  0.2473  1.1467  0.8926
  191POPC   C2822044   6.086   6.331   7.357  0.5992  0.6553 -0.4898
  191POPC   H8R22045   6.179   6.368   7.404  0.2627  1.1359 -0.2038
  191POPC   H8S22046   6.090   6.220   7.353  2.1482  0.6912 -0.5281
  191POPC   C2922047   5.959   6.380   7.424 -0.2132 -0.1018 -1.0895
  191POPC   H9122048   5.867   6.386   7.363 -0.7251 -0.1797 -0.3477
  191POPC  C21022049   5.957   6.435   7.545 -0.5844 -0.6981 -0.2136
  191POPC  H10122050   5.857   6.463   7.583 -0.1407  0.5814  0.0486
  191POPC  C21122051   6.073   6.459   7.633 -0.3236 -0.5344 -0.6808
  191POPC  H11R22052   6.075   6.563   7.673  0.4307 -0.6028 -0.5344
  191POPC  H11S22053   6.165   6.471   7.572 -0.5089  2.0459 -0.5575
  191POPC  C21222054   6.104   6.360   7.744 -0.4456  0.0104  0.1406
  191POPC  H12R22055   6.211   6.350   7.772 -0.5044  1.5750  1.0370
  191POPC  H12S22056   6.075   6.263   7.698 -0.2313  0.4832 -1.0210
  191POPC  C21322057   6.017   6.379   7.867  0.9469 -0.2181 -0.3301
  191POPC  H13R22058   5.932   6.448   7.848 -0.1358 -1.1404  0.9441
  191POPC  H13S22059   6.090   6.429   7.934  1.4241 -1.0348 -0.2223
  191POPC  C21422060   5.959   6.248   7.929 -1.2086  0.4451  0.7034
  191POPC  H14R22061   5.928   6.187   7.841 -3.2405  0.0201  1.6409
  191POPC  H14S22062   5.863   6.268   7.982 -0.4352  0.8029  2.0247
  191POPC  C21522063   6.054   6.173   8.013 -0.6494 -0.2041 -0.2169
  191POPC  H15R22064   6.070   6.229   8.108 -1.0691 -0.4607  0.0074
  191POPC  H15S22065   6.147   6.162   7.953 -0.7884 -2.7728 -0.0745
  191POPC  C21622066   6.019   6.027   8.043 -0.6893 -0.2738 -0.6247
  191POPC  H16R22067   6.022   5.975   7.945 -2.4069  0.1292 -0.9137
  191POPC  H16S22068   5.911   6.017   8.066 -0.3354 -2.0740  0.4825
  191POPC  C21722069   6.113   5.957   8.143 -0.0647  1.0286  0.2556
  191POPC  H17R22070   6.091   5.995   8.246 -1.1003  0.3204  0.3134
  191POPC  H17S22071   6.220   5.983   8.126  0.5727 -1.1760  0.5725
  191POPC  C21822072   6.090   5.803   8.141 -0.3453 -0.8610  0.6770
  191POPC  H18R22073   6.084   5.763   8.037 -0.3104 -1.3460  0.8580
  191POPC  H18S22074   5.994   5.790   8.194 -0.9005  2.8057  0.8315
  191POPC  H18T22075   6.179   5.753   8.186 -1.1816 -3.2809 -0.1698
  191POPC   C3322076   5.857   5.844   7.218 -0.2670 -1.0508  0.1426
  191POPC   H3X22077   5.902   5.746   7.248  1.2980  0.3678  2.7772
  191POPC   H3Y22078   5.760   5.810   7.176 -0.3884 -0.2875 -0.2106
  191POPC   C3422079   5.839   5.923   7.344 -0.6398 -0.1496 -0.4927
  191POPC   H4X22080   5.747   5.985   7.344 -0.2317  0.4733 -0.2038
  191POPC   H4Y22081   5.924   5.994   7.350  0.0714 -1.0547  0.7413
  191POPC   C3522082   5.826   5.842   7.472 -0.0575 -0.0273 -0.0445
  191POPC   H5X22083   5.915   5.775   7.477 -0.5845 -0.6483  1.9589
  191POPC   H5Y22084   5.731   5.785   7.472 -0.3993  0.4222  2.3078
  191POPC   C3622085   5.837   5.931   7.605  0.1463  1.0035 -0.1573
  191POPC   H6X22086   5.757   6.008   7.607 -2.0516 -1.1748  1.2169
  191POPC   H6Y22087   5.928   5.994   7.610 -0.1300  1.3364  0.7891
  191POPC   C3722088   5.824   5.845   7.731 -0.5310  0.6779 -0.2171
  191POPC   H7X22089   5.845   5.913   7.817 -2.0316  2.1950 -0.9926
  191POPC   H7Y22090   5.904   5.768   7.729 -0.8892  0.2811  0.2969
  191POPC   C3822091   5.688   5.777   7.759  0.4676  0.7876 -0.3202
  191POPC   H8X22092   5.671   5.697   7.684 -0.2024 -0.9715  1.6195
  191POPC   H8Y22093   5.607   5.851   7.739  0.6073  0.9165 -0.4064
  191POPC   C3922094   5.686   5.723   7.902 -0.9517  0.6072 -0.1034
  191POPC   H9X22095   5.792   5.697   7.925 -0.6552  1.2591 -0.6787
  191POPC   H9Y22096   5.615   5.640   7.919 -0.0958  0.2932  2.3979
  191POPC  C31022097   5.655   5.837   8.003 -0.8366 -0.2052  0.5435
  191POPC  H10X22098   5.551   5.875   7.991 -0.2395  2.1451  2.0884
  191POPC  H10Y22099   5.726   5.919   7.977 -1.6704 -0.1364 -1.7350
  191POPC  C31122100   5.666   5.790   8.148  0.2937 -0.1834 -0.6264
  191POPC  H11X22101   5.770   5.756   8.167 -0.1015 -2.4256 -2.1183
  191POPC  H11Y22102   5.597   5.704   8.154  0.4210 -0.3349 -1.3176
  191POPC  C31222103   5.637   5.901   8.244 -0.3587  0.5336  0.3877
  191POPC  H12X22104   5.549   5.953   8.201  0.3677  0.3524 -1.3972
  191POPC  H12Y22105   5.719   5.976   8.245 -0.6210  1.0211 -3.2009
  191POPC  C31322106   5.610   5.856   8.389 -0.1513 -0.3652  0.1247
  191POPC  H13X22107   5.505   5.820   8.391  0.4627 -2.7842 -3.0253
  191POPC  H13Y22108   5.609   5.947   8.452  0.6393  1.5080 -2.4029
  191POPC  C31422109   5.699   5.746   8.450 -0.2519  0.6377 -0.2605
  191POPC  H14X22110   5.807   5.769   8.438 -0.0409  0.5080  1.2380
  191POPC  H14Y22111   5.674   5.661   8.382  1.2120  0.6223 -0.7972
  191POPC  C31522112   5.661   5.703   8.594 -0.0045 -0.5638  0.4937
  191POPC  H15X22113   5.551   5.682   8.597  0.1789 -1.5593  0.7388
  191POPC  H15Y22114   5.675   5.795   8.654  0.6361  0.3258 -0.9592
  191POPC  C31622115   5.736   5.593   8.661 -0.8552  0.1806  0.1444
  191POPC  H16X22116   5.835   5.575   8.616 -0.5413 -1.1598  1.2974
  191POPC  H16Y22117   5.687   5.495   8.640  2.4363 -1.9501  1.5715
  191POPC  H16Z22118   5.752   5.610   8.770 -2.1207  0.3439  0.3276
  192POPC     N22119   4.448   3.462   6.617 -0.1139  0.9312  0.0437
  192POPC   C1222120   4.352   3.392   6.513 -0.6383  0.1903 -0.1483
  192POPC  H12A22121   4.262   3.451   6.505 -0.6803  0.0027 -1.2251
  192POPC  H12B22122   4.301   3.308   6.558 -2.5591  0.8512 -0.9515
  192POPC   C1322123   4.371   3.492   6.736  0.0649 -1.1646 -0.0780
  192POPC  H13A22124   4.326   3.406   6.784  0.1408 -2.1341 -1.6926
  192POPC  H13B22125   4.423   3.549   6.812  1.6897 -0.0092 -1.9842
  192POPC  H13C22126   4.290   3.552   6.698  0.3276 -2.3219 -2.6495
  192POPC   C1422127   4.552   3.368   6.663 -0.2493 -0.6550  0.0940
  192POPC  H14A22128   4.618   3.361   6.578  1.0941  3.9770  0.5108
  192POPC  H14B22129   4.609   3.411   6.745  1.5963  0.9827 -1.9242
  192POPC  H14C22130   4.516   3.273   6.699 -0.1600 -0.3847  0.9168
  192POPC   C1522131   4.519   3.579   6.553  0.0118 -0.0036 -0.4328
  192POPC  H15A22132   4.567   3.547   6.461 -0.1782 -2.3041  0.2134
  192POPC  H15B22133   4.586   3.620   6.627 -4.0502  0.4002  3.4521
  192POPC  H15C22134   4.447   3.654   6.526  1.1873  0.9177 -1.0871
  192POPC   C1122135   4.409   3.362   6.367 -0.2173 -0.4293 -0.3614
  192POPC  H11A22136   4.449   3.459   6.330  0.0665 -0.9385 -1.4242
  192POPC  H11B22137   4.327   3.345   6.295 -0.3126  0.3924 -0.4611
  192POPC     P22138   4.649   3.270   6.308  0.2891  0.1937 -0.4189
  192POPC   O1322139   4.710   3.390   6.370 -0.0958 -0.5962 -0.3255
  192POPC   O1422140   4.640   3.275   6.159  0.1560  0.6675  0.2221
  192POPC   O1222141   4.501   3.246   6.362 -0.6685  0.0807  0.4426
  192POPC   O1122142   4.722   3.141   6.358  0.0132 -0.7111  0.2326
  192POPC    C122143   4.658   3.004   6.365  1.0611 -0.0212  0.7850
  192POPC    HA22144   4.731   2.922   6.347  0.6734 -0.0037 -1.1335
  192POPC    HB22145   4.583   3.001   6.283  0.9839  2.7001  0.6667
  192POPC    C222146   4.597   2.976   6.499  0.3910 -0.2048 -0.3914
  192POPC    HS22147   4.511   3.046   6.511 -0.2256 -1.1624  1.0412
  192POPC   O2122148   4.706   2.996   6.592  0.0787 -0.2025  0.4465
  192POPC   C2122149   4.658   3.027   6.710 -0.4607  0.1650  0.1299
  192POPC   O2222150   4.548   3.068   6.742  0.2336  0.4840 -0.4032
  192POPC   C2222151   4.775   3.030   6.806 -0.1237 -0.5783  0.1135
  192POPC   H2R22152   4.845   3.105   6.764 -2.3246  0.3296 -2.2422
  192POPC   H2S22153   4.824   2.930   6.811 -2.1218 -1.5374  1.5104
  192POPC    C322154   4.548   2.832   6.522  0.3126 -0.1619  0.2089
  192POPC    HX22155   4.631   2.768   6.485 -1.8477 -2.6826 -0.5832
  192POPC    HY22156   4.461   2.812   6.456 -0.7912 -0.7177  1.7814
  192POPC   O3122157   4.527   2.785   6.657  0.2520  0.2810 -0.1331
  192POPC   C3122158   4.399   2.792   6.690 -0.1696 -0.8904 -0.3463
  192POPC   O3222159   4.303   2.835   6.624 -0.6271  0.1981 -0.2249
  192POPC   C3222160   4.384   2.754   6.840  0.4741  0.0940 -0.1934
  192POPC   H2X22161   4.486   2.748   6.884  0.8116 -0.2073 -0.9836
  192POPC   H2Y22162   4.339   2.653   6.832  2.0996 -0.5587 -2.1705
  192POPC   C2322163   4.726   3.076   6.939 -0.3526  0.9153 -0.1541
  192POPC   H3R22164   4.644   3.019   6.988  0.8335 -0.7107  0.0493
  192POPC   H3S22165   4.682   3.177   6.931  0.2330  1.0917 -1.3360
  192POPC   C2422166   4.843   3.072   7.046  0.3957 -0.4775  0.3149
  192POPC   H4R22167   4.908   3.159   7.023 -1.6147  1.6109  2.0567
  192POPC   H4S22168   4.893   2.973   7.038  0.3974 -0.5965  1.5409
  192POPC   C2522169   4.784   3.098   7.184 -0.7503 -0.4978 -0.2597
  192POPC   H5R22170   4.694   3.034   7.184 -3.5726  3.1272  0.6980
  192POPC   H5S22171   4.735   3.197   7.199  1.8034  0.8870 -0.3819
  192POPC   C2622172   4.875   3.064   7.298  0.1794  1.1029  0.6622
  192POPC   H6R22173   4.942   2.977   7.284 -2.1251 -0.9750  1.6049
  192POPC   H6S22174   4.824   3.044   7.395  1.5603 -0.1028  1.1647
  192POPC   C2722175   4.958   3.186   7.340  0.4066  0.0264 -0.5965
  192POPC   H7R22176   4.893   3.273   7.364  1.5319  0.6277  0.3587
  192POPC   H7S22177   5.008   3.217   7.246 -2.2857 -0.5007 -2.3093
  192POPC   C2822178   5.048   3.156   7.459 -0.1131  0.4339 -0.1716
  192POPC   H8R22179   5.118   3.076   7.428  0.0385  0.6727 -0.4556
  192POPC   H8S22180   4.994   3.128   7.552  1.9838 -1.3429  0.6145
  192POPC   C2922181   5.131   3.276   7.499 -0.3733 -0.5063  0.1477
  192POPC   H9122182   5.219   3.285   7.434  1.7710  1.2150  3.0550
  192POPC  C21022183   5.134   3.361   7.605 -0.1705 -0.1663 -0.0674
  192POPC  H10122184   5.218   3.430   7.617  0.2709 -0.7126  0.0235
  192POPC  C21122185   5.037   3.376   7.716  0.6577  0.5711 -0.4567
  192POPC  H11R22186   4.989   3.279   7.740 -1.0427  1.4788 -0.0042
  192POPC  H11S22187   4.954   3.440   7.679  0.3194 -1.1294 -2.7918
  192POPC  C21222188   5.092   3.424   7.844  0.0651 -0.4208  0.0077
  192POPC  H12R22189   5.137   3.525   7.839 -0.8666  0.2838  3.2529
  192POPC  H12S22190   5.160   3.340   7.873 -0.9389 -1.3913 -0.3748
  192POPC  C21322191   4.979   3.437   7.955 -0.2954 -0.0754 -0.0364
  192POPC  H13R22192   4.940   3.333   7.963  2.5780 -1.4522 -2.0032
  192POPC  H13S22193   4.901   3.504   7.915 -1.4072 -1.2670  0.0776
  192POPC  C21422194   5.037   3.490   8.089 -0.0519 -0.1739  0.2355
  192POPC  H14R22195   4.954   3.529   8.152 -0.4339 -0.8264  0.1450
  192POPC  H14S22196   5.104   3.571   8.052  2.8215 -3.6776 -2.9727
  192POPC  C21522197   5.122   3.401   8.175  0.1785 -0.0360  0.7072
  192POPC  H15R22198   5.189   3.455   8.245 -1.1691  0.7241  1.4560
  192POPC  H15S22199   5.196   3.333   8.127 -0.0460 -1.2575  2.0482
  192POPC  C21622200   5.027   3.306   8.245 -0.4578  0.4236 -0.2089
  192POPC  H16R22201   4.958   3.250   8.179 -0.6991 -0.2661  0.6159
  192POPC  H16S22202   4.966   3.366   8.316  0.1540  0.9615 -0.1221
  192POPC  C21722203   5.105   3.193   8.339  0.0337 -0.4101  0.4469
  192POPC  H17R22204   5.180   3.248   8.400  1.0371 -0.4917 -0.6842
  192POPC  H17S22205   5.161   3.132   8.265 -0.5045  0.5144 -0.7495
  192POPC  C21822206   5.010   3.099   8.410 -0.1587 -0.6886  0.9984
  192POPC  H18R22207   4.953   3.042   8.334 -0.6978 -0.6109  1.3323
  192POPC  H18S22208   4.946   3.162   8.476 -0.7727 -0.2693  0.0204
  192POPC  H18T22209   5.077   3.037   8.473 -0.1000  0.9545  2.6445
  192POPC   C3322210   4.304   2.868   6.918  0.7918 -0.1596 -0.4539
  192POPC   H3X22211   4.203   2.887   6.876  0.4823  0.9420  0.7349
  192POPC   H3Y22212   4.364   2.962   6.914  1.4987 -0.6005 -0.4756
  192POPC   C3422213   4.288   2.822   7.067 -0.0397 -0.6827  0.3944
  192POPC   H4X22214   4.392   2.819   7.106 -0.5518  0.6284  1.9969
  192POPC   H4Y22215   4.243   2.722   7.085 -1.1048 -0.2036  0.4534
  192POPC   C3522216   4.192   2.925   7.139 -0.7208  0.0887 -0.1511
  192POPC   H5X22217   4.161   2.874   7.233  2.5090 -1.8505 -0.0193
  192POPC   H5Y22218   4.098   2.950   7.085 -0.6915  1.3389  0.3481
  192POPC   C3622219   4.263   3.053   7.167 -0.0163 -0.2373 -0.6977
  192POPC   H6X22220   4.197   3.142   7.176 -0.5807 -0.8478  1.6208
  192POPC   H6Y22221   4.327   3.082   7.080  0.3355  0.3493 -0.2539
  192POPC   C3722222   4.353   3.050   7.291 -0.8175 -0.5756 -0.0012
  192POPC   H7X22223   4.442   2.984   7.277 -0.0720  0.0156  1.6637
  192POPC   H7Y22224   4.296   3.029   7.384 -0.8042  2.4838  0.8113
  192POPC   C3822225   4.438   3.184   7.320 -0.1445 -0.6604 -0.2881
  192POPC   H8X22226   4.363   3.256   7.358 -0.1403  0.4022 -2.1784
  192POPC   H8Y22227   4.476   3.216   7.221  1.7434 -1.6079  0.0891
  192POPC   C3922228   4.548   3.181   7.431  0.3050 -1.3577 -0.1850
  192POPC   H9X22229   4.622   3.263   7.421 -0.6911 -0.3531  0.4572
  192POPC   H9Y22230   4.601   3.083   7.426 -1.5742 -2.3846 -1.3577
  192POPC  C31022231   4.496   3.204   7.572 -0.0604 -0.1595 -0.7374
  192POPC  H10X22232   4.422   3.125   7.600 -1.4841  0.7848 -1.7128
  192POPC  H10Y22233   4.437   3.298   7.582  0.9799  0.3749  0.8212
  192POPC  C31122234   4.609   3.214   7.667 -0.5051 -0.9997  0.1659
  192POPC  H11X22235   4.568   3.258   7.760 -1.5066 -0.5918 -0.4554
  192POPC  H11Y22236   4.683   3.290   7.633 -2.1894  1.2910  1.3449
  192POPC  C31222237   4.689   3.090   7.710  0.5269  0.3655 -0.3284
  192POPC  H12X22238   4.764   3.053   7.637  0.6358  0.4958 -0.2842
  192POPC  H12Y22239   4.606   3.017   7.721  1.0903 -0.0925  1.1202
  192POPC  C31322240   4.755   3.118   7.850 -0.1616  1.4162 -0.1077
  192POPC  H13X22241   4.776   3.227   7.840 -0.3614  1.4631 -0.0225
  192POPC  H13Y22242   4.855   3.071   7.853 -1.2891 -1.2429 -1.0053
  192POPC  C31422243   4.676   3.076   7.977  0.6421 -0.0585 -0.6239
  192POPC  H14X22244   4.738   3.107   8.064  0.5049 -0.6949 -0.2929
  192POPC  H14Y22245   4.647   2.969   7.976  0.2939  0.0197  0.1996
  192POPC  C31522246   4.551   3.158   8.012 -0.3232  0.1362 -0.1964
  192POPC  H15X22247   4.573   3.263   7.984  2.8146 -0.6497 -1.1287
  192POPC  H15Y22248   4.538   3.140   8.121  0.7062 -0.5040 -0.1619
  192POPC  C31622249   4.417   3.117   7.944  0.0161 -0.0843  0.1268
  192POPC  H16X22250   4.403   3.170   7.848 -1.1214 -3.2285 -1.6123
  192POPC  H16Y22251   4.327   3.153   7.998 -0.2865  2.6029 -1.9402
  192POPC  H16Z22252   4.399   3.008   7.927 -2.9777  0.2534  0.6356
  193SOD    SOD22253   3.451   3.014  16.739  0.2122 -0.3313 -0.4547
  194SOD    SOD22254   2.754   5.624   0.092 -0.0372  0.0649 -0.5284
  195SOD    SOD22255   3.422   0.352   1.480 -0.1045  0.0909 -0.6970
  196SOD    SOD22256   2.363   3.328   3.498 -0.4217  0.2083  0.2378
  197SOD    SOD22257   1.195   1.941  13.621 -0.0172 -0.1870  0.1811
  198SOD    SOD22258   2.675   4.306   4.235 -0.0164  0.1176  0.0469
  199SOD    SOD22259   4.477   5.922  10.916 -0.0950 -0.0700  0.0503
  200SOD    SOD22260   4.864   1.646   3.304  0.3010 -0.1680 -0.5683
  201SOD    SOD22261   3.820   0.181   0.039 -0.0532  0.3673 -0.6931
  202SOD    SOD22262   1.244   5.147  13.510 -0.3954  0.0864 -0.2573
  203SOD    SOD22263   0.514   5.913   0.476  0.4158  0.4620 -0.0144
  204SOD    SOD22264   5.811   1.157  13.673  0.3817  0.0764  0.2796
  205SOD    SOD22265   5.923   1.827   1.808  0.0563 -0.1211  0.1495
  206SOD    SOD22266   5.682   0.293   5.726  0.0870 -0.2112 -0.3276
  207SOD    SOD22267   0.060   1.643   5.668 -0.0647  0.2231 -0.1330
  208SOD    SOD22268   0.396   1.822   3.939 -0.0183  0.1226  0.7772
  209SOD    SOD22269   4.492   4.836   6.823  0.2686 -0.5813  0.2085
  210SOD    SOD22270   4.480   3.905  15.448 -0.0145 -0.1822 -0.3446
  211SOD    SOD22271   3.662   1.929   4.987 -0.1083 -0.1837  0.1679
  212SOD    SOD22272   5.064   0.414  12.721 -0.0037 -0.2780 -0.0753
  213SOD    SOD22273   5.959   3.849  16.561  0.2291 -0.1191  0.0937
  214SOD    SOD22274   5.197   5.806   5.630  0.0760  0.2361  0.2239
  215SOD    SOD22275   5.099   4.937  14.232 -0.0025 -0.6306 -0.1025
  216SOD    SOD22276   0.826   2.933  10.710 -0.5336  0.3471  0.2326
  217SOD    SOD22277   5.780   4.954   5.229 -0.0748 -0.3514  0.0742
  218SOD    SOD22278   1.462   0.160  11.822 -0.3563 -0.0214  0.2144
  219SOD    SOD22279   0.612   2.260   2.602 -0.2324 -0.6345 -0.0831
  220SOD    SOD22280   2.928   2.988  16.604 -0.4115  0.1065  0.0538
  221SOD    SOD22281   2.311   1.359  10.941  0.0421  0.2897 -0.3494
  222SOD    SOD22282   0.200   3.687   2.043 -0.7426  0.2690  0.2316
  223SOD    SOD22283   4.087   6.672  13.463 -0.2148  0.3000 -0.1021
  224SOD    SOD22284   1.318   3.189   5.771  0.6806  0.2665  0.0671
  225SOD    SOD22285   6.349   6.467  10.948 -0.2148 -0.4298  0.2845
  226SOD    SOD22286   4.438   1.409   5.718  0.4690 -0.0837  0.4382
  227SOD    SOD22287   6.129   1.149   0.074  0.0254  0.7006 -0.1698
  228SOD    SOD22288   1.319   0.246   2.316 -0.4134 -0.0617  0.0776
  229SOD    SOD22289   3.419   0.748  12.947 -0.0555 -0.2839 -0.2955
  230SOD    SOD22290   1.185   0.878  14.957 -0.1059  0.3634 -0.2034
  231SOD    SOD22291   4.254   2.344   2.084  0.0685 -0.3695  0.3259
  232SOD    SOD22292   4.500   3.846  16.674  0.0937  0.1244  0.5131
  233SOD    SOD22293   1.298   0.553   3.873 -0.4395 -0.1236  0.2354
  234SOD    SOD22294   1.615   3.920   0.501 -0.3905  0.4414 -0.3627
  235SOD    SOD22295   1.375   6.175   4.047  0.0681 -0.2340  0.4545
  236SOD    SOD22296   3.090   0.828  11.983  0.3658 -0.4185 -0.1273
  237SOD    SOD22297   0.914   3.527  16.507 -0.2299  0.3515  0.1160
  238SOD    SOD22298   4.167   0.692  10.663  0.0325  0.4552 -0.1501
  239SOD    SOD22299   2.547   2.279  12.128 -0.3621 -0.1693 -0.1869
  240SOD    SOD22300   4.234   2.777   6.125  0.1601  0.3654  0.7581
  241SOD    SOD22301   5.585   0.064  16.378 -0.1515 -0.3270 -0.1819
  242SOD    SOD22302   3.641   6.611   6.130 -0.3999 -0.1914  0.4529
  243SOD    SOD22303   6.554   1.878  13.072 -0.2779  0.1115 -0.3018
  244SOD    SOD22304   5.730   2.820   4.692  0.1421 -0.3204 -0.1590
  245SOD    SOD22305   6.146   0.527   4.515  0.1750 -0.2500  0.6093
  246SOD    SOD22306   2.727   4.390  12.908 -0.3871 -0.1763  0.4542
  247SOD    SOD22307   1.863   6.398   5.213  0.0099  0.0923 -0.0614
  248SOD    SOD22308   0.389   6.110  12.655 -0.0877 -0.1019 -0.5845
  249SOD    SOD22309   1.748   4.922   5.744  0.0681 -0.6398  0.5943
  250SOD    SOD22310   3.814   0.340  12.404  0.4257  0.0728 -0.1039
  251SOD    SOD22311   1.931   0.341   5.875 -0.6265  0.0340 -0.1493
  252SOD    SOD22312   2.965   2.897   5.126  0.0645 -0.1847  0.3657
  253SOD    SOD22313   2.654   3.044   2.090  0.6510 -0.3263  0.2178
  254SOD    SOD22314   3.487   5.375   4.910 -0.6770  0.2274  0.4582
  255SOD    SOD22315   1.350   1.394   3.805  0.1874 -0.1026  0.2094
  256SOD    SOD22316   0.976   4.967   5.466 -0.2023  0.0393 -0.1237
  257SOD    SOD22317   6.346   3.223  11.671  0.3507 -0.5360 -0.1793
  258SOD    SOD22318   4.404   0.340   2.470  0.4144 -0.1582 -0.2851
  259SOD    SOD22319   4.094   2.382  16.776 -0.4347  0.3389 -0.4755
  260SOD    SOD22320   1.769   5.960  11.960  0.0648 -0.0838 -0.3571
  261SOD    SOD22321   1.587   2.222   5.541  0.0877 -0.1314 -0.1208
  262SOD    SOD22322   0.804   2.087  14.530 -0.6318 -0.0514  0.1936
  263SOD    SOD22323   4.847   3.128   3.470 -0.0315  0.0305  0.3570
  264SOD    SOD22324   5.860   0.172  13.653 -0.8487 -0.0520  0.3829
  265SOD    SOD22325   1.041   6.624   6.260  0.0735  0.5109 -0.1064
  266SOD    SOD22326   3.970   2.960  10.831  0.9637 -0.5437  0.4284
  267SOD    SOD22327   4.720   2.816  14.858 -0.2259  0.1662  0.2670
  268SOD    SOD22328   2.437   5.008   4.916  0.5170  0.2313 -0.2863
  269SOD    SOD22329   2.912   5.218  15.963 -0.0814 -0.5217 -0.2178
  270CLA    CLA22330   6.205   3.793   2.490 -0.3187  0.3472  0.1120
  271CLA    CLA22331   2.051   2.280   2.608 -0.2628 -0.1769  0.4207
  272CLA    CLA22332   2.821   5.679   4.827  0.0025  0.1314  0.6043
  273CLA    CLA22333   2.349   2.301  16.079  0.2592 -0.5060 -0.2096
  274CLA    CLA22334   0.745   1.306   4.555  0.1210 -0.1002  0.2984
  275CLA    CLA22335   5.057   2.755   4.143 -0.2346  0.0501 -0.5183
  276CLA    CLA22336   6.487   6.485   0.374 -0.2663  0.0387  0.9681
  277CLA    CLA22337   2.790   0.728  17.124 -0.0228 -0.1008  0.2191
  278CLA    CLA22338   4.548   2.058   3.687  0.3147 -0.0933 -0.4043
  279CLA    CLA22339   3.239   4.325   5.764 -0.2874 -0.2604 -0.0063
  280CLA    CLA22340   5.139   5.644   1.725 -0.2381  0.2307  0.0753
  281CLA    CLA22341   2.844   0.313   0.065 -0.3937 -0.7833  0.0581
  282CLA    CLA22342   3.216   3.379  15.450  0.4450  0.0016 -0.2178
  283CLA    CLA22343   4.616   3.555  14.502 -0.1902  0.1269 -0.1580
  284CLA    CLA22344   4.818   6.722   3.212  0.0003 -0.0986 -0.1404
  285CLA    CLA22345   1.963   5.232  14.780  0.0676  0.2824 -0.4202
  286CLA    CLA22346   3.231   2.105   3.331 -0.1912 -0.1585  0.2001
  287CLA    CLA22347   2.854   3.665   5.457 -0.9574 -0.2752  0.0004
  288CLA    CLA22348   6.642   5.087  13.684  0.3322 -0.0963  0.2403
  289CLA    CLA22349   4.676   3.073   3.039  0.1676  0.1566  0.1210
  290CLA    CLA22350   1.961   1.833   1.691 -0.3774  0.0978 -0.3731
  291CLA    CLA22351   5.162   2.133  14.902 -0.1985  0.2211  0.0925
  292CLA    CLA22352   4.936   5.838   5.303 -0.2233 -0.0599  0.1501
  293CLA    CLA22353   1.612   3.988   2.765  0.0197 -0.0029 -0.1221
  294CLA    CLA22354   2.188   5.184  13.855  0.0182 -0.0635 -0.3616
  295CLA    CLA22355   4.765   3.910  13.263  0.3009 -0.0568  0.3956
  296CLA    CLA22356   1.544   4.006  13.172 -0.0235  0.3430  0.1426
  297CLA    CLA22357   4.670   0.820  15.667  0.0252  0.2533 -0.4305
  298CLA    CLA22358   0.676   4.037  16.125  0.3923  0.1136  0.1874
  299CLA    CLA22359   4.795   2.923   1.227  0.2834  0.1321 -0.0887
  300CLA    CLA22360   1.163   6.355   5.513 -0.4193  0.1274  0.0328
  301CLA    CLA22361   5.187   4.238  13.297 -0.0785 -0.1142 -0.0227
  302CLA    CLA22362   0.545   1.566   2.280 -0.0486 -0.0026  0.2891
  303CLA    CLA22363   4.896   6.760   1.076  0.2485 -0.2323  0.0039
  304CLA    CLA22364   4.606   6.596  14.645  0.0272  0.1117  0.1200
  305CLA    CLA22365   2.552   5.990   2.598 -0.0210 -0.2975 -0.1211
  306CLA    CLA22366   2.156   5.225   0.149  0.1740  0.1574  0.1726
  307CLA    CLA22367   6.296   1.831  13.716  0.1721 -0.3102 -0.1304
  308CLA    CLA22368   3.729   0.513   0.722  0.1942 -0.6071 -0.1850
  309CLA    CLA22369   6.705   2.322   2.112 -0.4287 -0.3868  0.2076
  310CLA    CLA22370   0.861   4.479   5.404 -0.0344 -0.2837 -0.3824
  311CLA    CLA22371   4.173   2.311  13.781 -0.2320 -0.1333 -0.4570
  312CLA    CLA22372   5.295   6.306  16.745 -0.1172  0.2443  0.4968
  313CLA    CLA22373   5.427   0.791  13.608 -0.0331 -0.3400 -0.2794
  314CLA    CLA22374   3.954   3.177   5.350 -0.0419 -0.1610  0.6262
  315CLA    CLA22375   6.489   3.461  14.083 -0.2788 -0.3799  0.3790
  316CLA    CLA22376   4.954   1.296   4.519 -0.2162 -0.2828  0.2725
  317CLA    CLA22377   5.121   2.532   0.326 -0.3294  0.0625  0.0058
  318CLA    CLA22378   1.936   1.453  15.458 -0.0309 -0.1230  0.1067
  319CLA    CLA22379   0.174   5.578  12.656 -0.1811  0.1795 -0.2192
  320CLA    CLA22380   2.202   2.868   4.858 -0.1583  0.3022 -0.2880
  321CLA    CLA22381   5.922   3.551   0.544  0.5859 -0.1018 -0.1167
  322CLA    CLA22382   2.152   1.565  10.989  0.2816 -0.0682  0.3153
  323TIP3   OH222383   2.018   4.139  15.848  0.9739  0.4670  0.1768
  323TIP3    H122384   1.967   4.192  15.786  0.4567 -0.5129 -0.2587
  323TIP3    H222385   2.104   4.181  15.851  0.3847  1.6965  0.3273
  324TIP3   OH222386   3.921   0.919  13.701  0.0705 -0.7262  0.9306
  324TIP3    H122387   3.988   0.855  13.677 -0.5894 -1.1546  0.1956
  324TIP3    H222388   3.959   1.003  13.678  0.8879 -0.8426  1.7653
  325TIP3   OH222389   2.601   1.004  15.704 -0.3796  0.0340 -0.4103
  325TIP3    H122390   2.550   0.954  15.641  0.5459 -0.8664 -0.4651
  325TIP3    H222391   2.620   1.087  15.660 -1.1831  0.1041 -0.6429
  326TIP3   OH222392   5.819   2.045  16.391 -0.2404  0.1237 -0.1820
  326TIP3    H122393   5.874   1.987  16.444 -1.8711 -0.8217  0.5422
  326TIP3    H222394   5.791   1.991  16.317 -1.4703  0.0704  0.3021
  327TIP3   OH222395   3.565   6.782  16.959 -0.1564 -0.5793  0.2038
  327TIP3    H122396   3.619   6.850  16.999  1.3496 -0.4371 -1.8558
  327TIP3    H222397   3.535   6.822  16.877  0.1155 -2.1089 -0.6721
  328TIP3   OH222398   1.189   2.105  15.028 -0.4021  0.1286  0.2205
  328TIP3    H122399   1.252   2.105  14.956 -0.8227 -0.3499 -0.1515
  328TIP3    H222400   1.203   2.189  15.072  0.7366 -0.1045  0.3553
  329TIP3   OH222401   4.880   6.683  15.859  0.4687 -0.1157 -0.1427
  329TIP3    H122402   4.807   6.674  15.798  0.8502  0.0815 -0.6303
  329TIP3    H222403   4.952   6.637  15.817  0.2498 -1.5814  0.9952
  330TIP3   OH222404   5.783   5.484  12.613 -0.8864 -0.8044 -0.3640
  330TIP3    H122405   5.694   5.481  12.648 -0.1545 -1.9502  1.5234
  330TIP3    H222406   5.836   5.522  12.684 -0.0386  1.2366 -1.9627
  331TIP3   OH222407   0.252   1.323  11.141  0.0270 -0.5063 -0.2546
  331TIP3    H122408   0.220   1.265  11.072  1.6533 -0.6162 -0.9707
  331TIP3    H222409   0.290   1.397  11.094  0.5453 -0.2516  0.5473
  332TIP3   OH222410   5.158   0.957  11.737  0.1435  0.2298  0.5640
  332TIP3    H122411   5.125   0.970  11.649  0.8753 -1.7259 -0.0526
  332TIP3    H222412   5.230   1.020  11.745  1.1055 -0.6263 -0.8545
  333TIP3   OH222413   2.383   0.420  15.509  0.1111  0.3151 -0.5498
  333TIP3    H122414   2.392   0.508  15.546  1.2423 -0.6354  1.6176
  333TIP3    H222415   2.417   0.428  15.420  2.8806  1.5169  0.5111
  334TIP3   OH222416   2.832   4.412   1.967  0.1305  0.5345 -0.0744
  334TIP3    H122417   2.762   4.348   1.956  1.2775 -0.7181 -0.3256
  334TIP3    H222418   2.875   4.417   1.882 -0.0384  1.7938 -0.1125
  335TIP3   OH222419   6.483   4.439  16.765 -0.0138 -0.0370  0.5182
  335TIP3    H122420   6.563   4.475  16.803  0.5306 -0.7033  0.0534
  335TIP3    H222421   6.493   4.344  16.775 -0.2712 -0.1784 -0.4331
  336TIP3   OH222422   6.331   5.870  16.974 -0.0890  0.2613 -0.2886
  336TIP3    H122423   6.265   5.812  16.936 -0.1188  0.0551  0.0703
  336TIP3    H222424   6.308   5.957  16.942  0.2031  0.0179 -1.1666
  337TIP3   OH222425   2.341   0.731  13.139  0.1904  0.0053 -0.3588
  337TIP3    H122426   2.306   0.642  13.131  1.0223 -0.3774  0.1387
  337TIP3    H222427   2.417   0.732  13.082  1.1693 -0.1370  0.9021
  338TIP3   OH222428   1.141   0.217  14.117  0.1906  0.1207 -1.1013
  338TIP3    H122429   1.165   0.241  14.207 -1.4535 -0.1933 -0.5560
  338TIP3    H222430   1.053   0.251  14.105 -0.0526 -0.8336 -2.2140
  339TIP3   OH222431   1.419   4.323  12.338  0.0551 -0.0100  0.1750
  339TIP3    H122432   1.492   4.312  12.399 -0.1572 -1.5775  0.1877
  339TIP3    H222433   1.402   4.235  12.305 -0.5483  0.6334 -1.3321
  340TIP3   OH222434   0.192   6.540  15.203 -0.1039 -0.6211  0.0348
  340TIP3    H122435   0.261   6.491  15.157  1.9018  1.3711  0.7243
  340TIP3    H222436   0.236   6.577  15.280 -2.2197 -0.0738  1.0473
  341TIP3   OH222437   3.127   4.625  13.270 -0.3408  0.2188  0.2506
  341TIP3    H122438   3.077   4.648  13.348 -0.8680 -1.0600  0.3090
  341TIP3    H222439   3.187   4.698  13.258  1.9683 -0.8906  3.6708
  342TIP3   OH222440   0.468   0.032   5.627  0.1095 -0.3423 -0.3439
  342TIP3    H122441   0.373   0.044   5.638  0.2265 -1.0546  1.7279
  342TIP3    H222442   0.481  -0.063   5.632  1.0791 -0.1667  1.0820
  343TIP3   OH222443   6.191   0.248  15.687 -0.5917  0.2419 -0.1649
  343TIP3    H122444   6.258   0.190  15.650 -0.2853 -0.3500  1.2653
  343TIP3    H222445   6.218   0.336  15.660 -1.1408 -0.2397 -2.4894
  344TIP3   OH222446   2.883   3.970   5.232 -0.1736  0.3764 -0.4190
  344TIP3    H122447   2.852   3.893   5.280  1.1662  0.9011  1.3743
  344TIP3    H222448   2.817   3.984   5.164  1.0444 -4.2756 -3.0377
  345TIP3   OH222449   3.204   5.902   2.026 -0.5677 -0.6152  0.2420
  345TIP3    H122450   3.219   5.826   1.969  2.2929  0.4992 -0.7189
  345TIP3    H222451   3.222   5.978   1.969  1.6399  0.5772  2.3206
  346TIP3   OH222452   4.304   0.986  12.729  0.3269  0.1117 -0.5777
  346TIP3    H122453   4.347   0.978  12.814  1.8314  0.6523 -1.2442
  346TIP3    H222454   4.223   1.033  12.747  0.4829 -0.0397  0.5922
  347TIP3   OH222455   5.833   1.758   1.204  0.1752  0.4975 -0.2159
  347TIP3    H122456   5.904   1.695   1.192 -1.1056 -0.8927 -0.7659
  347TIP3    H222457   5.842   1.818   1.130  0.0807 -0.3847 -0.9656
  348TIP3   OH222458   1.129   4.801  16.860 -0.9460  0.1706  0.0982
  348TIP3    H122459   1.132   4.751  16.778 -1.1955  0.6327 -0.2022
  348TIP3    H222460   1.083   4.882  16.836 -1.2218  0.2117  0.7495
  349TIP3   OH222461   6.302   1.102   0.508  0.1591 -0.7557 -0.2837
  349TIP3    H122462   6.397   1.117   0.505  0.0214  0.1449 -0.3954
  349TIP3    H222463   6.272   1.154   0.582 -0.3154 -0.6901 -0.5209
  350TIP3   OH222464   2.772   3.329  13.632 -0.4887 -0.0777 -0.1815
  350TIP3    H122465   2.849   3.337  13.576 -0.5716  0.8297 -0.1686
  350TIP3    H222466   2.775   3.405  13.689 -0.2538 -1.1233  1.2609
  351TIP3   OH222467   1.060   6.647   5.507 -0.0936 -0.3682 -0.1621
  351TIP3    H122468   1.061   6.660   5.601 -2.4837 -1.1005  0.0376
  351TIP3    H222469   1.095   6.558   5.495  0.6627 -0.0954 -0.0324
  352TIP3   OH222470   3.429   2.986   1.905 -0.2152  0.0446 -0.2944
  352TIP3    H122471   3.467   3.053   1.962 -0.5039  0.0846 -0.1527
  352TIP3    H222472   3.505   2.948   1.860 -0.0934  0.8024 -0.7410
  353TIP3   OH222473   1.087   2.998   0.726 -0.4961  0.0013  0.6675
  353TIP3    H122474   1.137   3.077   0.744  0.7246 -0.9301  1.5460
  353TIP3    H222475   1.008   3.029   0.682 -0.3930  1.7708  1.6246
  354TIP3   OH222476   6.430   1.270  10.247  0.2157 -0.2064  0.1111
  354TIP3    H122477   6.449   1.236  10.335  1.4640  0.4241  0.1116
  354TIP3    H222478   6.474   1.355  10.245 -0.1088 -0.0565 -1.0060
  355TIP3   OH222479   3.506   1.408  11.726 -0.1616  0.5256 -0.2383
  355TIP3    H122480   3.437   1.344  11.742  0.5510 -0.3408 -0.5011
  355TIP3    H222481   3.512   1.414  11.631 -3.2017  4.3465 -0.4079
  356TIP3   OH222482   5.033   2.280  16.349 -0.0503 -0.3806  0.0521
  356TIP3    H122483   5.123   2.264  16.319 -0.3346 -0.6046 -0.7081
  356TIP3    H222484   5.022   2.374  16.343  0.6364 -0.1759  1.6394
  357TIP3   OH222485   4.773   3.712  11.412  0.4024 -0.7025  0.9301
  357TIP3    H122486   4.711   3.704  11.340 -1.7164 -1.5220  2.7094
  357TIP3    H222487   4.850   3.664  11.385  0.0518 -0.1727 -1.1337
  358TIP3   OH222488   0.431   5.830   5.781 -0.5834 -0.0963  0.2930
  358TIP3    H122489   0.424   5.925   5.787 -1.0691 -0.1326  0.3507
  358TIP3    H222490   0.422   5.800   5.872  2.7693 -0.0298  0.7981
  359TIP3   OH222491   1.999   3.423   1.033  0.1257  0.5421 -0.3566
  359TIP3    H122492   2.062   3.462   1.092  1.5446 -1.0821 -0.7338
  359TIP3    H222493   2.046   3.414   0.950 -1.9757  3.3004 -2.0238
  360TIP3   OH222494   4.475   3.109  12.355  0.3846  0.0445  0.3336
  360TIP3    H122495   4.508   3.045  12.292  0.6049  1.0117 -0.5674
  360TIP3    H222496   4.544   3.116  12.421 -0.2075 -1.6003  1.1850
  361TIP3   OH222497   5.341   2.217   5.594  0.3243 -0.1795  0.6961
  361TIP3    H122498   5.381   2.208   5.680  1.0239 -0.3674  0.3599
  361TIP3    H222499   5.414   2.228   5.534 -0.2090  1.5761  0.3002
  362TIP3   OH222500   6.603   1.211  15.231  0.0968  0.8883 -0.0359
  362TIP3    H122501   6.527   1.213  15.289 -1.1775 -2.7463 -1.3431
  362TIP3    H222502   6.666   1.154  15.274  0.7176  1.2253 -0.4756
  363TIP3   OH222503   4.243   5.449   0.606  0.4331  0.5465 -0.3867
  363TIP3    H122504   4.333   5.482   0.606  2.1010 -2.7134  5.2712
  363TIP3    H222505   4.204   5.487   0.685 -1.7104 -1.3739 -0.4385
  364TIP3   OH222506   5.841   1.130   5.232  0.7049 -0.1549  0.0196
  364TIP3    H122507   5.904   1.104   5.165 -0.6422 -0.3445 -1.2173
  364TIP3    H222508   5.848   1.225   5.236  1.7085 -0.2397  0.5640
  365TIP3   OH222509   6.767   1.102  15.395  0.1918 -0.4144 -0.1741
  365TIP3    H122510   6.775   1.056  15.479  0.3385  1.0655  0.6678
  365TIP3    H222511   6.832   1.172  15.400 -1.4892  1.2733 -0.4192
  366TIP3   OH222512   2.260   2.841  13.265 -0.0472  0.2958 -0.0752
  366TIP3    H122513   2.229   2.866  13.352 -0.6451  1.0313 -0.4828
  366TIP3    H222514   2.242   2.918  13.210 -2.4002 -1.1475 -1.5045
  367TIP3   OH222515   2.068   5.169   5.983 -0.1141  0.3246  0.1697
  367TIP3    H122516   2.146   5.152   5.931 -0.3356  0.5036 -0.2211
  367TIP3    H222517   2.101   5.211   6.062  0.2937 -0.5760  0.4948
  368TIP3   OH222518   5.590   1.019   3.801 -0.0759 -0.2586 -0.3986
  368TIP3    H122519   5.648   0.950   3.832  0.9408  0.4713 -0.6191
  368TIP3    H222520   5.633   1.053   3.722 -1.6005 -0.7283 -1.4670
  369TIP3   OH222521   6.510   0.976  11.567  0.3912  0.3359 -0.2147
  369TIP3    H122522   6.552   0.994  11.651  0.5573  1.8294 -0.5885
  369TIP3    H222523   6.422   1.013  11.576 -0.0812 -0.7513 -0.2276
  370TIP3   OH222524   0.240   1.636  12.632 -0.4946 -0.1555 -0.3286
  370TIP3    H122525   0.328   1.666  12.612 -0.7536  0.2978 -0.8428
  370TIP3    H222526   0.205   1.609  12.547 -0.6925 -0.7602 -0.0583
  371TIP3   OH222527   4.093   6.442   5.310 -0.2045 -0.2709 -0.2901
  371TIP3    H122528   4.126   6.416   5.224 -0.7491 -0.0610 -0.5712
  371TIP3    H222529   4.083   6.537   5.305 -0.2451 -0.2577  0.0014
  372TIP3   OH222530   5.116   6.670   1.277  0.5218  0.2771 -0.1008
  372TIP3    H122531   5.043   6.702   1.224  0.9225  0.2377 -0.6802
  372TIP3    H222532   5.130   6.738   1.343 -0.2792  0.1116  0.2472
  373TIP3   OH222533   4.550   0.455  16.050 -0.3696 -0.2487  0.3291
  373TIP3    H122534   4.590   0.462  16.137 -0.1767 -1.1804  0.3242
  373TIP3    H222535   4.463   0.492  16.061 -0.0597  0.3729  0.7234
  374TIP3   OH222536   1.385   6.661   5.375  0.0238  0.3792 -0.3841
  374TIP3    H122537   1.412   6.753   5.375  1.0116  0.1185 -1.3936
  374TIP3    H222538   1.373   6.639   5.468  5.6692 -0.0484  0.6164
  375TIP3   OH222539   3.131   3.206   1.501 -0.2897 -0.0037  0.0451
  375TIP3    H122540   3.139   3.111   1.496 -0.7732 -0.0028 -0.9979
  375TIP3    H222541   3.205   3.239   1.449 -0.6815  0.1692 -0.4102
  376TIP3   OH222542   5.020   2.360   5.209 -0.0872  0.5754  0.0116
  376TIP3    H122543   5.103   2.384   5.250  0.5989  0.5296 -1.2809
  376TIP3    H222544   5.013   2.418   5.133  0.2087 -1.3078 -1.5480
  377TIP3   OH222545   5.004   0.661  17.085  0.0089 -0.4232  0.3010
  377TIP3    H122546   4.999   0.581  17.137  1.5909 -1.0851 -0.4704
  377TIP3    H222547   4.919   0.703  17.096  0.1014 -0.7572  2.9914
  378TIP3   OH222548   4.856   2.840  15.245  0.0593 -0.0739 -0.2744
  378TIP3    H122549   4.893   2.844  15.156  0.7810  1.2891  0.0603
  378TIP3    H222550   4.866   2.748  15.271 -0.7273 -0.6401 -1.8182
  379TIP3   OH222551   4.290   5.695  16.243 -0.2555  0.5702 -0.2288
  379TIP3    H122552   4.325   5.784  16.251  2.2858 -0.4653  1.0782
  379TIP3    H222553   4.366   5.640  16.223 -1.7020 -1.3951 -0.6344
  380TIP3   OH222554   4.074   1.634  15.184  0.0878  0.0585 -0.2488
  380TIP3    H122555   4.048   1.561  15.128  0.3369 -1.0096  1.0056
  380TIP3    H222556   3.992   1.676  15.209 -0.0320  0.5535 -1.3760
  381TIP3   OH222557   4.254   0.008   0.759  0.2348 -0.1028  0.3536
  381TIP3    H122558   4.190  -0.040   0.706 -2.4513  1.0661  2.2843
  381TIP3    H222559   4.338  -0.010   0.717 -1.4230 -0.8224 -3.0789
  382TIP3   OH222560   0.774   4.957   4.681  0.6969  0.1042  0.2532
  382TIP3    H122561   0.814   5.023   4.736  1.0566 -0.6267  0.8941
  382TIP3    H222562   0.802   4.979   4.592  0.5431  0.9845  0.4198
  383TIP3   OH222563   6.223   1.480  14.057  0.0326  0.3516  0.0748
  383TIP3    H122564   6.248   1.543  14.125  2.0689 -0.1102 -0.1830
  383TIP3    H222565   6.288   1.493  13.988 -0.3911 -1.0418 -0.6134
  384TIP3   OH222566   5.230   2.592  12.977 -0.3161 -0.1869  0.2406
  384TIP3    H122567   5.220   2.600  13.072 -1.2524  0.0479  0.1398
  384TIP3    H222568   5.168   2.657  12.942  0.4119  0.1069 -0.5265
  385TIP3   OH222569   1.187   3.781  13.683  0.4844  0.3033 -0.2362
  385TIP3    H122570   1.104   3.817  13.714  0.8055  1.4358 -0.6511
  385TIP3    H222571   1.242   3.777  13.761  0.3243  0.3714 -0.1185
  386TIP3   OH222572   0.448   0.183   3.692  0.0890  0.0440 -0.3187
  386TIP3    H122573   0.377   0.160   3.631 -1.0971 -0.6284  1.2413
  386TIP3    H222574   0.464   0.276   3.675 -2.0624  0.5562  0.0922
  387TIP3   OH222575   6.571   3.430  15.778 -0.0419 -0.3518  0.5055
  387TIP3    H122576   6.530   3.450  15.862 -1.5984 -0.0791 -0.2924
  387TIP3    H222577   6.644   3.491  15.772 -1.7013  1.7379  0.3608
  388TIP3   OH222578   0.941   4.798  13.933  0.1795  0.2763  0.0060
  388TIP3    H122579   0.919   4.825  13.844 -2.0154  0.8914  0.6641
  388TIP3    H222580   0.881   4.725  13.951 -1.7474  2.2153  2.0321
  389TIP3   OH222581   4.394   5.644   2.844 -0.4096 -0.6512 -0.2505
  389TIP3    H122582   4.417   5.721   2.792  0.3341 -2.0738 -2.1642
  389TIP3    H222583   4.478   5.603   2.864 -0.8696 -1.8651 -0.7267
  390TIP3   OH222584   3.700   2.065  15.897 -0.0853  0.0213  0.3627
  390TIP3    H122585   3.742   2.124  15.959  2.2588 -1.0408 -0.0733
  390TIP3    H222586   3.765   2.054  15.827 -1.6023 -0.8326 -0.9960
  391TIP3   OH222587   4.311   1.955   2.128 -0.3722 -0.4850 -0.4694
  391TIP3    H122588   4.381   1.952   2.194 -0.6786 -0.4563 -0.1392
  391TIP3    H222589   4.357   1.966   2.045 -0.0460  2.3321 -0.0260
  392TIP3   OH222590   3.711   5.315   3.118  0.3126 -0.2989 -0.2327
  392TIP3    H122591   3.780   5.253   3.143  0.6152 -0.2904 -1.0293
  392TIP3    H222592   3.752   5.401   3.128 -0.5353 -0.0989  2.2514
  393TIP3   OH222593   5.306   1.627   0.048 -0.5547  0.3091 -0.3401
  393TIP3    H122594   5.298   1.587   0.135  0.6425 -0.7020 -0.6691
  393TIP3    H222595   5.217   1.626   0.013 -1.0382  0.6456  0.8203
  394TIP3   OH222596   3.130   3.033  17.061  0.1641 -0.3668  0.1985
  394TIP3    H122597   3.187   3.008  17.133  0.7034 -0.6585 -0.3217
  394TIP3    H222598   3.078   2.954  17.043  0.2854 -0.4077  0.0286
  395TIP3   OH222599   3.659   1.996  12.439  0.6001 -0.2439 -0.1700
  395TIP3    H122600   3.750   1.967  12.446 -0.4632 -4.5750 -1.3713
  395TIP3    H222601   3.616   1.960  12.517 -0.5472 -0.4076 -0.8606
  396TIP3   OH222602   6.665   5.650  11.679  0.8026  0.3249 -0.7572
  396TIP3    H122603   6.722   5.664  11.755  2.0064 -0.1555 -1.5415
  396TIP3    H222604   6.725   5.629  11.608 -0.4547 -2.4278 -1.1341
  397TIP3   OH222605   6.485   4.770  13.465  0.5201  0.6956  0.0988
  397TIP3    H122606   6.556   4.754  13.527 -0.6518 -1.2128  1.0553
  397TIP3    H222607   6.528   4.773  13.380  1.7051 -1.3996  0.5459
  398TIP3   OH222608   1.325   2.415   3.953  0.1457 -0.4077 -0.0023
  398TIP3    H122609   1.317   2.412   4.048  0.5909 -1.0369  0.0182
  398TIP3    H222610   1.239   2.386   3.921 -0.5708  1.3719  0.1815
  399TIP3   OH222611   2.131   3.604  14.801  0.7157  0.2482  0.4726
  399TIP3    H122612   2.200   3.637  14.859 -0.7994  1.0105  1.9515
  399TIP3    H222613   2.096   3.528  14.847 -0.7334  1.0651  0.7833
  400TIP3   OH222614   1.313   2.660   1.882  0.2407  0.2532  0.1185
  400TIP3    H122615   1.313   2.571   1.848  1.1533  0.6692 -1.0637
  400TIP3    H222616   1.398   2.696   1.854 -0.9318  2.1385 -1.2712
  401TIP3   OH222617   0.862   0.421   3.090 -0.1723  0.5504  0.0577
  401TIP3    H122618   0.874   0.427   2.995  1.1015 -2.8979 -0.1324
  401TIP3    H222619   0.886   0.331   3.111 -0.7131  1.1265  3.6485
  402TIP3   OH222620   6.797   5.015  14.857 -0.0261 -0.2392 -0.2982
  402TIP3    H122621   6.843   4.940  14.895  0.2245 -0.5299 -1.1602
  402TIP3    H222622   6.859   5.052  14.795 -0.0190  0.8965  0.3608
  403TIP3   OH222623   2.255   2.163  10.222 -0.3984  0.2122  0.4433
  403TIP3    H122624   2.227   2.095  10.284 -2.5846  0.1988 -0.4827
  403TIP3    H222625   2.307   2.223  10.275 -0.0159 -1.1501  1.7088
  404TIP3   OH222626   1.131   5.314   4.260 -0.1808 -0.0397 -0.4104
  404TIP3    H122627   1.188   5.354   4.326 -0.8860 -1.7802  1.3517
  404TIP3    H222628   1.161   5.224   4.254 -2.2016 -0.7855 -0.0206
  405TIP3   OH222629   3.704   5.065   2.586  0.3677  0.5843  0.1877
  405TIP3    H122630   3.722   5.077   2.493  2.2102 -2.3517  0.0288
  405TIP3    H222631   3.775   5.110   2.631  2.2559 -1.9163 -0.0918
  406TIP3   OH222632   3.921   6.265   4.555 -0.2405 -0.4975  0.2604
  406TIP3    H122633   3.893   6.186   4.508 -0.8843 -1.0597  1.5353
  406TIP3    H222634   3.863   6.269   4.631 -0.2023  1.2126  0.2293
  407TIP3   OH222635   2.771   2.186   6.505 -0.1160  0.0595 -0.0207
  407TIP3    H122636   2.840   2.180   6.571 -2.7956  0.4707  3.0443
  407TIP3    H222637   2.775   2.102   6.459  3.3923  0.6965 -1.2156
  408TIP3   OH222638   3.214   0.571  13.962 -0.6200 -0.4171 -0.4447
  408TIP3    H122639   3.215   0.662  13.993 -0.1228  0.1474 -1.9999
  408TIP3    H222640   3.129   0.538  13.989 -0.5647  0.2926  0.7084
  409TIP3   OH222641   2.310   0.384  12.853  0.4355 -0.4260 -0.4217
  409TIP3    H122642   2.381   0.329  12.822  1.2252  1.3141 -1.8470
  409TIP3    H222643   2.309   0.459  12.794 -1.7591  0.2386  0.3433
  410TIP3   OH222644   4.621   4.344   0.842 -0.2068  0.0955  0.2299
  410TIP3    H122645   4.529   4.320   0.853 -0.2327  0.0813 -0.0132
  410TIP3    H222646   4.629   4.366   0.749  0.2395 -0.7770  0.0500
  411TIP3   OH222647   0.075   1.623   4.413  0.0468 -0.6271 -0.2640
  411TIP3    H122648   0.138   1.628   4.484  0.3007 -0.2821 -0.5109
  411TIP3    H222649   0.003   1.571   4.448 -0.1216  0.0863  0.4633
  412TIP3   OH222650   4.667   4.391  13.328 -0.3402  0.0048 -0.3017
  412TIP3    H122651   4.599   4.445  13.287 -0.0818  0.8578  0.3536
  412TIP3    H222652   4.729   4.374  13.257 -1.6527 -1.5586 -1.1465
  413TIP3   OH222653   5.778   0.918   5.057  0.6109 -0.0750 -0.0600
  413TIP3    H122654   5.748   1.001   5.094  1.5691 -0.0024  0.6093
  413TIP3    H222655   5.783   0.934   4.963 -0.1143  0.3251 -0.0337
  414TIP3   OH222656   0.655   6.073   1.533  0.2418  0.2286  0.4693
  414TIP3    H122657   0.734   6.032   1.498  0.0643  2.0426 -2.3796
  414TIP3    H222658   0.586   6.008   1.521  0.5571  0.1280 -0.9026
  415TIP3   OH222659   4.815   1.791   2.211 -0.0606 -0.2349 -0.2784
  415TIP3    H122660   4.754   1.792   2.284 -1.8711 -1.6217 -1.6561
  415TIP3    H222661   4.900   1.774   2.250 -0.9901 -1.0898  1.5040
  416TIP3   OH222662   5.454   4.410   4.757  0.7697  0.4432  0.3445
  416TIP3    H122663   5.512   4.366   4.819  0.6248  1.8695  1.5690
  416TIP3    H222664   5.412   4.339   4.708  0.5714 -0.7759  2.1871
  417TIP3   OH222665   1.655   1.325  12.753 -0.3562  0.1096  0.3712
  417TIP3    H122666   1.601   1.300  12.678 -1.1498  1.1375  0.5695
  417TIP3    H222667   1.602   1.303  12.829  1.2533 -2.8374  0.7891
  418TIP3   OH222668   3.501   3.642  12.161  0.3853  0.5573  0.5237
  418TIP3    H122669   3.476   3.549  12.161  2.1264  0.0478 -0.9815
  418TIP3    H222670   3.576   3.647  12.220  1.7270  0.5580 -1.1390
  419TIP3   OH222671   1.215   2.455   5.864  0.2144  0.8736  0.0881
  419TIP3    H122672   1.257   2.380   5.907  2.1934  1.0192 -1.4461
  419TIP3    H222673   1.183   2.420   5.781  1.8357  1.8155 -0.9907
  420TIP3   OH222674   6.096   0.871  11.047  0.1413 -0.6228  0.5492
  420TIP3    H122675   6.021   0.879  10.988 -0.1890  0.5982  1.1037
  420TIP3    H222676   6.067   0.913  11.128  1.7239  0.6800  0.4946
  421TIP3   OH222677   2.333   0.505  16.636 -0.6457  0.5980 -0.5174
  421TIP3    H122678   2.347   0.594  16.669 -1.7645  1.0599 -1.2246
  421TIP3    H222679   2.418   0.462  16.647 -0.0556  1.7822 -0.2360
  422TIP3   OH222680   0.901   2.622   2.091 -0.4736 -0.0999  0.1451
  422TIP3    H122681   0.901   2.570   2.172 -1.4341  1.9903  1.5927
  422TIP3    H222682   0.934   2.708   2.118 -2.0509  1.0553 -1.3782
  423TIP3   OH222683   3.924   0.911  16.451 -0.4520 -0.6990 -0.1005
  423TIP3    H122684   3.949   0.933  16.361  0.5313 -1.1822  0.0413
  423TIP3    H222685   3.902   0.818  16.448  0.7207 -1.0064  0.3799
  424TIP3   OH222686   5.557   4.957  11.487 -0.0370  0.3697  0.4479
  424TIP3    H122687   5.550   5.048  11.516 -1.3107  0.2458  0.5726
  424TIP3    H222688   5.526   4.957  11.397  1.6757  0.3397 -0.1848
  425TIP3   OH222689   2.451   0.274   2.501  0.3182 -0.1588 -0.0611
  425TIP3    H122690   2.366   0.314   2.485  0.7723  2.5315  3.2094
  425TIP3    H222691   2.515   0.340   2.472  1.3896 -1.7491 -1.5785
  426TIP3   OH222692   4.196   2.927  14.619 -0.4007 -0.0247  0.0635
  426TIP3    H122693   4.114   2.972  14.639 -0.5664 -0.3513  0.1283
  426TIP3    H222694   4.202   2.930  14.523 -0.1762  0.5420  0.0935
  427TIP3   OH222695   1.438   6.261  11.660  0.2753  0.6484  0.1021
  427TIP3    H122696   1.407   6.171  11.669 -1.1550  1.0889 -0.0915
  427TIP3    H222697   1.359   6.311  11.640  0.8766  2.0988  1.1779
  428TIP3   OH222698   2.919   3.481  10.342 -0.0427 -0.2291 -0.3112
  428TIP3    H122699   2.898   3.573  10.356 -1.0495 -0.6507  1.1664
  428TIP3    H222700   2.834   3.438  10.335  0.4105 -1.1483 -0.2700
  429TIP3   OH222701   2.523   5.064  11.585  0.1739 -0.4240 -0.1432
  429TIP3    H122702   2.554   5.152  11.608 -0.0370 -0.3917  0.0280
  429TIP3    H222703   2.506   5.070  11.491 -0.4271 -0.0918 -0.0215
  430TIP3   OH222704   0.634   1.328   5.380 -0.2045 -0.2994  0.3976
  430TIP3    H122705   0.642   1.234   5.399 -0.9307 -0.3145  0.6761
  430TIP3    H222706   0.577   1.332   5.303  0.0554 -0.0953  0.2145
  431TIP3   OH222707   4.707   5.987   6.563  0.2300 -0.1256  0.0770
  431TIP3    H122708   4.698   6.000   6.469  0.2213 -1.8090 -0.1714
  431TIP3    H222709   4.651   6.054   6.602  0.8115  1.0804 -1.0703
  432TIP3   OH222710   5.993   3.312   3.212  0.2200 -0.0633 -0.1794
  432TIP3    H122711   6.085   3.339   3.217  0.2800  0.2354 -2.1206
  432TIP3    H222712   5.954   3.373   3.150 -1.1186 -0.6710  0.0348
  433TIP3   OH222713   6.793   4.736   3.890  0.0682 -0.7402 -0.0860
  433TIP3    H122714   6.889   4.730   3.889  0.1933  0.9333 -0.4884
  433TIP3    H222715   6.773   4.790   3.966 -0.4885 -0.3075 -0.5286
  434TIP3   OH222716   3.278   5.781  12.242 -0.4265  0.1485 -0.5086
  434TIP3    H122717   3.292   5.794  12.148 -0.1811  0.1509 -0.4731
  434TIP3    H222718   3.198   5.730  12.248 -1.3357  1.5189 -0.6638
  435TIP3   OH222719   1.371   6.166   2.792  0.1426  0.0033  0.0900
  435TIP3    H122720   1.321   6.144   2.870  0.3429  1.7576  0.7511
  435TIP3    H222721   1.405   6.254   2.809  0.2939  0.3813 -1.9105
  436TIP3   OH222722   1.046   5.290  11.122 -0.0525  0.1957 -0.9405
  436TIP3    H122723   1.005   5.320  11.202 -0.6901 -1.8289 -0.4398
  436TIP3    H222724   1.033   5.361  11.059  0.8139  1.9903  0.8172
  437TIP3   OH222725   1.302   6.102  13.315 -0.4011  0.6656  0.2824
  437TIP3    H122726   1.241   6.059  13.374 -0.7699 -0.6358 -0.9747
  437TIP3    H222727   1.249   6.167  13.268 -0.0086  2.0314  1.6426
  438TIP3   OH222728   4.672   6.305   1.633 -0.2541 -0.5458  0.0373
  438TIP3    H122729   4.714   6.342   1.711  2.3633 -0.7745 -1.1770
  438TIP3    H222730   4.659   6.213   1.653  1.6261 -0.8936 -0.2327
  439TIP3   OH222731   2.885   6.249  15.505 -0.1845  0.2037 -0.1820
  439TIP3    H122732   2.887   6.177  15.568  1.6902  0.5165  0.1652
  439TIP3    H222733   2.792   6.261  15.485 -0.5527 -2.1720 -0.1118
  440TIP3   OH222734   6.381   6.126   0.996  0.4598 -0.1483  0.0164
  440TIP3    H122735   6.398   6.152   1.087 -0.3015  0.0780  0.0996
  440TIP3    H222736   6.311   6.061   1.002  0.4866 -0.2191 -0.3974
  441TIP3   OH222737   1.013   0.728  14.995  0.5884  0.3920 -0.3950
  441TIP3    H122738   0.956   0.679  15.054 -0.5564 -1.2244 -2.7107
  441TIP3    H222739   0.995   0.693  14.908  1.0567  3.7120 -2.0013
  442TIP3   OH222740   0.056   4.217   4.419  0.1760 -0.2415 -0.3981
  442TIP3    H122741   0.141   4.259   4.430 -0.6586  1.1316  1.4167
  442TIP3    H222742   0.064   4.133   4.466  0.0821  0.6086  1.2095
  443TIP3   OH222743   1.937   2.190  15.016  0.7790  0.6844 -0.0558
  443TIP3    H122744   1.875   2.121  15.038 -0.5046  1.3735 -1.2724
  443TIP3    H222745   2.013   2.145  14.980 -0.5223 -0.1075 -1.9767
  444TIP3   OH222746   5.469   3.521   4.015 -0.0603 -0.0527 -0.1869
  444TIP3    H122747   5.457   3.433   4.051 -1.6949  0.1948 -0.0857
  444TIP3    H222748   5.539   3.559   4.068  1.7003 -1.7517 -1.1215
  445TIP3   OH222749   3.742   5.896  13.180  0.0335  0.0602  0.0720
  445TIP3    H122750   3.720   5.862  13.093 -0.8060 -1.6133  0.8733
  445TIP3    H222751   3.721   5.990  13.176 -0.8750 -0.1762 -1.2643
  446TIP3   OH222752   6.174   0.094  15.941 -0.1081 -0.4928  0.0637
  446TIP3    H122753   6.139   0.009  15.913  2.4680 -1.0078 -1.9377
  446TIP3    H222754   6.173   0.147  15.862  0.4954  0.5691  0.7464
  447TIP3   OH222755   2.916   2.860  14.071 -0.2799 -0.2285  0.4636
  447TIP3    H122756   2.964   2.941  14.055 -0.0746 -0.4047  0.1796
  447TIP3    H222757   2.879   2.837  13.986 -1.1911  0.1053  0.7531
  448TIP3   OH222758   3.636   4.439   4.526  0.3208 -0.2949 -0.5624
  448TIP3    H122759   3.541   4.424   4.519  0.5489 -1.8004 -0.7586
  448TIP3    H222760   3.653   4.507   4.461 -0.1388 -2.5032 -3.1862
  449TIP3   OH222761   6.580   3.095   5.698 -0.1446  0.3315 -0.0321
  449TIP3    H122762   6.580   3.001   5.718  0.4276  0.7364  2.0399
  449TIP3    H222763   6.494   3.125   5.725 -0.0827  0.5337 -0.0620
  450TIP3   OH222764   4.975   2.422  12.246  0.3616 -0.2787 -0.3398
  450TIP3    H122765   4.895   2.465  12.274  0.8993  0.1248  0.6405
  450TIP3    H222766   4.977   2.340  12.296  1.0856  0.2137  0.4522
  451TIP3   OH222767   3.200   4.881  14.363 -0.0156 -0.0448 -1.0811
  451TIP3    H122768   3.133   4.949  14.365 -0.6915 -0.7049 -0.1989
  451TIP3    H222769   3.206   4.856  14.271 -0.6530  0.3426 -1.2343
  452TIP3   OH222770   4.167   6.571  12.636 -0.3454  0.6166  0.3480
  452TIP3    H122771   4.104   6.523  12.688  1.4549 -0.7413  1.3686
  452TIP3    H222772   4.252   6.551  12.676  1.0624  0.0727 -2.6460
  453TIP3   OH222773   4.486   2.819   6.085  0.5376  0.4152  0.3696
  453TIP3    H122774   4.504   2.910   6.065  0.7584  0.0072 -1.4338
  453TIP3    H222775   4.571   2.775   6.077  0.6560  0.1908  2.3021
  454TIP3   OH222776   4.936   6.367  13.459 -0.6797 -0.0212  0.1060
  454TIP3    H122777   4.934   6.369  13.555 -1.3415  1.0523  0.0885
  454TIP3    H222778   4.875   6.436  13.433  0.4980  0.6228 -1.0752
  455TIP3   OH222779   2.878   3.439  11.496  0.0945 -0.1963 -0.5386
  455TIP3    H122780   2.890   3.345  11.509  1.1066 -0.0221 -0.1075
  455TIP3    H222781   2.965   3.477  11.511  0.0291  0.6639 -2.1072
  456TIP3   OH222782   6.142   5.335  11.742  0.0883  0.3512 -0.0545
  456TIP3    H122783   6.127   5.260  11.799  1.7643  0.1323  0.1535
  456TIP3    H222784   6.101   5.408  11.788  1.0748  0.1083  1.2843
  457TIP3   OH222785   0.201   3.392  17.170  0.1102  0.2455  0.4887
  457TIP3    H122786   0.194   3.413  17.263 -3.0613 -0.8966  0.6177
  457TIP3    H222787   0.180   3.473  17.125 -1.9267 -0.0361  0.8609
  458TIP3   OH222788   2.548   3.797  14.707  0.2394  0.4514 -0.1147
  458TIP3    H122789   2.511   3.845  14.780 -0.5941 -0.5312  0.1305
  458TIP3    H222790   2.500   3.715  14.705  1.8921 -0.5618 -0.2648
  459TIP3   OH222791   1.975   6.245   3.706  0.0186 -0.2967  0.6898
  459TIP3    H122792   2.057   6.295   3.705 -0.0205 -0.2331 -0.0472
  459TIP3    H222793   1.974   6.202   3.791 -0.4176  1.7237  1.7588
  460TIP3   OH222794   5.364   6.701   6.025  0.0544 -0.3065  0.2125
  460TIP3    H122795   5.372   6.612   6.059  0.3519 -0.1499  0.5586
  460TIP3    H222796   5.368   6.691   5.929 -0.5367 -0.7234  0.2260
  461TIP3   OH222797   4.358   0.329   5.898 -0.0750 -0.1972  0.2564
  461TIP3    H122798   4.447   0.342   5.864 -0.0337  0.1448  0.4905
  461TIP3    H222799   4.357   0.237   5.926 -0.2167 -0.5761 -0.9483
  462TIP3   OH222800   4.621   6.587  16.790  0.0414 -0.5807  0.1125
  462TIP3    H122801   4.660   6.656  16.843  0.8433  0.0229 -1.2273
  462TIP3    H222802   4.681   6.576  16.716 -1.3258 -0.9998 -0.9817
  463TIP3   OH222803   4.020   2.444  16.577 -0.4881  0.2832  0.1974
  463TIP3    H122804   4.064   2.495  16.508 -0.9393 -0.0817 -0.3663
  463TIP3    H222805   3.956   2.391  16.530 -3.1380  2.3981  1.1697
  464TIP3   OH222806   0.913   4.773  11.739 -0.9345 -0.3863 -0.3434
  464TIP3    H122807   0.994   4.775  11.687  0.1113 -1.0699  1.1930
  464TIP3    H222808   0.848   4.818  11.684  0.7231  1.0828 -1.1828
  465TIP3   OH222809   0.182   2.769   3.231 -0.3404 -0.2835  0.0665
  465TIP3    H122810   0.123   2.836   3.266  2.5614  1.6262  1.7559
  465TIP3    H222811   0.232   2.815   3.164 -0.0524 -1.5534 -0.6110
  466TIP3   OH222812   1.275   6.261  16.112 -0.2492 -0.0050  0.1254
  466TIP3    H122813   1.213   6.330  16.092 -1.1090 -0.5854  0.7073
  466TIP3    H222814   1.226   6.199  16.165  0.2570 -1.4553 -1.0190
  467TIP3   OH222815   2.696   4.546   3.829 -0.5199 -0.3475  0.1924
  467TIP3    H122816   2.771   4.487   3.843  0.2273  0.3476 -0.7381
  467TIP3    H222817   2.619   4.490   3.840  0.1550 -1.2945  0.2383
  468TIP3   OH222818   1.293   5.522   2.259  0.3850 -0.7238  0.2664
  468TIP3    H122819   1.341   5.584   2.204  1.4763 -1.8150 -0.0683
  468TIP3    H222820   1.291   5.441   2.208 -0.2439 -1.2136  1.0479
  469TIP3   OH222821   1.977   0.353   1.896 -0.2757 -0.1009 -0.1139
  469TIP3    H122822   2.026   0.306   1.963 -1.2872 -0.8107  0.1412
  469TIP3    H222823   2.041   0.415   1.859  1.0407 -1.5457 -0.3478
  470TIP3   OH222824   1.535   1.243  13.691 -0.0450 -0.3223  0.0650
  470TIP3    H122825   1.613   1.196  13.663  1.3148  1.2038  1.1316
  470TIP3    H222826   1.541   1.246  13.786 -0.8657  0.7230  0.1031
  471TIP3   OH222827   4.505   5.122   4.574  0.1567  0.4127 -0.8227
  471TIP3    H122828   4.511   5.216   4.587  0.1662  0.4972 -1.4130
  471TIP3    H222829   4.585   5.087   4.614 -0.0050  0.6188 -0.3111
  472TIP3   OH222830   3.954   6.289   2.203  0.0775  0.3055 -0.6185
  472TIP3    H122831   3.969   6.320   2.114 -1.6564  1.3285 -0.6112
  472TIP3    H222832   3.862   6.264   2.205  0.5451 -1.5336  0.3932
  473TIP3   OH222833   0.285   5.543  10.910 -0.0817 -0.0378 -0.2997
  473TIP3    H122834   0.361   5.507  10.865 -0.2372 -1.7327  0.7277
  473TIP3    H222835   0.263   5.623  10.860  2.3386  0.4954 -0.6085
  474TIP3   OH222836   2.531   0.560   4.621  0.4816 -0.5355 -0.0961
  474TIP3    H122837   2.501   0.470   4.635  0.6483 -0.5689  0.0540
  474TIP3    H222838   2.520   0.575   4.527  1.1054 -0.9519 -0.2434
  475TIP3   OH222839   5.569   4.184   4.904  0.1241  0.0839  0.9822
  475TIP3    H122840   5.630   4.121   4.866  0.2327  0.5213  0.4130
  475TIP3    H222841   5.484   4.138   4.905  0.1103  0.0764  0.1637
  476TIP3   OH222842   4.249   6.342  15.170  0.2237  0.0907 -0.3177
  476TIP3    H122843   4.163   6.372  15.197  0.2724 -0.7590  0.8639
  476TIP3    H222844   4.298   6.422  15.152 -0.7205  0.5853 -0.7628
  477TIP3   OH222845   2.453   5.079   3.482 -0.3566 -0.2371  0.5447
  477TIP3    H122846   2.445   4.988   3.513 -1.3183 -0.3056  0.1038
  477TIP3    H222847   2.387   5.127   3.531 -0.3618  0.0865  0.2221
  478TIP3   OH222848   2.588   2.188  17.068 -0.5921  0.5325 -0.4998
  478TIP3    H122849   2.628   2.275  17.071 -1.5355  0.9733 -0.1768
  478TIP3    H222850   2.623   2.143  17.145  2.0611 -0.4025 -2.1196
  479TIP3   OH222851   3.472   2.197  14.518 -0.4015  0.2336 -0.2579
  479TIP3    H122852   3.548   2.151  14.483 -0.8838  0.1373 -1.1968
  479TIP3    H222853   3.496   2.218  14.608  0.8099  0.3659 -0.5977
  480TIP3   OH222854   3.582   0.762  12.474  0.1527  0.8741 -0.6596
  480TIP3    H122855   3.550   0.800  12.556  2.2057  0.3047  0.4807
  480TIP3    H222856   3.633   0.833  12.433 -0.2850  0.9323 -1.1191
  481TIP3   OH222857   0.325   2.117   3.240  0.7088  0.6794  0.3514
  481TIP3    H122858   0.292   2.204   3.261  2.8838  1.5564  0.4525
  481TIP3    H222859   0.376   2.091   3.317  0.7008 -0.3567  0.0243
  482TIP3   OH222860   3.095   6.786  11.248 -0.1304  0.4737  0.8146
  482TIP3    H122861   3.161   6.844  11.285  0.8086 -0.7895  1.1604
  482TIP3    H222862   3.144   6.723  11.197 -1.1152 -0.1813  0.6477
  483TIP3   OH222863   2.842   5.305   1.936 -0.0471  0.1561  0.8761
  483TIP3    H122864   2.862   5.214   1.960 -1.6218 -0.1239  1.1974
  483TIP3    H222865   2.803   5.343   2.014 -1.6151  0.3978  0.0047
  484TIP3   OH222866   0.160   0.406  15.546 -0.0501 -0.6610  0.1190
  484TIP3    H122867   0.078   0.396  15.594 -0.7751  4.2221  0.4482
  484TIP3    H222868   0.218   0.453  15.606  0.8566  1.0690 -1.9644
  485TIP3   OH222869   5.489   5.849  11.215  0.3461  0.0240  0.1512
  485TIP3    H122870   5.551   5.881  11.151 -0.4631 -0.9578 -1.1738
  485TIP3    H222871   5.411   5.827  11.164  0.2879 -2.4619  1.1695
  486TIP3   OH222872   5.217   2.143  13.545  0.2064 -0.4076 -0.2886
  486TIP3    H122873   5.168   2.200  13.485 -0.6651  0.4218  1.1555
  486TIP3    H222874   5.294   2.117  13.495 -0.8679 -0.3921 -2.0532
  487TIP3   OH222875   5.442   1.962   5.358 -0.3826  0.1976  0.4302
  487TIP3    H122876   5.368   2.002   5.313  1.9524  3.1634 -1.1096
  487TIP3    H222877   5.492   1.918   5.289  0.6134  0.4416  0.9700
  488TIP3   OH222878   6.106   1.059  14.081 -0.3510  0.0407  0.1636
  488TIP3    H122879   6.157   1.083  14.004  2.5608  0.4840  2.0932
  488TIP3    H222880   6.136   1.118  14.150 -2.8629 -0.3145  1.6923
  489TIP3   OH222881   0.275   3.521  16.389  0.2763  0.2747 -0.7144
  489TIP3    H122882   0.210   3.555  16.327 -0.5687 -0.8812 -0.4921
  489TIP3    H222883   0.227   3.517  16.472  0.4157 -1.2486 -0.6944
  490TIP3   OH222884   6.761   6.031  12.542  0.5854 -0.0295 -0.6352
  490TIP3    H122885   6.666   6.038  12.546  0.6586  2.4210 -1.3701
  490TIP3    H222886   6.779   5.938  12.530 -1.7110 -0.5026 -0.7043
  491TIP3   OH222887   1.124   6.382  14.259 -0.4500 -0.3951  0.6953
  491TIP3    H122888   1.032   6.405  14.248  0.0682  1.8587  0.4388
  491TIP3    H222889   1.128   6.288  14.243 -2.7049 -0.5646  0.8332
  492TIP3   OH222890   3.457   5.817   0.550  0.4344  0.3202 -0.3248
  492TIP3    H122891   3.494   5.885   0.607  1.8413 -1.1925  0.6546
  492TIP3    H222892   3.521   5.808   0.479 -0.1560  0.5766 -0.8964
  493TIP3   OH222893   3.800   0.375   4.605  0.0893 -0.2612 -0.6054
  493TIP3    H122894   3.857   0.304   4.635 -0.5118 -1.3367 -1.8873
  493TIP3    H222895   3.851   0.422   4.540  0.5359  0.6035  0.3383
  494TIP3   OH222896   3.786   4.266   4.226  0.0345 -0.1409 -0.3618
  494TIP3    H122897   3.843   4.305   4.159  0.1221 -0.4521 -0.4666
  494TIP3    H222898   3.819   4.301   4.309  0.0904  0.0368 -0.4575
  495TIP3   OH222899   0.638   0.317  12.671 -0.6127 -0.1346  0.0806
  495TIP3    H122900   0.659   0.263  12.748 -0.5607  0.3017  0.3787
  495TIP3    H222901   0.554   0.284  12.640 -0.3958 -0.6420  0.0256
  496TIP3   OH222902   6.799   5.510   3.272  0.1294 -0.0745 -0.1878
  496TIP3    H122903   6.848   5.525   3.353 -1.8873 -3.3332  1.9041
  496TIP3    H222904   6.857   5.456   3.218  0.6277  0.1693  0.0981
  497TIP3   OH222905   5.254   0.242   0.710  0.1598  0.1096  0.0254
  497TIP3    H122906   5.302   0.322   0.732 -0.2018  0.1874  0.5559
  497TIP3    H222907   5.173   0.248   0.761  1.5087 -2.1319  2.6782
  498TIP3   OH222908   3.920   6.783   0.047 -0.3118  0.2991 -0.9546
  498TIP3    H122909   3.931   6.706   0.103 -1.6442 -0.2126 -1.3476
  498TIP3    H222910   3.937   6.750  -0.042  1.6999  1.0818 -0.9048
  499TIP3   OH222911   3.443   4.219  12.581  0.3946  0.2407 -0.0451
  499TIP3    H122912   3.510   4.284  12.601 -1.2876  2.0158  0.1111
  499TIP3    H222913   3.454   4.151  12.648  2.6905 -0.0982 -0.6792
  500TIP3   OH222914   6.235   6.367   1.763 -0.3577  0.3103  0.3392
  500TIP3    H122915   6.291   6.342   1.836 -0.0128 -0.2369 -0.1058
  500TIP3    H222916   6.147   6.345   1.792 -0.1767 -0.3159  0.4226
  501TIP3   OH222917   4.598   5.769  15.341 -0.3366  0.0026 -0.4712
  501TIP3    H122918   4.510   5.749  15.308 -0.3821 -0.3610 -0.1432
  501TIP3    H222919   4.634   5.830  15.277 -1.0212  0.5728 -0.3332
  502TIP3   OH222920   5.751   6.307  12.234  0.5674 -0.6073 -0.0308
  502TIP3    H122921   5.670   6.338  12.194  0.3438 -2.0351 -0.7467
  502TIP3    H222922   5.737   6.213  12.247  1.7259 -0.6893  0.7997
  503TIP3   OH222923   5.819   4.254  14.680 -0.0670  0.6113  0.3459
  503TIP3    H122924   5.736   4.244  14.727  0.3912  2.4199  1.6763
  503TIP3    H222925   5.859   4.332  14.720  2.0257  0.0879 -0.6147
  504TIP3   OH222926   3.223   0.132  13.282  0.3307 -0.1921  0.5211
  504TIP3    H122927   3.226   0.200  13.215  2.0438 -1.8195 -1.2048
  504TIP3    H222928   3.142   0.085  13.264  0.5249 -0.2991 -0.1165
  505TIP3   OH222929   1.975   2.157  15.474  0.8418 -0.3353  0.1339
  505TIP3    H122930   1.945   2.247  15.463  0.8213 -0.3952 -0.3293
  505TIP3    H222931   2.068   2.164  15.493  1.1621 -0.2725 -1.3528
  506TIP3   OH222932   4.395   3.170   1.555  0.0913 -0.4272 -0.1820
  506TIP3    H122933   4.429   3.080   1.560  0.9265 -0.0506  1.9090
  506TIP3    H222934   4.462   3.217   1.506  0.7896 -0.4878  0.6863
  507TIP3   OH222935   5.404   1.731  11.436 -0.1414  0.3076 -0.0552
  507TIP3    H122936   5.367   1.662  11.490  1.0592 -2.1651 -2.1916
  507TIP3    H222937   5.333   1.795  11.427 -1.6487 -1.1102  1.1626
  508TIP3   OH222938   0.475   5.126  13.488 -0.0659  0.1104 -0.3143
  508TIP3    H122939   0.540   5.195  13.495 -1.8513  2.0893 -1.9486
  508TIP3    H222940   0.506   5.070  13.417  0.9575 -0.3127  0.4456
  509TIP3   OH222941   5.155   0.972  10.770 -0.4397 -0.0329 -0.3261
  509TIP3    H122942   5.205   0.974  10.689  0.1575 -2.1845 -0.0897
  509TIP3    H222943   5.072   0.932  10.747 -0.1204 -1.0165  0.1558
  510TIP3   OH222944   3.295   6.516   0.757  0.1178 -0.6512  0.0919
  510TIP3    H122945   3.312   6.569   0.680  0.6352 -0.4708  0.3248
  510TIP3    H222946   3.381   6.485   0.784  0.2496  1.0102  1.8208
  511TIP3   OH222947   4.392   1.553  13.738 -0.5179  0.0506  0.6315
  511TIP3    H122948   4.441   1.617  13.790 -0.5555  1.0712 -0.5318
  511TIP3    H222949   4.439   1.549  13.654 -0.2742 -1.7827  0.8122
  512TIP3   OH222950   3.041   4.773   3.620  0.2280  0.7646  0.1391
  512TIP3    H122951   3.026   4.713   3.547 -0.4289  1.2292 -0.1226
  512TIP3    H222952   3.090   4.845   3.582 -0.7407  1.3579 -0.0315
  513TIP3   OH222953   4.474   2.621  13.861 -0.5767 -0.0239  0.0399
  513TIP3    H122954   4.500   2.542  13.908 -0.1047  0.6116  0.8745
  513TIP3    H222955   4.521   2.692  13.905 -0.2702  0.6208 -1.2749
  514TIP3   OH222956   4.179   4.332   2.504  0.1843 -0.0765 -0.0646
  514TIP3    H122957   4.254   4.359   2.557 -0.7081  0.3507  1.0137
  514TIP3    H222958   4.170   4.238   2.522  1.9397 -0.7389 -2.1281
  515TIP3   OH222959   3.113   3.800  15.902  0.2178  0.1144 -0.7595
  515TIP3    H122960   3.169   3.803  15.980 -1.9544 -0.1120  0.9254
  515TIP3    H222961   3.118   3.709  15.872 -0.4484 -0.3333  0.3844
  516TIP3   OH222962   1.779   4.264  15.716 -0.1571  0.2042  0.4738
  516TIP3    H122963   1.711   4.222  15.768  1.8503  0.2360  3.3036
  516TIP3    H222964   1.800   4.199  15.648 -1.0395 -0.9659  1.2740
  517TIP3   OH222965   3.166   1.292  11.716  0.3804 -0.0442  0.1878
  517TIP3    H122966   3.171   1.363  11.779 -2.0672  1.8527 -1.5658
  517TIP3    H222967   3.139   1.216  11.768  1.6739  0.5708  1.8745
  518TIP3   OH222968   0.876   5.121   0.415 -0.0604 -0.3204 -0.4215
  518TIP3    H122969   0.867   5.076   0.499 -1.1049  0.3961 -0.1341
  518TIP3    H222970   0.953   5.080   0.374  1.3494  0.2794  1.4748
  519TIP3   OH222971   4.724   1.899  14.162  0.0127  0.0837 -0.6210
  519TIP3    H122972   4.737   1.968  14.098  1.7172 -0.7490 -1.2545
  519TIP3    H222973   4.795   1.837  14.144  0.2456 -0.4310  1.7262
  520TIP3   OH222974   1.579   2.375   3.511  0.4386 -0.5655  0.5647
  520TIP3    H122975   1.576   2.438   3.439 -0.0919  0.3388  1.3444
  520TIP3    H222976   1.499   2.393   3.562  0.8331 -1.1303  1.4135
  521TIP3   OH222977   6.538   0.794   4.586  0.5377  0.0444  0.2367
  521TIP3    H122978   6.596   0.848   4.639 -0.4341  1.9710 -0.5807
  521TIP3    H222979   6.451   0.834   4.595 -0.2596 -1.4767 -0.2834
  522TIP3   OH222980   4.537   1.699  12.452 -0.0955 -0.2679  0.5476
  522TIP3    H122981   4.543   1.618  12.502 -0.7058  0.3599  1.6607
  522TIP3    H222982   4.513   1.765  12.516  1.0323  0.9338 -0.2304
  523TIP3   OH222983   6.161   2.623   4.875  0.5229  0.5256 -0.5233
  523TIP3    H122984   6.229   2.604   4.939  0.6520 -1.3013 -1.1554
  523TIP3    H222985   6.207   2.662   4.801  0.6097  1.0558 -0.1912
  524TIP3   OH222986   6.287   3.626   2.239 -0.4082  0.2724  0.7781
  524TIP3    H122987   6.382   3.632   2.233 -0.5051  0.7784 -2.2040
  524TIP3    H222988   6.261   3.699   2.295  0.9090  0.8452  0.6794
  525TIP3   OH222989   0.749   5.065   2.079  0.2177 -0.0077  0.0906
  525TIP3    H122990   0.724   4.995   2.140  0.8506 -0.3639 -0.0393
  525TIP3    H222991   0.835   5.093   2.110  1.0751 -0.9898 -1.2852
  526TIP3   OH222992   6.251   3.322   2.317  0.1437 -0.1787  0.1193
  526TIP3    H122993   6.276   3.414   2.302 -0.6255 -0.0382 -0.3698
  526TIP3    H222994   6.223   3.291   2.231 -0.2518 -0.6702  0.4234
  527TIP3   OH222995   5.081   4.965  11.001 -0.0375 -0.0689  0.0708
  527TIP3    H122996   5.139   5.036  10.976 -0.5963 -0.2524 -1.8576
  527TIP3    H222997   5.139   4.890  11.016  0.3459  0.1420 -0.3694
  528TIP3   OH222998   4.474   3.678  11.832 -0.3048  0.3638  0.8263
  528TIP3    H122999   4.478   3.662  11.738  0.3026  2.5037  0.4219
  528TIP3    H223000   4.495   3.594  11.872 -3.1843 -1.3189 -0.8424
  529TIP3   OH223001   3.666   6.006  15.317  0.0913  0.3483 -0.5716
  529TIP3    H123002   3.590   6.057  15.347 -0.6318 -1.5639  1.0401
  529TIP3    H223003   3.737   6.070  15.312 -0.7680  1.5404  1.3889
  530TIP3   OH223004   0.045   2.060  14.374  0.4127  0.4653  0.4218
  530TIP3    H123005  -0.045   2.055  14.341 -0.1659 -0.3604  2.0354
  530TIP3    H223006   0.049   2.143  14.421 -0.0887 -0.3028  1.8817
  531TIP3   OH223007   5.903   5.464  14.638  0.5623 -0.4683 -0.1746
  531TIP3    H123008   5.918   5.379  14.597 -2.3345 -0.7590 -0.8358
  531TIP3    H223009   5.892   5.444  14.731  1.6092 -0.5335 -0.0464
  532TIP3   OH223010   6.260   5.191   0.451  0.2099 -0.5814 -0.0452
  532TIP3    H123011   6.327   5.204   0.518 -0.1236 -2.4225  0.7116
  532TIP3    H223012   6.177   5.204   0.497 -0.0149  2.0857 -1.0707
  533TIP3   OH223013   0.070   1.686   5.278 -0.2966 -0.1685  0.1700
  533TIP3    H123014  -0.016   1.645   5.286 -0.0671 -0.9742 -1.3275
  533TIP3    H223015   0.051   1.780   5.279 -1.1880 -0.3354 -0.1287
  534TIP3   OH223016   5.845   6.492   5.043 -0.5539 -0.4978 -0.4871
  534TIP3    H123017   5.802   6.411   5.014 -1.2883 -0.2537 -0.0967
  534TIP3    H223018   5.936   6.466   5.058 -0.3821 -0.8703 -1.9749
  535TIP3   OH223019   5.481   4.980  15.087  0.1911  0.1307  0.3981
  535TIP3    H123020   5.560   5.014  15.129  1.5675 -1.1401 -1.0121
  535TIP3    H223021   5.415   5.048  15.100  1.5953  1.3651  1.3658
  536TIP3   OH223022   5.926   4.637  11.707  0.0227  0.0801 -0.4685
  536TIP3    H123023   6.021   4.655  11.706  0.2099 -0.8660 -1.1680
  536TIP3    H223024   5.910   4.599  11.793  0.7756 -2.0840 -1.2134
  537TIP3   OH223025   5.661   0.850  16.484 -0.3849 -0.5423  0.4487
  537TIP3    H123026   5.600   0.921  16.465  2.7029  1.7673 -1.8305
  537TIP3    H223027   5.687   0.817  16.398  0.3054 -2.5993  1.3898
  538TIP3   OH223028   1.804   3.046  11.247  0.0720  0.4877 -0.7240
  538TIP3    H123029   1.768   2.958  11.249  0.6545  0.2384 -1.0338
  538TIP3    H223030   1.728   3.103  11.230 -0.5069  0.1682  0.6739
  539TIP3   OH223031   2.506   3.984  15.572 -0.8179 -0.0735 -0.0726
  539TIP3    H123032   2.587   3.982  15.521 -0.3783 -1.5422  0.6258
  539TIP3    H223033   2.495   3.895  15.603 -1.0841  0.7430  2.3834
  540TIP3   OH223034   5.901   6.462  13.293 -0.3406  0.4455  0.9630
  540TIP3    H123035   5.912   6.516  13.216  2.8101  0.0090  0.9640
  540TIP3    H223036   5.934   6.376  13.267 -1.9055 -0.5170  1.9926
  541TIP3   OH223037   5.926   3.537   5.200 -0.3670 -0.1570 -0.7447
  541TIP3    H123038   5.872   3.558   5.276  1.3047  0.8021  0.2363
  541TIP3    H223039   6.003   3.494   5.237  0.7626  0.8831 -1.8166
  542TIP3   OH223040   4.272   0.663  14.189 -0.4328  0.5791 -0.2200
  542TIP3    H123041   4.284   0.748  14.147 -0.1383 -0.1530 -1.6512
  542TIP3    H223042   4.345   0.610  14.159  0.0836  0.1638  1.6430
  543TIP3   OH223043   3.332   4.961  16.238  0.4973 -0.3048 -0.3422
  543TIP3    H123044   3.353   4.966  16.331 -0.7338  0.1696 -0.0662
  543TIP3    H223045   3.414   4.982  16.193  0.7630  0.9091  0.6668
  544TIP3   OH223046   4.266   4.883   5.301  0.3564  0.1085  0.0660
  544TIP3    H123047   4.213   4.806   5.322 -0.9746  1.1468  0.5996
  544TIP3    H223048   4.204   4.947   5.266  1.4051  1.0335 -0.1729
  545TIP3   OH223049   4.085   4.586  12.551 -0.3157  0.0607  0.1933
  545TIP3    H123050   4.118   4.496  12.549 -0.2738  0.0034  1.7484
  545TIP3    H223051   3.999   4.580  12.509  0.5375 -0.2819 -1.5654
  546TIP3   OH223052   4.394   1.178   5.689  0.0799 -0.1932 -0.0401
  546TIP3    H123053   4.433   1.162   5.603 -1.1766  1.0635 -0.8786
  546TIP3    H223054   4.304   1.147   5.681 -0.4307  1.1438  0.3988
  547TIP3   OH223055   4.911   5.965   1.776  0.8501 -0.2119 -0.4187
  547TIP3    H123056   4.898   6.056   1.748 -0.3619  0.3358  1.6776
  547TIP3    H223057   4.867   5.913   1.709  2.7728  0.6024 -2.4092
  548TIP3   OH223058   4.066   0.641  12.549  0.0334 -0.1620  0.1873
  548TIP3    H123059   4.034   0.550  12.550  0.1567 -0.2007  1.5237
  548TIP3    H223060   4.069   0.663  12.456 -1.8934 -0.8565 -0.0926
  549TIP3   OH223061   1.089   2.553  12.461  0.4083 -0.9674 -0.0209
  549TIP3    H123062   1.082   2.637  12.416  0.6867 -0.9474 -0.0262
  549TIP3    H223063   1.000   2.535  12.491  0.4189 -0.4794  0.3246
  550TIP3   OH223064   5.218   1.322   3.502 -0.3933 -0.2385 -0.5668
  550TIP3    H123065   5.239   1.396   3.561 -1.4859  0.3076 -0.8371
  550TIP3    H223066   5.259   1.247   3.543 -0.0729  0.3583  0.2412
  551TIP3   OH223067   4.684   3.464  15.125  0.3103  0.1594 -0.0595
  551TIP3    H123068   4.592   3.450  15.148  0.7209  0.0256  1.6249
  551TIP3    H223069   4.683   3.538  15.064 -0.9712 -0.4212 -0.7824
  552TIP3   OH223070   2.672   1.744   2.703 -0.1990 -0.8052 -0.2093
  552TIP3    H123071   2.761   1.763   2.675  0.3148 -1.4512  0.9303
  552TIP3    H223072   2.680   1.663   2.755 -1.5007 -1.0893 -0.4222
  553TIP3   OH223073   0.497   5.498  14.463 -0.6890  0.4675 -0.3891
  553TIP3    H123074   0.489   5.410  14.425  0.3311  0.5180 -0.7716
  553TIP3    H223075   0.587   5.524  14.442 -1.1380  1.8140 -0.7161
  554TIP3   OH223076   2.124   2.512  16.074  0.2752  0.3648 -0.2742
  554TIP3    H123077   2.050   2.451  16.082 -0.0505  0.7787 -0.0775
  554TIP3    H223078   2.201   2.456  16.071 -0.0761 -0.0946 -0.8862
  555TIP3   OH223079   5.737   1.056  15.026  0.1441  0.0084  0.2417
  555TIP3    H123080   5.735   0.960  15.037 -0.5667 -0.2626 -1.7745
  555TIP3    H223081   5.801   1.071  14.957  0.2760  1.0148  0.5640
  556TIP3   OH223082   3.294   0.362  14.574 -0.4079  0.1801 -0.6646
  556TIP3    H123083   3.285   0.453  14.545  0.5639  0.5728  0.2080
  556TIP3    H223084   3.355   0.323  14.511  0.3850  0.5687 -0.1499
  557TIP3   OH223085   2.618   1.010  16.466 -0.2796  0.1780  0.4754
  557TIP3    H123086   2.640   0.997  16.373 -2.4409 -0.9518  0.0602
  557TIP3    H223087   2.655   1.096  16.487  1.8182 -0.3159 -0.8939
  558TIP3   OH223088   1.839   0.727   4.000 -0.6198  0.0984 -0.0122
  558TIP3    H123089   1.782   0.765   3.932 -1.0213 -0.5661 -0.0535
  558TIP3    H223090   1.927   0.737   3.964 -0.7685  0.4559 -0.2893
  559TIP3   OH223091   0.464   1.264  12.992  0.7179 -0.4099 -0.3866
  559TIP3    H123092   0.530   1.201  12.964  0.0040 -2.2364  1.7411
  559TIP3    H223093   0.503   1.349  12.973  3.1377 -1.4226 -0.3849
  560TIP3   OH223094   2.458   3.959   1.478  0.0508  0.0592  0.0310
  560TIP3    H123095   2.377   3.983   1.433 -0.5743 -0.5803  0.7856
  560TIP3    H223096   2.429   3.918   1.560  1.0287 -2.7538 -0.9151
  561TIP3   OH223097   0.895   1.959   2.058 -0.4659 -0.4001 -0.1818
  561TIP3    H123098   0.862   1.871   2.045 -0.8873 -0.2542 -0.1187
  561TIP3    H223099   0.898   1.997   1.970  1.0133 -0.9176 -0.3922
  562TIP3   OH223100   0.581   1.735   3.360 -0.3911  0.0396 -0.3322
  562TIP3    H123101   0.661   1.706   3.403  0.1324  0.2303 -1.1647
  562TIP3    H223102   0.610   1.798   3.294 -1.1727 -0.2558 -0.9750
  563TIP3   OH223103   1.163   1.870  14.534 -0.2645  0.0353  0.6326
  563TIP3    H123104   1.251   1.908  14.529 -0.5790  0.7357  0.2549
  563TIP3    H223105   1.177   1.783  14.571  0.4326  0.6643  1.9377
  564TIP3   OH223106   0.733   0.491  16.625 -0.1801  0.0818  0.3639
  564TIP3    H123107   0.735   0.434  16.702  0.4180 -0.1556  0.1751
  564TIP3    H223108   0.661   0.552  16.642  0.9348  1.0396  1.8324
  565TIP3   OH223109   2.915   4.331  13.536  0.2746 -0.1274 -0.8324
  565TIP3    H123110   2.950   4.284  13.612  0.6172  1.8761  0.3008
  565TIP3    H223111   2.989   4.335  13.475  0.5191 -0.2236 -0.5452
  566TIP3   OH223112   6.799   5.270  12.290  1.1976 -0.8237  0.0889
  566TIP3    H123113   6.757   5.184  12.287 -0.0809 -0.2711  0.9369
  566TIP3    H223114   6.784   5.308  12.203 -1.4969 -0.0390  0.8099
  567TIP3   OH223115   2.021   5.423  16.918 -0.1353  0.0639  0.0144
  567TIP3    H123116   1.930   5.434  16.947  0.5121 -0.3563  2.4325
  567TIP3    H223117   2.067   5.394  16.996  2.5983  2.7365 -0.4315
  568TIP3   OH223118   0.568   3.892   4.409  0.0649  0.1240 -0.0048
  568TIP3    H123119   0.500   3.825   4.396 -0.0747  0.4404 -0.9619
  568TIP3    H223120   0.519   3.972   4.426  0.2330 -0.1435  2.0049
  569TIP3   OH223121   3.403   6.460  15.019 -0.2357  0.1983 -0.1480
  569TIP3    H123122   3.395   6.524  14.948 -0.7344 -0.1425 -0.4038
  569TIP3    H223123   3.321   6.468  15.068  0.7555  1.6063  1.4070
  570TIP3   OH223124   2.584   2.405  13.307 -0.3466  0.3012 -0.0525
  570TIP3    H123125   2.496   2.442  13.318  0.1652  1.3275  0.7442
  570TIP3    H223126   2.613   2.436  13.222 -1.2812 -1.2301 -0.9965
  571TIP3   OH223127   1.902   3.664  12.120 -0.1519 -0.6044 -0.5531
  571TIP3    H123128   1.922   3.757  12.124 -0.0693 -0.6308 -0.2940
  571TIP3    H223129   1.894   3.645  12.027  1.2324 -0.6428 -0.6889
  572TIP3   OH223130   0.256   3.501  16.696  0.1287  0.0672 -0.1597
  572TIP3    H123131   0.259   3.594  16.719  0.0775 -0.1465  0.7740
  572TIP3    H223132   0.165   3.485  16.673  0.5722  0.7511 -2.6791
  573TIP3   OH223133   0.698   4.461   5.137 -0.1916 -0.9480  0.2817
  573TIP3    H123134   0.768   4.449   5.073 -1.8318  1.4225 -2.2157
  573TIP3    H223135   0.743   4.486   5.218  1.9600  2.0514 -1.6253
  574TIP3   OH223136   4.916   0.521   0.363  0.0229  0.4135 -0.0408
  574TIP3    H123137   4.902   0.486   0.451  0.9584 -0.4642 -0.2128
  574TIP3    H223138   4.973   0.596   0.376 -0.0651  0.4542  0.1212
  575TIP3   OH223139   4.410   6.336   0.186  0.0039  0.1899 -0.3717
  575TIP3    H123140   4.339   6.275   0.207 -0.4177  1.2733  1.6604
  575TIP3    H223141   4.488   6.281   0.180 -0.6874 -0.7904 -0.7186
  576TIP3   OH223142   6.391   1.951   0.020 -0.2989 -0.3596 -0.7314
  576TIP3    H123143   6.449   1.881   0.051 -0.9707 -1.0074 -0.9177
  576TIP3    H223144   6.305   1.928   0.054 -0.4829  0.5159 -0.5872
  577TIP3   OH223145   2.717   5.691   6.534  0.7186  0.3836 -0.3757
  577TIP3    H123146   2.731   5.672   6.441  0.0303  0.6663 -0.5479
  577TIP3    H223147   2.786   5.644   6.579  0.5137 -0.5050 -0.9691
  578TIP3   OH223148   1.091   4.737  16.559  0.0953 -0.0842 -0.7580
  578TIP3    H123149   1.092   4.659  16.503 -1.0592 -0.7966  0.1459
  578TIP3    H223150   1.061   4.808  16.502 -2.5161 -1.0862 -0.7684
  579TIP3   OH223151   1.310   3.781  11.361 -0.3537  0.1444 -0.0457
  579TIP3    H123152   1.344   3.870  11.362  0.5996 -0.2173  0.5664
  579TIP3    H223153   1.242   3.782  11.293 -1.8363  1.8662  1.3516
  580TIP3   OH223154   5.193   0.102   1.057  0.2249 -0.6747  0.4277
  580TIP3    H123155   5.100   0.079   1.054  0.0008  0.2459 -0.0955
  580TIP3    H223156   5.230   0.061   0.979 -0.0545  0.2180 -0.1844
  581TIP3   OH223157   6.706   6.290   3.661  0.2190  0.1595 -0.5376
  581TIP3    H123158   6.738   6.224   3.723 -1.2196  1.0324  1.1990
  581TIP3    H223159   6.786   6.326   3.622  1.0572 -3.0426 -2.1318
  582TIP3   OH223160   0.886   0.409  14.477 -0.4517 -0.4986  0.1380
  582TIP3    H123161   0.980   0.424  14.490 -0.6032  0.7301 -0.1035
  582TIP3    H223162   0.879   0.385  14.385 -0.6767  2.5389 -0.7457
  583TIP3   OH223163   1.042   0.158  10.912  0.3070  0.4293  0.0596
  583TIP3    H123164   1.082   0.122  10.833  1.0050 -0.1762  0.6758
  583TIP3    H223165   1.116   0.193  10.962 -0.0691  0.3517  0.6749
  584TIP3   OH223166   1.106   0.913  10.667  0.1313  0.2858  0.4614
  584TIP3    H123167   1.153   0.830  10.654  0.3480  0.4322  0.3023
  584TIP3    H223168   1.168   0.980  10.639  0.2673  0.5558  1.3809
  585TIP3   OH223169   6.455   4.393  13.527  0.3000  0.0057  0.3873
  585TIP3    H123170   6.458   4.303  13.561 -0.4018 -0.0061  0.4232
  585TIP3    H223171   6.541   4.430  13.549  0.7350 -0.7741  0.0486
  586TIP3   OH223172   6.435   2.927  13.127  0.4223 -0.1806 -0.0748
  586TIP3    H123173   6.508   2.965  13.079  1.0598 -0.5973  0.5407
  586TIP3    H223174   6.471   2.909  13.214 -0.8324  1.0002  0.7317
  587TIP3   OH223175   5.581   1.519   3.206 -0.8911  0.4128  0.7137
  587TIP3    H123176   5.576   1.612   3.184  1.2990  0.5722  0.6325
  587TIP3    H223177   5.620   1.478   3.129 -2.0892 -0.6572  0.6394
  588TIP3   OH223178   5.984   4.831   2.385  0.3611  0.2351 -0.1968
  588TIP3    H123179   5.939   4.915   2.393  1.3256  0.7023  0.6428
  588TIP3    H223180   6.069   4.846   2.427  0.4681 -1.2229  0.1515
  589TIP3   OH223181   2.882   5.034  12.681 -0.3204  0.6542  0.1361
  589TIP3    H123182   2.962   4.986  12.702 -0.2255  1.0502  0.6923
  589TIP3    H223183   2.861   5.083  12.760  0.4937  2.8069 -0.9148
  590TIP3   OH223184   0.864   6.462   5.731  0.3565  0.0056  0.5368
  590TIP3    H123185   0.838   6.535   5.675 -0.8145 -1.4650 -0.9348
  590TIP3    H223186   0.937   6.421   5.686 -0.2567 -0.8837  0.3313
  591TIP3   OH223187   3.075   2.673   0.126  0.8724 -0.6452 -0.0459
  591TIP3    H123188   3.084   2.579   0.140 -0.4178 -0.9050 -0.7947
  591TIP3    H223189   3.007   2.701   0.187  1.4422 -0.1330  0.3712
  592TIP3   OH223190   1.119   2.449   0.370  0.3563  0.9036  0.6120
  592TIP3    H123191   1.052   2.485   0.429  2.2239  0.1322  3.3519
  592TIP3    H223192   1.114   2.355   0.383  0.5147  0.6654 -0.8866
  593TIP3   OH223193   0.945   6.274   3.676 -0.0267  0.1776 -0.1306
  593TIP3    H123194   0.857   6.274   3.638  0.3393  0.5420 -1.0055
  593TIP3    H223195   0.931   6.302   3.767 -0.9019 -0.5887 -0.0036
  594TIP3   OH223196   6.590   0.380  15.231 -0.4503  0.2200 -0.1079
  594TIP3    H123197   6.653   0.308  15.233 -2.0036 -1.2623 -1.1079
  594TIP3    H223198   6.635   0.451  15.186  0.6606 -0.6211 -0.3524
  595TIP3   OH223199   2.694   2.812   2.044 -0.4341 -0.8947  0.0367
  595TIP3    H123200   2.767   2.751   2.040 -0.8752 -1.3960 -0.5796
  595TIP3    H223201   2.621   2.761   2.079 -1.0911 -1.0321 -1.4760
  596TIP3   OH223202   4.066   5.028   5.903 -0.0812  0.5085 -0.0314
  596TIP3    H123203   4.007   4.987   5.966 -0.2092  0.3323 -0.2647
  596TIP3    H223204   4.075   4.963   5.833 -1.8390  1.6203 -1.3838
  597TIP3   OH223205   4.550   0.090   3.309 -0.0252  0.2372 -0.3280
  597TIP3    H123206   4.632   0.042   3.295 -0.3624 -0.1405 -1.0854
  597TIP3    H223207   4.504   0.082   3.225 -0.7370  0.6333  0.0232
  598TIP3   OH223208   6.258   4.577  16.728  0.0968  0.0613  0.0673
  598TIP3    H123209   6.289   4.655  16.682  0.3591 -0.6822 -1.0710
  598TIP3    H223210   6.337   4.526  16.745 -0.3033 -1.2542 -1.7295
  599TIP3   OH223211   6.170   4.467  10.875  0.3738  0.2128  0.1652
  599TIP3    H123212   6.173   4.562  10.861  0.3718  0.1524 -0.2474
  599TIP3    H223213   6.244   4.450  10.934  0.6517  0.4115 -0.1227
  600TIP3   OH223214   6.776   3.463   2.837  0.0713 -0.1112  0.3296
  600TIP3    H123215   6.857   3.504   2.866  0.2479 -0.0893 -0.1753
  600TIP3    H223216   6.744   3.416   2.913  0.9012 -0.6557  0.3574
  601TIP3   OH223217   2.102   6.343   5.610  0.5188 -0.2577  0.0664
  601TIP3    H123218   2.033   6.318   5.671 -1.0314 -0.0991 -1.5292
  601TIP3    H223219   2.138   6.259   5.579 -0.5788 -0.4213 -0.8188
  602TIP3   OH223220   6.631   0.821   2.311 -0.1717 -0.9245  0.1032
  602TIP3    H123221   6.591   0.905   2.290  0.2642 -0.4058  1.2943
  602TIP3    H223222   6.602   0.763   2.241 -0.1223  0.3173 -0.9869
  603TIP3   OH223223   4.923   2.215  15.407 -0.0563  0.2513 -0.4344
  603TIP3    H123224   4.847   2.264  15.376 -0.4985 -0.5624 -0.6589
  603TIP3    H223225   4.961   2.178  15.328 -1.2924 -1.9882 -0.0567
  604TIP3   OH223226   4.157   5.639  14.314  0.4676  0.2324 -0.8334
  604TIP3    H123227   4.092   5.672  14.376  0.5756 -3.0923  1.3085
  604TIP3    H223228   4.107   5.583  14.254  1.1471 -2.7292  1.1113
  605TIP3   OH223229   4.822   4.146  15.623  0.2150  0.0554  0.2609
  605TIP3    H123230   4.827   4.161  15.718  1.1317  2.7923 -0.1408
  605TIP3    H223231   4.912   4.123  15.598  0.0546 -0.2710 -0.0203
  606TIP3   OH223232   1.359   1.782   3.059  0.1308 -0.2048  0.0613
  606TIP3    H123233   1.437   1.729   3.076  0.5272  0.4156  0.1861
  606TIP3    H223234   1.322   1.799   3.145 -0.5555 -1.0951 -0.0390
  607TIP3   OH223235   4.903   0.224  10.436 -0.0166  0.1135  0.0090
  607TIP3    H123236   4.862   0.145  10.403  0.3242  0.1756 -0.5737
  607TIP3    H223237   4.993   0.219  10.404  0.2904  0.2257  0.8390
  608TIP3   OH223238   3.039   5.328   5.803 -0.0916  0.1512 -0.5799
  608TIP3    H123239   3.030   5.243   5.846  0.5798  1.2599  1.8923
  608TIP3    H223240   2.952   5.367   5.808 -0.1240  0.0904 -0.6653
  609TIP3   OH223241   5.039   6.166   2.358 -0.3627  0.1578  0.1234
  609TIP3    H123242   4.979   6.232   2.324 -0.9949 -0.0325  0.8494
  609TIP3    H223243   5.111   6.164   2.295 -1.0884  0.4244 -0.7311
  610TIP3   OH223244   5.783   4.500   5.352 -0.0302 -0.4322  0.8513
  610TIP3    H123245   5.719   4.446   5.398 -0.3593  0.9741  2.1294
  610TIP3    H223246   5.862   4.494   5.406  0.7238 -1.5343 -0.3041
  611TIP3   OH223247   1.827   2.412  12.212 -0.2004 -0.0765 -0.5407
  611TIP3    H123248   1.758   2.440  12.153 -0.6873 -1.1408 -0.5007
  611TIP3    H223249   1.820   2.470  12.288  1.5614  2.5111 -2.1896
  612TIP3   OH223250   2.117   0.569  16.457  0.1987 -0.1924 -0.1430
  612TIP3    H123251   2.179   0.558  16.529 -0.2103  1.4814  0.5101
  612TIP3    H223252   2.154   0.639  16.404  0.1039 -0.8875 -1.1574
  613TIP3   OH223253   1.692   6.394   3.428 -0.8691 -0.3803  0.4208
  613TIP3    H123254   1.736   6.328   3.373 -1.6884  0.1009 -0.8618
  613TIP3    H223255   1.762   6.454   3.454 -0.3448 -1.0099  0.4889
  614TIP3   OH223256   3.270   1.490   3.340  0.4038  0.5999 -0.1539
  614TIP3    H123257   3.346   1.545   3.320 -0.5613  1.4652 -1.6755
  614TIP3    H223258   3.195   1.547   3.324 -0.5853 -0.1464  1.5768
  615TIP3   OH223259   1.414   4.215   5.294  0.5097 -0.4751  0.1169
  615TIP3    H123260   1.497   4.261   5.307  0.3109  0.3647 -1.4944
  615TIP3    H223261   1.368   4.227   5.377  1.0179  1.0812  0.2073
  616TIP3   OH223262   6.690   2.319   1.239  0.1503 -0.0643  0.4702
  616TIP3    H123263   6.767   2.272   1.269 -0.3326  0.0299  1.9370
  616TIP3    H223264   6.617   2.260   1.258 -0.0571 -1.0225 -2.7111
  617TIP3   OH223265   0.322   4.814   1.042  0.0602  0.1742 -0.1604
  617TIP3    H123266   0.377   4.744   1.009  1.8768  2.0851 -1.4528
  617TIP3    H223267   0.266   4.772   1.107  0.9517 -2.4559 -0.9642
  618TIP3   OH223268   4.278   2.208   0.957 -0.3422  0.3685 -0.5026
  618TIP3    H123269   4.279   2.156   0.877 -2.5187  1.2506 -1.1583
  618TIP3    H223270   4.266   2.144   1.027  2.1636 -0.4728 -0.7474
  619TIP3   OH223271   5.086   2.246   1.128 -0.3505  0.6536  0.1271
  619TIP3    H123272   4.992   2.255   1.143 -0.5168 -0.1441 -0.3545
  619TIP3    H223273   5.115   2.334   1.103 -1.1071  0.7584 -0.4408
  620TIP3   OH223274   1.186   1.948  14.230  0.0764 -0.5080 -0.4454
  620TIP3    H123275   1.149   1.937  14.318 -0.1678 -0.2597 -0.5148
  620TIP3    H223276   1.112   1.933  14.171 -0.2521  1.2918 -0.5500
  621TIP3   OH223277   2.055   2.825   3.152  0.7951 -0.4166  0.0599
  621TIP3    H123278   2.061   2.869   3.067  0.2537  1.1567  0.7936
  621TIP3    H223279   1.973   2.776   3.147  1.8012 -2.0646 -1.0653
  622TIP3   OH223280   2.343   2.016   1.541  0.0449  0.2448  0.6488
  622TIP3    H123281   2.274   2.053   1.486  0.4098  0.9797  0.6670
  622TIP3    H223282   2.314   2.031   1.630 -0.7910 -1.4100  0.6931
  623TIP3   OH223283   2.968   1.906   1.046 -0.3855 -0.3827 -0.0514
  623TIP3    H123284   2.973   1.845   0.973  1.0042 -0.5109  0.1235
  623TIP3    H223285   2.943   1.989   1.005 -0.3029 -0.6104 -0.5754
  624TIP3   OH223286   0.523   0.453   0.634 -0.3983  0.2223  0.0204
  624TIP3    H123287   0.523   0.453   0.539 -0.4767 -0.3402  0.0176
  624TIP3    H223288   0.536   0.362   0.658 -1.0145  0.2680  0.5516
  625TIP3   OH223289   5.881   2.596  10.443 -0.3834  0.6237  0.0154
  625TIP3    H123290   5.959   2.570  10.491  0.6925  1.6051 -1.1173
  625TIP3    H223291   5.819   2.625  10.511  0.4258  0.3231  0.8981
  626TIP3   OH223292   5.244   4.855   3.470 -0.6334  0.0585  0.0689
  626TIP3    H123293   5.239   4.775   3.523 -1.4943  0.9911  1.4358
  626TIP3    H223294   5.301   4.913   3.520 -2.2092  1.3020  0.5014
  627TIP3   OH223295   1.856   5.799   3.115 -0.4281 -0.0590 -0.5632
  627TIP3    H123296   1.858   5.789   3.020  1.1232 -0.0214 -0.5532
  627TIP3    H223297   1.901   5.721   3.149 -1.1885 -0.2032  0.1701
  628TIP3   OH223298   5.717   0.245   2.286 -0.3725  0.4010  0.1990
  628TIP3    H123299   5.780   0.173   2.275  1.9664  2.2382  0.5545
  628TIP3    H223300   5.670   0.223   2.366  0.7694 -0.4373  0.6830
  629TIP3   OH223301   0.888   1.295  12.103 -0.5026  0.2607 -0.3080
  629TIP3    H123302   0.852   1.241  12.033  0.7351  0.5564 -1.1987
  629TIP3    H223303   0.980   1.268  12.110  0.0109  1.8822 -0.4382
  630TIP3   OH223304   1.197   6.520  13.102 -0.1394 -0.0831 -0.2678
  630TIP3    H123305   1.230   6.486  13.019 -2.2647 -2.1687 -0.3876
  630TIP3    H223306   1.125   6.460  13.125 -0.2815  1.0212  2.5685
  631TIP3   OH223307   2.804   5.218   4.331  0.0832 -0.1792  0.4164
  631TIP3    H123308   2.749   5.184   4.261 -0.3101 -1.0523  1.1277
  631TIP3    H223309   2.858   5.144   4.358  0.0749  0.0743  1.1777
  632TIP3   OH223310   4.382   2.259   3.215 -0.1557  0.2847  0.1264
  632TIP3    H123311   4.341   2.253   3.301 -1.6752  1.2080 -0.4859
  632TIP3    H223312   4.334   2.195   3.162 -0.4836  1.0250 -0.4832
  633TIP3   OH223313   4.758   2.840  17.204 -0.5243  0.1386 -0.1431
  633TIP3    H123314   4.702   2.825  17.128  0.0394 -1.7041 -0.2402
  633TIP3    H223315   4.830   2.894  17.171  0.7590 -2.2418 -1.4704
  634TIP3   OH223316   3.135   2.210   0.778 -0.3980  0.3488 -0.0826
  634TIP3    H123317   3.199   2.280   0.793  0.0833  0.2799 -1.6205
  634TIP3    H223318   3.163   2.139   0.836  1.7808 -0.1833 -1.6525
  635TIP3   OH223319   2.869   4.937  15.021  1.1777  0.5758 -0.1533
  635TIP3    H123320   2.946   4.916  14.968  1.4463 -0.0145  0.4605
  635TIP3    H223321   2.879   5.030  15.042 -0.0770  1.4735 -2.9960
  636TIP3   OH223322   1.808   6.659  12.526  0.1935 -0.1976 -0.1159
  636TIP3    H123323   1.864   6.695  12.595  0.2629 -2.3023  1.0198
  636TIP3    H223324   1.752   6.732  12.500 -0.6800  0.4250  3.0720
  637TIP3   OH223325   5.633   6.376  15.925  0.3742  0.3025  0.1152
  637TIP3    H123326   5.575   6.384  16.001 -0.8790  0.3265 -0.8048
  637TIP3    H223327   5.599   6.439  15.862  1.5432  0.4567 -0.3878
  638TIP3   OH223328   3.753   5.584  12.216 -0.2068  0.2622 -0.1941
  638TIP3    H123329   3.661   5.557  12.226 -0.2629  0.6710  0.4341
  638TIP3    H223330   3.777   5.554  12.128 -0.5141 -1.1128  0.1647
  639TIP3   OH223331   0.615   5.846  14.203 -0.3296  0.1778  0.1059
  639TIP3    H123332   0.637   5.939  14.197 -0.0769  0.2831  2.1625
  639TIP3    H223333   0.697   5.801  14.183  0.6792  0.5165  2.9754
  640TIP3   OH223334   5.420   6.302  11.295  0.2380 -0.2603 -0.2611
  640TIP3    H123335   5.436   6.393  11.321  2.4854 -1.2070  1.9393
  640TIP3    H223336   5.462   6.294  11.209 -0.5373  0.8901 -0.7819
  641TIP3   OH223337   6.294   1.917   2.734 -0.6439 -0.2588  0.3943
  641TIP3    H123338   6.347   1.896   2.810 -0.1877  1.1777  0.5127
  641TIP3    H223339   6.357   1.930   2.663 -1.1610 -4.0106 -0.9595
  642TIP3   OH223340   4.049   3.299  11.922 -0.1953 -0.6140 -0.2552
  642TIP3    H123341   4.004   3.383  11.915  1.2266  0.2102  0.1194
  642TIP3    H223342   4.080   3.296  12.012  1.8126 -0.4242 -0.8852
  643TIP3   OH223343   2.120   2.865  15.682 -0.8518 -0.1777 -0.1526
  643TIP3    H123344   2.103   2.772  15.692 -1.3076 -0.0291  0.6633
  643TIP3    H223345   2.214   2.872  15.666 -0.7637 -0.7562  0.0962
  644TIP3   OH223346   1.101   0.387  15.666  0.5609  0.7097 -0.2834
  644TIP3    H123347   1.126   0.304  15.626  0.6844  1.3947 -1.6850
  644TIP3    H223348   1.182   0.437  15.671  0.5206  0.6862  0.7187
  645TIP3   OH223349   5.864   3.138   2.332  0.0300  0.4160 -0.0087
  645TIP3    H123350   5.774   3.105   2.324  0.3510 -0.7567  0.9468
  645TIP3    H223351   5.861   3.199   2.406  0.0975  0.0899  0.2633
  646TIP3   OH223352   0.238   0.903   0.208 -0.3032 -0.4887  0.0639
  646TIP3    H123353   0.261   0.931   0.297  0.2823  1.6116 -0.7066
  646TIP3    H223354   0.319   0.866   0.172  0.1417  0.8927 -0.4013
  647TIP3   OH223355   3.370   6.246  12.310  0.1782 -0.5414 -0.0743
  647TIP3    H123356   3.287   6.284  12.338 -0.2642 -1.5534  0.0462
  647TIP3    H223357   3.428   6.257  12.385  0.5487  1.2366 -0.5728
  648TIP3   OH223358   6.537   1.091   2.264  0.1904  0.2571  0.5903
  648TIP3    H123359   6.581   1.100   2.180 -0.1808  2.9405  0.5724
  648TIP3    H223360   6.557   1.173   2.310 -1.8264  0.0282  2.0123
  649TIP3   OH223361   6.296   6.070  16.787  0.0824  0.2763  0.0128
  649TIP3    H123362   6.305   6.162  16.813 -1.5349  0.6412 -0.6223
  649TIP3    H223363   6.214   6.066  16.738 -0.6975 -1.7974  1.3306
  650TIP3   OH223364   1.268   3.930  12.693  0.1894 -0.1002 -0.1432
  650TIP3    H123365   1.283   3.934  12.788  0.0600 -0.0486 -0.1247
  650TIP3    H223366   1.269   3.837  12.672  0.8986 -0.0847 -0.2030
  651TIP3   OH223367   2.048   1.743  12.159  0.8415 -0.5858 -0.1593
  651TIP3    H123368   2.076   1.703  12.241 -0.5036 -0.0132  0.6013
  651TIP3    H223369   1.989   1.679  12.120 -0.4373  0.1409  0.5221
  652TIP3   OH223370   0.231   2.503   1.664 -0.4790 -1.4009 -0.1206
  652TIP3    H123371   0.136   2.507   1.652 -0.3788  1.0492 -0.4629
  652TIP3    H223372   0.265   2.582   1.623  1.6777 -1.9288  0.4846
  653TIP3   OH223373   3.715   6.713  15.280  0.5020  0.5048  0.0101
  653TIP3    H123374   3.697   6.624  15.310 -0.7524  1.2045  1.4418
  653TIP3    H223375   3.678   6.716  15.192  0.8161 -0.4575 -0.1708
  654TIP3   OH223376   3.232   1.357   2.009  0.4687  0.2741 -0.1011
  654TIP3    H123377   3.238   1.266   1.979  3.7412  0.4518 -0.3205
  654TIP3    H223378   3.165   1.396   1.952 -1.7216 -2.1264  0.6316
  655TIP3   OH223379   4.334   0.876  10.774 -0.3282 -0.1350 -0.0194
  655TIP3    H123380   4.287   0.952  10.807 -1.9630 -0.6761 -0.9297
  655TIP3    H223381   4.409   0.865  10.832 -1.8595  0.2218  2.1290
  656TIP3   OH223382   1.792   0.115  13.376  0.1750  0.0222 -0.1909
  656TIP3    H123383   1.807   0.048  13.443 -0.5420  0.7794  0.7607
  656TIP3    H223384   1.713   0.086  13.331 -0.2649  0.3157  0.3700
  657TIP3   OH223385   6.267   3.438  14.312 -0.0751  0.4479 -0.0994
  657TIP3    H123386   6.353   3.452  14.272 -0.0370 -0.1631 -0.2279
  657TIP3    H223387   6.270   3.488  14.393  1.8161 -2.6408  1.8896
  658TIP3   OH223388   2.014   5.807   0.760 -0.1564  0.4557  0.3304
  658TIP3    H123389   1.940   5.746   0.753 -0.9110  1.4861 -1.0403
  658TIP3    H223390   2.013   5.856   0.678  0.6161  2.1112  1.2674
  659TIP3   OH223391   0.844   5.938  13.623  0.1300 -0.3349 -0.3382
  659TIP3    H123392   0.844   6.008  13.557  1.4950 -0.3212 -0.3549
  659TIP3    H223393   0.753   5.911  13.630 -0.3838  1.2806 -0.5097
  660TIP3   OH223394   3.839   1.625   5.333 -0.1476 -0.1038 -0.3852
  660TIP3    H123395   3.753   1.645   5.371 -0.3307 -0.8250 -0.3949
  660TIP3    H223396   3.886   1.708   5.333 -0.4045  0.0532  0.7570
  661TIP3   OH223397   3.727   0.259  11.356 -0.1861 -0.1445  0.1754
  661TIP3    H123398   3.699   0.252  11.264 -2.8379  1.6971  0.7263
  661TIP3    H223399   3.808   0.311  11.352 -0.7986  0.7788 -1.0897
  662TIP3   OH223400   3.943   2.563   0.791  0.4441  0.4086  0.2084
  662TIP3    H123401   3.986   2.599   0.714  0.9056  1.1045  0.7802
  662TIP3    H223402   4.013   2.521   0.841  0.1604  0.0288  0.2954
  663TIP3   OH223403   3.002   2.083   2.321 -0.2774  0.6409 -0.1137
  663TIP3    H123404   2.951   2.056   2.245 -1.0801  1.2077  0.2027
  663TIP3    H223405   2.959   2.163   2.351  0.3942  0.7543  0.5749
  664TIP3   OH223406   1.429   3.532   0.746  0.0596 -0.6168 -0.1473
  664TIP3    H123407   1.336   3.523   0.763 -0.4824  0.7104 -2.0694
  664TIP3    H223408   1.467   3.556   0.831 -1.3365 -1.0266  0.6292
  665TIP3   OH223409   1.460   4.639   3.279 -0.0101 -0.8648  0.3024
  665TIP3    H123410   1.550   4.629   3.310  0.5860 -0.1306 -1.0911
  665TIP3    H223411   1.442   4.733   3.288 -0.7414 -1.0460  0.8073
  666TIP3   OH223412   2.769   6.778  15.291  0.1382  0.2443  0.6624
  666TIP3    H123413   2.782   6.765  15.197 -1.0108  1.0070  0.3764
  666TIP3    H223414   2.793   6.694  15.330  0.5767 -0.1040 -0.3142
  667TIP3   OH223415   4.772   4.776  17.145  0.3752 -0.7372 -0.2832
  667TIP3    H123416   4.860   4.813  17.148 -1.0584  2.9914  0.7417
  667TIP3    H223417   4.733   4.800  17.229 -2.5893  0.6197 -1.8996
  668TIP3   OH223418   0.767   1.979  12.988 -0.0973  0.6175 -0.0499
  668TIP3    H123419   0.770   2.064  12.946 -3.1846  0.6668 -0.4163
  668TIP3    H223420   0.809   1.919  12.926  1.0129  1.6495 -0.3201
  669TIP3   OH223421   3.328   0.314   0.849  0.2218 -0.0474  0.2631
  669TIP3    H123422   3.356   0.402   0.824 -1.0281  1.0082  2.2376
  669TIP3    H223423   3.243   0.328   0.892 -0.2156 -2.2869  0.2316
  670TIP3   OH223424   1.674   6.612  13.095 -0.4621  0.1823  0.2689
  670TIP3    H123425   1.676   6.552  13.170 -0.6717  0.1568  0.2560
  670TIP3    H223426   1.607   6.676  13.119 -0.8616 -0.0919 -0.0961
  671TIP3   OH223427   3.749   4.769   0.022 -0.1123  0.1002  0.0283
  671TIP3    H123428   3.823   4.769   0.083 -0.1644  0.9359  0.1046
  671TIP3    H223429   3.787   4.797  -0.062 -0.3446  0.5776  0.0790
  672TIP3   OH223430   0.469   0.418  11.582 -0.0690 -0.0632  0.2778
  672TIP3    H123431   0.538   0.444  11.521  0.1543 -0.6649  0.2663
  672TIP3    H223432   0.388   0.423  11.530  0.2983 -2.1619 -0.5868
  673TIP3   OH223433   2.960   3.503  15.304  0.2609  0.1762 -0.9259
  673TIP3    H123434   2.957   3.438  15.234 -0.2312  0.1166 -0.8488
  673TIP3    H223435   3.038   3.479  15.355  1.0170  0.6283 -1.8399
  674TIP3   OH223436   4.809   6.165   5.360 -0.5541  0.4282  0.0947
  674TIP3    H123437   4.848   6.107   5.294 -0.3103  1.3369 -0.5722
  674TIP3    H223438   4.875   6.233   5.374 -1.6495  1.7065 -0.6675
  675TIP3   OH223439   0.079   3.497   1.639 -0.4151  0.1396  0.0354
  675TIP3    H123440   0.011   3.530   1.580 -0.5161  0.8291  0.5251
  675TIP3    H223441   0.143   3.457   1.581 -0.5159  0.8123 -0.5526
  676TIP3   OH223442   1.006   2.662   2.774 -0.5392  0.4050  0.4917
  676TIP3    H123443   1.067   2.693   2.841 -2.6838  3.0680  1.4171
  676TIP3    H223444   1.015   2.725   2.702 -1.1356 -0.0518  0.0007
  677TIP3   OH223445   5.121   1.707   3.879  0.4016 -0.3577  0.2790
  677TIP3    H123446   5.098   1.622   3.840  2.9090 -0.2179 -1.6944
  677TIP3    H223447   5.067   1.770   3.832  0.1917 -0.6224  0.1603
  678TIP3   OH223448   0.758   0.141  15.013 -0.2417  0.9133 -0.5371
  678TIP3    H123449   0.836   0.093  15.040 -1.8184 -1.0755  0.6918
  678TIP3    H223450   0.790   0.231  14.998  2.0465  0.4607  1.0483
  679TIP3   OH223451   0.721   4.692  13.066  0.2957  0.2271 -0.8355
  679TIP3    H123452   0.626   4.690  13.077  0.2048  1.4030 -1.2842
  679TIP3    H223453   0.742   4.785  13.056  1.1712 -0.1925 -3.5644
  680TIP3   OH223454   0.427   1.668  12.273 -0.4141 -0.1595  0.0601
  680TIP3    H123455   0.435   1.656  12.178 -0.2429 -1.0889  0.1823
  680TIP3    H223456   0.504   1.624  12.309  0.1836  1.2440  0.5687
  681TIP3   OH223457   4.759   1.802  10.949 -0.3938  0.4033  0.4308
  681TIP3    H123458   4.663   1.801  10.945 -0.4470 -2.1604  0.7702
  681TIP3    H223459   4.784   1.867  10.883 -2.3414 -0.6733 -1.5141
  682TIP3   OH223460   5.468   5.991  12.756 -0.0013 -0.2790  0.3163
  682TIP3    H123461   5.440   6.051  12.825  0.0962 -0.5929  0.6299
  682TIP3    H223462   5.408   6.009  12.683  2.0949  2.5880 -0.8756
  683TIP3   OH223463   0.030   0.275   4.131 -0.2425  0.3179 -0.6931
  683TIP3    H123464  -0.033   0.267   4.060 -0.8946 -2.6066  0.0973
  683TIP3    H223465  -0.023   0.280   4.211  0.3630 -2.6679  0.0310
  684TIP3   OH223466   0.335   6.352   4.605  0.7975  0.3021 -0.0372
  684TIP3    H123467   0.337   6.376   4.698 -1.7970 -0.3026  0.2521
  684TIP3    H223468   0.261   6.402   4.569  0.2382 -1.2911 -1.1984
  685TIP3   OH223469   4.726   2.440  16.560  0.4279  0.0032 -0.5343
  685TIP3    H123470   4.653   2.433  16.499  0.1985  0.9337 -0.3852
  685TIP3    H223471   4.785   2.369  16.536 -1.3610 -1.9491  0.4986
  686TIP3   OH223472   0.214   0.969  17.034 -0.0973 -0.4253  0.0201
  686TIP3    H123473   0.278   1.040  17.027 -1.0404  0.4572  0.0233
  686TIP3    H223474   0.256   0.904  17.090  1.0602 -0.1816 -0.5431
  687TIP3   OH223475   6.496   5.453   4.374 -0.0668  0.7182 -0.6405
  687TIP3    H123476   6.482   5.488   4.461  3.2457 -0.3411  0.4521
  687TIP3    H223477   6.498   5.530   4.317 -1.9377  1.4453  0.1938
  688TIP3   OH223478   0.943   0.956  11.728  0.2813  0.7594  0.4200
  688TIP3    H123479   0.892   0.954  11.647 -0.7453 -0.6112  1.0593
  688TIP3    H223480   0.940   1.047  11.756 -2.6147  0.6363  0.8688
  689TIP3   OH223481   0.472   0.828  16.984  0.3033 -0.1972  0.2204
  689TIP3    H123482   0.465   0.747  16.933  1.2155  0.8535 -1.6961
  689TIP3    H223483   0.527   0.804  17.058 -1.5683 -1.9334  1.1464
  690TIP3   OH223484   4.999   5.020   3.427 -0.3948  0.6386  0.1770
  690TIP3    H123485   5.078   4.965   3.432 -0.8560  0.0386  1.1877
  690TIP3    H223486   5.032   5.106   3.400  0.6631  0.4972  0.9231
  691TIP3   OH223487   6.000   0.188   1.942 -0.1375 -0.2351  0.3540
  691TIP3    H123488   6.094   0.207   1.932  0.4119 -2.4256  0.8589
  691TIP3    H223489   5.965   0.267   1.984  1.9919 -0.2686  2.4502
  692TIP3   OH223490   1.856   4.331  14.566  0.2454  0.2532 -0.4277
  692TIP3    H123491   1.773   4.378  14.553 -0.6866 -1.3729 -0.7195
  692TIP3    H223492   1.907   4.351  14.488  0.3417  1.6554 -0.0256
  693TIP3   OH223493   4.308   2.139  16.388  0.2514 -0.2923  0.1505
  693TIP3    H123494   4.299   2.181  16.302 -1.0467 -2.1823 -0.6969
  693TIP3    H223495   4.225   2.093  16.401 -0.1064  0.9708  3.0347
  694TIP3   OH223496   2.725   2.471   4.844 -0.1763 -0.2633  0.0726
  694TIP3    H123497   2.782   2.459   4.768 -0.5474 -0.9610 -0.1031
  694TIP3    H223498   2.741   2.561   4.872  0.4612 -0.2152 -0.4233
  695TIP3   OH223499   4.754   5.730  12.263 -0.0388 -0.1589  0.2564
  695TIP3    H123500   4.660   5.742  12.247 -0.2463 -0.4400  1.1677
  695TIP3    H223501   4.762   5.740  12.358  0.7746 -0.6880  0.2441
  696TIP3   OH223502   3.033   4.547   6.661  0.2174  0.2862  0.2798
  696TIP3    H123503   3.099   4.517   6.599  2.7298  0.9219  2.4781
  696TIP3    H223504   3.041   4.643   6.659 -0.2350  0.3421  0.9894
  697TIP3   OH223505   5.046   1.440  14.530  0.0383  0.0084  0.6559
  697TIP3    H123506   5.123   1.390  14.556 -1.5656 -2.4218  0.9957
  697TIP3    H223507   5.024   1.406  14.443 -0.3858  1.0732  0.3263
  698TIP3   OH223508   0.982   6.654  11.467 -0.0412  0.2392 -0.2896
  698TIP3    H123509   0.978   6.575  11.521  1.2395  0.9439  0.9140
  698TIP3    H223510   0.892   6.686  11.465 -0.2972 -0.3693  0.6088
  699TIP3   OH223511   5.891   4.757   0.018 -0.2502  0.5154 -0.3501
  699TIP3    H123512   5.843   4.835   0.045 -1.2251 -0.1457 -0.1366
  699TIP3    H223513   5.962   4.790  -0.037 -0.8379  1.5252 -0.5192
  700TIP3   OH223514   5.331   5.457   5.092  0.1725  0.0611 -0.5019
  700TIP3    H123515   5.354   5.430   5.004  2.3041  0.5253 -0.1449
  700TIP3    H223516   5.313   5.375   5.139  1.2147 -0.3569 -0.8108
  701TIP3   OH223517   4.211   0.999  12.276 -0.0120  1.0071 -0.6595
  701TIP3    H123518   4.287   0.942  12.293  0.0683  1.5834  1.2170
  701TIP3    H223519   4.248   1.074  12.231  0.5635  1.2778  0.2275
  702TIP3   OH223520   2.964   1.460  14.912  0.6950 -0.4674 -0.3105
  702TIP3    H123521   2.943   1.552  14.922 -2.5783 -1.1432  0.1302
  702TIP3    H223522   2.977   1.428  15.002 -0.3260 -0.8211 -0.2721
  703TIP3   OH223523   1.524   5.020   3.982  0.1484  0.0761  0.2187
  703TIP3    H123524   1.488   4.943   4.026  0.0663  0.0605  0.1234
  703TIP3    H223525   1.551   5.078   4.054  0.2600 -0.0628  0.2907
  704TIP3   OH223526   2.704   4.885  13.457 -0.0480  0.3412 -0.0845
  704TIP3    H123527   2.651   4.839  13.523  1.2961  0.6097  1.2666
  704TIP3    H223528   2.683   4.977  13.469  1.6883  0.6060  1.4893
  705TIP3   OH223529   6.190   5.662  12.369 -0.0718  0.1285  0.0322
  705TIP3    H123530   6.167   5.585  12.420 -2.0674  0.9576  0.4620
  705TIP3    H223531   6.114   5.720  12.376  0.8035  1.5499 -1.4232
  706TIP3   OH223532   3.872   4.735  16.519 -0.5767  0.4051 -0.0870
  706TIP3    H123533   3.852   4.760  16.610  0.6417  0.4102  0.1979
  706TIP3    H223534   3.838   4.646  16.511  0.1763  0.0304  0.7032
  707TIP3   OH223535   2.875   0.812   4.717 -0.5026  0.0636  0.1562
  707TIP3    H123536   2.953   0.812   4.772 -0.2950 -2.0988 -0.0609
  707TIP3    H223537   2.802   0.817   4.779 -0.2361  1.9129  0.3688
  708TIP3   OH223538   1.344   2.740   5.182  0.7280  0.7465  0.1107
  708TIP3    H123539   1.404   2.666   5.179  1.9899  1.5931  2.1642
  708TIP3    H223540   1.352   2.781   5.096  0.4930 -1.0761 -0.8253
  709TIP3   OH223541   1.406   0.143  13.769 -0.1982 -0.1550 -0.0152
  709TIP3    H123542   1.340   0.104  13.827 -1.3327  0.9660 -0.5201
  709TIP3    H223543   1.356   0.173  13.693  1.0558 -0.2086 -0.8854
  710TIP3   OH223544   0.131   4.399  15.777  0.5379  0.1396 -0.3475
  710TIP3    H123545   0.163   4.374  15.690  0.6743 -1.4641  0.1334
  710TIP3    H223546   0.202   4.375  15.836 -1.0366 -2.5999  0.6301
  711TIP3   OH223547   6.178   3.451   5.378 -0.4244 -0.2276 -0.0116
  711TIP3    H123548   6.195   3.372   5.326  0.2823  0.0589 -0.2201
  711TIP3    H223549   6.261   3.497   5.380 -0.6313  0.1255  0.7810
  712TIP3   OH223550   3.892   4.379  14.080  0.1092 -0.4212 -0.5862
  712TIP3    H123551   3.845   4.457  14.050  2.4409  1.6822  0.8738
  712TIP3    H223552   3.974   4.412  14.116  0.2018 -3.2957  2.3790
  713TIP3   OH223553   3.704   5.715  14.215  0.7170  0.0045  0.2904
  713TIP3    H123554   3.649   5.674  14.148  1.0600  0.2883 -0.1783
  713TIP3    H223555   3.728   5.800  14.177  0.8633  0.1984  0.8052
  714TIP3   OH223556   3.197   1.137  11.473 -0.1711 -0.0665  0.3643
  714TIP3    H123557   3.120   1.083  11.452 -0.1201 -0.1059  0.2745
  714TIP3    H223558   3.170   1.191  11.547 -0.9562  1.3388 -0.8860
  715TIP3   OH223559   5.429   1.664  12.972 -0.1788 -0.2732  0.2713
  715TIP3    H123560   5.475   1.743  13.002 -0.8563 -0.0914  0.8631
  715TIP3    H223561   5.500   1.605  12.946  0.3493  0.4294  0.0629
  716TIP3   OH223562   0.137   0.112  10.700 -0.0713 -0.0597 -0.4569
  716TIP3    H123563   0.166   0.192  10.744 -3.2460 -1.8041  6.2120
  716TIP3    H223564   0.216   0.060  10.690  1.2338  1.1620  2.3602
  717TIP3   OH223565   2.614   3.116   5.604  0.5652  0.3675 -0.7158
  717TIP3    H123566   2.581   3.206   5.599  1.0792  0.6426  0.5324
  717TIP3    H223567   2.665   3.113   5.685 -0.3681 -1.3570 -0.1370
  718TIP3   OH223568   4.087   6.216   3.099 -0.0617  0.3047  0.5466
  718TIP3    H123569   4.159   6.278   3.093  0.2462 -0.1414 -3.5317
  718TIP3    H223570   4.130   6.130   3.105 -0.2354  0.1251 -0.5508
  719TIP3   OH223571   6.547   2.161   3.425 -0.1327  0.2162 -0.2205
  719TIP3    H123572   6.545   2.254   3.447  1.5745  0.1922  0.1194
  719TIP3    H223573   6.563   2.160   3.331  1.0680  0.2876 -0.0356
  720TIP3   OH223574   5.167   5.337   4.081  0.1963 -0.1640 -0.0805
  720TIP3    H123575   5.105   5.282   4.129  0.6164  1.9032  3.1609
  720TIP3    H223576   5.226   5.275   4.039 -0.5510 -2.2033  1.6770
  721TIP3   OH223577   2.928   0.998  11.981 -0.1417  0.0934 -0.1964
  721TIP3    H123578   2.893   1.038  11.901 -0.1610 -0.4210 -0.4451
  721TIP3    H223579   2.865   1.023  12.049  0.6956  1.8624 -0.0209
  722TIP3   OH223580   0.368   4.386   4.112  0.1162 -0.2068 -0.2650
  722TIP3    H123581   0.410   4.436   4.042  0.3883 -0.2176 -0.1095
  722TIP3    H223582   0.439   4.337   4.153 -0.3522 -1.9068 -1.3764
  723TIP3   OH223583   0.455   4.374   3.239 -0.3270  0.1307  0.0082
  723TIP3    H123584   0.375   4.354   3.191 -0.5323  3.4751 -1.3025
  723TIP3    H223585   0.524   4.326   3.192 -1.0359  0.4009 -1.3620
  724TIP3   OH223586   4.960   6.202  16.863 -0.0742  0.3755  0.5123
  724TIP3    H123587   5.016   6.128  16.887  0.1598  0.4079  0.0859
  724TIP3    H223588   4.988   6.224  16.774 -1.0409  0.1277  0.1339
  725TIP3   OH223589   6.709   4.705  10.668 -0.2854  0.1180  0.2820
  725TIP3    H123590   6.637   4.645  10.647  1.5303 -1.8857 -0.6627
  725TIP3    H223591   6.684   4.788  10.627 -1.7892 -0.6898 -0.5131
  726TIP3   OH223592   1.121   2.263  16.232 -0.2841  0.4894 -0.0026
  726TIP3    H123593   1.202   2.309  16.211 -1.6831  2.3686 -1.6740
  726TIP3    H223594   1.120   2.187  16.173 -0.5410  1.4565 -1.2863
  727TIP3   OH223595   4.999   4.481   3.615 -0.0766 -0.0280 -0.1373
  727TIP3    H123596   5.092   4.484   3.590 -0.0562  0.5526 -0.0188
  727TIP3    H223597   4.964   4.405   3.569  0.7720 -1.1025  0.9530
  728TIP3   OH223598   1.006   3.917   2.770  0.0002 -0.2445  0.1612
  728TIP3    H123599   1.045   4.003   2.753  0.4759 -0.3667  0.6016
  728TIP3    H223600   0.931   3.913   2.712 -1.0163  1.1570  1.2916
  729TIP3   OH223601   0.575   3.341  13.303 -0.0371 -0.0955 -0.0197
  729TIP3    H123602   0.500   3.341  13.361 -0.4975  1.2743 -0.5723
  729TIP3    H223603   0.595   3.248  13.289  0.5736 -0.4927  2.8901
  730TIP3   OH223604   5.292   0.469  17.209 -0.0215  0.0247  0.3310
  730TIP3    H123605   5.302   0.480  17.303  0.5453  3.5879 -0.0108
  730TIP3    H223606   5.198   0.479  17.193  0.1817  2.5876  0.3317
  731TIP3   OH223607   1.186   5.455  12.375  0.0741  0.0296 -0.2089
  731TIP3    H123608   1.116   5.411  12.327 -1.2453  1.3836  0.4085
  731TIP3    H223609   1.263   5.401  12.359 -0.3383  0.2107 -3.5910
  732TIP3   OH223610   2.583   6.450   1.113  0.4220 -0.2462 -0.2301
  732TIP3    H123611   2.629   6.372   1.141  1.5424  0.1824 -0.8175
  732TIP3    H223612   2.536   6.424   1.034  0.0470 -0.5497  0.0876
  733TIP3   OH223613   2.351   0.367  16.395 -0.9516  0.2630  0.2240
  733TIP3    H123614   2.352   0.408  16.482 -2.0140  0.5279  0.1242
  733TIP3    H223615   2.402   0.286  16.407 -1.1338  0.2606  1.1057
  734TIP3   OH223616   2.517   4.485   2.913 -0.6964 -0.0582 -1.0986
  734TIP3    H123617   2.493   4.405   2.959 -0.8316  0.5490 -0.1046
  734TIP3    H223618   2.438   4.510   2.866 -0.5867 -0.6191 -1.6080
  735TIP3   OH223619   5.595   6.089   5.993 -0.1449  0.4602 -0.0239
  735TIP3    H123620   5.518   6.138   5.966 -0.6210  0.4374  1.1966
  735TIP3    H223621   5.603   6.019   5.929 -0.8449  0.7636 -0.4519
  736TIP3   OH223622   5.339   1.198  12.772  0.8813 -0.2777  0.1914
  736TIP3    H123623   5.318   1.166  12.860  1.6011  1.4722  1.0352
  736TIP3    H223624   5.254   1.205  12.728  0.4217 -0.2195  1.0805
  737TIP3   OH223625   2.913   6.136   1.502 -0.0182  0.1832  0.2789
  737TIP3    H123626   2.944   6.068   1.443  0.4468  0.6118  0.0247
  737TIP3    H223627   2.992   6.174   1.539 -0.3032 -0.1571  1.2702
  738TIP3   OH223628   5.314   5.900  17.176 -0.5393  0.2952 -0.1790
  738TIP3    H123629   5.395   5.865  17.212 -1.0505  0.6430  1.3956
  738TIP3    H223630   5.340   5.975  17.124  0.0170  1.7303  2.0635
  739TIP3   OH223631   6.586   4.950   4.880 -0.6843 -0.2732 -0.4325
  739TIP3    H123632   6.553   4.984   4.963  1.6998  0.3611  0.3449
  739TIP3    H223633   6.621   5.027   4.835 -1.0082 -0.7725 -1.5617
  740TIP3   OH223634   0.393   6.460  16.762  0.3364 -0.1725  0.3901
  740TIP3    H123635   0.478   6.503  16.763  0.8813 -1.1242 -1.5901
  740TIP3    H223636   0.355   6.481  16.848  1.3209  2.6632  0.2497
  741TIP3   OH223637   6.190   2.180  12.667 -0.5229 -0.0216 -0.4033
  741TIP3    H123638   6.202   2.162  12.760 -3.7146  1.4358  0.4214
  741TIP3    H223639   6.276   2.210  12.637  1.0010 -2.0480  1.6223
  742TIP3   OH223640   4.020   3.579   6.602 -0.3940 -0.6261  0.8583
  742TIP3    H123641   4.029   3.494   6.646  2.0121  0.4513  2.6209
  742TIP3    H223642   3.995   3.640   6.672  0.9474  0.6644  0.2656
  743TIP3   OH223643   3.215   0.129  11.537 -0.1531 -0.3598 -0.1484
  743TIP3    H123644   3.306   0.143  11.566 -0.6298  0.5786  0.9744
  743TIP3    H223645   3.182   0.061  11.595 -0.5692  0.2694  0.3690
  744TIP3   OH223646   4.127   4.146  16.672  0.1170 -0.5739  0.1686
  744TIP3    H123647   4.185   4.219  16.651 -0.6497 -0.5998 -2.2831
  744TIP3    H223648   4.058   4.185  16.726 -0.2256  0.5112 -1.0127
  745TIP3   OH223649   5.727   5.263  13.303  0.3691  0.5963  0.2541
  745TIP3    H123650   5.703   5.257  13.211  0.5674  0.4947  0.2095
  745TIP3    H223651   5.818   5.232  13.307  0.6210  1.3423  0.3687
  746TIP3   OH223652   2.819   2.219  15.284  0.7529  0.0633 -0.0590
  746TIP3    H123653   2.765   2.259  15.353  0.0618  1.0952 -1.1605
  746TIP3    H223654   2.863   2.147  15.328 -0.7843 -0.2215  1.1296
  747TIP3   OH223655   3.656   6.312  15.021  0.1376 -0.5133 -0.3918
  747TIP3    H123656   3.626   6.224  14.998  0.3137 -0.9265  0.8934
  747TIP3    H223657   3.576   6.364  15.030  0.0087 -0.6727 -0.6091
  748TIP3   OH223658   4.906   5.858   6.376  0.5803  0.4558 -0.3451
  748TIP3    H123659   4.907   5.911   6.456 -0.3098 -0.0904  0.0402
  748TIP3    H223660   4.880   5.920   6.308 -1.4064  0.3510  0.2637
  749TIP3   OH223661   6.158   2.922   4.996 -0.1734 -0.1148  0.3606
  749TIP3    H123662   6.213   2.844   5.000 -0.2375 -0.3445 -1.9130
  749TIP3    H223663   6.070   2.891   5.014 -0.1331 -0.4786 -0.0757
  750TIP3   OH223664   3.707   2.852  16.401 -0.0625  0.0958 -0.0070
  750TIP3    H123665   3.766   2.781  16.426 -0.2769 -0.9220 -2.1581
  750TIP3    H223666   3.760   2.931  16.407  0.7422 -0.4751  0.6414
  751TIP3   OH223667   5.867   4.415   6.547  0.4962  0.0389 -0.1517
  751TIP3    H123668   5.773   4.421   6.563  0.6358  0.0863  0.6822
  751TIP3    H223669   5.892   4.502   6.518  0.3934  0.1868  0.2075
  752TIP3   OH223670   3.578   1.084   4.029  0.9899 -0.1159  0.8760
  752TIP3    H123671   3.545   1.125   3.949  1.4334 -3.0305 -0.9580
  752TIP3    H223672   3.500   1.046   4.071  1.1147 -1.4266 -0.0087
  753TIP3   OH223673   5.813   2.310  16.207 -0.9271 -0.6817 -0.2590
  753TIP3    H123674   5.805   2.239  16.270 -1.2384  0.0871  0.5874
  753TIP3    H223675   5.907   2.314  16.187 -0.6220 -0.1101  1.1586
  754TIP3   OH223676   1.784   5.714   5.791  0.2852  0.5728  0.2375
  754TIP3    H123677   1.875   5.742   5.786  0.2328  1.0340  1.4498
  754TIP3    H223678   1.788   5.625   5.826  0.2738  0.5832  0.2654
  755TIP3   OH223679   4.707   5.175   3.335 -0.3184  0.7275  0.8309
  755TIP3    H123680   4.766   5.143   3.267  0.0583  0.9864  1.0326
  755TIP3    H223681   4.739   5.135   3.416 -0.9158  0.2245  0.8237
  756TIP3   OH223682   5.383   6.317  15.692 -0.6407 -0.5498 -0.3095
  756TIP3    H123683   5.458   6.377  15.699 -0.6088 -0.7846  2.6103
  756TIP3    H223684   5.343   6.338  15.608  2.2851  0.0499 -1.6761
  757TIP3   OH223685   3.521   2.528  16.630  0.1442  0.0642  0.2442
  757TIP3    H123686   3.601   2.550  16.582  0.1525 -0.8341 -0.1768
  757TIP3    H223687   3.543   2.544  16.722  1.1043 -1.0097  0.2231
  758TIP3   OH223688   5.785   4.960   4.754  0.4618  0.2567  0.1590
  758TIP3    H123689   5.871   4.994   4.731  1.6801 -1.9867  1.0879
  758TIP3    H223690   5.781   4.873   4.712 -0.1543 -0.8790  2.4051
  759TIP3   OH223691   6.577   4.325   3.077  0.1312  0.2132 -0.2891
  759TIP3    H123692   6.571   4.233   3.104 -2.7738  0.5739  0.5906
  759TIP3    H223693   6.653   4.358   3.125  0.4954 -1.4208  0.3349
  760TIP3   OH223694   4.181   1.600   1.304  0.1021 -0.9416 -0.7643
  760TIP3    H123695   4.124   1.540   1.353  0.2268  0.3553  1.0546
  760TIP3    H223696   4.232   1.645   1.371 -0.3405  1.5647 -1.9854
  761TIP3   OH223697   0.330   6.050  14.864 -0.4778  0.7621 -0.6380
  761TIP3    H123698   0.235   6.058  14.857 -0.5039  1.1249  0.0121
  761TIP3    H223699   0.352   5.974  14.811 -1.3600 -0.4938  0.7350
  762TIP3   OH223700   4.841   0.322  12.292 -0.2845 -0.2419 -0.6484
  762TIP3    H123701   4.800   0.266  12.226  0.3472 -1.0648 -0.3617
  762TIP3    H223702   4.768   0.361  12.339 -0.7396 -0.3714 -1.2293
  763TIP3   OH223703   1.776   5.472   4.774  0.1565 -0.1031 -0.1528
  763TIP3    H123704   1.730   5.483   4.858  0.2223  1.6481 -0.3109
  763TIP3    H223705   1.866   5.499   4.793 -0.1295  1.5936 -1.0708
  764TIP3   OH223706   5.409   0.392  11.825 -0.1821  0.5584  0.3617
  764TIP3    H123707   5.369   0.421  11.907 -0.3812 -0.2869  0.5704
  764TIP3    H223708   5.491   0.441  11.819 -0.0557  0.4498  1.1799
  765TIP3   OH223709   3.708   6.593  11.353 -0.4691  0.1829  0.2616
  765TIP3    H123710   3.778   6.528  11.340 -0.8596 -0.4331  1.1452
  765TIP3    H223711   3.752   6.668  11.392 -0.4037 -0.4825  1.5127
  766TIP3   OH223712   2.708   3.407   5.611  0.6419  0.5941  0.3451
  766TIP3    H123713   2.684   3.437   5.699 -0.1478 -0.2019  0.4204
  766TIP3    H223714   2.743   3.485   5.568  0.1045  1.2391  1.0378
  767TIP3   OH223715   6.224   5.097   2.124 -0.5096  0.0140 -0.2015
  767TIP3    H123716   6.211   5.125   2.214  0.7224 -2.1983  0.7313
  767TIP3    H223717   6.144   5.049   2.102  0.1300 -1.4686  0.5857
  768TIP3   OH223718   4.612   0.182   1.930 -0.6295  0.7105 -0.1114
  768TIP3    H123719   4.665   0.161   2.007 -1.0336 -1.1697 -0.3041
  768TIP3    H223720   4.522   0.174   1.960 -0.9785 -4.5231 -1.6554
  769TIP3   OH223721   1.870   6.687  15.735  0.1278 -0.0944 -0.5205
  769TIP3    H123722   1.902   6.597  15.736  0.4728  0.0274  0.7123
  769TIP3    H223723   1.932   6.735  15.790 -1.4671  0.4063  0.9249
  770TIP3   OH223724   2.420   6.666   4.489 -0.2217  0.4979 -0.1287
  770TIP3    H123725   2.445   6.618   4.410 -1.4278 -1.4611  0.5776
  770TIP3    H223726   2.503   6.687   4.531  0.4057 -1.3880 -0.3043
  771TIP3   OH223727   2.483   4.803  17.154 -0.2329  1.1414 -0.1324
  771TIP3    H123728   2.561   4.832  17.201  0.1025  1.2311 -0.7388
  771TIP3    H223729   2.430   4.882  17.145  0.3276  1.4184 -1.1010
  772TIP3   OH223730   3.334   1.675  15.206 -0.6331 -0.7275  0.0272
  772TIP3    H123731   3.314   1.610  15.273  2.7597 -0.8502  1.1082
  772TIP3    H223732   3.315   1.632  15.123 -3.0537 -1.2619  0.7674
  773TIP3   OH223733   4.552   0.653   2.933  0.1784 -0.0280 -0.0393
  773TIP3    H123734   4.616   0.613   2.874  1.9956  2.0862  0.3907
  773TIP3    H223735   4.523   0.581   2.989  0.1922 -1.5713 -1.9173
  774TIP3   OH223736   4.342   5.341   2.808  0.1674  0.0608  0.2651
  774TIP3    H123737   4.382   5.345   2.721 -0.5996 -0.1705 -0.1123
  774TIP3    H223738   4.248   5.335   2.790  0.0464 -0.6660  1.1035
  775TIP3   OH223739   2.770   5.054   2.191 -0.4807 -0.5754 -0.2410
  775TIP3    H123740   2.715   5.054   2.113 -1.2056 -1.2689  0.2432
  775TIP3    H223741   2.860   5.052   2.158 -0.7644 -0.5029 -1.0446
  776TIP3   OH223742   1.351   0.742  13.674 -0.3201  0.2065 -0.1058
  776TIP3    H123743   1.282   0.807  13.687  0.4496  0.8142  1.0611
  776TIP3    H223744   1.355   0.695  13.757 -1.3144 -1.8385 -1.1175
  777TIP3   OH223745   6.681   1.295  10.705  0.2738  0.2481  0.4780
  777TIP3    H123746   6.740   1.220  10.697  1.5584  1.1527  1.1394
  777TIP3    H223747   6.627   1.275  10.781 -1.7348 -1.5050 -1.2698
  778TIP3   OH223748   0.869   0.670   0.927  0.4455  0.3210 -0.4984
  778TIP3    H123749   0.866   0.613   0.850  2.6427 -1.1669  0.4225
  778TIP3    H223750   0.951   0.647   0.971  0.6241  3.0658  0.8293
  779TIP3   OH223751   6.734   1.156   4.915  0.5109  0.1009  0.5379
  779TIP3    H123752   6.776   1.187   4.995  0.3647  2.4276 -0.1988
  779TIP3    H223753   6.649   1.122   4.944 -0.1383  2.1941  1.3059
  780TIP3   OH223754   3.906   3.915  11.749  0.2089  0.2282  0.0539
  780TIP3    H123755   3.843   3.908  11.678 -0.4308  1.8295  0.4377
  780TIP3    H223756   3.864   3.871  11.823  0.7568 -1.1856 -0.4366
  781TIP3   OH223757   5.640   5.116  16.633  0.2646 -0.5350  0.2732
  781TIP3    H123758   5.583   5.130  16.557  0.3990 -0.8047  0.1224
  781TIP3    H223759   5.676   5.029  16.620 -0.4434 -0.9705  1.1252
  782TIP3   OH223760   1.570   1.483  10.955 -0.0472 -0.1826  0.0197
  782TIP3    H123761   1.648   1.434  10.933 -0.5389 -0.6766 -0.6696
  782TIP3    H223762   1.570   1.486  11.051  1.6799  1.2801  0.0270
  783TIP3   OH223763   5.606   1.234  12.333  0.4420  0.6048  0.1694
  783TIP3    H123764   5.513   1.256  12.337  0.6927  1.7550  0.1161
  783TIP3    H223765   5.649   1.317  12.308  1.6763  0.6265  2.1734
  784TIP3   OH223766   4.123   0.599   3.528 -0.3260  0.1548 -0.1444
  784TIP3    H123767   4.032   0.614   3.500 -0.7483 -1.2170  0.4034
  784TIP3    H223768   4.132   0.650   3.608  0.4298  2.8930 -1.8117
  785TIP3   OH223769   4.539   2.985   5.766  0.3324 -0.1836  0.1962
  785TIP3    H123770   4.567   3.013   5.853  1.3689  0.0245 -0.1807
  785TIP3    H223771   4.621   2.980   5.716 -0.4518  2.0671 -1.4656
  786TIP3   OH223772   6.599   0.033   0.079  0.0465 -0.2425  0.4271
  786TIP3    H123773   6.629   0.044  -0.011 -0.1749  1.9262  0.5757
  786TIP3    H223774   6.657   0.088   0.131 -0.4705 -0.6650  1.4952
  787TIP3   OH223775   3.575   2.548   0.665  0.0312 -0.4281  0.2832
  787TIP3    H123776   3.500   2.500   0.701 -1.3041  1.4270  0.0930
  787TIP3    H223777   3.562   2.545   0.570  0.7214 -0.8773  0.1937
  788TIP3   OH223778   4.034   4.283   6.532  0.0303 -0.4158 -0.3310
  788TIP3    H123779   3.951   4.251   6.497 -0.2949 -0.1063  0.1511
  788TIP3    H223780   4.024   4.378   6.532  0.0639 -0.4112  0.5185
  789TIP3   OH223781   3.577   0.265   4.398 -0.1310 -0.3601 -0.3921
  789TIP3    H123782   3.638   0.313   4.454  1.3119 -0.8455 -1.4822
  789TIP3    H223783   3.571   0.318   4.318  0.3110 -1.2120 -1.0097
  790TIP3   OH223784   5.553   1.577   4.196 -0.6133  0.0011  0.2939
  790TIP3    H123785   5.472   1.618   4.225 -1.5740 -0.0752 -2.0603
  790TIP3    H223786   5.530   1.485   4.180  0.2083 -0.2677  0.5787
  791TIP3   OH223787   4.869   1.796   3.773 -0.3804 -0.3130 -0.0026
  791TIP3    H123788   4.800   1.733   3.750  0.0501 -0.7178 -0.1934
  791TIP3    H223789   4.821   1.876   3.795 -0.9459 -0.7505  0.4080
  792TIP3   OH223790   2.818   0.487  11.364 -0.2923 -0.0073  0.3867
  792TIP3    H123791   2.786   0.405  11.324 -0.7664 -0.2315  1.2107
  792TIP3    H223792   2.908   0.468  11.389 -0.4562 -0.3435  0.7351
  793TIP3   OH223793   0.684   4.968  12.386 -0.4508  0.3611 -0.3075
  793TIP3    H123794   0.699   4.874  12.391 -0.5312  0.3840  0.3936
  793TIP3    H223795   0.721   4.993  12.301 -0.0269 -0.2271 -0.3047
  794TIP3   OH223796   6.288   0.560  12.916 -0.3875 -0.4323 -0.2518
  794TIP3    H123797   6.348   0.634  12.925  1.1948 -1.4177 -1.8342
  794TIP3    H223798   6.270   0.533  13.006  0.0705  1.0431  0.3139
  795TIP3   OH223799   1.838   6.409  16.714 -0.3508 -0.2881  0.1021
  795TIP3    H123800   1.824   6.489  16.764 -0.3302 -0.2953  0.1192
  795TIP3    H223801   1.757   6.397  16.665 -0.4162 -0.3436  0.2217
  796TIP3   OH223802   0.855   0.602  15.170 -0.1507 -0.2989 -0.2637
  796TIP3    H123803   0.840   0.533  15.235  2.2685 -1.6438 -0.9898
  796TIP3    H223804   0.868   0.682  15.221 -0.3721 -0.9139  0.7793
  797TIP3   OH223805   4.529   5.920  14.787  0.0122  0.0721 -0.2926
  797TIP3    H123806   4.501   5.973  14.713  0.3945  0.1797 -0.3639
  797TIP3    H223807   4.601   5.970  14.827  0.6453 -0.5727 -0.5977
  798TIP3   OH223808   0.492   2.971   0.656  0.2737 -0.0311 -0.3450
  798TIP3    H123809   0.440   2.892   0.643 -2.6818  1.7207 -0.1697
  798TIP3    H223810   0.556   2.969   0.585 -1.2264 -1.4468 -1.7472
  799TIP3   OH223811   3.011   2.468   1.437  0.6217 -0.0906  0.0535
  799TIP3    H123812   3.069   2.428   1.501  0.0703 -3.7480 -1.4939
  799TIP3    H223813   2.932   2.414   1.439 -0.9449  1.9904 -1.1000
  800TIP3   OH223814   1.474   6.286   5.432 -0.2877  0.1310  0.4466
  800TIP3    H123815   1.384   6.310   5.452 -0.9546 -1.9176  0.0863
  800TIP3    H223816   1.526   6.328   5.501 -1.7719 -0.6639  2.1161
  801TIP3   OH223817   5.040   5.985   4.201 -0.4726  0.5733 -0.1975
  801TIP3    H123818   5.012   5.895   4.188 -1.2033  0.6960  0.4089
  801TIP3    H223819   5.018   6.029   4.118  0.0896  0.1588 -0.5749
  802TIP3   OH223820   6.791   2.065  12.035  0.1075  0.1398 -0.2094
  802TIP3    H123821   6.825   2.078  11.947  0.4907 -0.0993 -0.1024
  802TIP3    H223822   6.713   2.121  12.040  0.8631  1.2165 -0.2357
  803TIP3   OH223823   1.702   4.110   4.168  0.1418 -0.7342  0.2411
  803TIP3    H123824   1.719   4.171   4.095  1.1562 -0.4059  0.7333
  803TIP3    H223825   1.612   4.081   4.154 -0.4962  1.1483  0.1860
  804TIP3   OH223826   2.860   5.818   1.577 -0.3655  0.2617 -0.2402
  804TIP3    H123827   2.906   5.838   1.496  0.3552 -0.4417 -0.0120
  804TIP3    H223828   2.783   5.876   1.576 -0.3144  0.3207 -1.3698
  805TIP3   OH223829   1.596   1.537   5.171 -0.3347 -0.1250 -0.2396
  805TIP3    H123830   1.685   1.541   5.206  1.4962  0.2805 -4.3374
  805TIP3    H223831   1.585   1.445   5.146 -1.4898 -0.3697  1.1009
  806TIP3   OH223832   0.777   3.171  12.013  0.4059 -0.2898 -0.4306
  806TIP3    H123833   0.773   3.105  12.083  1.8622  1.8234  1.8326
  806TIP3    H223834   0.862   3.157  11.972  0.0457 -0.7825 -1.0279
  807TIP3   OH223835   2.976   4.169   2.699  0.0320  0.2237 -0.2417
  807TIP3    H123836   2.989   4.186   2.792 -0.2154 -1.0351  0.0372
  807TIP3    H223837   3.063   4.181   2.660 -0.0004  1.4081  0.0341
  808TIP3   OH223838   2.874   3.087  12.306 -0.1825  0.7889  0.2209
  808TIP3    H123839   2.855   2.994  12.317  1.2274  0.0775 -2.4875
  808TIP3    H223840   2.929   3.109  12.382 -0.6955 -0.5160  1.0056
  809TIP3   OH223841   2.956   1.771   0.811 -0.2872  0.7820 -0.0891
  809TIP3    H123842   2.907   1.694   0.839  0.3000  0.6459  0.6221
  809TIP3    H223843   2.899   1.815   0.748 -1.5694  0.9489  1.1415
  810TIP3   OH223844   0.219   3.399   5.690 -0.5796 -0.1729  0.2626
  810TIP3    H123845   0.246   3.460   5.759 -1.5897 -0.0030  0.5140
  810TIP3    H223846   0.126   3.383   5.706 -0.3266 -1.8299  0.2284
  811TIP3   OH223847   5.152   0.027   4.666  0.4867  0.0887  0.0654
  811TIP3    H123848   5.125  -0.062   4.645  1.2840 -0.3066  0.6498
  811TIP3    H223849   5.104   0.083   4.604  1.2221 -0.8599 -1.4139
  812TIP3   OH223850   4.049   0.911  11.315  0.4598  0.0197 -0.2874
  812TIP3    H123851   4.099   0.850  11.261 -1.8039 -1.1900 -1.1415
  812TIP3    H223852   4.031   0.985  11.256 -0.4444 -0.4759 -0.6615
  813TIP3   OH223853   0.703   4.182   5.577 -0.0995 -0.7012  0.2181
  813TIP3    H123854   0.669   4.249   5.518 -0.4680  0.2802  1.4797
  813TIP3    H223855   0.705   4.102   5.525 -2.1495 -0.2859 -0.5849
  814TIP3   OH223856   4.724   5.570  13.203 -0.4082 -0.1645  0.5147
  814TIP3    H123857   4.743   5.615  13.121  2.4653  0.1667  1.2583
  814TIP3    H223858   4.695   5.483  13.177 -0.7562  0.3433 -0.8567
  815TIP3   OH223859   3.209   5.530   1.039 -0.6339  0.2470 -0.3309
  815TIP3    H123860   3.273   5.581   1.089 -0.0526  0.4981 -1.2938
  815TIP3    H223861   3.148   5.498   1.104  0.5991 -0.1908  0.6538
  816TIP3   OH223862   1.142   5.151   4.545 -0.2187 -0.4561  0.0380
  816TIP3    H123863   1.131   5.183   4.456 -2.7453 -1.2997 -0.0389
  816TIP3    H223864   1.187   5.067   4.536  0.7268  0.0825 -0.3075
  817TIP3   OH223865   6.738   1.053   1.506  0.2429  0.1699  0.5231
  817TIP3    H123866   6.698   1.140   1.500 -1.9797 -0.7931  0.5178
  817TIP3    H223867   6.782   1.041   1.421  0.9242  1.4244  0.6768
  818TIP3   OH223868   4.208   6.226   5.993 -0.1067  0.2504  1.3814
  818TIP3    H123869   4.233   6.146   6.039  1.9480  0.9249  1.5515
  818TIP3    H223870   4.178   6.197   5.907  0.8727 -0.6928  1.3465
  819TIP3   OH223871   6.128   3.895  13.890 -0.4267  0.0105 -0.0532
  819TIP3    H123872   6.116   3.882  13.796  1.3020  0.7164 -0.3991
  819TIP3    H223873   6.195   3.962  13.897  0.1673 -0.7082  1.7025
  820TIP3   OH223874   1.633   0.116  11.959  0.2457  0.2947  0.2050
  820TIP3    H123875   1.643   0.051  12.028  1.4649 -1.2669 -1.3746
  820TIP3    H223876   1.714   0.167  11.963 -0.2333  1.0521  0.7100
  821TIP3   OH223877   3.944   0.674  12.784 -0.1060 -1.1158  0.2703
  821TIP3    H123878   4.001   0.729  12.837 -0.9552 -1.2642  1.3800
  821TIP3    H223879   3.983   0.676  12.697  0.2301  0.7582  0.4201
  822TIP3   OH223880   5.568   5.224  11.919 -0.2009 -0.0389 -0.1861
  822TIP3    H123881   5.518   5.274  11.983  2.1154 -0.1623  1.8615
  822TIP3    H223882   5.608   5.153  11.970 -2.6816 -3.6642 -2.7962
  823TIP3   OH223883   0.775   3.732   2.959  0.1778  0.7780  0.0525
  823TIP3    H123884   0.729   3.648   2.958 -0.9698  1.3881 -0.4625
  823TIP3    H223885   0.867   3.709   2.951 -0.1444 -0.4252 -0.4138
  824TIP3   OH223886   6.066   2.496   3.181  0.4842 -0.1037  0.5540
  824TIP3    H123887   6.155   2.521   3.157  0.6622 -0.3306  0.9649
  824TIP3    H223888   6.041   2.429   3.117 -0.7560  2.4901 -1.8399
  825TIP3   OH223889   1.228   3.653   2.376  0.1679  0.0430  0.3582
  825TIP3    H123890   1.133   3.645   2.387 -0.0625  1.3550 -0.4665
  825TIP3    H223891   1.239   3.687   2.288  1.3014  1.7307  1.1059
  826TIP3   OH223892   3.715   1.322   3.754 -0.2046 -0.1883 -0.1859
  826TIP3    H123893   3.700   1.231   3.727 -0.4182 -0.6346  1.3243
  826TIP3    H223894   3.810   1.328   3.764 -0.2505 -0.4775  0.4502
  827TIP3   OH223895   3.335   6.760   5.250  0.5578  0.0960  0.1698
  827TIP3    H123896   3.391   6.684   5.266  2.1385  1.0831 -0.5047
  827TIP3    H223897   3.373   6.802   5.173 -1.7218  0.2445 -0.9563
  828TIP3   OH223898   4.280   6.466  13.089 -0.7464 -0.2992  0.0613
  828TIP3    H123899   4.185   6.477  13.091 -0.8796 -0.9767 -1.3618
  828TIP3    H223900   4.294   6.389  13.034  0.7041  1.3656 -2.0694
  829TIP3   OH223901   3.132   2.844   1.719 -0.0356  0.0170  0.2520
  829TIP3    H123902   3.141   2.754   1.688 -0.8315 -0.2908  0.8650
  829TIP3    H223903   3.179   2.845   1.802 -0.9128 -0.1325  0.7664
  830TIP3   OH223904   3.271   5.020   4.624 -0.4919  0.3655 -0.1624
  830TIP3    H123905   3.327   5.084   4.580 -2.0182  1.2452 -0.8965
  830TIP3    H223906   3.315   5.003   4.707  1.5183  0.0317 -1.2415
  831TIP3   OH223907   2.324   3.590   0.851  0.6514 -0.1675 -0.0265
  831TIP3    H123908   2.305   3.608   0.943  3.1340 -1.4733  0.8334
  831TIP3    H223909   2.270   3.514   0.830 -1.9806  1.7179 -0.5651
  832TIP3   OH223910   5.089   4.068   4.726 -0.1070  0.0198 -0.7327
  832TIP3    H123911   5.061   3.992   4.777  0.4478 -0.7358 -1.5136
  832TIP3    H223912   5.008   4.115   4.708 -0.3004  0.3903  0.9341
  833TIP3   OH223913   0.116   2.244  12.711 -0.2863 -0.4494 -0.1975
  833TIP3    H123914   0.080   2.209  12.629 -0.3628  0.4604 -0.5692
  833TIP3    H223915   0.135   2.336  12.691  1.6714 -0.7353  0.1601
  834TIP3   OH223916   6.539   4.827   4.540  0.0763 -0.2080 -0.3794
  834TIP3    H123917   6.546   4.794   4.630 -0.9377 -1.1802 -0.6361
  834TIP3    H223918   6.514   4.919   4.551  0.7774 -0.0824  0.3276
  835TIP3   OH223919   0.535   0.680   5.635  0.6562 -0.2207 -0.8365
  835TIP3    H123920   0.621   0.721   5.635  0.6230 -0.1380 -1.4694
  835TIP3    H223921   0.491   0.716   5.558 -0.2624  0.3852 -0.0533
  836TIP3   OH223922   5.784   0.272  16.373 -0.3172  0.0749  0.1104
  836TIP3    H123923   5.849   0.277  16.443 -0.2412  0.5790  0.0076
  836TIP3    H223924   5.737   0.356  16.379 -0.2378  0.1691 -0.5085
  837TIP3   OH223925   1.692   2.694   2.051  0.2593  0.4508  0.0761
  837TIP3    H123926   1.773   2.680   2.002 -0.0335 -1.3132  0.0241
  837TIP3    H223927   1.680   2.613   2.100 -0.1207  1.6886  2.1164
  838TIP3   OH223928   4.851   2.724  14.060  0.1658 -0.2030 -0.3053
  838TIP3    H123929   4.932   2.772  14.077  0.2046 -0.0564 -0.8934
  838TIP3    H223930   4.873   2.633  14.081  0.3384 -0.0944 -0.0020
  839TIP3   OH223931   0.584   0.368   0.370 -0.4792  0.2584 -0.0125
  839TIP3    H123932   0.586   0.279   0.403  0.7818  0.0739 -0.5375
  839TIP3    H223933   0.519   0.366   0.300  2.0619 -1.2347 -2.5475
  840TIP3   OH223934   3.211   2.874   4.358 -0.1108  0.0585 -0.0459
  840TIP3    H123935   3.268   2.797   4.366 -0.9267 -0.5552 -0.0292
  840TIP3    H223936   3.140   2.858   4.420  0.1573  1.2398  0.5791
  841TIP3   OH223937   0.060   2.388  12.184  0.1248  0.6469  0.3178
  841TIP3    H123938   0.102   2.312  12.224 -0.2458 -0.9624 -2.1213
  841TIP3    H223939   0.120   2.415  12.114 -0.5843  1.4854  0.0003
  842TIP3   OH223940   6.060   2.031  11.912 -0.1163  0.3953 -0.4704
  842TIP3    H123941   6.066   1.936  11.912  1.7029  0.4177  1.6556
  842TIP3    H223942   6.062   2.055  12.005 -0.1554  2.5344 -0.9612
  843TIP3   OH223943   5.946   2.274   2.702  0.1201  0.1842 -0.3017
  843TIP3    H123944   5.921   2.228   2.622  0.8462 -0.9568  0.1052
  843TIP3    H223945   6.028   2.233   2.729 -0.0554  0.6163  0.9727
  844TIP3   OH223946   3.324   0.282  17.057  0.4530 -0.1450 -0.0135
  844TIP3    H123947   3.322   0.205  17.001 -0.2446 -1.5717  1.8339
  844TIP3    H223948   3.289   0.353  17.003 -2.6539 -1.9965 -0.6664
  845TIP3   OH223949   0.585   6.304   1.680  0.2345 -0.4848 -0.0239
  845TIP3    H123950   0.597   6.382   1.627 -0.9579 -0.4209 -0.2244
  845TIP3    H223951   0.614   6.232   1.624 -0.2462 -0.3427 -0.4560
  846TIP3   OH223952   0.452   0.056  14.956 -0.3176 -0.0679 -0.1093
  846TIP3    H123953   0.436   0.024  15.044 -0.0981 -0.8492 -0.3446
  846TIP3    H223954   0.532   0.107  14.963  0.4427 -1.2281 -0.0983
  847TIP3   OH223955   1.573   5.763   5.030 -0.0461 -0.0870  0.2062
  847TIP3    H123956   1.627   5.840   5.010  0.5237 -0.8528 -1.3649
  847TIP3    H223957   1.485   5.787   5.002 -0.0151  0.2481  0.3926
  848TIP3   OH223958   0.543   5.249   1.497 -0.6282  0.4256 -0.2563
  848TIP3    H123959   0.582   5.162   1.486 -1.1458  0.0951  0.4773
  848TIP3    H223960   0.450   5.236   1.481 -1.2260  0.1929  2.8834
  849TIP3   OH223961   3.052   3.066  16.433 -0.2461 -0.0581  0.4132
  849TIP3    H123962   3.081   3.153  16.407  0.9975 -0.5206  0.1644
  849TIP3    H223963   3.052   3.016  16.351 -1.4246 -0.1785  0.4712
  850TIP3   OH223964   4.689   5.594   4.041 -0.0393 -0.4880  0.1051
  850TIP3    H123965   4.648   5.628   3.962 -1.3294 -1.0353  0.5236
  850TIP3    H223966   4.664   5.502   4.045  2.1998 -1.1775 -0.2267
  851TIP3   OH223967   5.413   3.504  17.246 -0.2786  0.4441 -0.2088
  851TIP3    H123968   5.405   3.439  17.176 -1.5267  0.1648  0.1546
  851TIP3    H223969   5.323   3.516  17.277  0.3194 -0.1259  1.9472
  852TIP3   OH223970   3.141   4.373   5.445 -0.0826  0.0353  0.1661
  852TIP3    H123971   3.200   4.307   5.410  1.5859  1.2012  0.6795
  852TIP3    H223972   3.138   4.355   5.539 -1.3454 -0.5845  0.0418
  853TIP3   OH223973   1.857   5.542   1.033  0.3892  0.0565  0.3187
  853TIP3    H123974   1.775   5.571   1.074  0.1452  0.7916 -0.6348
  853TIP3    H223975   1.888   5.471   1.088 -0.1047  0.7770  1.5657
  854TIP3   OH223976   2.176   1.696   5.291  0.5688 -0.2906  0.5715
  854TIP3    H123977   2.159   1.656   5.206 -0.4925  0.9993  0.1460
  854TIP3    H223978   2.143   1.785   5.283 -0.9872 -0.5788  2.8000
  855TIP3   OH223979   4.780   5.668  17.228  0.3955  0.5984  0.5278
  855TIP3    H123980   4.756   5.611  17.154 -1.4400  1.5894  0.3143
  855TIP3    H223981   4.704   5.664  17.287  1.3831  0.6905  1.8423
  856TIP3   OH223982   4.729   2.002  11.276  0.2198 -0.0359 -0.0789
  856TIP3    H123983   4.730   1.906  11.278 -2.1339 -0.1155  0.0207
  856TIP3    H223984   4.768   2.024  11.191 -0.0463 -1.1266 -0.5090
  857TIP3   OH223985   0.064   3.816   0.843 -0.3613 -0.0139 -0.7116
  857TIP3    H123986   0.047   3.728   0.875 -0.0420  0.1615 -0.0333
  857TIP3    H223987   0.017   3.873   0.904  0.1739  0.3194 -0.6017
  858TIP3   OH223988   3.031   0.165   4.602 -0.2236 -0.5293 -0.1098
  858TIP3    H123989   3.115   0.173   4.647 -1.0139 -0.7359  1.4636
  858TIP3    H223990   3.049   0.195   4.513  0.9642  1.7956  0.8237
  859TIP3   OH223991   1.639   5.832   5.586  0.0557  0.5987 -0.1952
  859TIP3    H123992   1.693   5.909   5.569 -0.0118  0.2973 -2.0576
  859TIP3    H223993   1.683   5.787   5.658  1.6995  0.9567 -0.9128
  860TIP3   OH223994   2.538   1.087   4.996 -0.3523  0.6109 -0.2307
  860TIP3    H123995   2.463   1.087   4.937  1.1905  1.8876 -2.3232
  860TIP3    H223996   2.524   1.162   5.053 -0.2509  1.4137 -1.2378
  861TIP3   OH223997   2.756   0.286  16.821  0.5748 -0.6549  0.2412
  861TIP3    H123998   2.715   0.284  16.908  0.4817  0.3338  0.2255
  861TIP3    H223999   2.827   0.221  16.827  0.0404 -1.2031  0.7806
  862TIP3   OH224000   4.267   6.570   3.044  0.2252 -0.2997 -0.2098
  862TIP3    H124001   4.295   6.537   3.130  1.3943  0.8569 -0.1103
  862TIP3    H224002   4.316   6.517   2.981 -0.9020 -1.3934 -0.2110
  863TIP3   OH224003   0.774   3.014  11.380 -0.1191 -0.1688  0.0994
  863TIP3    H124004   0.714   2.967  11.322  2.8465 -0.4844 -3.0576
  863TIP3    H224005   0.822   3.072  11.321  1.4851  1.3175  2.7173
  864TIP3   OH224006   6.788   5.288  15.892  0.1615  0.6185 -0.7406
  864TIP3    H124007   6.710   5.335  15.861 -0.5307 -0.6454 -1.0223
  864TIP3    H224008   6.824   5.248  15.813  0.0617 -0.2468 -0.3661
  865TIP3   OH224009   4.850   4.708   5.553 -0.7625 -0.8797  0.4725
  865TIP3    H124010   4.924   4.768   5.550 -2.4908  1.3247 -0.3625
  865TIP3    H224011   4.889   4.622   5.533  1.4530  0.2933 -0.7141
  866TIP3   OH224012   1.388   1.243  16.297 -0.0696  0.0436 -0.4933
  866TIP3    H124013   1.411   1.336  16.299  0.3991 -0.0149 -1.9161
  866TIP3    H224014   1.460   1.199  16.343 -0.1633  0.3485 -0.0506
  867TIP3   OH224015   1.145   4.187  16.064  0.6043 -0.0083  0.3876
  867TIP3    H124016   1.099   4.207  16.145  3.7258  1.3556  2.0231
  867TIP3    H224017   1.112   4.250  16.000  1.2547  2.0056  1.9390
  868TIP3   OH224018   5.450   3.552  12.602  0.3607  0.2956  1.1967
  868TIP3    H124019   5.506   3.500  12.544  0.9403  0.8280  1.2734
  868TIP3    H224020   5.403   3.487  12.655  1.0551 -0.1469  1.2745
  869TIP3   OH224021   5.691   0.848  11.876 -0.3582 -0.4250  0.9053
  869TIP3    H124022   5.754   0.864  11.805 -1.1540  0.2660  0.3436
  869TIP3    H224023   5.730   0.892  11.952 -0.2438  0.1684  0.5161
  870TIP3   OH224024   4.089   0.475  13.868  0.4245  0.0503  0.0610
  870TIP3    H124025   4.133   0.491  13.951  1.6800 -0.8451 -0.3981
  870TIP3    H224026   4.142   0.408  13.825 -0.9545 -0.5027 -0.8752
  871TIP3   OH224027   5.422   1.683  11.171 -0.4556  0.6295  0.5293
  871TIP3    H124028   5.422   1.705  11.264  1.1599  0.7215  0.5394
  871TIP3    H224029   5.473   1.753  11.130 -0.6191  0.2553 -0.3450
  872TIP3   OH224030   2.490   0.733  12.916  0.0963  0.5719  0.4661
  872TIP3    H124031   2.448   0.679  12.850  0.8144 -2.4881  2.2963
  872TIP3    H224032   2.581   0.739  12.888 -0.1133  1.4049 -0.0561
  873TIP3   OH224033   0.774   4.582  13.918  0.1484  1.2928  0.2866
  873TIP3    H124034   0.756   4.529  13.841  2.1807  1.0571 -0.0575
  873TIP3    H224035   0.763   4.522  13.992  0.9794  0.7698 -0.0076
  874TIP3   OH224036   3.617   4.354   3.444  0.7505  0.0697  0.3600
  874TIP3    H124037   3.554   4.381   3.377  0.1519  0.1982  0.9646
  874TIP3    H224038   3.630   4.260   3.429  1.2468  0.2526 -0.4375
  875TIP3   OH224039   5.306   5.293  11.318  0.5918  0.3256  0.1079
  875TIP3    H124040   5.218   5.309  11.285  0.8715 -1.5199 -1.7570
  875TIP3    H224041   5.296   5.287  11.413 -1.0736  1.2357  0.0259
  876TIP3   OH224042   1.446   5.512   3.508 -0.0859  0.8647 -0.1570
  876TIP3    H124043   1.445   5.521   3.603  0.1686  0.9646 -0.1645
  876TIP3    H224044   1.515   5.571   3.478  0.8081 -0.2066 -0.2893
  877TIP3   OH224045   2.125   2.968  13.471 -0.0706 -0.5429 -0.2465
  877TIP3    H124046   2.152   3.027  13.541 -0.4182  0.3472 -0.8327
  877TIP3    H224047   2.029   2.973  13.471 -0.0702 -0.3659 -0.9058
  878TIP3   OH224048   0.992   4.138   0.708  0.1031 -0.7027 -1.0553
  878TIP3    H124049   1.031   4.181   0.784  2.6275 -2.8953 -0.9353
  878TIP3    H224050   0.946   4.207   0.661 -0.4448  0.9858  1.7437
  879TIP3   OH224051   1.886   5.519   3.188 -0.3971  0.3837  0.7491
  879TIP3    H124052   1.873   5.473   3.271 -0.5483 -0.1019  0.4618
  879TIP3    H224053   1.839   5.466   3.124 -0.4586  0.8695  0.3868
  880TIP3   OH224054   5.744   2.339  17.187  0.0818  0.0008  0.0202
  880TIP3    H124055   5.682   2.342  17.114 -0.9919  2.0417  0.9244
  880TIP3    H224056   5.690   2.355  17.265  1.3323 -1.2032  1.2015
  881TIP3   OH224057   0.396   3.171  14.195  0.2795 -0.2114 -0.2218
  881TIP3    H124058   0.489   3.192  14.197  0.0416  0.9338  0.0972
  881TIP3    H224059   0.355   3.240  14.248 -0.7401 -0.7411 -0.2861
  882TIP3   OH224060   1.787   1.831  14.856 -0.0790  0.3027 -0.5212
  882TIP3    H124061   1.811   1.777  14.931 -1.4126 -1.4564 -1.2834
  882TIP3    H224062   1.698   1.861  14.875  0.5697  2.1513 -0.1931
  883TIP3   OH224063   2.545   1.192  12.838 -0.4129 -0.2189  0.7910
  883TIP3    H124064   2.546   1.270  12.894 -0.7756 -1.0233  1.9691
  883TIP3    H224065   2.484   1.132  12.882  0.8577 -1.6821  0.6352
  884TIP3   OH224066   5.702   2.998  13.104 -0.0038 -0.1349 -0.0305
  884TIP3    H124067   5.734   3.085  13.124 -0.0729 -0.7002  3.0204
  884TIP3    H224068   5.778   2.941  13.118 -0.5406 -0.7791  0.3013
  885TIP3   OH224069   0.697   1.509   1.840 -0.2128 -0.0767 -0.7501
  885TIP3    H124070   0.698   1.582   1.903  0.8875  0.2017 -1.0647
  885TIP3    H224071   0.681   1.551   1.756  3.1416  0.2308 -1.3610
  886TIP3   OH224072   4.671   4.660  16.179  0.3357  0.1921 -0.2539
  886TIP3    H124073   4.646   4.750  16.202 -0.2982 -0.2315  0.8149
  886TIP3    H224074   4.757   4.648  16.219  0.0156  0.0398  0.4107
  887TIP3   OH224075   1.386   3.003   1.797  0.0592  0.0493  0.2206
  887TIP3    H124076   1.413   2.964   1.880 -1.5715 -0.3588  0.6042
  887TIP3    H224077   1.350   3.088   1.821 -4.0118 -1.5658  0.5807
  888TIP3   OH224078   0.195   5.932  11.030  0.2623 -0.4003 -0.1821
  888TIP3    H124079   0.259   5.905  11.097 -0.0491 -2.3209 -0.6005
  888TIP3    H224080   0.249   5.955  10.954  0.5617  0.7643  0.3500
  889TIP3   OH224081   6.472   6.221  13.853 -0.1057  0.1267  0.4018
  889TIP3    H124082   6.449   6.157  13.920 -1.1311  1.8391  1.7586
  889TIP3    H224083   6.398   6.220  13.792 -0.3129  0.3064  0.6492
  890TIP3   OH224084   1.430   0.450  14.126 -0.8874 -0.5889 -0.3311
  890TIP3    H124085   1.525   0.462  14.123 -0.9566  0.4733  0.7537
  890TIP3    H224086   1.418   0.359  14.151 -0.1781 -1.0864 -1.7559
  891TIP3   OH224087   0.853   2.880  13.169 -0.0328 -0.0953 -0.6098
  891TIP3    H124088   0.919   2.895  13.102  0.4514 -0.8048 -0.3069
  891TIP3    H224089   0.793   2.816  13.130  0.8137 -1.2790 -0.0138
  892TIP3   OH224090   0.499   0.374   5.558 -0.2246 -0.2434  0.5729
  892TIP3    H124091   0.519   0.445   5.619 -3.2884  0.5146  0.8752
  892TIP3    H224092   0.433   0.321   5.603  2.1823 -3.6384  0.5104
  893TIP3   OH224093   5.539   3.342  14.356 -0.3765  0.2671  0.5714
  893TIP3    H124094   5.622   3.386  14.376  0.3686 -1.3866  1.2692
  893TIP3    H224095   5.560   3.285  14.281 -0.6240 -0.8047  1.2938
  894TIP3   OH224096   2.051   6.082   2.764  0.1101  0.0637 -0.2485
  894TIP3    H124097   1.984   6.045   2.707 -0.1444  0.1109  0.0196
  894TIP3    H224098   2.059   6.173   2.736  0.0780  0.0531 -0.2933
  895TIP3   OH224099   2.429   1.895  12.937  0.6397 -0.0606 -0.3067
  895TIP3    H124100   2.343   1.901  12.896  0.6875 -0.1893 -0.4289
  895TIP3    H224101   2.449   1.984  12.966  2.1516  0.8364 -3.7063
  896TIP3   OH224102   5.161   1.428   0.792  0.1879 -0.0013  0.0385
  896TIP3    H124103   5.134   1.343   0.757  1.4282 -0.1793 -0.5152
  896TIP3    H224104   5.226   1.461   0.730  0.5781  0.8247  0.8564
  897TIP3   OH224105   1.635   2.468   0.286 -0.1896  0.0443  0.4905
  897TIP3    H124106   1.726   2.494   0.268 -0.7295  0.7677 -1.4922
  897TIP3    H224107   1.630   2.376   0.261 -0.4219  0.4982 -1.2222
  898TIP3   OH224108   4.646   5.744  11.397 -0.2469  0.1721  0.4143
  898TIP3    H124109   4.616   5.834  11.381 -0.2604  0.1383  0.2517
  898TIP3    H224110   4.573   5.703  11.443  0.2821  0.6384  1.7284
  899TIP3   OH224111   0.215   5.229   2.864 -0.3117 -0.0742 -0.2348
  899TIP3    H124112   0.305   5.202   2.845 -0.0717  0.5364  0.0275
  899TIP3    H224113   0.199   5.302   2.805 -0.5183  0.0444 -0.0331
  900TIP3   OH224114   4.376   6.787   2.406 -0.1948  0.4134  0.3372
  900TIP3    H124115   4.323   6.864   2.429 -3.2749 -1.8021  1.4107
  900TIP3    H224116   4.379   6.735   2.486 -1.0451 -2.0307 -1.0981
  901TIP3   OH224117   2.992   5.921   1.345  0.0249  0.2427 -0.0371
  901TIP3    H124118   2.988   5.895   1.253  1.1360  1.4566 -0.4583
  901TIP3    H224119   3.074   5.882   1.377 -0.5506 -0.5008  0.5630
  902TIP3   OH224120   5.598   1.780   4.721 -0.0166  0.0471  0.4520
  902TIP3    H124121   5.598   1.804   4.628  1.5307 -0.1427  0.3780
  902TIP3    H224122   5.594   1.684   4.721 -2.0604  0.0861  0.6597
  903TIP3   OH224123   5.358   0.042  16.072  0.7204 -0.3594 -0.3378
  903TIP3    H124124   5.405   0.108  16.124  0.9632 -1.8613  1.4531
  903TIP3    H224125   5.267   0.051  16.100  0.5598 -0.0305 -0.9518
  904TIP3   OH224126   2.608   1.256   1.828 -0.1934 -0.4660  0.5333
  904TIP3    H124127   2.552   1.262   1.906  0.0991  3.2834  0.6328
  904TIP3    H224128   2.547   1.252   1.755 -0.5084 -0.5468  0.7986
  905TIP3   OH224129   1.131   0.656   2.413  0.0109 -0.1985 -0.3017
  905TIP3    H124130   1.153   0.564   2.425  1.2679 -0.0460 -1.2283
  905TIP3    H224131   1.077   0.658   2.334  0.8915 -0.0590 -0.9257
  906TIP3   OH224132   6.717   5.990  16.557 -0.6269 -0.2668 -0.5928
  906TIP3    H124133   6.712   6.063  16.494  2.9056 -0.7072 -1.5999
  906TIP3    H224134   6.690   5.913  16.507 -0.8898 -0.1625 -0.6128
  907TIP3   OH224135   3.512   0.552   2.999 -0.3512  0.2835 -0.3328
  907TIP3    H124136   3.447   0.557   3.070  1.1934 -0.3713  1.1834
  907TIP3    H224137   3.501   0.634   2.951 -1.6185  0.6240  0.4899
  908TIP3   OH224138   2.124   3.096   0.175 -0.6481 -0.4528 -0.0901
  908TIP3    H124139   2.123   3.022   0.114 -1.4423 -0.0772 -0.5512
  908TIP3    H224140   2.212   3.133   0.166 -0.0005 -1.7353  0.6515
  909TIP3   OH224141   3.913   3.611   2.006  0.4441 -0.5552  0.1791
  909TIP3    H124142   3.838   3.573   1.960 -0.2904  0.6946  0.2991
  909TIP3    H224143   3.981   3.545   1.999 -1.0447 -2.2658  1.1300
  910TIP3   OH224144   3.252   2.963  16.600 -0.3266  0.2004 -0.0638
  910TIP3    H124145   3.186   2.909  16.643  0.1471 -1.1449 -0.9391
  910TIP3    H224146   3.204   3.011  16.532 -0.7901  1.0927  0.8677
  911TIP3   OH224147   0.941   1.513  14.879  0.1746 -0.2348  0.0455
  911TIP3    H124148   1.017   1.551  14.923 -0.0847  0.2932  0.0463
  911TIP3    H224149   0.940   1.422  14.908  0.8476 -0.2701 -0.0123
  912TIP3   OH224150   4.048   0.726  13.256 -0.1127 -0.0417 -0.2164
  912TIP3    H124151   4.095   0.773  13.326  1.1917 -1.8282  0.1892
  912TIP3    H224152   3.957   0.726  13.285  0.5421 -1.7615  2.1991
  913TIP3   OH224153   3.735   5.737   3.459 -0.1062 -0.4945 -0.1506
  913TIP3    H124154   3.718   5.763   3.369 -1.9315 -1.0144 -0.0055
  913TIP3    H224155   3.769   5.648   3.453 -0.7788 -0.7447 -0.3085
  914TIP3   OH224156   6.722   1.692  16.166 -0.2941 -0.3347  0.5301
  914TIP3    H124157   6.791   1.743  16.209  0.9887 -0.5758 -1.1460
  914TIP3    H224158   6.766   1.651  16.092 -1.7490 -2.3562  0.7285
  915TIP3   OH224159   4.207   2.358  12.535  0.0710 -0.5338 -0.2445
  915TIP3    H124160   4.299   2.345  12.557  0.2367 -1.0784 -1.1927
  915TIP3    H224161   4.200   2.331  12.443 -1.6432 -3.5255  0.6501
  916TIP3   OH224162   2.845   0.542  13.499 -0.0021 -0.1326  0.0039
  916TIP3    H124163   2.854   0.599  13.576  1.6686 -0.5826  0.1844
  916TIP3    H224164   2.863   0.599  13.425  0.6864 -0.1880  0.1191
  917TIP3   OH224165   1.937   4.050   1.988  0.2323  0.8578 -0.8240
  917TIP3    H124166   1.896   3.966   1.964  3.3528 -1.3961  0.9091
  917TIP3    H224167   1.870   4.096   2.038 -0.5949 -2.2722  1.2744
  918TIP3   OH224168   4.706   6.752   4.717 -0.3853  0.0494 -0.3033
  918TIP3    H124169   4.659   6.816   4.770  0.4634  0.4202  0.0225
  918TIP3    H224170   4.681   6.773   4.627  0.7793  1.6224 -0.2989
  919TIP3   OH224171   2.118   3.291  11.328  0.4566  0.3212 -0.4134
  919TIP3    H124172   2.063   3.320  11.255  0.7001  0.9204 -0.3679
  919TIP3    H224173   2.174   3.367  11.347 -0.0648  0.4107  0.8382
  920TIP3   OH224174   3.374   1.713  15.938  0.6709  0.4218 -0.2969
  920TIP3    H124175   3.317   1.650  15.981  2.2244  0.4992  2.1160
  920TIP3    H224176   3.324   1.794  15.937 -0.2578 -0.1402 -0.7661
  921TIP3   OH224177   6.146   1.738   3.015 -0.3530  0.0641 -0.0391
  921TIP3    H124178   6.131   1.692   3.098  0.3579  2.5013  1.5432
  921TIP3    H224179   6.075   1.802   3.010 -0.7964 -0.5181 -1.7258
  922TIP3   OH224180   1.811   4.523   2.830  0.4114  0.2045 -0.5873
  922TIP3    H124181   1.901   4.551   2.815  0.5194  0.8222  1.0462
  922TIP3    H224182   1.809   4.496   2.921 -0.6544 -1.4710 -1.0522
  923TIP3   OH224183   1.082   6.428   1.622  0.0026  0.4800 -0.4823
  923TIP3    H124184   1.157   6.478   1.591  0.9821 -0.8937 -0.4437
  923TIP3    H224185   1.114   6.385   1.702 -1.1836  0.7479  0.1507
  924TIP3   OH224186   1.905   2.993   0.305 -0.3981 -0.3024 -0.0199
  924TIP3    H124187   1.830   3.051   0.321  0.6628  0.5570  2.3641
  924TIP3    H224188   1.973   3.052   0.272 -0.0408 -0.6381  0.1130
  925TIP3   OH224189   0.651   4.100   2.551 -0.1394  0.2326  0.1267
  925TIP3    H124190   0.710   4.027   2.533 -0.8958  0.0210 -1.7917
  925TIP3    H224191   0.708   4.171   2.580  0.9855 -0.1720 -1.0117
  926TIP3   OH224192   1.491   1.821  14.008 -0.4449 -0.2872 -0.4631
  926TIP3    H124193   1.460   1.892  14.064  0.9682  0.3243 -0.4112
  926TIP3    H224194   1.579   1.848  13.981  0.6455 -2.5685  0.5252
  927TIP3   OH224195   6.068   2.106   5.008 -0.4923 -0.1943 -0.2572
  927TIP3    H124196   6.152   2.060   5.009 -0.1880  0.3622  1.2720
  927TIP3    H224197   6.017   2.067   5.079 -0.6089  1.1138  0.4074
  928TIP3   OH224198   2.213   5.931  12.582 -0.2033  0.1335  0.0609
  928TIP3    H124199   2.233   5.988  12.507  0.0534 -0.8527 -0.6426
  928TIP3    H224200   2.299   5.904  12.615 -0.3182 -0.7040 -0.2976
  929TIP3   OH224201   4.667   5.105   6.246 -0.1186 -0.2407 -0.1249
  929TIP3    H124202   4.616   5.183   6.271 -0.3969 -0.7457  0.9524
  929TIP3    H224203   4.755   5.139   6.230  0.0543  0.1684  1.4563
  930TIP3   OH224204   0.586   3.450   4.864 -0.2607  0.2505  0.3226
  930TIP3    H124205   0.559   3.493   4.945 -0.5426  1.5883 -0.4621
  930TIP3    H224206   0.616   3.521   4.807 -0.2008 -0.6497 -0.8104
  931TIP3   OH224207   5.310   5.051  16.853  0.3070  0.2189  0.0087
  931TIP3    H124208   5.379   5.118  16.852  1.0863 -0.5078  1.5768
  931TIP3    H224209   5.357   4.968  16.857 -0.6548 -0.4550 -1.5291
  932TIP3   OH224210   2.224   0.244   5.356  0.5190  0.1843  0.4391
  932TIP3    H124211   2.157   0.178   5.340  0.1986 -0.0012  2.3834
  932TIP3    H224212   2.234   0.247   5.451  2.9789  0.5162  0.2495
  933TIP3   OH224213   3.836   1.931  16.745  0.0233 -0.1996  0.1688
  933TIP3    H124214   3.746   1.952  16.769 -0.0783  0.0754 -0.4299
  933TIP3    H224215   3.886   1.941  16.826 -0.6089 -1.1379  0.6754
  934TIP3   OH224216   4.500   4.182  14.913  0.9320 -0.0334 -1.2071
  934TIP3    H124217   4.490   4.233  14.993  0.5366 -0.4043 -1.0171
  934TIP3    H224218   4.475   4.093  14.938  3.5669 -0.7983 -0.9711
  935TIP3   OH224219   5.463   2.073   5.816 -0.1354  0.5238  0.2115
  935TIP3    H124220   5.552   2.049   5.844  0.3187  1.2900 -0.5227
  935TIP3    H224221   5.406   2.028   5.878  0.7992  1.7706  2.0675
  936TIP3   OH224222   1.498   3.702  14.468 -0.6380 -0.6343  0.1949
  936TIP3    H124223   1.508   3.682  14.561  0.4920 -2.4520 -0.2748
  936TIP3    H224224   1.406   3.684  14.449 -0.5662 -1.5698  0.6930
  937TIP3   OH224225   1.823   1.238   1.184 -0.1006  0.1398  0.0502
  937TIP3    H124226   1.833   1.144   1.193  1.7930  0.3388  0.4431
  937TIP3    H224227   1.852   1.274   1.268 -0.9396  1.0673 -0.0370
  938TIP3   OH224228   4.045   4.926   3.169  0.0410  0.0307  0.5525
  938TIP3    H124229   4.072   4.946   3.080 -1.8781 -1.5284 -0.4475
  938TIP3    H224230   3.996   5.003   3.198 -0.4963  0.0131 -0.2784
  939TIP3   OH224231   5.105   3.569   0.551  0.3929  0.3596 -0.2035
  939TIP3    H124232   5.191   3.529   0.566  0.6322  1.0246  0.2760
  939TIP3    H224233   5.059   3.559   0.634 -0.3112 -0.7176 -0.7049
  940TIP3   OH224234   3.427   0.121  11.962  0.2329  0.0527  0.1387
  940TIP3    H124235   3.468   0.183  12.022  0.2761 -0.1238  0.2921
  940TIP3    H224236   3.467   0.037  11.983  0.4145  0.0269 -0.2904
  941TIP3   OH224237   2.436   1.078  12.568  0.0208  0.0755 -0.5407
  941TIP3    H124238   2.508   1.128  12.607  1.1981 -2.2486  0.5126
  941TIP3    H224239   2.369   1.076  12.637  0.9105 -1.5821  0.3553
  942TIP3   OH224240   0.206   2.268  16.749 -0.7274  0.5218 -0.1379
  942TIP3    H124241   0.190   2.334  16.682  0.8144  0.6235 -0.4467
  942TIP3    H224242   0.136   2.281  16.813 -2.8955 -0.2906 -2.2097
  943TIP3   OH224243   3.091   6.580   4.534 -0.3517 -0.3301  0.1695
  943TIP3    H124244   3.052   6.497   4.505 -2.1095  0.4705  0.1152
  943TIP3    H224245   3.043   6.647   4.486  2.1049  0.7226 -1.0236
  944TIP3   OH224246   2.457   4.623   3.995  0.0262 -0.3541  0.1292
  944TIP3    H124247   2.423   4.622   3.906 -0.7917  1.6384  0.3774
  944TIP3    H224248   2.400   4.684   4.042  0.1322 -1.7286  2.1626
  945TIP3   OH224249   4.413   3.149  16.366  0.4016 -0.0925  1.1769
  945TIP3    H124250   4.471   3.220  16.395 -0.0153  1.8742 -2.2839
  945TIP3    H224251   4.325   3.180  16.386  0.2833 -0.2385  0.8862
  946TIP3   OH224252   2.751   3.592  15.516  0.1053  0.4837 -0.3291
  946TIP3    H124253   2.830   3.592  15.462  0.4924  2.7278  0.1364
  946TIP3    H224254   2.705   3.512  15.491  1.3543  0.3198 -2.3604
  947TIP3   OH224255   5.516   2.066   0.911 -0.8237 -0.8372  0.5488
  947TIP3    H124256   5.555   2.154   0.907 -1.7259 -0.2543  3.0324
  947TIP3    H224257   5.433   2.078   0.957 -1.5825 -2.8277 -0.1804
  948TIP3   OH224258   2.462   2.027  13.635  0.1264  0.8864  0.6369
  948TIP3    H124259   2.534   1.986  13.682  0.0020  0.8518  0.8023
  948TIP3    H224260   2.493   2.035  13.545 -1.0303 -2.7030 -0.2677
  949TIP3   OH224261   2.890   6.055  16.125 -0.2092  0.2160  0.2962
  949TIP3    H124262   2.933   5.997  16.188  0.2705 -0.3511 -0.5281
  949TIP3    H224263   2.856   5.996  16.058 -0.9682  0.7881  0.1599
  950TIP3   OH224264   6.139   4.778  16.901  0.5291 -0.2443 -0.4054
  950TIP3    H124265   6.183   4.723  16.835  1.6081 -1.3634  1.1640
  950TIP3    H224266   6.055   4.734  16.916  0.5132 -0.2975 -0.6469
  951TIP3   OH224267   2.868   6.769   4.547 -0.4451 -0.0493 -0.3533
  951TIP3    H124268   2.916   6.825   4.609 -1.7946  1.0330 -0.2427
  951TIP3    H224269   2.835   6.829   4.481  0.5417 -1.1292 -1.8935
  952TIP3   OH224270   4.046   3.367   6.844  0.3897  0.2389 -0.2774
  952TIP3    H124271   4.134   3.333   6.862  0.8622  0.3435 -2.1966
  952TIP3    H224272   3.997   3.292   6.809  0.6728  0.8531 -2.1036
  953TIP3   OH224273   4.177   5.194   5.293 -0.1332 -0.0064 -0.3674
  953TIP3    H124274   4.094   5.199   5.245 -0.4588  0.2197  0.2099
  953TIP3    H224275   4.213   5.283   5.288 -0.2922  0.0827  0.0158
  954TIP3   OH224276   1.836   2.664   2.756  0.1894 -0.2374  0.1439
  954TIP3    H124277   1.822   2.652   2.662 -3.5359  1.2248  0.3038
  954TIP3    H224278   1.812   2.580   2.794  0.9088 -0.5869 -0.1699
  955TIP3   OH224279   3.847   2.122   1.987  0.5720 -0.1857 -0.1296
  955TIP3    H124280   3.909   2.162   1.927 -1.5528  1.9435 -1.0943
  955TIP3    H224281   3.793   2.195   2.019 -1.8525 -1.9201  0.0985
  956TIP3   OH224282   1.105   3.541   0.482  0.2702  0.0471  0.4016
  956TIP3    H124283   1.026   3.535   0.429  0.0775  1.6601  0.4465
  956TIP3    H224284   1.164   3.597   0.431  0.6887  0.3148  1.1585
  957TIP3   OH224285   5.117   4.202   5.626  0.6408  0.1436 -0.1992
  957TIP3    H124286   5.188   4.239   5.572  1.4177  0.1299  0.7714
  957TIP3    H224287   5.137   4.233   5.715 -0.6515  0.2360  0.0788
  958TIP3   OH224288   6.034   4.219  13.521  0.3641 -0.2013 -0.5737
  958TIP3    H124289   5.995   4.298  13.558  0.6474 -1.2073  2.0858
  958TIP3    H224290   6.045   4.240  13.428  0.2679  2.7970 -0.0304
  959TIP3   OH224291   6.241   1.615  13.468 -0.0003  0.1776  0.0824
  959TIP3    H124292   6.277   1.682  13.526  0.9476  0.4080 -0.7385
  959TIP3    H224293   6.179   1.662  13.412 -1.7217 -0.2311  1.5399
  960TIP3   OH224294   1.853   4.854   2.051 -0.7981  0.0434  0.1002
  960TIP3    H124295   1.790   4.888   1.987  0.3057 -0.2380 -1.1829
  960TIP3    H224296   1.907   4.793   2.001 -0.9012 -1.4210  1.6839
  961TIP3   OH224297   6.601   0.291   4.259  0.8741 -0.1253 -0.2128
  961TIP3    H124298   6.600   0.237   4.338 -0.2047 -0.9564 -0.7521
  961TIP3    H224299   6.508   0.307   4.240  1.1094 -0.0215 -1.3516
  962TIP3   OH224300   1.149   5.602  12.617 -0.8008  0.0494 -0.6767
  962TIP3    H124301   1.239   5.608  12.650 -1.0765  0.2727  0.0676
  962TIP3    H224302   1.154   5.539  12.545 -0.4555 -1.8989  0.9452
  963TIP3   OH224303   0.914   5.542   5.718 -0.1804  0.2519  0.7099
  963TIP3    H124304   0.968   5.558   5.641  0.8163  0.7350  1.4802
  963TIP3    H224305   0.827   5.572   5.693  0.4397  1.7606  0.2488
  964TIP3   OH224306   5.191   2.485   3.027  0.9114 -0.1749 -0.5637
  964TIP3    H124307   5.286   2.477   3.033  0.8076 -1.0137  0.2282
  964TIP3    H224308   5.159   2.397   3.046 -0.0298  0.1496 -0.6137
  965TIP3   OH224309   1.052   6.296   1.086 -0.0196  0.1235  0.0350
  965TIP3    H124310   0.983   6.231   1.076  0.1888 -0.2128  0.7580
  965TIP3    H224311   1.124   6.263   1.032  0.4552 -0.7777  1.1844
  966TIP3   OH224312   1.545   0.039  13.239 -0.5111  0.1438  0.5252
  966TIP3    H124313   1.574   0.065  13.151 -0.7932 -1.6620 -0.1449
  966TIP3    H224314   1.451   0.025  13.230 -0.2473 -1.8943  0.5942
  967TIP3   OH224315   1.300   4.988   5.644 -0.2695 -0.5645 -0.4483
  967TIP3    H124316   1.211   5.017   5.664  0.0837  0.0595  0.2734
  967TIP3    H224317   1.317   4.918   5.708 -0.1343 -0.4647 -0.3738
  968TIP3   OH224318   6.391   2.475   5.155  0.4782  0.6082  0.2294
  968TIP3    H124319   6.413   2.453   5.064  0.2342  1.2526  0.0099
  968TIP3    H224320   6.311   2.426   5.172  1.0463 -0.2829  0.4265
  969TIP3   OH224321   1.858   3.725   0.197  0.6496  0.1444  0.4313
  969TIP3    H124322   1.799   3.792   0.165  1.4694  1.0350  0.7326
  969TIP3    H224323   1.809   3.680   0.265  0.0145  0.2908  0.0766
  970TIP3   OH224324   3.356   4.196  17.091  0.3930 -0.2074 -0.0484
  970TIP3    H124325   3.363   4.266  17.155 -0.3468  0.2098 -0.4043
  970TIP3    H224326   3.279   4.219  17.038  0.5110 -0.9558 -0.5729
  971TIP3   OH224327   3.688   3.847   0.373  0.5234 -0.5787 -0.1451
  971TIP3    H124328   3.595   3.823   0.376 -0.4328  2.3300 -1.9845
  971TIP3    H224329   3.714   3.828   0.282  1.1239  0.4405 -0.2027
  972TIP3   OH224330   1.271   2.559  16.480  0.2581  0.3140 -0.2474
  972TIP3    H124331   1.197   2.607  16.516 -1.4691 -1.4771 -1.1861
  972TIP3    H224332   1.283   2.485  16.540  0.6385  0.0390 -0.6572
  973TIP3   OH224333   1.100   2.096   4.961  0.3348  0.2904  0.5613
  973TIP3    H124334   1.071   2.188   4.957 -2.6055 -0.4592  1.9023
  973TIP3    H224335   1.072   2.066   5.047  3.0525 -1.3976  0.9560
  974TIP3   OH224336   1.401   6.459   4.612 -0.3097  0.5162 -0.3366
  974TIP3    H124337   1.424   6.425   4.699  2.6993  2.1945 -0.3340
  974TIP3    H224338   1.344   6.534   4.629  2.0693  2.2764  0.4977
  975TIP3   OH224339   1.501   1.439   5.432 -0.3036 -0.4347 -0.5565
  975TIP3    H124340   1.409   1.460   5.450 -1.0727  1.0367 -4.9667
  975TIP3    H224341   1.546   1.524   5.435  0.4421 -0.8240 -0.5979
  976TIP3   OH224342   2.521   6.458  14.495 -0.2985 -0.4839  0.0471
  976TIP3    H124343   2.489   6.505  14.572  0.2921 -1.2310  0.7739
  976TIP3    H224344   2.582   6.518  14.453 -1.4515  0.3510 -0.4726
  977TIP3   OH224345   5.150   1.438   4.335  0.2473 -0.0664 -0.5801
  977TIP3    H124346   5.073   1.415   4.388  0.1202  0.6322 -0.4553
  977TIP3    H224347   5.130   1.525   4.301  1.4066  0.5515  0.2581
  978TIP3   OH224348   5.550   3.924   2.680 -0.0189  0.1303 -0.2051
  978TIP3    H124349   5.591   3.974   2.609 -1.5837  1.1062 -0.4558
  978TIP3    H224350   5.624   3.891   2.732  1.1334  0.1861 -1.7315
  979TIP3   OH224351   4.077   1.329  15.683 -0.0302  0.4082  0.0268
  979TIP3    H124352   4.145   1.390  15.710  0.3807  0.4194 -0.9689
  979TIP3    H224353   4.114   1.284  15.607 -0.2347 -1.2427  0.8519
  980TIP3   OH224354   2.972   6.442  15.005 -0.2200 -0.1294 -0.2843
  980TIP3    H124355   3.042   6.471  14.946  0.4843 -0.7240  0.2441
  980TIP3    H224356   2.978   6.501  15.080  0.9731 -1.3357  0.6236
  981TIP3   OH224357   5.656   4.655   1.358 -0.1259  0.1710 -0.5435
  981TIP3    H124358   5.599   4.699   1.422 -1.9730 -1.6978 -0.7819
  981TIP3    H224359   5.660   4.716   1.284 -1.0383  0.7736 -0.1227
  982TIP3   OH224360   3.484   6.758  13.506  0.4644 -0.0247  0.6264
  982TIP3    H124361   3.402   6.806  13.491  0.7692  0.6944  1.1919
  982TIP3    H224362   3.467   6.671  13.471 -0.7764 -0.0900  1.3022
  983TIP3   OH224363   5.506   4.121  11.424 -0.4000  0.2823  0.6626
  983TIP3    H124364   5.561   4.199  11.417  1.7367 -1.1320  0.6640
  983TIP3    H224365   5.500   4.103  11.518  1.7326 -1.2073  0.5903
  984TIP3   OH224366   0.051   4.686  15.615  0.3780 -0.3801  0.0343
  984TIP3    H124367  -0.043   4.686  15.631  0.4285  0.4705  0.3732
  984TIP3    H224368   0.070   4.598  15.580 -0.7487 -0.1224 -1.2959
  985TIP3   OH224369   0.989   5.890  15.226  0.2286 -0.1623  0.4885
  985TIP3    H124370   1.063   5.840  15.260  0.5831 -0.5019 -0.7179
  985TIP3    H224371   0.968   5.848  15.143  0.3162  1.4758 -0.4114
  986TIP3   OH224372   4.649   5.655   5.252  0.2475  0.2018 -0.0904
  986TIP3    H124373   4.725   5.706   5.281  0.1684 -0.0644  0.5940
  986TIP3    H224374   4.650   5.577   5.306 -0.8165  0.4376  0.2869
  987TIP3   OH224375   3.879   1.337   0.511 -0.2379 -0.6019 -0.1673
  987TIP3    H124376   3.867   1.242   0.509 -1.2261 -0.5854  2.2071
  987TIP3    H224377   3.791   1.373   0.522 -0.0957  0.7510 -2.6359
  988TIP3   OH224378   2.993   2.056  12.506 -0.5255 -0.2266 -0.3518
  988TIP3    H124379   2.927   2.044  12.574 -1.2480 -1.8404 -1.2833
  988TIP3    H224380   2.942   2.065  12.425  0.3237  1.2594 -0.7588
  989TIP3   OH224381   3.292   0.994   2.446 -0.1812 -0.2828  0.4127
  989TIP3    H124382   3.334   0.908   2.454 -0.0595 -0.1497  1.3413
  989TIP3    H224383   3.212   0.986   2.497 -1.7674 -0.7770 -1.9652
  990TIP3   OH224384   0.105   2.668   4.002  0.1083  0.5374 -0.2002
  990TIP3    H124385   0.034   2.650   3.941 -0.9424 -1.2379  1.4082
  990TIP3    H224386   0.135   2.581   4.030 -0.0886  1.2144  2.4253
  991TIP3   OH224387   0.971   5.913  16.092 -0.1270 -0.2087  0.3399
  991TIP3    H124388   0.947   5.829  16.052  0.0813  0.3792 -1.0881
  991TIP3    H224389   0.935   5.979  16.032  0.3884  0.7195  1.0230
  992TIP3   OH224390   4.837   2.168  13.471  0.2412  0.2319  0.3404
  992TIP3    H124391   4.743   2.159  13.486  0.0105  0.3696 -0.8822
  992TIP3    H224392   4.874   2.084  13.498 -0.3931 -0.2462 -0.2353
  993TIP3   OH224393   0.459   2.041  17.233  0.0877 -0.5017 -0.6178
  993TIP3    H124394   0.442   1.960  17.186 -1.5133 -0.3585 -0.3337
  993TIP3    H224395   0.396   2.104  17.196 -1.1625 -0.3629  1.6122
  994TIP3   OH224396   3.356   5.672  14.139 -0.2506 -0.9457  0.7180
  994TIP3    H124397   3.304   5.651  14.216 -2.3394  1.1609  0.0308
  994TIP3    H224398   3.400   5.754  14.161 -0.0504 -0.8632  0.0408
  995TIP3   OH224399   4.306   1.353   5.229  0.1566 -0.1204  0.3432
  995TIP3    H124400   4.229   1.404   5.252  0.4575  0.3893  0.2293
  995TIP3    H224401   4.271   1.269   5.200 -0.3683  0.1988  0.0365
  996TIP3   OH224402   5.835   2.712  16.539  0.6210 -0.3498 -0.0642
  996TIP3    H124403   5.810   2.679  16.452 -0.4234  1.9458 -0.7173
  996TIP3    H224404   5.752   2.714  16.587  0.9616 -0.2642  0.5212
  997TIP3   OH224405   6.031   6.802  14.786 -0.1921  0.2340 -0.3172
  997TIP3    H124406   6.015   6.748  14.709 -0.0180  0.7464 -0.7233
  997TIP3    H224407   6.116   6.773  14.819  0.4052  0.9597 -1.1555
  998TIP3   OH224408   2.689   6.656  14.398  0.3645 -0.0587  0.2565
  998TIP3    H124409   2.720   6.643  14.308 -0.9889  0.3158 -0.2790
  998TIP3    H224410   2.608   6.706  14.389 -0.8756 -1.7215  1.5376
  999TIP3   OH224411   5.374   1.407  16.683 -0.7052  0.7114 -0.1100
  999TIP3    H124412   5.407   1.495  16.667  0.5094  0.5372  1.2721
  999TIP3    H224413   5.311   1.391  16.612  1.0145  1.6602 -1.9242
 1000TIP3   OH224414   4.024   5.148  17.228 -0.2162  0.0843 -0.2549
 1000TIP3    H124415   3.947   5.154  17.284  0.6822 -0.3860  1.0736
 1000TIP3    H224416   4.048   5.239  17.209  0.6994  0.3475  1.9097
 1001TIP3   OH224417   0.447   0.566  13.252 -0.6371 -0.7027  0.0150
 1001TIP3    H124418   0.493   0.540  13.172 -0.0718 -0.6553  0.3146
 1001TIP3    H224419   0.389   0.637  13.224  0.7320  0.4437 -0.0755
 1002TIP3   OH224420   5.653   0.142   4.302  0.0395  0.0855  0.5843
 1002TIP3    H124421   5.587   0.211   4.304 -1.0056 -0.8928  1.4925
 1002TIP3    H224422   5.615   0.073   4.248  0.6778 -0.1522  0.4268
 1003TIP3   OH224423   2.973   0.470  17.064 -0.0767 -0.3230 -0.0614
 1003TIP3    H124424   2.935   0.553  17.093 -1.4938 -0.8493 -0.3645
 1003TIP3    H224425   2.921   0.403  17.108  1.1951 -1.0681  0.3485
 1004TIP3   OH224426   0.952   6.110   6.110  0.0863  0.0149 -0.5757
 1004TIP3    H124427   0.901   6.115   6.190  0.1624  0.2377 -0.5390
 1004TIP3    H224428   1.018   6.043   6.127 -0.8162 -0.9976 -0.9860
 1005TIP3   OH224429   4.279   6.493   1.778  0.2145 -0.3264 -0.0190
 1005TIP3    H124430   4.334   6.425   1.740  1.1292  0.4930 -0.2274
 1005TIP3    H224431   4.324   6.575   1.757  0.8138  0.2066  2.8214
 1006TIP3   OH224432   3.777   5.974   0.664  0.4071  0.3221 -0.3559
 1006TIP3    H124433   3.778   5.879   0.677  0.1007  0.2415 -0.9194
 1006TIP3    H224434   3.865   6.002   0.690  1.3338 -0.4238 -2.4729
 1007TIP3   OH224435   3.333   6.304  12.739 -0.2710  0.2152 -0.1056
 1007TIP3    H124436   3.268   6.357  12.692 -0.8233  0.1928  0.6133
 1007TIP3    H224437   3.365   6.242  12.674 -0.3392  0.7872 -0.6977
 1008TIP3   OH224438   0.459   1.118  15.077  0.7703 -0.1504 -0.3904
 1008TIP3    H124439   0.452   1.109  14.982 -0.4777 -0.7671 -0.2586
 1008TIP3    H224440   0.369   1.121  15.108  1.1580  0.1538  0.7714
 1009TIP3   OH224441   2.200   3.369   0.791  0.1602  0.1201  0.1864
 1009TIP3    H124442   2.195   3.274   0.803  1.6244 -0.0508 -0.3433
 1009TIP3    H224443   2.148   3.385   0.712 -0.1601 -0.2215  0.3202
 1010TIP3   OH224444   0.587   5.805  12.025 -0.5410 -0.4353  0.1367
 1010TIP3    H124445   0.654   5.784  11.959  0.5191  1.8304  0.3953
 1010TIP3    H224446   0.516   5.846  11.975  0.0472  0.8265  0.2982
 1011TIP3   OH224447   2.611   2.465  14.560 -0.1883  0.4498  0.2700
 1011TIP3    H124448   2.617   2.397  14.627  0.0032  1.4173  1.2714
 1011TIP3    H224449   2.530   2.446  14.513 -0.3405 -0.2276  0.7945
 1012TIP3   OH224450   2.148   6.060  13.856 -0.3741 -0.4625  0.2932
 1012TIP3    H124451   2.115   6.042  13.944 -0.0696  0.6621  0.6634
 1012TIP3    H224452   2.194   6.144  13.865 -0.1739 -0.4299 -0.8948
 1013TIP3   OH224453   0.778   4.540  12.844  0.0799 -0.3315 -0.2348
 1013TIP3    H124454   0.795   4.573  12.932  1.2798 -1.6525  0.0669
 1013TIP3    H224455   0.706   4.477  12.855 -1.1633  0.9607 -0.5686
 1014TIP3   OH224456   1.276   4.253   1.155  0.2937  0.0111  0.1576
 1014TIP3    H124457   1.371   4.262   1.157  0.3606 -0.7237  1.5282
 1014TIP3    H224458   1.245   4.313   1.222 -0.3904  1.6236 -1.5032
 1015TIP3   OH224459   3.005   1.118  14.628 -0.0048  0.5434  0.3340
 1015TIP3    H124460   3.022   1.178  14.556 -0.8480  1.7328  1.1029
 1015TIP3    H224461   3.089   1.108  14.672  0.0964  1.3531  0.3313
 1016TIP3   OH224462   5.468   4.054  14.306 -0.0979  0.3711 -0.0138
 1016TIP3    H124463   5.500   3.964  14.312 -1.4315 -0.0836  0.7153
 1016TIP3    H224464   5.436   4.063  14.216  0.9714  0.4644 -0.3984
 1017TIP3   OH224465   6.422   1.892   4.762 -0.5857 -0.3600  0.4067
 1017TIP3    H124466   6.464   1.810   4.736  0.8769  0.4168  0.2166
 1017TIP3    H224467   6.489   1.959   4.747 -2.0933  1.0236 -0.4552
 1018TIP3   OH224468   1.975   0.754   3.357 -0.3052 -0.1318 -0.2845
 1018TIP3    H124469   2.013   0.710   3.434 -0.5646  1.1960  0.6300
 1018TIP3    H224470   1.880   0.744   3.368 -0.3952  1.2641  0.3209
 1019TIP3   OH224471   0.477   4.587   0.950  0.0210 -0.4805 -0.7389
 1019TIP3    H124472   0.557   4.624   0.988  0.5089  0.8798 -2.8800
 1019TIP3    H224473   0.495   4.493   0.944 -0.1797 -0.7977  2.4220
 1020TIP3   OH224474   0.637   5.064   5.745  0.2628  0.0470 -0.0735
 1020TIP3    H124475   0.566   5.126   5.727 -1.8999 -2.1738  0.2922
 1020TIP3    H224476   0.622   5.036   5.836  1.0162 -1.1558 -0.2991
 1021TIP3   OH224477   1.813   2.950  13.541  0.2645 -0.8902  0.5457
 1021TIP3    H124478   1.793   2.943  13.634 -0.8375 -0.4892  0.3518
 1021TIP3    H224479   1.773   2.873  13.501  0.6788 -1.0293  0.3886
 1022TIP3   OH224480   4.574   0.997   0.934  0.4006 -0.3316 -0.2641
 1022TIP3    H124481   4.528   0.954   0.863  0.2425 -0.2015 -0.2395
 1022TIP3    H224482   4.507   1.013   1.001  0.2724  0.7472 -0.6320
 1023TIP3   OH224483   1.953   5.967   5.702 -0.5064  0.0785 -0.0222
 1023TIP3    H124484   1.994   5.930   5.780 -0.4966 -1.9737 -0.9363
 1023TIP3    H224485   2.021   5.964   5.635 -0.6169  1.4900 -0.2272
 1024TIP3   OH224486   2.282   1.746   1.459 -0.5671 -0.5573 -0.0685
 1024TIP3    H124487   2.288   1.820   1.519 -0.6767  0.4337 -1.2422
 1024TIP3    H224488   2.229   1.779   1.385 -1.7453 -2.2105 -0.0243
 1025TIP3   OH224489   5.893   6.535   4.433 -0.1132 -0.3088  0.1389
 1025TIP3    H124490   5.906   6.485   4.353 -0.9796  0.1674 -0.3146
 1025TIP3    H224491   5.879   6.625   4.403 -0.3984 -0.1131  0.8266
 1026TIP3   OH224492   6.235   5.883  15.502 -0.0890  0.2492 -0.9632
 1026TIP3    H124493   6.276   5.826  15.436 -0.4325 -0.4472 -0.5949
 1026TIP3    H224494   6.297   5.954  15.515  1.3611 -1.1413  0.0787
 1027TIP3   OH224495   6.584   5.735  11.300 -0.0594  0.4018  0.4589
 1027TIP3    H124496   6.626   5.809  11.256 -2.6140  0.3078 -2.4422
 1027TIP3    H224497   6.492   5.759  11.306 -0.4570 -1.3029  2.2768
 1028TIP3   OH224498   1.546   0.255  16.209  0.2295  0.3151 -0.2089
 1028TIP3    H124499   1.611   0.317  16.178  0.2508  0.7933  0.7426
 1028TIP3    H224500   1.586   0.216  16.287 -0.0000 -0.5078 -0.4941
 1029TIP3   OH224501   4.141   5.622  16.858 -0.9237 -0.3635  0.0337
 1029TIP3    H124502   4.093   5.650  16.780  1.3554  3.1135 -0.3424
 1029TIP3    H224503   4.225   5.591  16.824  0.5002  2.1432  1.0031
 1030TIP3   OH224504   0.797   0.442  12.491 -0.0741 -0.4186  0.5304
 1030TIP3    H124505   0.727   0.409  12.548 -1.9180 -0.5389 -1.6668
 1030TIP3    H224506   0.798   0.382  12.417 -0.1860  1.6403 -1.2369
 1031TIP3   OH224507   0.157   5.595   2.340 -0.4644 -0.3743 -0.2413
 1031TIP3    H124508   0.196   5.589   2.253 -0.4754 -1.0489 -0.2086
 1031TIP3    H224509   0.215   5.545   2.397 -0.5343 -0.0594  0.1123
 1032TIP3   OH224510   3.864   6.444   4.917  0.5732 -0.1931  0.4275
 1032TIP3    H124511   3.815   6.382   4.863 -0.5692 -0.4303  1.7026
 1032TIP3    H224512   3.799   6.504   4.951  1.5128  0.9956  0.2031
 1033TIP3   OH224513   6.534   2.934   1.626  0.1349 -0.5406  0.2279
 1033TIP3    H124514   6.629   2.936   1.615  0.0898 -1.6472 -0.5529
 1033TIP3    H224515   6.515   2.843   1.652 -0.5986 -0.0310  1.5979
 1034TIP3   OH224516   1.457   5.798  11.302  0.0529  0.1723  0.0751
 1034TIP3    H124517   1.452   5.716  11.252 -2.2784 -0.6973  1.5741
 1034TIP3    H224518   1.443   5.867  11.237 -0.1961 -0.7552 -0.8837
 1035TIP3   OH224519   2.076   2.465  17.036  0.1782 -0.1423 -0.1219
 1035TIP3    H124520   2.095   2.390  17.093 -0.5619 -0.7986 -0.7270
 1035TIP3    H224521   2.162   2.491  17.003  0.4739 -0.5728  0.2800
 1036TIP3   OH224522   2.794   1.968  12.729  0.5115  0.9920 -0.3849
 1036TIP3    H124523   2.750   2.048  12.700 -0.1798  1.2691  1.3165
 1036TIP3    H224524   2.843   1.994  12.807 -1.1301 -0.5564  1.2603
 1037TIP3   OH224525   4.576   3.373   4.501 -0.1277 -0.0474 -0.6239
 1037TIP3    H124526   4.590   3.345   4.592  2.0316 -1.8029 -1.4037
 1037TIP3    H224527   4.501   3.321   4.472  0.4418 -1.0346 -0.4042
 1038TIP3   OH224528   2.145   0.054  15.644  0.0187  0.4313 -0.1467
 1038TIP3    H124529   2.131  -0.018  15.583 -0.3243  1.3647 -1.1938
 1038TIP3    H224530   2.231   0.089  15.620 -0.8784  1.9499 -1.3554
 1039TIP3   OH224531   5.423   0.196  11.138  0.5094  0.0770  0.2276
 1039TIP3    H124532   5.332   0.213  11.161 -0.3838 -0.3891 -2.5338
 1039TIP3    H224533   5.422   0.111  11.095  2.4167 -0.2921  0.7971
 1040TIP3   OH224534   4.950   0.793   4.027  0.1502  0.2867 -0.5651
 1040TIP3    H124535   5.010   0.841   3.970  1.8661 -1.4407 -0.3249
 1040TIP3    H224536   4.977   0.702   4.017 -0.7159 -0.2515  1.6118
 1041TIP3   OH224537   5.644   1.078  14.704  0.5447  0.0275  0.1745
 1041TIP3    H124538   5.735   1.052  14.690  0.0905 -1.3893 -0.2911
 1041TIP3    H224539   5.601   1.000  14.738 -0.2111  1.0719  1.7745
 1042TIP3   OH224540   5.183   4.948  10.667 -0.3237 -0.0291 -0.4855
 1042TIP3    H124541   5.183   4.992  10.752  0.9905 -0.3531 -0.2878
 1042TIP3    H224542   5.273   4.917  10.656 -0.0834  1.2061 -2.6351
 1043TIP3   OH224543   5.711   1.758  15.998  0.1024 -0.8789 -0.8420
 1043TIP3    H124544   5.643   1.693  15.982 -0.2569 -0.4040 -1.2714
 1043TIP3    H224545   5.776   1.742  15.929  0.2034 -1.0314 -0.7124
 1044TIP3   OH224546   5.521   6.509  16.720 -0.3108  0.4471  0.1763
 1044TIP3    H124547   5.457   6.440  16.738 -0.5532  0.6198 -0.0030
 1044TIP3    H224548   5.576   6.512  16.798  0.6661 -0.9829 -0.4381
 1045TIP3   OH224549   6.222   4.736   0.115 -0.4514  0.6291 -0.2695
 1045TIP3    H124550   6.217   4.811   0.174  1.2307  0.6993 -0.1898
 1045TIP3    H224551   6.201   4.772   0.029 -0.6590  0.9725 -0.0790
 1046TIP3   OH224552   5.787   0.474   2.611  0.8397  0.3295  0.2428
 1046TIP3    H124553   5.847   0.536   2.654 -0.6400  0.6072  2.0406
 1046TIP3    H224554   5.704   0.521   2.605  0.1901 -0.8228 -0.1228
 1047TIP3   OH224555   3.514   1.418  14.009 -0.0555 -0.1722  0.3805
 1047TIP3    H124556   3.442   1.463  14.052 -1.0817 -0.2197 -1.1803
 1047TIP3    H224557   3.587   1.423  14.071 -1.8589 -1.6788  2.7971
 1048TIP3   OH224558   2.346   1.119  16.204 -0.2079  0.3090  0.3211
 1048TIP3    H124559   2.353   1.104  16.110 -0.7605 -0.7875  0.4356
 1048TIP3    H224560   2.343   1.214  16.213 -0.3153  0.4234 -0.7792
 1049TIP3   OH224561   2.227   6.447  16.921  0.1893 -0.0762  0.2633
 1049TIP3    H124562   2.196   6.356  16.916 -1.8168  0.6225 -1.3226
 1049TIP3    H224563   2.233   6.465  17.014 -0.8090 -1.4056  0.6172
 1050TIP3   OH224564   2.491   1.352   4.730 -0.1743  0.1239 -0.3290
 1050TIP3    H124565   2.446   1.330   4.811  0.5282  0.1991  0.0864
 1050TIP3    H224566   2.521   1.268   4.695  0.0792  0.1532 -0.1818
 1051TIP3   OH224567   6.170   0.307  11.916  0.0973 -0.2746  0.6165
 1051TIP3    H124568   6.217   0.228  11.941  0.0803 -0.4129  0.2066
 1051TIP3    H224569   6.152   0.351  11.999  2.9696  0.9515  0.7154
 1052TIP3   OH224570   5.888   0.774   6.018  0.0097  0.0835  0.4244
 1052TIP3    H124571   5.837   0.695   6.035  0.3950 -0.1177  0.6505
 1052TIP3    H224572   5.976   0.754   6.050 -0.4039  1.3757  2.6019
 1053TIP3   OH224573   6.206   4.650  13.016  0.0784 -0.1665  0.5416
 1053TIP3    H124574   6.239   4.708  12.948  1.3301 -1.0448  0.3788
 1053TIP3    H224575   6.204   4.564  12.976  0.2522 -0.5947  1.4208
 1054TIP3   OH224576   5.435   4.353  13.918  0.3505  0.8147 -0.4868
 1054TIP3    H124577   5.393   4.428  13.877  0.0846 -0.0463 -1.8766
 1054TIP3    H224578   5.451   4.293  13.845  1.1989 -0.1700  0.4837
 1055TIP3   OH224579   0.882   5.820  12.380  0.1713  0.8743  0.0739
 1055TIP3    H124580   0.802   5.845  12.334 -0.3204 -0.4410  0.1771
 1055TIP3    H224581   0.852   5.778  12.460  0.9478  0.1368 -0.0060
 1056TIP3   OH224582   5.450   0.989  11.575  0.1669 -0.2179 -0.1810
 1056TIP3    H124583   5.463   1.035  11.657  1.9905 -1.3874  0.2553
 1056TIP3    H224584   5.405   1.052  11.519  1.9742  1.8893  0.5724
 1057TIP3   OH224585   5.285   3.030  15.569 -0.7204 -0.0026  0.0041
 1057TIP3    H124586   5.199   2.990  15.561 -0.5350 -0.4169  0.0723
 1057TIP3    H224587   5.333   3.000  15.491 -0.5152 -0.0800  0.1587
 1058TIP3   OH224588   0.418   3.109   4.055  0.0128  0.0445 -0.4909
 1058TIP3    H124589   0.470   3.165   3.997 -1.7270  0.8472 -1.3497
 1058TIP3    H224590   0.391   3.168   4.126 -1.3054  0.1635 -1.0718
 1059TIP3   OH224591   1.723   5.081   6.247  0.3247 -0.4020  0.1163
 1059TIP3    H124592   1.668   5.010   6.212  0.4874 -0.1644 -0.6346
 1059TIP3    H224593   1.770   5.040   6.319 -0.2207 -0.8330  0.2402
 1060TIP3   OH224594   4.516   2.813  14.741 -0.1836 -0.4176 -0.6611
 1060TIP3    H124595   4.458   2.889  14.742 -2.8368 -2.2728 -0.9206
 1060TIP3    H224596   4.496   2.769  14.659  0.0005 -2.2500  0.2275
 1061TIP3   OH224597   2.863   0.812  15.542 -0.1426 -0.0092 -0.0238
 1061TIP3    H124598   2.923   0.763  15.486  0.5494  0.7573  0.0300
 1061TIP3    H224599   2.916   0.837  15.618 -1.1463 -1.3099  1.1584
 1062TIP3   OH224600   2.072   3.087   5.898 -0.0368 -0.6027 -0.2437
 1062TIP3    H124601   2.155   3.117   5.936 -1.1324  0.3663  1.5398
 1062TIP3    H224602   2.076   2.992   5.902  2.0344 -0.7284 -2.6725
 1063TIP3   OH224603   4.643   4.632  12.410  0.2983 -0.2524 -0.5170
 1063TIP3    H124604   4.647   4.691  12.486  1.4294 -0.4945 -0.3731
 1063TIP3    H224605   4.718   4.574  12.421  0.6428 -0.1090 -1.9868
 1064TIP3   OH224606   3.320   5.361   0.768  0.1424 -0.1042  0.3932
 1064TIP3    H124607   3.274   5.329   0.846 -1.9926 -1.4856 -1.3497
 1064TIP3    H224608   3.309   5.456   0.771  0.3688 -0.0979  1.9112
 1065TIP3   OH224609   3.148   1.608   0.947 -0.5424  0.1492  0.1961
 1065TIP3    H124610   3.136   1.565   0.862  0.3423 -0.5750  0.4210
 1065TIP3    H224611   3.094   1.686   0.942  1.5751  1.6267 -2.1001
 1066TIP3   OH224612   4.867   6.570  14.249  0.2235  0.7066  0.3542
 1066TIP3    H124613   4.959   6.558  14.225  0.6925  0.8570  1.9454
 1066TIP3    H224614   4.863   6.658  14.285 -1.0058  1.4868 -1.5628
 1067TIP3   OH224615   3.971   6.770  15.405  0.9122  0.0093  0.9826
 1067TIP3    H124616   3.897   6.743  15.350  0.8611 -0.8081  1.4442
 1067TIP3    H224617   4.016   6.838  15.353  0.3187 -0.0761  0.3485
 1068TIP3   OH224618   4.588   1.104  15.302  0.3081  0.1851 -0.2549
 1068TIP3    H124619   4.632   1.167  15.245  1.2352 -0.2766 -0.0673
 1068TIP3    H224620   4.602   1.138  15.390  0.5421 -0.1165 -0.1743
 1069TIP3   OH224621   4.037   4.792  11.407 -0.0548  0.2183  0.5379
 1069TIP3    H124622   4.046   4.812  11.500 -0.5149  3.3924  0.0142
 1069TIP3    H224623   4.125   4.766  11.379  0.4865  0.9247  1.5306
 1070TIP3   OH224624   1.355   1.889   5.910  0.0041  0.4276 -0.2424
 1070TIP3    H124625   1.377   1.798   5.888  0.0450  0.0932  1.1034
 1070TIP3    H224626   1.279   1.909   5.855 -1.3259 -1.1376  0.9066
 1071TIP3   OH224627   5.661   1.888   2.721  0.2260 -0.0737  0.3473
 1071TIP3    H124628   5.687   1.980   2.714  1.0870 -0.2280  1.2699
 1071TIP3    H224629   5.569   1.890   2.747 -0.6526  0.4986 -2.5049
 1072TIP3   OH224630   3.485   5.813  11.769  0.3086  0.6879 -0.0955
 1072TIP3    H124631   3.475   5.792  11.676 -0.2328 -2.0788  0.4937
 1072TIP3    H224632   3.527   5.899  11.770  3.3754 -0.5768 -2.9243
 1073TIP3   OH224633   5.095   1.838  15.022 -0.0005  0.2731 -0.2383
 1073TIP3    H124634   5.128   1.777  14.956 -1.1818  0.1554 -0.7495
 1073TIP3    H224635   5.123   1.924  14.991  0.4060  0.1226 -0.2951
 1074TIP3   OH224636   4.028   3.615  11.901 -0.2200 -0.3146  0.2474
 1074TIP3    H124637   4.068   3.626  11.815  0.1753 -0.6794  0.3813
 1074TIP3    H224638   4.101   3.618  11.962 -0.3349 -1.4164  0.4660
 1075TIP3   OH224639   3.205   0.157   1.075  0.2203  0.3870  0.3356
 1075TIP3    H124640   3.269   0.146   1.005  0.9457 -1.4348  1.2258
 1075TIP3    H224641   3.145   0.083   1.064  0.5403 -0.1155  1.8106
 1076TIP3   OH224642   2.897   5.851   5.669 -0.5084  0.8133 -0.1089
 1076TIP3    H124643   2.987   5.836   5.640 -0.1955 -1.5716  1.7840
 1076TIP3    H224644   2.892   5.945   5.683  0.8726  1.3672 -2.6285
 1077TIP3   OH224645   3.678   1.828  13.990  0.1303 -0.5090 -0.4182
 1077TIP3    H124646   3.695   1.868  13.905 -0.3805 -0.2805 -0.4171
 1077TIP3    H224647   3.616   1.888  14.033  1.1219 -0.1064  0.5088
 1078TIP3   OH224648   1.502   3.060   5.797 -0.7175 -0.1092  0.0281
 1078TIP3    H124649   1.510   3.013   5.880  2.6886  0.5808  0.1969
 1078TIP3    H224650   1.533   2.997   5.732 -1.7143 -0.0432 -0.5281
 1079TIP3   OH224651   4.644   1.346   0.223 -0.1904  0.2554 -0.8140
 1079TIP3    H124652   4.632   1.385   0.310 -3.1584 -0.9787 -0.5494
 1079TIP3    H224653   4.607   1.410   0.163 -0.0886  0.2126 -0.9213
 1080TIP3   OH224654   6.448   4.707   4.203 -0.1274  0.0812 -0.0402
 1080TIP3    H124655   6.472   4.799   4.189  0.2587 -0.2930 -2.3143
 1080TIP3    H224656   6.521   4.658   4.166 -1.3211 -1.1023 -0.9331
 1081TIP3   OH224657   0.718   2.374   1.097  0.6219  0.1326  0.1390
 1081TIP3    H124658   0.684   2.420   1.173 -0.5368  1.1675 -0.9651
 1081TIP3    H224659   0.692   2.283   1.110 -1.6462  0.6905 -0.0994
 1082TIP3   OH224660   4.939   2.845   6.579 -0.2381 -0.4248 -0.2971
 1082TIP3    H124661   4.873   2.908   6.549  1.1498 -0.0263 -2.8730
 1082TIP3    H224662   5.023   2.887   6.558  0.9428 -0.6965  3.3113
 1083TIP3   OH224663   3.126   1.049   1.701 -0.4933  0.3238  0.3092
 1083TIP3    H124664   3.057   1.000   1.657 -0.3336  1.5284 -1.3642
 1083TIP3    H224665   3.127   1.134   1.657  1.6646  0.5432  0.6784
 1084TIP3   OH224666   3.367   6.079   0.383  0.5009 -0.4089 -0.1119
 1084TIP3    H124667   3.416   6.111   0.458 -1.0469  0.0118  0.7789
 1084TIP3    H224668   3.431   6.031   0.330  1.5074 -1.2346  1.7723
 1085TIP3   OH224669   2.131   5.964   0.967 -0.2029  0.3315  0.2379
 1085TIP3    H124670   2.093   5.936   0.884 -3.4838  0.4071  1.5541
 1085TIP3    H224671   2.066   6.024   1.004  0.6862 -0.3973  3.2499
 1086TIP3   OH224672   0.688   1.461   2.750  0.4085 -0.1149  0.1250
 1086TIP3    H124673   0.609   1.459   2.804 -0.1996  1.0803 -0.6823
 1086TIP3    H224674   0.738   1.384   2.778 -0.5877 -0.3610  1.3138
 1087TIP3   OH224675   0.565   5.474  14.885 -0.1041 -0.0713 -0.1613
 1087TIP3    H124676   0.556   5.404  14.821 -1.0984  0.1397 -0.2757
 1087TIP3    H224677   0.581   5.429  14.968 -1.3984 -0.4991 -0.1118
 1088TIP3   OH224678   5.449   5.579   3.653 -0.4890 -0.1481  0.2682
 1088TIP3    H124679   5.529   5.593   3.705 -0.8796 -0.6320  1.0233
 1088TIP3    H224680   5.413   5.497   3.686 -0.7090 -0.5210 -0.8559
 1089TIP3   OH224681   5.915   5.528   1.215 -0.0564  0.1509 -0.5819
 1089TIP3    H124682   5.845   5.476   1.254 -0.0376 -0.6918 -1.6130
 1089TIP3    H224683   5.890   5.619   1.232 -1.2069 -0.1455 -0.5914
 1090TIP3   OH224684   3.002   4.863  13.927 -0.5589  0.1217  0.0097
 1090TIP3    H124685   3.015   4.772  13.900 -4.2429 -0.0632 -1.7137
 1090TIP3    H224686   2.945   4.857  14.004 -0.9656  0.9672 -0.2187
 1091TIP3   OH224687   3.470   5.942   5.213 -0.2239 -0.5481 -0.3744
 1091TIP3    H124688   3.434   5.954   5.125 -0.8070 -1.1369 -0.2277
 1091TIP3    H224689   3.550   5.994   5.214 -1.7197  1.9401 -0.3131
 1092TIP3   OH224690   5.862   5.627  15.185  0.2744  0.3103  0.2735
 1092TIP3    H124691   5.954   5.652  15.183  0.5366 -0.6268  0.3941
 1092TIP3    H224692   5.822   5.691  15.244  1.2189 -0.4172  1.7822
 1093TIP3   OH224693   5.793   1.471  12.559 -0.1871 -0.0476 -0.4675
 1093TIP3    H124694   5.850   1.422  12.499 -0.4756  0.7165 -1.3827
 1093TIP3    H224695   5.784   1.557  12.519  0.9174  1.0499  1.4882
 1094TIP3   OH224696   4.943   3.072   4.828 -0.1531 -0.4735  0.1812
 1094TIP3    H124697   4.944   3.052   4.922  0.6051 -2.1828 -0.1588
 1094TIP3    H224698   4.978   2.993   4.786  1.1527  0.8816 -1.4263
 1095TIP3   OH224699   6.180   0.790   2.637 -0.0504  0.7488 -0.0264
 1095TIP3    H124700   6.205   0.840   2.715 -0.3841  1.4104 -0.3383
 1095TIP3    H224701   6.246   0.815   2.572  1.2263 -1.0434  0.4851
 1096TIP3   OH224702   4.975   2.746  11.203 -0.0144  0.1259 -0.1841
 1096TIP3    H124703   5.045   2.735  11.138 -0.1233 -5.4541  0.1298
 1096TIP3    H224704   4.895   2.725  11.155 -0.5926 -0.0748  0.8554
 1097TIP3   OH224705   3.883   1.863  14.426 -0.0096  0.1504 -0.2008
 1097TIP3    H124706   3.868   1.770  14.440  0.6104 -0.1560 -1.3968
 1097TIP3    H224707   3.887   1.873  14.331  0.4232  1.3190 -0.0883
 1098TIP3   OH224708   3.903   5.098   4.715  0.1352  0.2602 -0.0028
 1098TIP3    H124709   3.963   5.023   4.719  1.4364  1.2573 -0.0429
 1098TIP3    H224710   3.950   5.162   4.661 -0.6977  1.3217  0.5182
 1099TIP3   OH224711   4.610   6.671  14.253 -0.7362 -0.1311 -0.7480
 1099TIP3    H124712   4.681   6.688  14.316 -0.8264  0.8777 -0.9005
 1099TIP3    H224713   4.620   6.579  14.230  0.7671  0.0695 -1.0422
 1100TIP3   OH224714   3.820   3.768  14.932  0.3683 -0.4834  0.2532
 1100TIP3    H124715   3.753   3.707  14.901 -0.5112  0.6056 -0.0521
 1100TIP3    H224716   3.901   3.737  14.891 -0.4579 -0.1308 -1.7796
 1101TIP3   OH224717   0.213   3.531  13.250 -0.1285  0.1808  0.2019
 1101TIP3    H124718   0.229   3.474  13.175  2.7111 -1.9823  2.2371
 1101TIP3    H224719   0.154   3.482  13.307 -0.4506  0.8163  0.4329
 1102TIP3   OH224720   2.953   2.355  11.478 -0.1416 -0.3013  0.9315
 1102TIP3    H124721   3.011   2.392  11.411 -1.6246  0.1160 -0.1737
 1102TIP3    H224722   2.893   2.427  11.500 -1.0184 -1.0819  1.1363
 1103TIP3   OH224723   1.391   3.193  13.923  0.2710 -0.1909 -0.1626
 1103TIP3    H124724   1.459   3.209  13.989  0.2109 -0.5321 -0.0158
 1103TIP3    H224725   1.314   3.168  13.973 -0.2784  1.1901 -0.2623
 1104TIP3   OH224726   4.363   1.762   3.195  0.3814 -0.5251  0.2623
 1104TIP3    H124727   4.415   1.826   3.244 -0.7449 -0.5962  1.5985
 1104TIP3    H224728   4.280   1.807   3.178  1.0729 -0.1155 -2.5364
 1105TIP3   OH224729   5.758   5.512  15.763 -0.0430  0.1123 -0.0562
 1105TIP3    H124730   5.697   5.439  15.763 -0.4022  0.3977  0.9664
 1105TIP3    H224731   5.752   5.549  15.851  0.9075  0.7279 -0.2309
 1106TIP3   OH224732   0.524   5.052   3.775 -0.8922  0.0408  0.0863
 1106TIP3    H124733   0.483   5.090   3.853 -2.3403  0.7457 -0.9570
 1106TIP3    H224734   0.617   5.068   3.787 -1.1117  0.4448  1.5012
 1107TIP3   OH224735   3.187   2.923  14.231  0.0754  0.7266 -0.1007
 1107TIP3    H124736   3.201   2.925  14.325 -0.8039 -1.2904  0.1384
 1107TIP3    H224737   3.093   2.939  14.220  0.0578  0.3361 -0.5755
 1108TIP3   OH224738   3.095   4.250  14.706 -0.0108  0.0059  0.4748
 1108TIP3    H124739   3.008   4.241  14.666 -0.2337  2.7159  0.2250
 1108TIP3    H224740   3.155   4.211  14.642 -0.8602 -0.2690 -0.1681
 1109TIP3   OH224741   5.389   6.498   0.309  0.2807  0.2950 -0.0819
 1109TIP3    H124742   5.294   6.498   0.323  0.1008  1.2143 -1.1494
 1109TIP3    H224743   5.416   6.408   0.329 -0.9000 -0.1279 -0.3053
 1110TIP3   OH224744   2.079   1.853  14.526 -0.0465  0.2903 -0.2527
 1110TIP3    H124745   2.085   1.774  14.473  0.4112  0.7586 -0.9195
 1110TIP3    H224746   2.164   1.895  14.516 -0.8810  1.8115 -1.4279
 1111TIP3   OH224747   3.713   5.112  12.836  0.1042  0.0831  0.3542
 1111TIP3    H124748   3.685   5.203  12.830  0.5729  0.1568 -1.2546
 1111TIP3    H224749   3.799   5.115  12.878  0.6458  0.5185 -0.7463
 1112TIP3   OH224750   2.755   3.941  15.428 -0.0039  0.6173 -0.1413
 1112TIP3    H124751   2.694   3.905  15.364 -0.3751  0.1296  0.4840
 1112TIP3    H224752   2.841   3.908  15.401 -0.5054 -2.0819  1.3115
 1113TIP3   OH224753   5.491   0.883   4.254 -0.2134  0.0754  0.3685
 1113TIP3    H124754   5.441   0.960   4.225  0.0066  1.2931  2.9031
 1113TIP3    H224755   5.426   0.812   4.255 -0.6614  0.4407 -1.0991
 1114TIP3   OH224756   0.967   2.049   5.528  0.6487 -0.3620 -0.2645
 1114TIP3    H124757   0.971   1.958   5.560  0.4817  0.9863  4.2689
 1114TIP3    H224758   0.874   2.063   5.510  0.7445 -1.1464 -1.5871
 1115TIP3   OH224759   4.766   1.690  13.376  0.0224  0.2804 -0.0075
 1115TIP3    H124760   4.702   1.699  13.305 -1.2111 -0.6659  0.9470
 1115TIP3    H224761   4.726   1.629  13.437  2.3428 -1.2236  0.1149
 1116TIP3   OH224762   1.825   2.602  16.340  0.1927  0.1768 -0.0365
 1116TIP3    H124763   1.899   2.639  16.389  0.3559  1.9342 -1.4840
 1116TIP3    H224764   1.755   2.594  16.405  1.4054 -0.8779  1.2102
 1117TIP3   OH224765   1.862   5.363   5.162 -0.0763 -0.2680 -0.5258
 1117TIP3    H124766   1.802   5.408   5.102 -0.9731  1.9484  1.8387
 1117TIP3    H224767   1.806   5.302   5.210 -0.5223  1.6208  1.5069
 1118TIP3   OH224768   5.792   2.898   0.713 -0.1293  0.0204  0.2134
 1118TIP3    H124769   5.809   2.815   0.757 -1.3194 -0.5657 -0.3885
 1118TIP3    H224770   5.854   2.959   0.752 -0.3931 -0.7336  1.8839
 1119TIP3   OH224771   4.079   5.283   5.753  0.1875 -0.0626 -0.4531
 1119TIP3    H124772   4.098   5.207   5.807  1.3068  0.3082 -0.2922
 1119TIP3    H224773   4.155   5.341   5.765 -0.2733  0.7251 -1.1806
 1120TIP3   OH224774   1.331   3.528  12.278 -0.7540 -0.4761  0.3245
 1120TIP3    H124775   1.291   3.612  12.254  0.0968  0.1794  1.1222
 1120TIP3    H224776   1.366   3.494  12.196 -2.4287 -0.8060 -0.2911
 1121TIP3   OH224777   5.820   3.660   4.549  0.0323  0.2543  0.1979
 1121TIP3    H124778   5.872   3.706   4.615 -0.5539 -1.0055  1.6089
 1121TIP3    H224779   5.782   3.729   4.495 -0.2857  1.4019  1.8086
 1122TIP3   OH224780   2.556   2.623   0.053  0.7694  0.1247  0.4318
 1122TIP3    H124781   2.652   2.627   0.047  0.6674  0.4509 -2.2956
 1122TIP3    H224782   2.532   2.544   0.005 -0.3735  1.1176 -0.7393
 1123TIP3   OH224783   2.966   2.104   1.358  0.0051 -0.1831  0.5945
 1123TIP3    H124784   3.016   2.165   1.305  1.4035 -1.3053  0.5841
 1123TIP3    H224785   2.896   2.074   1.300 -1.4372  2.1841  0.9374
 1124TIP3   OH224786   2.121   3.554  16.747  0.2134  0.1001  0.1708
 1124TIP3    H124787   2.128   3.525  16.838  1.2281  1.9283  0.7215
 1124TIP3    H224788   2.209   3.581  16.723  0.2137 -1.3687 -1.7781
 1125TIP3   OH224789   5.167   2.904  11.851  0.1014 -0.8229 -0.4745
 1125TIP3    H124790   5.136   2.981  11.899  0.1925 -0.8504 -0.3701
 1125TIP3    H224791   5.099   2.887  11.786  0.2545 -0.4389 -0.7365
 1126TIP3   OH224792   6.706   5.566  12.810  0.2835  0.4554 -0.0526
 1126TIP3    H124793   6.754   5.493  12.772 -0.1784  0.8066 -1.3660
 1126TIP3    H224794   6.768   5.639  12.810 -0.3420  1.0770 -2.3104
 1127TIP3   OH224795   6.428   2.351  13.876 -0.3346  0.2602  0.1421
 1127TIP3    H124796   6.354   2.301  13.912  0.5969  0.0729  1.8907
 1127TIP3    H224797   6.497   2.285  13.864  1.0651  1.0857  2.8901
 1128TIP3   OH224798   4.705   2.574  11.542 -0.3082 -0.0701  0.0709
 1128TIP3    H124799   4.769   2.574  11.613 -0.0687  0.6404 -0.1409
 1128TIP3    H224800   4.684   2.666  11.528 -1.1227 -0.2663 -0.0960
 1129TIP3   OH224801   4.281   2.720  10.549 -0.3240  0.3690 -0.4723
 1129TIP3    H124802   4.211   2.669  10.509 -0.3953  0.8728 -1.0170
 1129TIP3    H224803   4.326   2.761  10.474  0.9797 -0.4867 -0.1849
 1130TIP3   OH224804   0.494   6.233   3.390 -0.6931 -0.3084 -0.6464
 1130TIP3    H124805   0.486   6.268   3.302 -2.8694  2.5214  0.5055
 1130TIP3    H224806   0.414   6.182   3.403 -1.6348  1.3433  0.4131
 1131TIP3   OH224807   0.378   3.586   4.709 -0.3685 -0.2250 -0.1389
 1131TIP3    H124808   0.406   3.497   4.687  0.8388  0.2358 -0.5656
 1131TIP3    H224809   0.360   3.628   4.625  3.2222  1.2092 -0.3908
 1132TIP3   OH224810   4.028   1.714   0.160  0.4561 -0.0261 -0.0173
 1132TIP3    H124811   4.031   1.778   0.231 -1.1945  1.4123 -1.1396
 1132TIP3    H224812   4.032   1.629   0.203  0.0816  0.8044  1.7449
 1133TIP3   OH224813   1.873   0.895   1.392 -0.9773  0.0085  0.8513
 1133TIP3    H124814   1.864   0.932   1.304 -2.1007  0.3076  1.0793
 1133TIP3    H224815   1.917   0.964   1.442  0.8663 -0.6621  0.2287
 1134TIP3   OH224816   1.071   3.473   1.131 -0.2483  0.9317 -0.1763
 1134TIP3    H124817   1.032   3.387   1.114  0.0553  0.5396  1.0378
 1134TIP3    H224818   1.007   3.535   1.097 -0.2821  0.2335 -1.4599
 1135TIP3   OH224819   1.641   5.571   1.203  0.0450 -0.2624  0.2365
 1135TIP3    H124820   1.621   5.659   1.237  1.0363  0.2106 -0.3560
 1135TIP3    H224821   1.624   5.513   1.276 -0.0577  0.4973  0.8307
 1136TIP3   OH224822   0.136   0.220   1.000 -0.3481 -0.6697 -0.8497
 1136TIP3    H124823   0.060   0.163   1.004 -0.3687 -0.5975 -0.1386
 1136TIP3    H224824   0.109   0.300   1.045 -0.7982  0.4906 -3.0344
 1137TIP3   OH224825   0.432   5.897   2.457 -0.2151  0.2556 -0.1446
 1137TIP3    H124826   0.487   5.827   2.493  0.8802  1.3168  0.3010
 1137TIP3    H224827   0.492   5.953   2.409 -1.4083 -0.2266 -2.3314
 1138TIP3   OH224828   6.204   2.084  14.261  0.2769  0.3970  0.2454
 1138TIP3    H124829   6.205   2.068  14.355 -1.6255 -1.8186 -0.0110
 1138TIP3    H224830   6.191   1.997  14.222 -0.4802  1.4281 -1.9813
 1139TIP3   OH224831   6.317   5.768   3.979 -0.4292  0.1465 -0.1356
 1139TIP3    H124832   6.372   5.811   3.914  0.5365 -0.2410  0.4069
 1139TIP3    H224833   6.278   5.694   3.933  2.0261 -1.4968  0.2399
 1140TIP3   OH224834   5.862   4.572  16.193  0.2278 -0.5907  1.0657
 1140TIP3    H124835   5.935   4.627  16.164  0.4795 -1.5824 -0.2599
 1140TIP3    H224836   5.795   4.586  16.127 -0.5240 -0.2534  1.8852
 1141TIP3   OH224837   2.228   3.562  11.470 -0.0071 -0.1194 -0.1513
 1141TIP3    H124838   2.197   3.644  11.433  0.8525  0.2759 -0.0250
 1141TIP3    H224839   2.280   3.588  11.546 -1.1723 -0.8820  0.9475
 1142TIP3   OH224840   3.276   6.631  11.550  0.5525  0.0268 -0.5607
 1142TIP3    H124841   3.315   6.610  11.465 -0.2089  0.5094 -1.0410
 1142TIP3    H224842   3.335   6.591  11.614  0.6787 -1.0720 -1.3392
 1143TIP3   OH224843   6.532   5.885  11.680 -0.2356 -0.4308  0.5793
 1143TIP3    H124844   6.449   5.844  11.704 -0.3198 -0.2244  0.6394
 1143TIP3    H224845   6.584   5.813  11.644 -0.3933 -0.5858  0.6572
 1144TIP3   OH224846   2.635   0.249  17.077  0.1075  0.3221  0.0386
 1144TIP3    H124847   2.601   0.337  17.093  0.9641  0.2190  3.0637
 1144TIP3    H224848   2.703   0.237  17.143 -1.5913 -3.4387  1.4015
 1145TIP3   OH224849   5.343   2.693   2.665  0.6887 -0.2446 -0.6491
 1145TIP3    H124850   5.411   2.626   2.679  1.4312  0.5015 -0.6147
 1145TIP3    H224851   5.389   2.776   2.672 -0.2066  0.2805 -0.8047
 1146TIP3   OH224852   6.172   2.505  14.099  0.1723  0.1399 -0.1148
 1146TIP3    H124853   6.123   2.429  14.065 -0.3609  0.1728  0.5747
 1146TIP3    H224854   6.156   2.573  14.034 -0.3490  0.0214 -0.1217
 1147TIP3   OH224855   0.326   3.747   0.835 -0.3581 -0.2125 -0.1712
 1147TIP3    H124856   0.337   3.795   0.753  1.8378 -0.6376 -0.1760
 1147TIP3    H224857   0.237   3.712   0.831 -0.9273  1.2792 -1.5385
 1148TIP3   OH224858   2.980   1.345  15.417  0.0979  0.3737 -0.2126
 1148TIP3    H124859   2.945   1.261  15.447  0.6991  0.1228 -0.1952
 1148TIP3    H224860   2.931   1.364  15.337 -1.2934  0.8984  0.7350
 1149TIP3   OH224861   0.880   1.128  14.531 -0.3941  0.1160  0.9113
 1149TIP3    H124862   0.939   1.202  14.521  0.6167 -0.8369 -0.5765
 1149TIP3    H224863   0.902   1.069  14.459 -2.9642 -0.4226  0.4527
 1150TIP3   OH224864   0.585   6.469   5.271  0.5251 -0.0938 -0.1903
 1150TIP3    H124865   0.643   6.473   5.195 -0.9823  1.6667 -1.3244
 1150TIP3    H224866   0.508   6.520   5.245 -0.8379 -0.9937  1.8483
 1151TIP3   OH224867   5.615   1.117   2.944  0.2488  0.0384 -1.4441
 1151TIP3    H124868   5.676   1.051   2.978  0.5366 -0.2209 -2.4562
 1151TIP3    H224869   5.531   1.095   2.985  0.6659 -0.0328 -0.5998
 1152TIP3   OH224870   0.212   3.670  10.953 -0.4865  0.4898  0.0220
 1152TIP3    H124871   0.256   3.755  10.955 -0.2111  0.4946 -2.8235
 1152TIP3    H224872   0.171   3.665  10.867 -3.7943 -0.7098  1.4789
 1153TIP3   OH224873   1.249   6.669   3.651  0.4344  0.2389 -0.1719
 1153TIP3    H124874   1.178   6.688   3.589 -0.7507  1.3701  1.4394
 1153TIP3    H224875   1.318   6.631   3.598 -0.9874  0.0605 -1.9864
 1154TIP3   OH224876   4.091   5.648  16.066  0.0248 -0.2873  0.7712
 1154TIP3    H124877   4.167   5.666  16.121  0.7862 -1.4363  0.1375
 1154TIP3    H224878   4.066   5.559  16.088  1.6889 -1.6342 -2.1888
 1155TIP3   OH224879   0.474   0.708  12.319 -0.2116  0.3703  0.0209
 1155TIP3    H124880   0.452   0.797  12.345  1.6244  0.7154  0.5479
 1155TIP3    H224881   0.497   0.664  12.400  3.5657  0.8660 -0.6043
 1156TIP3   OH224882   6.095   5.979   1.014  0.0217  0.4476 -0.0159
 1156TIP3    H124883   6.039   5.951   1.087  0.6130 -0.5397  0.0873
 1156TIP3    H224884   6.152   5.903   0.998  0.1939  0.8203 -1.2181
 1157TIP3   OH224885   6.557   3.445  14.881  0.2623 -0.4550 -0.0674
 1157TIP3    H124886   6.624   3.513  14.877 -1.5057  1.3542 -0.4406
 1157TIP3    H224887   6.540   3.433  14.975 -0.7965  1.1196 -0.0189
 1158TIP3   OH224888   3.703   4.608  10.986 -0.1658  0.0769  0.1901
 1158TIP3    H124889   3.677   4.534  10.931  0.4493 -1.4963  1.9280
 1158TIP3    H224890   3.793   4.589  11.012  0.0303  1.4872  0.6289
 1159TIP3   OH224891   2.959   2.522   5.230 -0.2198 -0.0542 -0.8054
 1159TIP3    H124892   2.923   2.437   5.256  0.0576 -0.0366 -0.3478
 1159TIP3    H224893   3.015   2.548   5.303 -0.7458  0.7910 -0.6827
 1160TIP3   OH224894   2.276   2.072  15.210 -0.2136  0.1329  0.4006
 1160TIP3    H124895   2.260   2.054  15.117 -0.9306 -0.3381  0.6059
 1160TIP3    H224896   2.366   2.103  15.213  0.1726 -0.8736 -0.3153
 1161TIP3   OH224897   2.276   1.234  13.481 -0.2983  0.1665 -0.5333
 1161TIP3    H124898   2.277   1.168  13.551 -1.2565 -0.7074 -1.3176
 1161TIP3    H224899   2.269   1.183  13.400  1.4760  1.1323 -1.3402
 1162TIP3   OH224900   2.751   4.562   2.195  0.2000  0.2706 -0.4355
 1162TIP3    H124901   2.658   4.568   2.174  0.4718  0.3204 -1.6973
 1162TIP3    H224902   2.786   4.500   2.131  0.1714 -3.8962  3.0849
 1163TIP3   OH224903   0.033   4.712  10.902  0.8168  0.2717  0.7825
 1163TIP3    H124904   0.115   4.736  10.860  1.0830 -0.5076  0.8497
 1163TIP3    H224905  -0.035   4.733  10.837  0.7547  3.5646  1.7078
 1164TIP3   OH224906   2.008   0.038  15.172  0.0666  0.0679  0.3113
 1164TIP3    H124907   1.940   0.092  15.132  0.2545 -0.4004 -0.6767
 1164TIP3    H224908   2.027   0.080  15.255  0.9031  2.1224 -0.8416
 1165TIP3   OH224909   6.448   3.983   1.219 -0.4486 -0.8735  0.1222
 1165TIP3    H124910   6.480   4.058   1.168 -0.6621 -0.9506 -0.1273
 1165TIP3    H224911   6.353   3.989   1.214 -0.4666 -1.2834 -0.0817
 1166TIP3   OH224912   0.070   4.879   4.108  0.1700 -0.6624 -1.2358
 1166TIP3    H124913   0.038   4.827   4.182  2.7204 -2.1059 -1.0158
 1166TIP3    H224914   0.075   4.968   4.143 -0.3898 -0.9876 -0.2687
 1167TIP3   OH224915   2.508   0.352  13.688  0.0346  0.7456  0.0781
 1167TIP3    H124916   2.515   0.413  13.761  0.8362  1.3906 -0.5303
 1167TIP3    H224917   2.594   0.352  13.648  0.1116 -0.9392  0.1703
 1168TIP3   OH224918   5.509   4.839   5.627  0.5730  0.1464  0.3756
 1168TIP3    H124919   5.538   4.853   5.717  0.5118  0.7004  0.3161
 1168TIP3    H224920   5.498   4.744   5.619 -0.9481  0.2073  1.4276
 1169TIP3   OH224921   1.136   6.431  15.425 -0.5690  0.4765  0.1321
 1169TIP3    H124922   1.172   6.346  15.398  0.1815  0.7293  0.3222
 1169TIP3    H224923   1.183   6.453  15.505 -2.4525 -0.0422  1.4544
 1170TIP3   OH224924   4.451   1.847   2.875 -0.2930 -0.6599 -0.0110
 1170TIP3    H124925   4.434   1.755   2.854 -2.3909 -0.4505  0.5248
 1170TIP3    H224926   4.408   1.896   2.804 -0.7533 -0.0866  0.6482
 1171TIP3   OH224927   1.806   2.275  11.662 -0.1639 -0.4203 -0.4364
 1171TIP3    H124928   1.712   2.262  11.672  0.1137 -1.1070  1.8293
 1171TIP3    H224929   1.817   2.303  11.571 -2.7257  1.5923 -0.2361
 1172TIP3   OH224930   3.598   3.408   2.708  0.0613 -0.1513 -0.0712
 1172TIP3    H124931   3.569   3.317   2.706  0.5205 -0.3015  0.1676
 1172TIP3    H224932   3.685   3.406   2.748 -0.2733  0.4812  0.7329
 1173TIP3   OH224933   1.209   2.146  10.576  0.0350  0.2184  0.1783
 1173TIP3    H124934   1.292   2.190  10.558  0.2073  0.6506  1.9004
 1173TIP3    H224935   1.144   2.216  10.580 -0.2002  0.0087  0.0685
 1174TIP3   OH224936   0.612   1.180  12.412 -0.7625 -0.0453  0.1715
 1174TIP3    H124937   0.577   1.138  12.333 -1.2489  2.8167 -1.2894
 1174TIP3    H224938   0.536   1.219  12.455 -0.2347  0.2363  0.8790
 1175TIP3   OH224939   5.630   6.069  15.216 -0.8600 -0.4251  0.6461
 1175TIP3    H124940   5.618   6.123  15.138  0.0800 -1.8048 -0.5105
 1175TIP3    H224941   5.610   6.128  15.289 -3.7790  0.3646 -0.6478
 1176TIP3   OH224942   6.522   0.245   2.860 -0.0315  0.0341 -0.4596
 1176TIP3    H124943   6.500   0.153   2.874 -1.2568  0.0280 -2.0705
 1176TIP3    H224944   6.540   0.251   2.766  1.9881  1.0900 -0.0593
 1177TIP3   OH224945   3.099   0.176  17.210 -0.2759  0.3740 -0.3345
 1177TIP3    H124946   3.154   0.253  17.199 -0.4482  0.6044  0.3966
 1177TIP3    H224947   3.014   0.211  17.237 -0.0698 -0.1182  1.0150
 1178TIP3   OH224948   2.362   0.381   4.716 -0.2636  0.1155  0.1942
 1178TIP3    H124949   2.292   0.329   4.676 -1.0146 -0.7276  2.4771
 1178TIP3    H224950   2.428   0.318   4.742  0.9037  0.8073 -0.9665
 1179TIP3   OH224951   4.776   5.304  15.782  0.6047  0.3428  0.0665
 1179TIP3    H124952   4.803   5.217  15.811 -0.5540  0.5326  1.9353
 1179TIP3    H224953   4.820   5.364  15.844  0.2730  0.9820 -0.3062
 1180TIP3   OH224954   2.606   0.907  16.745 -0.0636 -0.0664  0.4892
 1180TIP3    H124955   2.610   0.946  16.657 -0.6284  0.5304  0.7232
 1180TIP3    H224956   2.659   0.965  16.799  0.5576 -0.6183  0.4831
 1181TIP3   OH224957   4.380   6.433  15.594 -0.0618 -0.3265  0.5099
 1181TIP3    H124958   4.426   6.359  15.554  1.4469  1.5151 -1.3742
 1181TIP3    H224959   4.395   6.506  15.535 -1.7705  1.4519  2.1226
 1182TIP3   OH224960   0.698   1.850   2.322 -0.6344  0.2260  0.4257
 1182TIP3    H124961   0.784   1.808   2.319 -1.3070 -1.2264  0.5782
 1182TIP3    H224962   0.636   1.778   2.307 -1.7664  1.5623 -1.9746
 1183TIP3   OH224963   6.694   6.469   3.309 -0.1667  0.3214 -0.1614
 1183TIP3    H124964   6.642   6.549   3.298  0.3098  0.5486 -0.8154
 1183TIP3    H224965   6.635   6.399   3.283 -0.7594  0.4105  0.9168
 1184TIP3   OH224966   2.265   1.152  15.649 -0.0207 -0.2081  0.4914
 1184TIP3    H124967   2.202   1.224  15.653 -0.4259 -0.5011 -0.3811
 1184TIP3    H224968   2.267   1.127  15.557  3.5265  1.6659 -0.1066
 1185TIP3   OH224969   6.622   0.811  12.441 -0.5729  0.3157 -0.2052
 1185TIP3    H124970   6.569   0.887  12.417 -0.6238  0.2251 -0.3802
 1185TIP3    H224971   6.574   0.736  12.407 -1.5876  0.0103  1.7269
 1186TIP3   OH224972   6.620   2.044   5.300 -0.2429  0.0219 -0.7460
 1186TIP3    H124973   6.569   2.011   5.374  0.2980  0.8446  0.0193
 1186TIP3    H224974   6.558   2.096   5.249 -0.3083  0.5974 -0.1009
 1187TIP3   OH224975   0.846   0.074  14.372  0.0952 -0.1226  0.2457
 1187TIP3    H124976   0.918   0.011  14.369 -0.1314 -0.6622  3.2699
 1187TIP3    H224977   0.834   0.093  14.465 -4.6825 -1.2906  0.1536
 1188TIP3   OH224978   5.300   2.304  16.228 -0.1142 -0.3588 -0.0110
 1188TIP3    H124979   5.306   2.274  16.319  2.2766  2.4173  0.9166
 1188TIP3    H224980   5.335   2.231  16.176  0.8421 -1.0784  1.5621
 1189TIP3   OH224981   0.975   3.833  11.429  0.0769 -0.2772 -0.1045
 1189TIP3    H124982   0.967   3.927  11.447  0.1269 -0.1968 -0.4859
 1189TIP3    H224983   1.007   3.829  11.339  0.8695 -0.6499  0.1855
 1190TIP3   OH224984   4.991   3.557  14.085 -0.3413  0.0752  0.3459
 1190TIP3    H124985   5.011   3.644  14.049 -1.3807 -0.0812 -0.6824
 1190TIP3    H224986   5.044   3.551  14.164  0.8704  1.0573 -0.3586
 1191TIP3   OH224987   6.647   6.180   5.133  0.2521  0.0191 -0.2964
 1191TIP3    H124988   6.644   6.087   5.113 -0.2442 -0.0038 -0.1213
 1191TIP3    H224989   6.555   6.208   5.132  0.3034  0.2793  0.7101
 1192TIP3   OH224990   2.721   6.714   4.199  0.0567 -0.7400  0.6709
 1192TIP3    H124991   2.725   6.655   4.274  0.3769 -0.4635  0.8722
 1192TIP3    H224992   2.717   6.802   4.237 -1.8322 -0.6608  0.4112
 1193TIP3   OH224993   6.004   6.350   2.902 -0.0321 -0.0952 -0.0633
 1193TIP3    H124994   5.982   6.431   2.857 -2.2361 -1.1125 -0.9468
 1193TIP3    H224995   6.009   6.373   2.994  0.8266  1.2857 -0.4199
 1194TIP3   OH224996   2.524   3.048  14.483  0.4858  0.1497  0.0108
 1194TIP3    H124997   2.616   3.070  14.499  0.1967  1.9060 -0.4901
 1194TIP3    H224998   2.481   3.133  14.472 -1.0779 -0.6638 -0.4448
 1195TIP3   OH224999   1.118   4.238   0.939  0.0442  0.0992  0.5666
 1195TIP3    H125000   1.031   4.251   0.975  0.3920  1.6502  0.9446
 1195TIP3    H225001   1.173   4.220   1.016  0.0316 -1.0528  0.3119
 1196TIP3   OH225002   5.043   2.619  15.509 -0.0781  0.3989 -0.1763
 1196TIP3    H125003   5.095   2.540  15.495 -1.2176 -0.4940  0.4930
 1196TIP3    H225004   5.108   2.688  15.521  0.9421 -0.3840 -0.9684
 1197TIP3   OH225005   3.710   0.490   3.260 -0.4094 -0.1164 -0.2225
 1197TIP3    H125006   3.615   0.480   3.253 -1.0726  3.6110  0.9980
 1197TIP3    H225007   3.737   0.519   3.172 -0.7078  0.5480 -0.0966
 1198TIP3   OH225008   0.221   3.881   1.881  0.1038 -0.0895  0.4811
 1198TIP3    H125009   0.148   3.936   1.908  1.4917  2.1907 -0.1875
 1198TIP3    H225010   0.214   3.875   1.786  1.1601  0.7745  0.3243
 1199TIP3   OH225011   5.820   5.884  15.289  0.1631  0.5232 -0.3282
 1199TIP3    H125012   5.752   5.931  15.240 -3.5558 -2.1196  1.8049
 1199TIP3    H225013   5.819   5.923  15.376  1.1099  0.1789 -0.1494
 1200TIP3   OH225014   0.165   5.720   6.431 -0.1778 -0.0267 -0.2026
 1200TIP3    H125015   0.161   5.814   6.410  1.8701  0.0636 -0.3478
 1200TIP3    H225016   0.195   5.717   6.522 -1.6599 -0.5659  0.3129
 1201TIP3   OH225017   1.143   0.566   1.018  0.6269 -0.3096  0.0979
 1201TIP3    H125018   1.225   0.541   1.060 -0.6604 -0.6741  2.6284
 1201TIP3    H225019   1.111   0.485   0.979  1.3096 -0.2177 -0.6902
 1202TIP3   OH225020   3.610   1.016  16.237  0.1000 -0.1197 -0.1897
 1202TIP3    H125021   3.526   0.983  16.205 -0.7459 -0.5285  2.2002
 1202TIP3    H225022   3.675   0.957  16.199 -1.1329 -2.7866  1.5081
 1203TIP3   OH225023   6.357   6.021   5.533 -0.4462  0.4766  0.3821
 1203TIP3    H125024   6.374   5.996   5.442 -0.0554  1.1033  0.2778
 1203TIP3    H225025   6.389   5.947   5.585 -1.2265 -0.1524 -0.0129
 1204TIP3   OH225026   3.111   0.712  14.321 -0.4319 -0.1426  0.1353
 1204TIP3    H125027   3.198   0.678  14.299 -1.0405 -0.3561 -2.2470
 1204TIP3    H225028   3.129   0.797  14.362  0.9055 -0.4403  0.2388
 1205TIP3   OH225029   6.758   4.428  11.526 -0.0850  0.6014 -0.3998
 1205TIP3    H125030   6.854   4.435  11.523  0.0187 -0.4458 -0.0869
 1205TIP3    H225031   6.742   4.347  11.575 -1.1146  0.3113 -1.1866
 1206TIP3   OH225032   5.827   5.606  13.123  0.3646 -0.0313 -0.1854
 1206TIP3    H125033   5.840   5.608  13.028  0.1954 -0.0709 -0.2101
 1206TIP3    H225034   5.880   5.532  13.153 -0.3786 -0.6462 -0.3754
 1207TIP3   OH225035   2.513   1.738   4.593  0.1652  0.0866 -0.1914
 1207TIP3    H125036   2.602   1.705   4.582  0.3697 -0.1003  1.6730
 1207TIP3    H225037   2.505   1.753   4.687 -1.4381  1.0867 -0.4495
 1208TIP3   OH225038   6.238   2.602  12.687 -0.2165  0.1844 -0.1272
 1208TIP3    H125039   6.146   2.623  12.700 -0.1187  0.6252 -0.1150
 1208TIP3    H225040   6.266   2.660  12.616  0.3112  0.8214  0.5802
 1209TIP3   OH225041   6.737   4.105  12.974 -0.1659 -0.0738 -0.1890
 1209TIP3    H125042   6.679   4.179  12.993  1.3117  0.8083  1.1121
 1209TIP3    H225043   6.824   4.143  12.968  0.6407 -1.7090  0.5553
 1210TIP3   OH225044   6.143   4.283  16.712  0.1694 -0.6975  0.2152
 1210TIP3    H125045   6.145   4.377  16.727 -0.8363 -0.4925 -0.8655
 1210TIP3    H225046   6.234   4.256  16.722  0.3743  0.2770  1.1655
 1211TIP3   OH225047   5.358   4.067  13.516  0.3406  0.4386 -0.0530
 1211TIP3    H125048   5.323   4.118  13.443  2.2989  0.2228 -1.2120
 1211TIP3    H225049   5.322   3.979  13.502  2.0566 -0.0631 -1.8714
 1212TIP3   OH225050   1.180   1.145  13.957  0.0685  0.1462 -0.1382
 1212TIP3    H125051   1.144   1.231  13.980  0.3237  0.5592 -1.2284
 1212TIP3    H225052   1.110   1.083  13.978  0.3592  0.4438  1.9157
 1213TIP3   OH225053   4.826   3.309  15.611  0.1210  0.6630  0.4422
 1213TIP3    H125054   4.892   3.276  15.550 -0.9084  0.8198 -0.7994
 1213TIP3    H225055   4.859   3.286  15.698  0.4405 -1.7991 -0.2685
 1214TIP3   OH225056   1.659   2.292  15.159  0.1372  0.3239 -0.2900
 1214TIP3    H125057   1.605   2.243  15.221 -0.9614  0.5363 -1.0338
 1214TIP3    H225058   1.740   2.311  15.206 -0.1885 -0.5496  0.6520
 1215TIP3   OH225059   2.541   5.675  15.154 -0.0115 -0.5340 -0.3277
 1215TIP3    H125060   2.508   5.755  15.113 -0.0942  0.1797  1.0657
 1215TIP3    H225061   2.629   5.664  15.117 -0.1632 -0.0396 -0.8498
 1216TIP3   OH225062   1.474   4.372   1.451 -0.0350 -0.3057 -0.0266
 1216TIP3    H125063   1.450   4.464   1.457  0.3972 -0.2683  2.5902
 1216TIP3    H225064   1.569   4.371   1.460 -0.2135 -1.0329  3.3850
 1217TIP3   OH225065   1.881   5.166   4.736  0.5033  0.5690  0.2083
 1217TIP3    H125066   1.944   5.105   4.775  1.9727  3.7809  3.4887
 1217TIP3    H225067   1.814   5.176   4.804  0.0814  2.2000 -0.4264
 1218TIP3   OH225068   3.702   4.922   6.402 -0.5654  0.2328 -0.3505
 1218TIP3    H125069   3.650   4.976   6.461  0.6756 -0.4435  1.4732
 1218TIP3    H225070   3.758   4.984   6.355 -0.2437  0.6738  0.5932
 1219TIP3   OH225071   5.456   0.103   4.720  0.0367  0.2433 -0.3819
 1219TIP3    H125072   5.405   0.135   4.646 -1.7067 -0.4174  0.4894
 1219TIP3    H225073   5.456   0.176   4.783 -0.4748 -0.0112 -0.0804
 1220TIP3   OH225074   2.822   3.479   2.182  0.2613  0.1333 -0.4833
 1220TIP3    H125075   2.861   3.566   2.183 -0.9623  0.7242 -1.5171
 1220TIP3    H225076   2.809   3.460   2.089 -1.1131 -0.4044 -0.1992
 1221TIP3   OH225077   1.101   5.278   2.372 -0.1263 -0.5651  0.1141
 1221TIP3    H125078   1.167   5.262   2.440 -0.4827 -1.5960  0.2350
 1221TIP3    H225079   1.046   5.348   2.408  0.4548 -0.2149  0.3278
 1222TIP3   OH225080   4.729   1.231   1.206 -0.2466  0.2602  0.0679
 1222TIP3    H125081   4.741   1.312   1.256 -1.8648 -0.4141  1.6523
 1222TIP3    H225082   4.680   1.258   1.128  1.0556  1.1044 -0.4852
 1223TIP3   OH225083   5.989   4.170   5.522 -0.1498 -0.1519 -0.3166
 1223TIP3    H125084   5.914   4.119   5.553 -1.0266  0.2907 -1.6047
 1223TIP3    H225085   6.066   4.125   5.556 -0.8695 -2.5165 -1.6326
 1224TIP3   OH225086   1.501   1.796   6.138  0.3662 -0.1673  0.2250
 1224TIP3    H125087   1.549   1.849   6.202 -1.5590 -0.8763  2.4159
 1224TIP3    H225088   1.451   1.859   6.087 -0.6954  0.2662  1.7516
 1225TIP3   OH225089   0.139   2.376  15.178 -0.8232 -0.5802  0.1745
 1225TIP3    H125090   0.222   2.409  15.143 -1.0157 -0.4543 -0.1715
 1225TIP3    H225091   0.089   2.351  15.100 -1.8600  1.1197  0.2547
 1226TIP3   OH225092   5.635   4.648  14.394 -0.1233 -0.1356  0.2618
 1226TIP3    H125093   5.618   4.684  14.307 -1.5598 -0.6911  0.2861
 1226TIP3    H225094   5.549   4.644  14.436  0.4979 -0.2015  1.5899
 1227TIP3   OH225095   4.503   3.145  15.379 -0.4515 -0.2626 -0.1074
 1227TIP3    H125096   4.590   3.110  15.363 -0.2076 -0.5708  1.7114
 1227TIP3    H225097   4.497   3.223  15.324  1.3839  0.3779  0.5579
 1228TIP3   OH225098   5.282   5.733  11.546 -0.1190  0.0061  0.6146
 1228TIP3    H125099   5.320   5.645  11.537  1.3541  0.5423  1.2515
 1228TIP3    H225100   5.274   5.765  11.456 -1.0122 -0.9041  0.3543
 1229TIP3   OH225101   2.003   6.197   5.246 -0.2937 -0.3518  0.0867
 1229TIP3    H125102   2.081   6.142   5.234  0.5020  0.9323 -0.9052
 1229TIP3    H225103   1.933   6.135   5.267  0.5425 -1.7513 -1.0595
 1230TIP3   OH225104   1.864   3.052  14.067 -0.3718 -0.0476 -0.3313
 1230TIP3    H125105   1.850   2.962  14.039 -1.2254  0.2264 -0.8016
 1230TIP3    H225106   1.877   3.101  13.986 -0.1125  0.2927 -0.0882
 1231TIP3   OH225107   1.763   2.103   3.935 -0.5020 -0.0976  0.0706
 1231TIP3    H125108   1.859   2.102   3.926 -0.5121  0.0603 -0.0477
 1231TIP3    H225109   1.748   2.078   4.026 -0.3547 -0.3135  0.0378
 1232TIP3   OH225110   5.692   0.693   4.730  0.1483  0.3525 -0.0377
 1232TIP3    H125111   5.609   0.727   4.762 -0.0063 -0.6924  0.7004
 1232TIP3    H225112   5.742   0.671   4.809  0.4422 -0.6409 -0.4812
 1233TIP3   OH225113   5.420   2.521  14.323 -0.0641 -0.0586 -0.2257
 1233TIP3    H125114   5.434   2.469  14.403 -2.2400 -0.5768 -0.1350
 1233TIP3    H225115   5.507   2.525  14.283  0.9870 -0.2153  1.8927
 1234TIP3   OH225116   3.026   4.481   1.258  0.4267 -0.0908 -0.5467
 1234TIP3    H125117   3.007   4.507   1.349 -0.7986 -0.0350 -0.8043
 1234TIP3    H225118   2.960   4.527   1.206  1.3577  0.1875 -1.5245
 1235TIP3   OH225119   1.341   1.125  11.651  0.3042  0.5914  0.2857
 1235TIP3    H125120   1.371   1.204  11.698  1.3692 -0.2859  1.1486
 1235TIP3    H225121   1.421   1.088  11.613 -0.4424  0.8601 -1.6266
 1236TIP3   OH225122   6.784   4.785   1.639 -0.4919  0.4569  0.4131
 1236TIP3    H125123   6.775   4.846   1.712  0.2100  0.3060  0.6308
 1236TIP3    H225124   6.809   4.702   1.680  1.5871  0.7789 -0.0993
 1237TIP3   OH225125   3.472   2.604  14.809  0.2196  0.4205  0.1065
 1237TIP3    H125126   3.454   2.594  14.902 -1.4504  0.8608 -0.1366
 1237TIP3    H225127   3.491   2.516  14.778  1.7354  0.3944  1.0204
 1238TIP3   OH225128   1.548   2.742  15.875  0.6094  0.0205  0.2963
 1238TIP3    H125129   1.639   2.714  15.883  0.4198 -0.8318 -0.3196
 1238TIP3    H225130   1.539   2.768  15.783 -0.2374 -1.7501 -0.1675
 1239TIP3   OH225131   6.167   1.622  11.236 -0.5359  0.2666 -0.1459
 1239TIP3    H125132   6.215   1.551  11.278 -1.0911 -0.3239 -0.4915
 1239TIP3    H225133   6.179   1.607  11.142 -1.6274 -0.0728 -0.2493
 1240TIP3   OH225134   6.101   2.445  14.381 -0.5531  0.0043 -0.1808
 1240TIP3    H125135   6.065   2.358  14.366  0.5161 -1.0115  2.5540
 1240TIP3    H225136   6.110   2.483  14.294 -1.6909 -2.3361 -1.3966
 1241TIP3   OH225137   3.597   1.097  15.729  0.0081 -0.2979 -0.3463
 1241TIP3    H125138   3.603   1.063  15.639 -0.0569  1.9488 -1.2758
 1241TIP3    H225139   3.656   1.172  15.729  2.1541 -1.8264  2.3524
 1242TIP3   OH225140   6.184   4.632  16.433 -0.2544  0.1316  0.4476
 1242TIP3    H125141   6.185   4.727  16.423  1.3401  0.1765  0.9238
 1242TIP3    H225142   6.164   4.600  16.345  1.1161  0.8660 -0.1568
 1243TIP3   OH225143   2.353   4.082   4.471 -0.2958 -0.1750 -0.1734
 1243TIP3    H125144   2.409   4.012   4.502 -1.5302 -1.4737 -0.7503
 1243TIP3    H225145   2.271   4.038   4.447 -1.1377  1.4756 -0.4647
 1244TIP3   OH225146   4.056   3.984   4.830  0.0804 -0.0895  0.0103
 1244TIP3    H125147   3.964   4.011   4.831  0.5218  1.5294 -0.5622
 1244TIP3    H225148   4.073   3.959   4.739  0.1856 -0.5251  0.1446
 1245TIP3   OH225149   4.697   2.537   4.209 -0.1258  0.2090 -0.4225
 1245TIP3    H125150   4.629   2.497   4.154 -2.3177  1.7658  0.9866
 1245TIP3    H225151   4.660   2.535   4.297  1.1337  2.1869  0.2137
 1246TIP3   OH225152   0.595   1.492  16.119 -0.6630  0.0104  0.4336
 1246TIP3    H125153   0.583   1.398  16.136 -1.0263  0.0945  0.6517
 1246TIP3    H225154   0.507   1.524  16.099 -0.4336  0.1725 -0.3174
 1247TIP3   OH225155   0.571   5.770   4.777  0.4109  0.0832 -0.2907
 1247TIP3    H125156   0.511   5.834   4.817  0.4417 -1.2034  1.9823
 1247TIP3    H225157   0.524   5.739   4.700 -2.6269 -1.8073  2.0416
 1248TIP3   OH225158   3.901   0.743  11.505 -0.5325 -0.3818  0.2241
 1248TIP3    H125159   3.968   0.791  11.456 -3.7980  1.0444 -3.3153
 1248TIP3    H225160   3.913   0.652  11.477 -2.2232  0.3671 -3.5386
 1249TIP3   OH225161   0.690   1.408  10.916 -0.1942  0.0511  0.2357
 1249TIP3    H125162   0.777   1.394  10.878 -0.3549 -2.1106  0.4942
 1249TIP3    H225163   0.629   1.391  10.844 -0.4132  0.3573  0.3495
 1250TIP3   OH225164   4.721   0.568  13.846  0.7920 -0.1075 -0.0499
 1250TIP3    H125165   4.741   0.524  13.929 -0.8882 -2.4573 -0.7903
 1250TIP3    H225166   4.775   0.647  13.847  0.2288  0.3857  3.6454
 1251TIP3   OH225167   4.286   2.497   5.100 -0.4625  0.2606  0.0666
 1251TIP3    H125168   4.327   2.541   5.174 -1.3310  0.2525  0.5754
 1251TIP3    H225169   4.218   2.442   5.140  0.3886 -1.3316 -0.5601
 1252TIP3   OH225170   5.257   2.775   4.389  0.0063  0.7596 -0.5006
 1252TIP3    H125171   5.223   2.782   4.300  1.8564 -0.2518 -1.3529
 1252TIP3    H225172   5.330   2.838   4.392  0.7002 -0.0385 -0.1018
 1253TIP3   OH225173   2.042   0.454  13.977 -0.0454 -0.1582 -0.0688
 1253TIP3    H125174   1.989   0.457  13.897 -0.3879  0.7178  0.1783
 1253TIP3    H225175   2.004   0.521  14.034 -1.0685 -2.0573  1.6347
 1254TIP3   OH225176   0.441   2.814  11.007 -0.1118  0.3895 -0.1102
 1254TIP3    H125177   0.355   2.818  10.967 -0.6492 -0.7847  0.8830
 1254TIP3    H225178   0.455   2.722  11.027  1.4617  0.5244 -0.4115
 1255TIP3   OH225179   1.046   4.131  14.000 -0.1186  0.1878  0.3019
 1255TIP3    H125180   0.974   4.171  14.049 -0.5763  1.5946 -1.4332
 1255TIP3    H225181   1.117   4.196  14.003 -0.7172  1.0589 -2.1733
 1256TIP3   OH225182   0.041   6.338  11.940 -0.8258  0.1913 -0.3666
 1256TIP3    H125183   0.027   6.323  12.033 -0.4022  1.0468 -0.1547
 1256TIP3    H225184  -0.017   6.275  11.896  0.4708 -1.6783  0.4551
 1257TIP3   OH225185   5.994   0.939   2.827  0.4330 -0.3357  0.0665
 1257TIP3    H125186   5.933   0.997   2.781  1.1695  0.1906 -0.2803
 1257TIP3    H225187   5.986   0.963   2.919 -0.9333 -1.2798  0.2223
 1258TIP3   OH225188   5.402   1.216  16.308  0.0562  0.6043 -0.0809
 1258TIP3    H125189   5.321   1.263  16.286 -0.1958  0.5199  0.6504
 1258TIP3    H225190   5.469   1.259  16.255 -0.6323 -0.0061 -1.4920
 1259TIP3   OH225191   0.873   4.610  11.075  0.3079 -0.2597 -0.4569
 1259TIP3    H125192   0.783   4.609  11.108  1.3603  0.6341  2.7709
 1259TIP3    H225193   0.896   4.517  11.065 -0.4915 -0.5303  0.1057
 1260TIP3   OH225194   2.861   0.664  12.228  0.7614  0.2789 -0.4406
 1260TIP3    H125195   2.831   0.753  12.246 -1.4173 -0.3799 -0.6260
 1260TIP3    H225196   2.809   0.635  12.154  1.0216 -1.3701 -0.0147
 1261TIP3   OH225197   0.209   1.308   2.777  0.2623  0.1104  0.0943
 1261TIP3    H125198   0.223   1.245   2.706 -0.2163 -1.1819  1.1045
 1261TIP3    H225199   0.238   1.392   2.741 -1.3820 -0.1895 -2.1794
 1262TIP3   OH225200   2.128   4.237   2.103 -0.3723 -0.0912  0.0927
 1262TIP3    H125201   2.160   4.196   2.183 -0.6695 -1.7058 -0.5882
 1262TIP3    H225202   2.080   4.168   2.058 -2.4917  1.4990 -0.2299
 1263TIP3   OH225203   5.761   6.253  15.723  0.2649  0.1728  0.1411
 1263TIP3    H125204   5.839   6.308  15.715  0.8495 -0.4257  1.4775
 1263TIP3    H225205   5.715   6.288  15.799  0.3182 -0.7901  0.6282
 1264TIP3   OH225206   2.924   1.090  15.107 -1.0025  0.4572 -0.2336
 1264TIP3    H125207   2.958   1.044  15.184 -0.6103  1.6543  0.3294
 1264TIP3    H225208   2.858   1.031  15.071  2.4204 -2.6778 -2.1614
 1265TIP3   OH225209   2.276   4.680   3.181 -0.3785 -0.1428 -0.0731
 1265TIP3    H125210   2.191   4.677   3.136 -0.3654  0.5936 -0.1506
 1265TIP3    H225211   2.327   4.745   3.133  0.2817 -0.6741 -0.1033
 1266TIP3   OH225212   3.464   0.750   2.813 -0.0331  0.3993  0.3257
 1266TIP3    H125213   3.559   0.755   2.818  0.0160 -1.2751  1.8357
 1266TIP3    H225214   3.446   0.709   2.728  0.6396 -0.1780  0.4606
 1267TIP3   OH225215   0.788   3.245   4.764  0.3844 -0.0893 -0.0563
 1267TIP3    H125216   0.843   3.321   4.744 -0.6020  0.1924 -1.9451
 1267TIP3    H225217   0.751   3.264   4.850  1.1928  0.9554  0.0766
 1268TIP3   OH225218   5.673   0.775   5.708 -0.1495  0.6439 -1.1109
 1268TIP3    H125219   5.661   0.827   5.788  0.4065  2.5100 -2.1684
 1268TIP3    H225220   5.730   0.829   5.653 -2.1421  0.3975 -3.6184
 1269TIP3   OH225221   4.615   1.737   2.419  0.0956 -0.2060  0.2775
 1269TIP3    H125222   4.645   1.743   2.510  1.4629 -2.3143  0.0421
 1269TIP3    H225223   4.568   1.654   2.415 -2.9766  1.4292 -0.2187
 1270TIP3   OH225224   1.312   5.369   0.067 -0.0212 -0.4999 -0.5354
 1270TIP3    H125225   1.321   5.462   0.087  0.1688 -0.1442 -2.1756
 1270TIP3    H225226   1.227   5.345   0.104  1.2272 -0.4984  2.6874
 1271TIP3   OH225227   3.354   6.020  12.649  0.1995 -0.0217 -0.5504
 1271TIP3    H125228   3.356   5.926  12.670  2.6794 -0.0352 -0.5342
 1271TIP3    H225229   3.338   6.024  12.555 -0.7774 -0.3937 -0.4142
 1272TIP3   OH225230   3.893   6.024   0.129  0.3077 -0.0234 -0.7655
 1272TIP3    H125231   3.834   6.029   0.054  0.6835 -2.6691 -1.3392
 1272TIP3    H225232   3.885   5.934   0.160  1.7641  0.4134  1.0603
 1273TIP3   OH225233   2.595   3.647  10.644 -0.5928 -0.1007  0.2476
 1273TIP3    H125234   2.632   3.615  10.726 -2.0114  0.8271  1.3049
 1273TIP3    H225235   2.663   3.701  10.605  0.2847 -0.9717  0.5532
 1274TIP3   OH225236   5.621   0.229   0.879 -0.3077  0.0134 -0.3448
 1274TIP3    H125237   5.631   0.322   0.860 -0.4989  0.2229  0.5483
 1274TIP3    H225238   5.600   0.189   0.794  0.4771  0.6738 -0.8582
 1275TIP3   OH225239   2.919   1.848   3.368  0.2638  0.0099 -0.6277
 1275TIP3    H125240   2.840   1.806   3.335 -1.0927  1.0053  1.1724
 1275TIP3    H225241   2.916   1.937   3.332  1.7366 -0.5357 -2.2672
 1276TIP3   OH225242   1.810   0.446  16.073 -0.5391 -0.0563 -0.2926
 1276TIP3    H125243   1.823   0.536  16.101  0.1074 -0.3568  0.3829
 1276TIP3    H225244   1.806   0.451  15.977  0.4972  0.5648 -0.3118
 1277TIP3   OH225245   0.574   4.189   3.071  0.1699  0.0120  0.5787
 1277TIP3    H125246   0.625   4.121   3.027  0.7535  0.9830 -0.2781
 1277TIP3    H225247   0.486   4.154   3.075 -0.6187  0.9270 -3.9262
 1278TIP3   OH225248   1.941   1.577  14.519 -0.1145  0.1112 -0.0572
 1278TIP3    H125249   1.897   1.559  14.436  0.9630 -1.7556 -0.2894
 1278TIP3    H225250   1.946   1.492  14.563 -1.5403  1.1896  2.4349
 1279TIP3   OH225251   6.277   5.550   0.416 -0.2271  0.8402  0.6673
 1279TIP3    H125252   6.292   5.470   0.466  1.1191  0.6921  0.0695
 1279TIP3    H225253   6.232   5.609   0.477  0.0224  0.1303  1.5535
 1280TIP3   OH225254   1.141   5.314   1.166 -0.0994 -0.1304  0.5563
 1280TIP3    H125255   1.129   5.224   1.135 -1.8381  0.6606 -1.3016
 1280TIP3    H225256   1.052   5.349   1.171  0.3895  0.9792  3.0339
 1281TIP3   OH225257   4.159   1.492   2.784 -0.1136 -0.3092  0.2449
 1281TIP3    H125258   4.185   1.543   2.708 -2.7384 -0.7663 -1.0621
 1281TIP3    H225259   4.226   1.511   2.850  1.4499  1.2191 -1.6781
 1282TIP3   OH225260   5.485   4.633  12.055  0.3643 -0.0976  0.2916
 1282TIP3    H125261   5.398   4.624  12.016  0.0877  1.1091  0.5632
 1282TIP3    H225262   5.496   4.555  12.109 -0.7041 -0.1058  0.5204
 1283TIP3   OH225263   0.623   2.012   5.682  0.2244  0.5730  0.0669
 1283TIP3    H125264   0.689   2.011   5.752  1.1171  0.3486 -0.7665
 1283TIP3    H225265   0.660   2.069   5.615 -0.0131 -0.2792 -0.8086
 1284TIP3   OH225266   6.727   2.479  12.795  0.0879  0.0900 -0.5399
 1284TIP3    H125267   6.661   2.479  12.727 -0.6817 -0.6808  0.1796
 1284TIP3    H225268   6.722   2.566  12.834  0.6660  0.6011 -1.5688
 1285TIP3   OH225269   4.430   5.004   5.883 -0.2852  0.7849  0.3631
 1285TIP3    H125270   4.524   5.016   5.898 -0.2836  0.0712  0.9925
 1285TIP3    H225271   4.390   5.017   5.969 -0.8449  1.7076 -0.0129
 1286TIP3   OH225272   0.793   6.793   5.253  0.1628 -0.2420 -0.6649
 1286TIP3    H125273   0.719   6.823   5.306  1.1855  0.1024  0.6099
 1286TIP3    H225274   0.769   6.704   5.226 -0.0812 -0.7200  1.0130
 1287TIP3   OH225275   5.250   4.676  15.018 -0.1449 -0.5473 -0.7139
 1287TIP3    H125276   5.345   4.672  15.005  0.0702  0.7075  0.2537
 1287TIP3    H225277   5.233   4.622  15.095 -0.0405  0.1408 -0.1942
 1288TIP3   OH225278   6.346   2.293   4.658 -0.3264 -0.3570 -0.2254
 1288TIP3    H125279   6.361   2.200   4.647  1.0882 -0.1024 -0.6246
 1288TIP3    H225280   6.264   2.310   4.612 -1.2641 -1.6037  0.9351
 1289TIP3   OH225281   4.095   0.104  15.961  0.4781  0.0030 -0.1030
 1289TIP3    H125282   4.012   0.141  15.992 -0.2426 -2.0022  0.5252
 1289TIP3    H225283   4.069   0.038  15.897  1.5893 -0.6731  0.1259
 1290TIP3   OH225284   5.543   1.887  13.075  0.5637  0.1917  0.2572
 1290TIP3    H125285   5.595   1.911  13.152 -0.1473  0.3912  0.6899
 1290TIP3    H225286   5.472   1.952  13.074  1.2055  0.9087 -1.2373
 1291TIP3   OH225287   3.660   5.357  13.237  0.6969 -1.3478 -0.4848
 1291TIP3    H125288   3.604   5.364  13.314  0.5595 -0.3610 -0.6603
 1291TIP3    H225289   3.749   5.348  13.272  1.1996  2.9708 -0.0495
 1292TIP3   OH225290   5.740   2.987  13.884  0.1708  0.7201  0.0518
 1292TIP3    H125291   5.735   3.004  13.978  1.5831  0.2388  0.2459
 1292TIP3    H225292   5.680   2.913  13.870 -2.6251  2.8617 -0.0574
 1293TIP3   OH225293   5.395   2.035   1.455  0.1238  0.6344 -0.2598
 1293TIP3    H125294   5.345   2.065   1.379  0.2039  1.7772  0.1217
 1293TIP3    H225295   5.479   2.007   1.419  1.6150  4.5800 -0.2860
 1294TIP3   OH225296   4.658   4.006  16.789  0.5457  0.0821  0.0103
 1294TIP3    H125297   4.666   4.089  16.742  2.8834  0.6892  1.3319
 1294TIP3    H225298   4.637   4.031  16.879  0.4310 -0.8147  0.2472
 1295TIP3   OH225299   2.702   0.388  13.244 -0.3240  0.5998 -0.3545
 1295TIP3    H125300   2.617   0.409  13.283 -0.9640 -1.2438 -0.6460
 1295TIP3    H225301   2.692   0.298  13.213  1.5701  0.5390 -0.8892
 1296TIP3   OH225302   0.550   6.158   2.457 -0.4000  0.0698 -0.1781
 1296TIP3    H125303   0.587   6.180   2.542 -2.0958  1.4046  0.2689
 1296TIP3    H225304   0.613   6.192   2.394  0.9402 -1.0481  0.4885
 1297TIP3   OH225305   2.130   3.006   2.288  0.5336  0.1582 -0.1295
 1297TIP3    H125306   2.179   3.040   2.362  1.3585 -0.7800 -0.2253
 1297TIP3    H225307   2.157   3.060   2.214  1.0068 -0.0038 -0.0758
 1298TIP3   OH225308   4.767   2.377   1.581 -0.8241  0.4166 -0.1829
 1298TIP3    H125309   4.810   2.339   1.657  0.5568  1.6749 -0.2849
 1298TIP3    H225310   4.833   2.435   1.543 -1.1793 -0.7486 -2.8109
 1299TIP3   OH225311   3.595   0.773  15.274 -0.0977  0.5379  0.0260
 1299TIP3    H125312   3.528   0.840  15.292 -0.6980 -0.1332  0.3433
 1299TIP3    H225313   3.552   0.690  15.297  1.1612  0.1615  1.1310
 1300TIP3   OH225314   5.224   5.525  14.686 -0.7708 -0.0204 -0.0135
 1300TIP3    H125315   5.282   5.599  14.672 -1.2722 -0.0668 -2.9061
 1300TIP3    H225316   5.136   5.561  14.677 -1.0363 -0.8326 -0.8555
 1301TIP3   OH225317   5.769   3.283  17.104 -0.0664  0.1577  0.0691
 1301TIP3    H125318   5.693   3.272  17.161  1.1529 -1.9872  1.4463
 1301TIP3    H225319   5.732   3.308  17.020 -1.9409  3.7027  1.7328
 1302TIP3   OH225320   3.493   0.112  13.924 -0.2417 -0.3396 -0.1795
 1302TIP3    H125321   3.399   0.130  13.916 -0.0485 -0.0196 -2.8249
 1302TIP3    H225322   3.520   0.158  14.003 -2.4276 -1.0171  1.0269
 1303TIP3   OH225323   3.496   0.369  16.707  0.2910 -0.1481 -0.3026
 1303TIP3    H125324   3.403   0.373  16.729 -0.3417 -0.7069 -2.5986
 1303TIP3    H225325   3.507   0.439  16.642  1.8498  0.9024  1.0252
 1304TIP3   OH225326   3.502   3.358  16.313  0.0008  0.9727  0.1894
 1304TIP3    H125327   3.509   3.385  16.221  0.9986 -0.7165 -0.2838
 1304TIP3    H225328   3.421   3.307  16.317  0.0205  0.9435  0.2168
 1305TIP3   OH225329   1.585   2.988   5.383 -0.2646  0.3138 -0.0475
 1305TIP3    H125330   1.654   3.054   5.391  0.0295 -0.1937  1.9971
 1305TIP3    H225331   1.600   2.949   5.297 -1.3785  3.8592 -2.0825
 1306TIP3   OH225332   2.818   0.682  12.554  0.1460 -0.1659 -0.5560
 1306TIP3    H125333   2.742   0.625  12.543 -0.4399  0.1148  1.6850
 1306TIP3    H225334   2.809   0.746  12.483 -1.5992 -0.2674 -0.4832
 1307TIP3   OH225335   2.788   0.994   1.382  1.2910 -0.7308  0.1743
 1307TIP3    H125336   2.830   0.923   1.430  0.1206 -0.6418  1.3630
 1307TIP3    H225337   2.726   1.032   1.444  2.4648  1.8989 -0.1148
 1308TIP3   OH225338   6.607   2.743   5.957  0.3828  0.2997 -0.1279
 1308TIP3    H125339   6.578   2.688   5.884 -1.2684  1.1593 -0.1834
 1308TIP3    H225340   6.552   2.822   5.951  1.8353  1.4307  0.6588
 1309TIP3   OH225341   5.606   2.353   4.635  0.8685  0.4544  0.0222
 1309TIP3    H125342   5.618   2.380   4.725 -0.6643 -1.2332  0.8045
 1309TIP3    H225343   5.631   2.260   4.634  2.7239  0.8923 -1.7549
 1310TIP3   OH225344   4.476   1.942  16.428  0.0677 -0.0241  0.2011
 1310TIP3    H125345   4.456   1.884  16.354  0.9445  0.9433 -0.8494
 1310TIP3    H225346   4.456   2.030  16.395  1.0091  0.4779  0.9193
 1311TIP3   OH225347   6.627   5.254  10.568  0.3150 -0.4987  0.1993
 1311TIP3    H125348   6.662   5.218  10.649  2.1762 -2.5299 -1.3862
 1311TIP3    H225349   6.704   5.276  10.516 -0.8262  0.4781 -1.1511
 1312TIP3   OH225350   6.041   3.127   2.133 -0.6482  0.1283 -0.1846
 1312TIP3    H125351   6.114   3.076   2.170 -1.0039 -1.0482 -1.0370
 1312TIP3    H225352   5.974   3.125   2.201  0.0258  1.0829  0.5429
 1313TIP3   OH225353   2.199   4.664  11.729  0.3990 -0.1892 -0.2155
 1313TIP3    H125354   2.237   4.724  11.666 -1.1883  0.4900 -0.5683
 1313TIP3    H225355   2.125   4.624  11.684  0.6888 -1.5298  0.4229
 1314TIP3   OH225356   2.013   0.038  11.348  0.6237  0.1311  0.1453
 1314TIP3    H125357   2.071  -0.033  11.377  0.5330 -0.1848 -0.4319
 1314TIP3    H225358   1.983   0.010  11.262  0.5136  0.8368 -0.0452
 1315TIP3   OH225359   2.927   1.854  13.916 -0.3632  0.0343  0.0356
 1315TIP3    H125360   2.850   1.797  13.913 -0.0556 -0.4304  0.9103
 1315TIP3    H225361   2.922   1.904  13.834 -1.3322 -0.3304 -0.1418
 1316TIP3   OH225362   1.064   5.948   3.200  0.4621  0.2242  0.1586
 1316TIP3    H125363   1.122   5.884   3.241 -0.1972  0.4531  1.5422
 1316TIP3    H225364   0.996   5.895   3.158  0.9012 -0.0122 -0.2631
 1317TIP3   OH225365   2.400   1.488   4.248  0.4487 -0.3581  0.3894
 1317TIP3    H125366   2.478   1.533   4.214  1.0221 -0.8984  0.9816
 1317TIP3    H225367   2.433   1.431   4.317 -0.5050 -0.4304  0.7991
 1318TIP3   OH225368   2.152   6.531   1.283 -0.0116  0.5426 -0.0704
 1318TIP3    H125369   2.142   6.465   1.214  1.2261 -0.6740  0.8659
 1318TIP3    H225370   2.244   6.526   1.309 -0.2502  1.5681  1.0832
 1319TIP3   OH225371   3.498   2.616   0.415 -0.1248 -0.3249  0.2540
 1319TIP3    H125372   3.423   2.654   0.462 -0.0865  0.0681  0.0076
 1319TIP3    H225373   3.460   2.581   0.334 -0.3874 -2.1072  1.1183
 1320TIP3   OH225374   0.631   0.325   4.069 -0.1236 -0.1931 -0.2816
 1320TIP3    H125375   0.556   0.303   4.014 -0.0444 -1.1599 -0.0193
 1320TIP3    H225376   0.596   0.387   4.133 -0.1581  1.1723 -1.5437
 1321TIP3   OH225377   4.083   0.682  13.628 -0.0290  0.5446  0.0674
 1321TIP3    H125378   4.109   0.740  13.557  0.0300  1.3039  0.6991
 1321TIP3    H225379   4.157   0.623  13.640 -0.6820 -0.7258 -1.6188
 1322TIP3   OH225380   0.816   0.448   1.745  0.1302 -0.0545  0.3569
 1322TIP3    H125381   0.899   0.401   1.740  0.3788  0.3595  0.5021
 1322TIP3    H225382   0.787   0.454   1.654  1.0461  1.1544  0.1077
 1323TIP3   OH225383   2.970   5.037  16.117  0.2434 -0.7938 -0.3935
 1323TIP3    H125384   2.977   4.943  16.096  2.3420 -1.4354  2.4847
 1323TIP3    H225385   2.943   5.038  16.209  1.4045  1.3999 -0.0319
 1324TIP3   OH225386   2.545   4.995  14.533  0.3089  0.1472 -0.1819
 1324TIP3    H125387   2.518   5.076  14.490 -0.4256  2.4229  3.9498
 1324TIP3    H225388   2.627   4.971  14.491  0.4206  2.9095 -1.7747
 1325TIP3   OH225389   0.088   4.128   2.722  0.0453 -0.2251  0.2415
 1325TIP3    H125390   0.057   4.038   2.723 -0.9301  0.1002  0.3323
 1325TIP3    H225391   0.009   4.181   2.733  0.6160  0.6378  0.3021
 1326TIP3   OH225392   5.601   0.256   5.494  0.1636 -0.2900 -0.7340
 1326TIP3    H125393   5.672   0.272   5.432  0.3459 -0.6752 -0.6224
 1326TIP3    H225394   5.535   0.209   5.442 -0.1241  0.2973 -0.9069
 1327TIP3   OH225395   5.307   6.259  12.694  0.4633 -0.3409  0.1597
 1327TIP3    H125396   5.244   6.250  12.622  1.0262 -1.0180 -0.2570
 1327TIP3    H225397   5.273   6.332  12.746 -0.0062  0.0884 -0.7284
 1328TIP3   OH225398   0.570   6.676   4.552  0.1363  0.0975  0.1116
 1328TIP3    H125399   0.493   6.641   4.508  0.4496 -0.8093  0.2549
 1328TIP3    H225400   0.632   6.603   4.552  2.4782  1.7668 -3.3293
 1329TIP3   OH225401   4.256   4.315  14.440  0.9264 -0.0558 -0.8093
 1329TIP3    H125402   4.337   4.275  14.473 -0.3022 -1.0630  1.1604
 1329TIP3    H225403   4.279   4.407  14.426  2.4557 -0.3558 -0.4807
 1330TIP3   OH225404   1.477   5.818  12.531  0.0830  0.0184 -0.6129
 1330TIP3    H125405   1.446   5.870  12.605  0.2856  0.3097 -0.7291
 1330TIP3    H225406   1.555   5.773  12.565  0.0814  0.0252 -0.6004
 1331TIP3   OH225407   4.227   3.657   2.160 -0.1820 -0.0534 -0.0097
 1331TIP3    H125408   4.191   3.706   2.234 -0.8613 -0.2005 -0.2372
 1331TIP3    H225409   4.275   3.585   2.200  1.7696  1.3679  0.3863
 1332TIP3   OH225410   4.478   3.312  17.185  0.4918 -0.3890  0.0034
 1332TIP3    H125411   4.403   3.369  17.170  0.2253 -0.7251  0.0674
 1332TIP3    H225412   4.441   3.228  17.210  0.8903 -0.5258  0.1486
 1333TIP3   OH225413   2.803   5.286  13.685 -0.0048 -0.0582 -0.5955
 1333TIP3    H125414   2.899   5.290  13.694 -0.2217  0.6643  2.3870
 1333TIP3    H225415   2.778   5.205  13.729 -0.8299 -0.0157 -0.9683
 1334TIP3   OH225416   0.537   1.068  12.167 -0.3482 -0.2058 -0.8795
 1334TIP3    H125417   0.462   1.014  12.142  0.2182 -1.0752 -0.7624
 1334TIP3    H225418   0.603   1.005  12.196 -0.5664  0.6683  1.8055
 1335TIP3   OH225419   3.910   2.262  15.949  0.3229 -0.6576  0.0149
 1335TIP3    H125420   3.947   2.331  16.005 -1.3295  0.9650 -0.7963
 1335TIP3    H225421   3.986   2.210  15.922  1.7769  1.3484 -0.0134
 1336TIP3   OH225422   3.477   6.792   5.000 -0.0630  0.3946 -0.4102
 1336TIP3    H125423   3.414   6.815   4.931 -1.5017 -0.8785  0.4073
 1336TIP3    H225424   3.528   6.720   4.963 -0.4284  0.1130 -0.3724
 1337TIP3   OH225425   6.496   3.205  13.923  0.0125  0.0702 -0.2752
 1337TIP3    H125426   6.522   3.289  13.960 -0.4326  0.3651 -0.6220
 1337TIP3    H225427   6.427   3.173  13.981  0.7998 -0.5008  0.3846
 1338TIP3   OH225428   2.364   4.063  11.822  0.4108  0.1629  0.5131
 1338TIP3    H125429   2.356   3.977  11.781  0.0132  0.0574  0.8007
 1338TIP3    H225430   2.273   4.091  11.836  0.5404  0.4307  0.8237
 1339TIP3   OH225431   1.127   1.075   2.599 -0.5612 -0.0784 -0.1612
 1339TIP3    H125432   1.125   1.068   2.504  0.7557  1.2513 -0.3189
 1339TIP3    H225433   1.219   1.061   2.622 -0.9509 -0.9414  0.9837
 1340TIP3   OH225434   4.152   5.758   5.413  0.0429 -0.0860  0.2433
 1340TIP3    H125435   4.101   5.784   5.336 -0.0714 -0.1457  0.2982
 1340TIP3    H225436   4.087   5.727   5.475  0.3083 -2.3122 -0.5108
 1341TIP3   OH225437   4.215   1.028  16.062 -0.5244  0.0039 -0.3544
 1341TIP3    H125438   4.248   1.083  15.991 -0.1460 -1.5592 -1.4366
 1341TIP3    H225439   4.292   1.009  16.116 -0.7864  1.0761  0.4424
 1342TIP3   OH225440   6.534   1.898   0.895 -0.2302  0.0802 -0.1747
 1342TIP3    H125441   6.439   1.883   0.898  0.0010 -2.0072 -1.2801
 1342TIP3    H225442   6.547   1.958   0.822 -0.6586 -0.3676 -0.6291
 1343TIP3   OH225443   1.985   6.422   0.264  0.0056  0.5063 -0.0790
 1343TIP3    H125444   1.958   6.378   0.344  1.3261 -1.0312 -0.4311
 1343TIP3    H225445   2.064   6.470   0.288  1.1147 -0.9342 -0.6742
 1344TIP3   OH225446   4.114   2.522  14.070  0.0315  0.4295  0.2658
 1344TIP3    H125447   4.075   2.488  13.990 -0.3537  0.4881  0.4239
 1344TIP3    H225448   4.067   2.476  14.140  1.7495 -1.1384  0.4477
 1345TIP3   OH225449   5.180   5.691   5.441 -0.9757  0.1637 -0.0268
 1345TIP3    H125450   5.177   5.595   5.445 -1.6289  0.2083  2.0273
 1345TIP3    H225451   5.098   5.716   5.398 -1.2970 -0.2063  0.3481
 1346TIP3   OH225452   3.072   2.693  11.526  0.0481  0.0805 -0.3590
 1346TIP3    H125453   2.983   2.661  11.543 -0.2153 -0.0013 -1.7451
 1346TIP3    H225454   3.128   2.617  11.542 -0.3162 -0.3667 -1.1260
 1347TIP3   OH225455   3.872   4.881  12.456 -0.5546 -0.4939  0.1413
 1347TIP3    H125456   3.795   4.914  12.503  0.1986 -0.5593  1.4842
 1347TIP3    H225457   3.872   4.787  12.473 -0.4705 -0.5794 -0.3115
 1348TIP3   OH225458   2.052   2.001   4.702  0.0189  0.6109 -0.2717
 1348TIP3    H125459   2.093   2.017   4.788 -0.7036  0.0782  0.1802
 1348TIP3    H225460   1.965   2.040   4.710 -0.7737 -1.1330 -0.0779
 1349TIP3   OH225461   6.099   6.009  15.197  0.0287 -0.1654 -0.4734
 1349TIP3    H125462   6.188   6.043  15.190 -0.3998  0.8732 -1.1848
 1349TIP3    H225463   6.053   6.072  15.252 -0.3224 -0.5885 -0.2760
 1350TIP3   OH225464   0.625   0.524   5.346 -0.1416 -0.0863 -0.6001
 1350TIP3    H125465   0.637   0.456   5.280 -0.5053 -1.0060  0.2480
 1350TIP3    H225466   0.597   0.476   5.424 -0.5184  1.0618 -0.0154
 1351TIP3   OH225467   1.180   3.001   1.258  0.3111  0.5884 -0.3873
 1351TIP3    H125468   1.192   3.090   1.224 -0.8982  0.6702 -0.6430
 1351TIP3    H225469   1.105   2.967   1.210  1.4291 -1.0019 -1.0871
 1352TIP3   OH225470   1.878   6.382  11.796  0.1879  0.0459 -0.3832
 1352TIP3    H125471   1.927   6.418  11.722 -0.9978  1.3425 -0.5889
 1352TIP3    H225472   1.786   6.397  11.773 -0.4005 -2.7911 -0.2756
 1353TIP3   OH225473   4.281   2.094   0.705 -0.3250 -0.0867 -0.6039
 1353TIP3    H125474   4.192   2.120   0.682 -0.1457 -0.0126 -1.2311
 1353TIP3    H225475   4.286   2.001   0.685 -0.6424 -0.3961  0.6463
 1354TIP3   OH225476   6.666   5.552  17.237 -0.4771  0.0393 -0.0720
 1354TIP3    H125477   6.645   5.495  17.163 -4.2658  0.4526  0.4586
 1354TIP3    H225478   6.615   5.631  17.221  2.2250  2.1058  0.7607
 1355TIP3   OH225479   1.264   6.420   1.358  0.4230 -0.4579  0.7375
 1355TIP3    H125480   1.173   6.445   1.343 -0.0749 -2.2621  0.5183
 1355TIP3    H225481   1.312   6.460   1.285 -0.5204 -1.1578 -0.2955
 1356TIP3   OH225482   3.444   1.932   1.524 -0.2894  0.0498 -0.7849
 1356TIP3    H125483   3.436   2.027   1.512  0.4561 -0.0889 -2.7296
 1356TIP3    H225484   3.385   1.912   1.596  0.2082  2.1090  0.2826
 1357TIP3   OH225485   6.273   6.070   5.797  0.3914 -0.0388  0.3090
 1357TIP3    H125486   6.327   6.073   5.876  0.8410  3.8366  0.0495
 1357TIP3    H225487   6.335   6.055   5.726  0.9518  2.3049  0.2231
 1358TIP3   OH225488   2.007   5.687  15.882  0.2370  0.3275 -0.1542
 1358TIP3    H125489   2.062   5.654  15.952  0.8181  1.0852 -0.2339
 1358TIP3    H225490   1.930   5.723  15.926  0.9895  1.5796  0.1948
 1359TIP3   OH225491   2.337   4.579   3.644 -0.2601 -0.3909 -0.2524
 1359TIP3    H125492   2.324   4.515   3.715  2.5003  0.1647  0.8752
 1359TIP3    H225493   2.429   4.571   3.622 -0.6275  0.8539 -2.4818
 1360TIP3   OH225494   4.862   2.053   0.166  0.5292 -0.1563 -0.1128
 1360TIP3    H125495   4.811   1.998   0.226 -1.1518  1.2458 -0.1484
 1360TIP3    H225496   4.906   2.116   0.223 -1.1162  1.2140 -0.2777
 1361TIP3   OH225497   1.396   4.141   4.348  0.0117  0.0594  0.3281
 1361TIP3    H125498   1.417   4.107   4.261 -1.7443 -1.3271  0.3802
 1361TIP3    H225499   1.442   4.083   4.409  0.5589  0.5139  0.3581
 1362TIP3   OH225500   4.839   1.927   1.168  0.5290 -0.5785 -0.2144
 1362TIP3    H125501   4.788   1.857   1.127 -1.8892  0.2521  1.1675
 1362TIP3    H225502   4.855   1.989   1.097  0.4694 -1.3402 -0.9068
 1363TIP3   OH225503   1.162   5.948  13.495 -0.2236  0.6350 -0.2587
 1363TIP3    H125504   1.121   5.862  13.496 -0.1514  0.6002 -0.3921
 1363TIP3    H225505   1.217   5.949  13.573 -0.0116  0.4601 -0.4078
 1364TIP3   OH225506   1.193   5.184  12.677 -0.1251 -0.2716  0.2833
 1364TIP3    H125507   1.280   5.212  12.648 -0.2334  0.3920  0.5795
 1364TIP3    H225508   1.171   5.110  12.620  0.0399  0.4397 -0.7226
 1365TIP3   OH225509   1.391   4.200   1.645  0.2253 -0.2204 -1.1779
 1365TIP3    H125510   1.417   4.111   1.621  1.1873  0.4409 -2.6749
 1365TIP3    H225511   1.429   4.256   1.578  1.5727  1.5963  0.9466
 1366TIP3   OH225512   0.754   2.930   4.211 -0.1440 -0.5466  0.7494
 1366TIP3    H125513   0.796   2.885   4.284 -0.0672  2.4914  2.7476
 1366TIP3    H225514   0.660   2.916   4.224 -0.1178 -0.2427  1.3010
 1367TIP3   OH225515   5.908   6.316   5.849  0.2886 -0.2359 -0.4327
 1367TIP3    H125516   5.833   6.376   5.853 -0.2785 -0.9254 -0.5038
 1367TIP3    H225517   5.884   6.244   5.908  0.7697 -0.6075 -0.6886
 1368TIP3   OH225518   2.260   1.596  17.122  0.0399 -0.2951 -0.3224
 1368TIP3    H125519   2.324   1.539  17.164 -0.2537  1.1049  2.2896
 1368TIP3    H225520   2.308   1.640  17.052  1.7362  0.0521  0.9997
 1369TIP3   OH225521   4.011   3.444  13.394  0.0126  0.1984 -0.7415
 1369TIP3    H125522   4.066   3.479  13.464 -1.4662 -0.7595  0.9835
 1369TIP3    H225523   4.069   3.385  13.346  1.3668  1.7288 -1.0795
 1370TIP3   OH225524   4.938   4.220  12.216 -0.7089  0.0713 -1.0252
 1370TIP3    H125525   4.981   4.166  12.283  1.0941  0.9660 -1.3994
 1370TIP3    H225526   4.846   4.192  12.218 -0.0401 -2.3430 -0.5501
 1371TIP3   OH225527   5.084   1.994   3.765 -0.2966  0.5272  0.0466
 1371TIP3    H125528   5.159   1.993   3.824  0.8097  0.6228 -1.2996
 1371TIP3    H225529   5.104   1.928   3.699 -0.3692  1.9507 -1.4937
 1372TIP3   OH225530   0.030   5.886  13.572  0.0253  0.0375 -0.0639
 1372TIP3    H125531   0.082   5.809  13.592  0.4571  0.4920  0.6341
 1372TIP3    H225532   0.057   5.912  13.484 -0.3142 -0.7422 -0.4137
 1373TIP3   OH225533   5.959   3.350   0.044 -0.4580  0.0761 -0.4266
 1373TIP3    H125534   6.031   3.380  -0.011  1.0285 -1.9742  0.2527
 1373TIP3    H225535   5.897   3.309  -0.017 -0.7421  1.2639 -0.9488
 1374TIP3   OH225536   0.726   3.524   5.155 -0.2613 -0.2444 -0.2140
 1374TIP3    H125537   0.753   3.480   5.074  0.3588  1.4610 -0.9728
 1374TIP3    H225538   0.807   3.551   5.197 -0.5275 -1.9369  1.5194
 1375TIP3   OH225539   3.875   4.356  16.374 -0.0037  0.1604  0.0497
 1375TIP3    H125540   3.851   4.264  16.383  1.5487 -0.3058 -0.2042
 1375TIP3    H225541   3.852   4.395  16.458  0.3132 -0.7061  0.5466
 1376TIP3   OH225542   3.260   3.629   3.290 -0.4227 -0.2088 -0.2624
 1376TIP3    H125543   3.294   3.550   3.333  0.5720  0.6971  0.6751
 1376TIP3    H225544   3.295   3.701   3.342 -0.3773  0.8925 -1.7727
 1377TIP3   OH225545   6.049   6.016   0.066 -0.5746  0.5445  0.2264
 1377TIP3    H125546   5.966   5.993   0.108  0.4861 -0.6852  1.7756
 1377TIP3    H225547   6.062   5.948  -0.001 -0.9184  0.8903 -0.2015
 1378TIP3   OH225548   6.681   1.414   5.367 -0.1695  0.2554  0.4260
 1378TIP3    H125549   6.626   1.460   5.431 -0.7477 -1.1814  0.9902
 1378TIP3    H225550   6.619   1.384   5.300  0.3259  1.0504 -0.4231
 1379TIP3   OH225551   5.421   0.391  15.832  0.1652 -0.1371  0.5855
 1379TIP3    H125552   5.402   0.361  15.921  0.6991 -0.0814  0.7237
 1379TIP3    H225553   5.407   0.314  15.777 -2.8215  0.4651  0.3245
 1380TIP3   OH225554   2.690   0.841   0.255  0.1342  0.2233  0.1397
 1380TIP3    H125555   2.660   0.899   0.185  1.6519  1.8381  0.7534
 1380TIP3    H225556   2.721   0.762   0.210 -1.1368  0.2203 -0.7846
 1381TIP3   OH225557   4.534   5.499   1.415 -0.6229  0.1649  0.0443
 1381TIP3    H125558   4.531   5.409   1.448  2.8878  0.4021  1.3781
 1381TIP3    H225559   4.593   5.495   1.340  1.3668  1.6077  1.4324
 1382TIP3   OH225560   0.154   4.881   1.396  0.3609 -0.4731 -0.0615
 1382TIP3    H125561   0.074   4.858   1.349 -0.7137  0.3070  1.2918
 1382TIP3    H225562   0.131   4.868   1.489  0.8401  2.4867  0.5560
 1383TIP3   OH225563   5.223   4.029   2.287  0.0417 -0.0216 -0.4300
 1383TIP3    H125564   5.305   3.983   2.270  0.7384 -0.2115  2.8158
 1383TIP3    H225565   5.228   4.108   2.233  2.0579 -0.3777 -0.8154
 1384TIP3   OH225566   0.056   6.640  16.991 -0.0767 -0.1928  0.5132
 1384TIP3    H125567  -0.008   6.573  17.015  1.0916 -1.3776  0.4314
 1384TIP3    H225568   0.021   6.720  17.028 -1.6387 -0.7862  0.4224
 1385TIP3   OH225569   5.021   0.931   2.341 -0.1403 -0.3031 -0.1876
 1385TIP3    H125570   5.088   0.921   2.273  0.9634 -0.6736  0.9225
 1385TIP3    H225571   4.939   0.911   2.297  0.0301  3.0706 -2.4039
 1386TIP3   OH225572   3.403   1.404  14.795 -0.2533  0.4574 -0.4254
 1386TIP3    H125573   3.430   1.453  14.717  0.7616  0.5573 -0.0372
 1386TIP3    H225574   3.450   1.321  14.788  2.8593  1.8046  1.8134
 1387TIP3   OH225575   2.465   5.856  12.702 -0.2998  0.2203 -0.4234
 1387TIP3    H125576   2.542   5.800  12.713  0.0884  0.4877 -1.6449
 1387TIP3    H225577   2.391   5.800  12.723  0.2258  0.0551  1.1366
 1388TIP3   OH225578   1.855   3.581   1.204 -0.3135 -0.0560  0.0514
 1388TIP3    H125579   1.886   3.553   1.117  1.0592  0.9555  0.1830
 1388TIP3    H225580   1.933   3.577   1.259 -0.3484  2.5560  0.4108
 1389TIP3   OH225581   0.442   6.789  16.952 -0.2601 -0.1453  0.1726
 1389TIP3    H125582   0.504   6.828  17.015 -1.5736  0.0039  1.4195
 1389TIP3    H225583   0.399   6.720  17.001 -1.9948  0.5932 -0.2447
 1390TIP3   OH225584   4.624   1.275   0.753 -0.1709 -0.1190 -0.5976
 1390TIP3    H125585   4.659   1.361   0.777 -0.5938  0.2867 -1.3898
 1390TIP3    H225586   4.635   1.222   0.832 -1.6852  1.2135  0.5798
 1391TIP3   OH225587   1.387   5.280  12.285 -0.4943  0.1389 -0.2445
 1391TIP3    H125588   1.393   5.238  12.199 -2.6998 -0.1130 -0.3362
 1391TIP3    H225589   1.368   5.207  12.345  0.6960  0.3581  0.4204
 1392TIP3   OH225590   1.209   4.416   0.322  0.3756 -0.8765  0.0807
 1392TIP3    H125591   1.204   4.363   0.402  1.7263 -0.8905  0.1708
 1392TIP3    H225592   1.285   4.472   0.335 -0.7817  0.8081 -0.2023
 1393TIP3   OH225593   0.949   1.247  14.156 -0.2052  0.2212 -0.1772
 1393TIP3    H125594   0.857   1.254  14.129  0.3002  3.2760 -1.6136
 1393TIP3    H225595   0.965   1.328  14.206  1.6983 -0.2371  0.0338
 1394TIP3   OH225596   1.316   6.757  13.033  0.8083 -0.0545 -0.0962
 1394TIP3    H125597   1.279   6.670  13.044 -0.6240  0.2357 -2.0417
 1394TIP3    H225598   1.374   6.749  12.957  0.8740  0.6276 -0.1263
 1395TIP3   OH225599   2.320   5.078   4.725 -0.1851 -0.1254  0.1662
 1395TIP3    H125600   2.365   5.131   4.659  1.1248  1.1995  1.9946
 1395TIP3    H225601   2.242   5.045   4.681  2.0108 -1.7915 -2.9565
 1396TIP3   OH225602   0.861   0.988   0.781  0.2015  0.9012 -0.5467
 1396TIP3    H125603   0.916   0.914   0.810  1.0012  1.0194 -1.6889
 1396TIP3    H225604   0.807   1.008   0.857  0.9952  0.0779  0.2717
 1397TIP3   OH225605   0.783   0.102  16.227  0.1281  0.5747  0.2059
 1397TIP3    H125606   0.863   0.083  16.277 -0.1239 -1.6492 -0.1530
 1397TIP3    H225607   0.758   0.018  16.190 -0.6457  1.8268 -2.2911
 1398TIP3   OH225608   5.436   5.486   1.650  0.4077 -0.0885  0.6016
 1398TIP3    H125609   5.379   5.491   1.727 -0.0934 -0.6376  0.2753
 1398TIP3    H225610   5.394   5.541   1.585 -0.0655 -0.9254  0.1762
 1399TIP3   OH225611   4.369   3.801  15.629  0.2829  0.1693 -0.2631
 1399TIP3    H125612   4.287   3.760  15.656  0.8944 -1.1458 -0.3169
 1399TIP3    H225613   4.381   3.874  15.689 -1.0285  0.5247 -0.3990
 1400TIP3   OH225614   2.039   5.323  16.206  0.0110 -0.1058  0.4260
 1400TIP3    H125615   2.001   5.282  16.129  1.0002 -1.2628  0.5290
 1400TIP3    H225616   2.130   5.292  16.208 -0.1602 -0.6217  2.4132
 1401TIP3   OH225617   3.837   4.478  15.711 -0.1516  0.7389 -0.1598
 1401TIP3    H125618   3.781   4.405  15.734 -0.3870  0.9863  0.0619
 1401TIP3    H225619   3.789   4.525  15.643 -0.0670  0.7698 -0.1993
 1402TIP3   OH225620   0.290   2.234   0.233 -0.0858 -0.1854  0.6475
 1402TIP3    H125621   0.292   2.292   0.309  0.4881  1.1877 -0.3745
 1402TIP3    H225622   0.250   2.286   0.164  0.0683 -1.1554 -0.2057
 1403TIP3   OH225623   6.749   1.610   2.796 -0.0735 -0.0321  0.3405
 1403TIP3    H125624   6.831   1.649   2.766 -1.1731  2.3835  0.2319
 1403TIP3    H225625   6.776   1.544   2.861  1.9516  0.0701 -0.3303
 1404TIP3   OH225626   0.815   2.762   0.679 -0.1310 -0.5201  0.0479
 1404TIP3    H125627   0.829   2.739   0.771 -1.1982 -1.1508  0.0693
 1404TIP3    H225628   0.827   2.857   0.677 -0.6174 -0.4207  0.9539
 1405TIP3   OH225629   0.406   2.610   3.791  0.0608  0.1014  0.4023
 1405TIP3    H125630   0.344   2.585   3.722 -0.5116 -0.3482  1.0644
 1405TIP3    H225631   0.405   2.536   3.852  1.4810 -0.0400  0.2875
 1406TIP3   OH225632   3.647   1.841   1.979  0.1841  0.7778 -0.3045
 1406TIP3    H125633   3.733   1.828   1.939  0.7220  0.4378  0.9212
 1406TIP3    H225634   3.609   1.753   1.984 -0.1817  0.9063 -0.6937
 1407TIP3   OH225635   0.779   4.939   0.603  0.4460  0.2916  0.2692
 1407TIP3    H125636   0.730   5.009   0.645 -0.4747 -0.7883  1.0412
 1407TIP3    H225637   0.715   4.894   0.548  1.1939  0.4817 -0.8114
 1408TIP3   OH225638   0.746   4.592  14.232  0.2160  0.1186  0.4028
 1408TIP3    H125639   0.819   4.654  14.229 -0.8494  1.5672  2.1812
 1408TIP3    H225640   0.769   4.530  14.301 -0.1731  0.5304  0.9113
 1409TIP3   OH225641   1.844   0.317  15.446  0.0571 -0.2214  0.3493
 1409TIP3    H125642   1.764   0.267  15.458 -0.6063  0.6841 -0.1707
 1409TIP3    H225643   1.815   0.408  15.443  1.3638  0.3454  2.6292
 1410TIP3   OH225644   4.244   1.841  13.318  0.6567 -0.2152 -0.2507
 1410TIP3    H125645   4.153   1.866  13.300  0.3732 -1.0300  0.0023
 1410TIP3    H225646   4.245   1.822  13.412  0.9391 -0.7936 -0.3662
 1411TIP3   OH225647   5.890   1.748  13.823 -0.1482 -0.1480 -0.4734
 1411TIP3    H125648   5.948   1.788  13.759 -1.7035  0.1521 -1.7790
 1411TIP3    H225649   5.870   1.819  13.884  1.3505 -0.4376  0.3966
 1412TIP3   OH225650   5.700   4.405  13.047  0.2824 -0.0864 -0.1424
 1412TIP3    H125651   5.620   4.420  13.097  0.4343 -1.3081  0.5080
 1412TIP3    H225652   5.770   4.436  13.104  0.5131 -2.0887  0.7723
 1413TIP3   OH225653   6.260   6.292   0.260  0.6875 -0.5071 -0.3428
 1413TIP3    H125654   6.339   6.345   0.266  0.4604 -0.2436  0.4630
 1413TIP3    H225655   6.189   6.352   0.283  0.4416 -1.1708  0.7020
 1414TIP3   OH225656   5.232   5.425   5.479  0.1325 -0.1825 -0.0515
 1414TIP3    H125657   5.259   5.372   5.404  0.7542  0.9443 -0.6366
 1414TIP3    H225658   5.267   5.378   5.555  0.1358 -0.9334 -0.5041
 1415TIP3   OH225659   3.947   6.544  16.616 -0.2957 -0.4988  0.7140
 1415TIP3    H125660   3.879   6.566  16.679 -0.0103 -0.5320  1.0323
 1415TIP3    H225661   3.933   6.452  16.595 -0.9335 -0.2682  0.0607
 1416TIP3   OH225662   1.835   5.749   4.870  0.4190  0.3120 -0.9234
 1416TIP3    H125663   1.847   5.814   4.801 -1.0722  2.0591  0.3715
 1416TIP3    H225664   1.740   5.736   4.876  0.3879  1.0464  1.4737
 1417TIP3   OH225665   0.811   0.083   0.351 -0.7613  0.5196  0.3980
 1417TIP3    H125666   0.717   0.066   0.339 -0.5434 -0.4765  0.1066
 1417TIP3    H225667   0.824   0.079   0.446 -0.8966  0.0636  0.3955
 1418TIP3   OH225668   4.938   2.461   4.088  0.1719 -0.1773  0.8470
 1418TIP3    H125669   4.858   2.493   4.130 -0.9885 -1.4858 -0.2656
 1418TIP3    H225670   4.989   2.540   4.071 -1.5165  0.8666  0.3270
 1419TIP3   OH225671   0.756   3.131  13.248  0.3844 -0.1170 -0.5350
 1419TIP3    H125672   0.782   3.049  13.207 -0.3579  0.1151 -1.5084
 1419TIP3    H225673   0.809   3.198  13.205  0.2454  0.0308 -0.4777
 1420TIP3   OH225674   2.262   1.596  11.901 -0.8155 -0.3023 -0.0010
 1420TIP3    H125675   2.230   1.531  11.962 -1.4998 -0.7575 -0.8281
 1420TIP3    H225676   2.304   1.663  11.956 -0.2641 -1.3363  0.8599
 1421TIP3   OH225677   3.692   2.393  14.708 -0.3112 -0.4315 -0.0081
 1421TIP3    H125678   3.667   2.324  14.769 -0.0303  0.7667  1.5370
 1421TIP3    H225679   3.788   2.396  14.713  0.1506 -2.8719 -3.4995
 1422TIP3   OH225680   5.174   6.706   2.880  0.0480  0.4011  0.4253
 1422TIP3    H125681   5.091   6.669   2.908  1.0462 -1.8851  0.6219
 1422TIP3    H225682   5.229   6.705   2.959  0.3142  1.8214  0.2905
 1423TIP3   OH225683   0.334   4.354  11.428  0.9212 -0.4131  0.0190
 1423TIP3    H125684   0.296   4.383  11.346  3.3036  4.3731  0.2866
 1423TIP3    H225685   0.417   4.314  11.404  0.4007 -1.5603  0.0397
 1424TIP3   OH225686   1.897   1.356  12.391 -0.0447 -0.1618 -0.2060
 1424TIP3    H125687   1.881   1.263  12.377 -0.1846 -0.3214  0.9281
 1424TIP3    H225688   1.826   1.401  12.345  1.8365 -0.4180 -3.6895
 1425TIP3   OH225689   2.626   3.134  11.581 -0.3380 -0.1811  1.1971
 1425TIP3    H125690   2.695   3.143  11.516 -0.0788 -2.7315  1.0014
 1425TIP3    H225691   2.567   3.207  11.565  0.2808 -0.1457 -1.2123
 1426TIP3   OH225692   6.668   0.212  16.389  0.4529  0.3818  0.0635
 1426TIP3    H125693   6.740   0.150  16.406 -1.1890 -1.0306  2.3736
 1426TIP3    H225694   6.597   0.157  16.356 -0.2199  1.4630 -0.3313
 1427TIP3   OH225695   1.198   2.615  11.894 -0.7949 -0.0103 -0.0763
 1427TIP3    H125696   1.271   2.625  11.834  0.9875 -1.7857  1.6108
 1427TIP3    H225697   1.184   2.702  11.931  1.5821  0.1119  0.6880
 1428TIP3   OH225698   5.770   0.420   0.249  0.2038 -0.8786 -0.0907
 1428TIP3    H125699   5.688   0.379   0.277 -0.7239  1.1921  0.4661
 1428TIP3    H225700   5.797   0.472   0.325  0.3863  0.8495 -1.2767
 1429TIP3   OH225701   1.155   5.833  16.278 -0.1397 -0.3409  0.0555
 1429TIP3    H125702   1.207   5.782  16.215  1.1798  0.0018  0.8318
 1429TIP3    H225703   1.074   5.853  16.231  0.4643 -0.8087 -1.2374
 1430TIP3   OH225704   5.065   5.666  15.020 -0.1337  0.0493  0.3780
 1430TIP3    H125705   5.143   5.612  15.004 -0.4613 -0.5640  0.7961
 1430TIP3    H225706   5.100   5.750  15.049  0.4105  0.5044 -1.5225
 1431TIP3   OH225707   0.526   1.541  13.052 -0.1276 -0.0978  0.4317
 1431TIP3    H125708   0.617   1.558  13.078 -0.0963 -0.2157  0.4003
 1431TIP3    H225709   0.501   1.618  13.002  0.7979 -1.1209 -1.7748
 1432TIP3   OH225710   5.398   3.174   2.910 -0.3776  0.0810  0.2862
 1432TIP3    H125711   5.335   3.211   2.972 -2.1225 -0.3559 -1.1338
 1432TIP3    H225712   5.374   3.214   2.826  1.8262  0.5570 -0.1880
 1433TIP3   OH225713   1.974   2.567  14.871 -0.0676 -0.3482 -0.0880
 1433TIP3    H125714   1.959   2.650  14.915  2.8129 -1.0675  2.6363
 1433TIP3    H225715   2.045   2.585  14.809 -1.7510 -0.1166 -2.0326
 1434TIP3   OH225716   3.673   5.499   4.995  0.1734  0.3535 -0.0823
 1434TIP3    H125717   3.656   5.592   4.983  0.3520  0.2529 -1.2319
 1434TIP3    H225718   3.660   5.484   5.089  1.5428  1.8086  0.3719
 1435TIP3   OH225719   4.484   1.635  16.546 -0.1841 -0.5922  0.1684
 1435TIP3    H125720   4.543   1.582  16.600  0.7667 -0.1312 -0.4023
 1435TIP3    H225721   4.438   1.690  16.609  0.0852 -0.8625  0.6112
 1436TIP3   OH225722   0.810   2.116  12.116  0.8324  0.3947  0.4447
 1436TIP3    H125723   0.760   2.081  12.042  2.4424 -0.0939 -0.4602
 1436TIP3    H225724   0.877   2.171  12.076  1.7209  0.1516  1.5453
 1437TIP3   OH225725   3.281   1.392   4.593 -0.2224 -0.6097 -0.1920
 1437TIP3    H125726   3.269   1.301   4.617  1.8367 -0.7321  0.5919
 1437TIP3    H225727   3.362   1.393   4.542  0.0843  0.8511  0.2777
 1438TIP3   OH225728   5.779   1.876  11.421  0.9171  0.0610 -0.7392
 1438TIP3    H125729   5.728   1.888  11.342  0.8829  0.0413 -0.7200
 1438TIP3    H225730   5.866   1.850  11.390  1.7330  2.7611 -0.8937
 1439TIP3   OH225731   4.419   6.266  12.548 -0.6041  0.7386 -0.0085
 1439TIP3    H125732   4.513   6.282  12.542  0.0986 -2.8091 -0.8697
 1439TIP3    H225733   4.396   6.290  12.638  2.0844 -1.9457  1.5961
 1440TIP3   OH225734   2.229   1.055   2.528  0.1367 -0.0242  0.2118
 1440TIP3    H125735   2.163   1.121   2.550 -1.0946 -0.4757 -1.8347
 1440TIP3    H225736   2.266   1.029   2.613 -1.2061  1.3721  1.2904
 1441TIP3   OH225737   1.746   4.912  15.992  0.3061 -0.2262  0.6716
 1441TIP3    H125738   1.740   4.880  15.902  0.0144  1.7356 -0.0414
 1441TIP3    H225739   1.814   4.857  16.032  1.7998  0.0830 -1.2902
 1442TIP3   OH225740   4.497   4.004   0.626 -0.2003  0.1121  0.1306
 1442TIP3    H125741   4.584   4.043   0.628 -0.2789  0.2634  1.2152
 1442TIP3    H225742   4.495   3.945   0.701 -0.5032 -1.0836 -0.7929
 1443TIP3   OH225743   0.211   6.184   4.829 -0.5508 -0.8226  0.3374
 1443TIP3    H125744   0.193   6.278   4.822 -2.9681 -1.1817  0.8557
 1443TIP3    H225745   0.233   6.171   4.922 -1.6706 -0.9785  0.5840
 1444TIP3   OH225746   5.298   1.568  11.863  0.3364 -0.6306 -0.4545
 1444TIP3    H125747   5.232   1.545  11.929 -0.3607  1.0155 -0.5309
 1444TIP3    H225748   5.360   1.624  11.910 -0.2890  0.7491 -1.2140
 1445TIP3   OH225749   0.223   6.270   0.989  0.5968  0.0224 -0.1095
 1445TIP3    H125750   0.271   6.212   1.047 -0.4492 -1.8428 -1.0104
 1445TIP3    H225751   0.169   6.211   0.936 -0.5295  1.8322 -1.0678
 1446TIP3   OH225752   6.082   2.128  12.192 -0.2449 -0.2809  0.0155
 1446TIP3    H125753   6.037   2.179  12.258  0.5486  0.5271 -0.0443
 1446TIP3    H225754   6.165   2.103  12.233  0.3905  0.4912 -0.7502
 1447TIP3   OH225755   1.221   5.504  16.331 -0.1411 -0.2601  0.2726
 1447TIP3    H125756   1.132   5.497  16.364 -0.1604 -0.1008  0.2555
 1447TIP3    H225757   1.215   5.566  16.258  0.3566  1.5313  1.6652
 1448TIP3   OH225758   6.215   2.711   3.456 -0.2562  0.4031 -0.4106
 1448TIP3    H125759   6.236   2.618   3.459 -1.3954  0.0714 -1.7142
 1448TIP3    H225760   6.258   2.743   3.377 -1.1178  0.6346 -0.7984
 1449TIP3   OH225761   3.825   6.798   2.953 -0.3949  0.7902  0.4020
 1449TIP3    H125762   3.794   6.730   2.892 -0.7073  2.5410 -1.5226
 1449TIP3    H225763   3.920   6.789   2.952 -0.4800 -0.7744  1.6596
 1450TIP3   OH225764   5.277   1.376   3.240 -0.3109  0.6119 -0.4615
 1450TIP3    H125765   5.278   1.340   3.329 -1.0539 -0.3166 -0.8086
 1450TIP3    H225766   5.355   1.431   3.236 -0.1279  0.4726  0.6826
 1451TIP3   OH225767   6.497   1.833   1.510  0.0974 -0.6980  0.3897
 1451TIP3    H125768   6.412   1.805   1.477  0.0317 -1.2577  1.0105
 1451TIP3    H225769   6.507   1.787   1.594 -0.7604  2.4598  2.3802
 1452TIP3   OH225770   5.466   0.191   5.188 -0.0432 -0.2535  0.0695
 1452TIP3    H125771   5.413   0.235   5.253 -0.5667 -0.7846  0.0146
 1452TIP3    H225772   5.554   0.187   5.226  0.1869  1.4519 -0.2272
 1453TIP3   OH225773   3.102   5.944  11.643  0.2194 -0.4314 -0.8358
 1453TIP3    H125774   3.134   5.965  11.555  1.0159  1.7231 -0.1063
 1453TIP3    H225775   3.171   5.977  11.701 -1.7983  1.3260  0.6879
 1454TIP3   OH225776   3.315   3.668  15.361 -0.3187 -0.0705 -0.7636
 1454TIP3    H125777   3.317   3.573  15.373 -0.1465 -0.0098 -0.3187
 1454TIP3    H225778   3.276   3.680  15.274 -1.6675 -0.4970 -0.2310
 1455TIP3   OH225779   3.063   0.959   5.723 -0.5265  0.1314  0.1088
 1455TIP3    H125780   2.981   0.912   5.714  0.4759 -1.4163 -2.0674
 1455TIP3    H225781   3.126   0.893   5.753  0.0660  1.1492  1.2064
 1456TIP3   OH225782   4.512   5.739  12.096  0.0464 -0.2990 -0.0251
 1456TIP3    H125783   4.472   5.663  12.053 -2.5543  1.4951 -0.9773
 1456TIP3    H225784   4.464   5.750  12.177 -0.2292  0.8391 -0.3249
 1457TIP3   OH225785   3.062   3.286  16.290  0.1703  0.3549 -0.2507
 1457TIP3    H125786   2.972   3.289  16.256  0.0870  2.6316  0.0031
 1457TIP3    H225787   3.084   3.378  16.306  2.9997  0.0028 -1.4881
 1458TIP3   OH225788   5.645   2.354   4.946 -0.6713 -0.3881  0.3190
 1458TIP3    H125789   5.554   2.333   4.967 -1.0840 -0.2609 -1.2643
 1458TIP3    H225790   5.691   2.343   5.029 -1.8680 -1.8753  0.8270
 1459TIP3   OH225791   1.473   2.070  13.282 -0.0233  0.9215 -0.5476
 1459TIP3    H125792   1.410   2.061  13.210 -0.0061  1.5003 -0.6414
 1459TIP3    H225793   1.431   2.130  13.344  0.2254  0.9236 -0.3788
 1460TIP3   OH225794   5.846   0.324  10.874 -0.0735  0.0556  0.1174
 1460TIP3    H125795   5.836   0.305  10.781  0.0155  2.6775 -0.4928
 1460TIP3    H225796   5.940   0.328  10.888 -0.0816  1.3785 -0.1037
 1461TIP3   OH225797   5.333   5.827  16.860 -0.1470  0.4319 -0.0306
 1461TIP3    H125798   5.391   5.830  16.784  1.3515 -1.8581  0.9051
 1461TIP3    H225799   5.250   5.795  16.825  0.2589  0.2253 -0.8374
 1462TIP3   OH225800   1.235   0.180  11.790 -0.3784  0.1456  0.5737
 1462TIP3    H125801   1.177   0.174  11.714  0.9615 -0.0765 -0.4654
 1462TIP3    H225802   1.177   0.204  11.863 -1.5302  1.4276 -0.7135
 1463TIP3   OH225803   1.910   2.811  13.790  0.0466  1.2558 -0.2003
 1463TIP3    H125804   1.885   2.904  13.792 -1.5221  0.8463  1.1303
 1463TIP3    H225805   1.884   2.777  13.875  1.3212 -0.2595 -0.3709
 1464TIP3   OH225806   4.459   0.498   1.558 -0.5872  0.4063 -0.0827
 1464TIP3    H125807   4.400   0.499   1.482  0.7355 -1.2230 -1.2082
 1464TIP3    H225808   4.542   0.531   1.524 -0.1250  0.1953  0.8188
 1465TIP3   OH225809   3.158   3.873   1.716  0.7891  0.0038  0.0405
 1465TIP3    H125810   3.167   3.795   1.771 -0.4931  0.7487  1.3643
 1465TIP3    H225811   3.101   3.931   1.765  1.3108  1.6003 -1.1412
 1466TIP3   OH225812   0.179   6.512   5.745  0.7103  0.3973  0.1884
 1466TIP3    H125813   0.100   6.540   5.699  2.3496 -0.3985 -3.4768
 1466TIP3    H225814   0.167   6.544   5.834 -3.0399  1.5782 -0.5412
 1467TIP3   OH225815   3.571   3.324  14.374  0.1454 -0.1346 -0.4138
 1467TIP3    H125816   3.484   3.351  14.406  1.1533  0.9589  1.5978
 1467TIP3    H225817   3.586   3.380  14.298  0.8624  3.0100  1.8358
 1468TIP3   OH225818   0.169   1.800  16.241  0.4573 -0.8518  1.2329
 1468TIP3    H125819   0.204   1.773  16.156  1.1014 -0.5813  1.4044
 1468TIP3    H225820   0.223   1.874  16.267 -1.8721  1.3066  0.3244
 1469TIP3   OH225821   5.560   6.292  14.334 -0.7076  0.6673 -0.9808
 1469TIP3    H125822   5.553   6.198  14.317  0.1905 -0.0803  2.1635
 1469TIP3    H225823   5.535   6.333  14.251 -0.7380 -2.3154 -2.5866
 1470TIP3   OH225824   3.805   1.648   2.962  0.2248  0.4952 -0.0884
 1470TIP3    H125825   3.759   1.587   3.021 -0.7110  0.1558 -1.1335
 1470TIP3    H225826   3.758   1.730   2.971  0.9093  0.8186  0.6208
 1471TIP3   OH225827   1.056   4.425  15.243  0.3908  0.4380 -0.9544
 1471TIP3    H125828   1.062   4.447  15.336 -0.3768  2.8790 -1.4142
 1471TIP3    H225829   1.017   4.338  15.242 -3.3502  1.8482  1.0452
 1472TIP3   OH225830   5.329   0.033   0.321  0.1028  1.1576 -0.8042
 1472TIP3    H125831   5.319  -0.061   0.312  1.3153  1.1719 -2.8649
 1472TIP3    H225832   5.258   0.071   0.269 -0.5852  1.4271  0.2844
 1473TIP3   OH225833   4.416   3.931   1.283 -0.1318  0.0211 -0.7009
 1473TIP3    H125834   4.492   3.877   1.261 -0.0241 -0.1265  0.0075
 1473TIP3    H225835   4.448   4.021   1.279  0.0907 -0.0427 -0.3718
 1474TIP3   OH225836   4.908   6.016   0.226  0.5856  0.1902 -0.0436
 1474TIP3    H125837   4.943   5.969   0.150  0.5055  0.9739 -0.5740
 1474TIP3    H225838   4.977   6.078   0.249  0.8788 -0.4784  0.9401
 1475TIP3   OH225839   4.048   0.221   3.070  0.5474 -0.1728 -0.0429
 1475TIP3    H125840   4.013   0.228   2.981  1.2285 -1.5135 -0.4360
 1475TIP3    H225841   3.970   0.213   3.125  0.1569 -0.7975 -0.6684
 1476TIP3   OH225842   6.613   5.610   2.817 -0.0750 -0.0870 -0.2338
 1476TIP3    H125843   6.690   5.579   2.769  1.5135  2.1144  0.7122
 1476TIP3    H225844   6.581   5.684   2.765  0.6101  1.2078  1.1258
 1477TIP3   OH225845   5.976   6.043   6.270 -0.3341 -0.1650  0.3975
 1477TIP3    H125846   6.065   6.074   6.252 -0.1117  1.4346  3.5103
 1477TIP3    H225847   5.985   5.948   6.278  1.0946 -0.0440  0.4876
 1478TIP3   OH225848   0.711   1.254  14.934 -0.0734 -0.0758  0.2397
 1478TIP3    H125849   0.700   1.170  14.888 -0.2635 -0.6108  1.2472
 1478TIP3    H225850   0.707   1.320  14.864 -0.6193 -0.8582 -0.4846
 1479TIP3   OH225851   0.499   3.301  12.947  0.3531 -0.7543  0.2790
 1479TIP3    H125852   0.520   3.359  13.020 -0.9580 -0.9354  0.8188
 1479TIP3    H225853   0.403   3.295  12.947  0.4302 -2.7108  0.0856
 1480TIP3   OH225854   2.699   2.006  15.008  0.1213 -0.1506 -0.0103
 1480TIP3    H125855   2.738   1.932  15.054  1.3706 -1.6196 -3.1194
 1480TIP3    H225856   2.618   1.972  14.971  0.8507 -0.1375 -1.7107
 1481TIP3   OH225857   4.997   6.656  11.150  0.1551 -0.3753 -0.4636
 1481TIP3    H125858   5.091   6.675  11.159  0.4974 -2.1426  0.2870
 1481TIP3    H225859   4.990   6.615  11.063 -0.2478  1.3384 -1.2683
 1482TIP3   OH225860   0.074   3.039   1.297 -0.1931  0.8843 -0.3730
 1482TIP3    H125861   0.029   3.113   1.257 -0.7590 -0.1172 -1.6583
 1482TIP3    H225862   0.148   3.021   1.240 -0.5715 -0.0829 -0.5831
 1483TIP3   OH225863   4.390   1.809   0.260  0.0434  0.5269 -0.4486
 1483TIP3    H125864   4.300   1.839   0.247 -0.3968 -0.0702  0.9420
 1483TIP3    H225865   4.404   1.743   0.193  0.5816  2.7779 -2.7137
 1484TIP3   OH225866   5.349   0.422  16.354 -0.0425  0.1481 -0.1886
 1484TIP3    H125867   5.380   0.512  16.342 -1.1701  0.5169 -0.3768
 1484TIP3    H225868   5.321   0.418  16.446 -0.0644  0.0029 -0.2008
 1485TIP3   OH225869   2.648   0.297  10.245  0.1598  0.3250 -0.1989
 1485TIP3    H125870   2.560   0.323  10.220 -1.1063 -3.2177  0.0756
 1485TIP3    H225871   2.684   0.255  10.166  0.7400 -0.2369  0.3508
 1486TIP3   OH225872   4.189   1.829   5.143  0.2537 -0.1864  0.0858
 1486TIP3    H125873   4.284   1.829   5.130  0.4212  1.1034  1.1827
 1486TIP3    H225874   4.154   1.798   5.060  1.6400 -1.1320 -0.1906
 1487TIP3   OH225875   5.447   5.490  11.468  0.0213 -0.1365 -0.2653
 1487TIP3    H125876   5.521   5.549  11.453  0.2648 -0.6147 -1.0146
 1487TIP3    H225877   5.448   5.431  11.393  0.0272 -1.3403  0.6471
 1488TIP3   OH225878   2.622   6.314  15.471 -0.1109 -0.0389  0.2884
 1488TIP3    H125879   2.583   6.397  15.445  0.9350  0.1593 -0.6965
 1488TIP3    H225880   2.576   6.290  15.552 -0.6580  1.3102  0.3929
 1489TIP3   OH225881   6.147   5.649  11.205 -0.1857  0.1997 -0.3040
 1489TIP3    H125882   6.160   5.563  11.244  0.3285  0.3634 -0.0958
 1489TIP3    H225883   6.065   5.682  11.242  0.4432  0.4784  0.8819
 1490TIP3   OH225884   3.827   3.814   4.538  0.1636 -0.0576 -0.3126
 1490TIP3    H125885   3.756   3.760   4.503 -0.9050  0.1251  1.4292
 1490TIP3    H225886   3.842   3.881   4.471 -1.9771  0.4674 -0.3518
 1491TIP3   OH225887   3.231   3.347   6.655  0.3770  0.3902 -0.1915
 1491TIP3    H125888   3.264   3.393   6.733  0.0682 -0.6571  0.5808
 1491TIP3    H225889   3.298   3.363   6.588  1.3845  0.1090  0.7088
 1492TIP3   OH225890   5.979   6.211   1.795  0.1000  0.4119  0.1191
 1492TIP3    H125891   6.000   6.131   1.748 -0.2119  0.4025 -0.0050
 1492TIP3    H225892   5.915   6.184   1.861 -1.4307  0.8878 -1.1315
 1493TIP3   OH225893   3.905   5.846   4.215  0.1673 -0.3509  0.5829
 1493TIP3    H125894   3.990   5.889   4.224 -0.0933  0.2986  0.0529
 1493TIP3    H225895   3.898   5.826   4.121 -1.4794  2.2437  0.0529
 1494TIP3   OH225896   0.447   2.838   3.327 -0.0972  0.1773  0.2052
 1494TIP3    H125897   0.361   2.880   3.323 -0.4027 -0.3434  0.9374
 1494TIP3    H225898   0.500   2.897   3.381  0.1336  0.6948 -0.5703
 1495TIP3   OH225899   0.766   0.008  14.636 -0.7592  0.2007 -0.2736
 1495TIP3    H125900   0.852  -0.022  14.664 -1.4398 -0.7198  0.9512
 1495TIP3    H225901   0.762   0.100  14.663  0.2146  0.5679 -1.3093
 1496TIP3   OH225902   5.997   1.732  12.381  0.3036  0.3187 -0.0233
 1496TIP3    H125903   6.038   1.815  12.407  1.0319 -0.0357 -0.0281
 1496TIP3    H225904   5.920   1.726  12.438  1.1964  0.1638  1.2237
 1497TIP3   OH225905   2.324   6.464  15.040  0.2508  0.2877  0.1150
 1497TIP3    H125906   2.302   6.420  14.958  0.6843  0.6500 -0.2035
 1497TIP3    H225907   2.372   6.398  15.091 -1.6525 -0.5722  0.8966
 1498TIP3   OH225908   1.066   5.027   1.265 -0.2691 -0.5721 -0.1324
 1498TIP3    H125909   1.149   5.054   1.225 -0.3899  0.8051  0.4924
 1498TIP3    H225910   1.037   4.953   1.212 -0.8171  1.6185 -3.1329
 1499TIP3   OH225911   0.027   5.694   2.580 -0.1754  0.1471 -0.8443
 1499TIP3    H125912   0.006   5.786   2.567  1.2259  0.5215 -0.6479
 1499TIP3    H225913   0.036   5.659   2.492 -0.4249  0.2717 -0.9191
 1500TIP3   OH225914   5.428   5.072  15.687  0.3907  0.2810 -0.0081
 1500TIP3    H125915   5.450   4.986  15.651 -1.8462 -0.0460 -0.8067
 1500TIP3    H225916   5.369   5.053  15.760 -0.4943  1.1083 -0.4779
 1501TIP3   OH225917   2.987   5.839  15.637 -0.1459  0.5241  0.2224
 1501TIP3    H125918   2.930   5.885  15.576 -0.2038 -0.2081 -0.2957
 1501TIP3    H225919   3.073   5.880  15.626 -0.4552  1.2941  0.6426
 1502TIP3   OH225920   2.249   4.216   1.347 -0.3856  0.0459  0.7546
 1502TIP3    H125921   2.225   4.123   1.351 -0.2925 -0.1239 -1.5564
 1502TIP3    H225922   2.231   4.249   1.435 -1.1320 -1.9897  1.4175
 1503TIP3   OH225923   2.721   4.881   4.284 -0.1011 -0.3689  0.4032
 1503TIP3    H125924   2.798   4.879   4.228  0.0404  1.8505  0.4491
 1503TIP3    H225925   2.647   4.885   4.223 -0.2448 -2.3419  0.3632
 1504TIP3   OH225926   1.841   4.097   3.029  0.5898  0.1019  0.0361
 1504TIP3    H125927   1.803   4.098   3.117  1.4785 -1.5911  0.4894
 1504TIP3    H225928   1.765   4.096   2.970 -0.0629 -0.7831  0.8565
 1505TIP3   OH225929   1.199   5.610  16.054 -0.5209 -0.7266  0.3099
 1505TIP3    H125930   1.263   5.552  16.014 -0.6007 -0.7054  0.1467
 1505TIP3    H225931   1.197   5.687  15.996  0.4065 -0.0544  1.1354
 1506TIP3   OH225932   1.816   1.506   2.044  0.3403 -0.3389 -0.2425
 1506TIP3    H125933   1.799   1.597   2.018 -1.2722 -0.5325  0.0493
 1506TIP3    H225934   1.743   1.484   2.102 -1.0137 -2.7943 -2.6873
 1507TIP3   OH225935   6.613   4.118  13.510 -0.5420 -0.5720 -0.2354
 1507TIP3    H125936   6.541   4.098  13.450 -0.1768 -1.2182 -0.4667
 1507TIP3    H225937   6.573   4.116  13.597 -0.9689 -0.1336 -0.4208
 1508TIP3   OH225938   3.915   1.368  12.281  0.4328  0.1687 -0.2347
 1508TIP3    H125939   3.943   1.413  12.361 -2.0523  2.8686 -0.7022
 1508TIP3    H225940   3.918   1.436  12.214 -2.6636 -0.5393 -1.2215
 1509TIP3   OH225941   0.300   5.822   3.212  0.6242 -0.1830 -0.0656
 1509TIP3    H125942   0.387   5.825   3.172  1.3442 -2.9493  1.0739
 1509TIP3    H225943   0.292   5.906   3.258  2.4567  0.3549 -0.6525
 1510TIP3   OH225944   4.053   3.792   2.345 -0.2466  0.1460 -0.6410
 1510TIP3    H125945   3.987   3.852   2.380 -1.4721 -1.7403  0.4213
 1510TIP3    H225946   4.044   3.713   2.397  3.4297  0.0322  0.1077
 1511TIP3   OH225947   5.303   0.978  14.736  0.1051  0.3485  0.0462
 1511TIP3    H125948   5.212   0.960  14.712  0.6264 -0.4020 -1.4875
 1511TIP3    H225949   5.343   1.010  14.655  1.4309 -0.1976  0.4647
 1512TIP3   OH225950   6.686   1.093  12.572 -0.1716  0.4585 -0.3238
 1512TIP3    H125951   6.629   1.105  12.497 -0.2466  0.8719 -0.2037
 1512TIP3    H225952   6.627   1.071  12.644  0.0797 -2.6519 -0.9200
 1513TIP3   OH225953   1.598   3.936   3.273 -0.4776 -0.4142  0.0001
 1513TIP3    H125954   1.618   3.932   3.366 -2.6192  0.0139  0.5459
 1513TIP3    H225955   1.585   3.844   3.248  0.3116 -0.5456  0.0693
 1514TIP3   OH225956   1.748   1.741   0.773  0.1124 -0.6667  0.0166
 1514TIP3    H125957   1.766   1.755   0.680  0.3947  0.7481  0.2555
 1514TIP3    H225958   1.800   1.664   0.797  0.2963 -0.8403 -0.9178
 1515TIP3   OH225959   5.511   2.823  13.111 -0.7784  0.1264 -0.2766
 1515TIP3    H125960   5.585   2.883  13.105  0.7733 -1.4197  1.6262
 1515TIP3    H225961   5.460   2.838  13.031  1.1257  1.8301 -1.2542
 1516TIP3   OH225962   0.166   1.322   2.480 -0.1300  0.0999 -0.2422
 1516TIP3    H125963   0.085   1.367   2.506  0.4518  1.1169 -0.1272
 1516TIP3    H225964   0.142   1.273   2.401 -0.8177  0.5443 -0.3145
 1517TIP3   OH225965   2.028   3.218   4.302  0.1046  0.2579  0.0402
 1517TIP3    H125966   2.028   3.161   4.379 -0.9902  1.6349  1.1186
 1517TIP3    H225967   1.942   3.203   4.262 -0.1912  1.1204  0.3330
 1518TIP3   OH225968   1.363   0.327  13.304 -0.2012  0.2740 -0.2165
 1518TIP3    H125969   1.369   0.419  13.280  1.2562 -0.1505 -1.6974
 1518TIP3    H225970   1.341   0.282  13.223 -0.1997 -0.7438  0.3299
 1519TIP3   OH225971   1.603   3.632   0.939  0.6738 -0.4390  0.0406
 1519TIP3    H125972   1.670   3.701   0.941 -0.7945  1.0828 -0.4304
 1519TIP3    H225973   1.651   3.552   0.921  2.3231  0.6651 -0.7081
 1520TIP3   OH225974   1.089   6.416  15.031 -0.0238 -0.4317 -0.1220
 1520TIP3    H125975   1.087   6.340  15.089  0.3689 -1.0619 -0.9215
 1520TIP3    H225976   1.009   6.410  14.979  0.3494 -0.6892 -0.6730
 1521TIP3   OH225977   0.720   2.049  11.871  0.2549  0.4005  0.5166
 1521TIP3    H125978   0.754   1.961  11.889  1.9166  1.3336  2.4009
 1521TIP3    H225979   0.663   2.038  11.795  0.0444 -2.3742  0.9636
 1522TIP3   OH225980   5.466   2.203  14.796  0.0415  0.7723  0.0169
 1522TIP3    H125981   5.485   2.109  14.800  1.3790  1.0727  2.2360
 1522TIP3    H225982   5.370   2.207  14.791 -0.2166 -0.7315  2.1623
 1523TIP3   OH225983   2.845   5.307  16.167 -0.3316  0.2025  0.0848
 1523TIP3    H125984   2.880   5.258  16.242 -0.2421  1.6415  1.0267
 1523TIP3    H225985   2.750   5.301  16.178 -0.3167  0.5795  0.4323
 1524TIP3   OH225986   0.396   0.718  14.530  0.1760 -0.7662  0.5756
 1524TIP3    H125987   0.347   0.639  14.505 -2.5568  0.6622  0.9726
 1524TIP3    H225988   0.392   0.720  14.625  0.2855 -0.1928  0.5722
 1525TIP3   OH225989   0.189   5.706  14.128  0.1694 -0.8518 -0.3144
 1525TIP3    H125990   0.241   5.775  14.087 -1.1352  0.7763  0.6466
 1525TIP3    H225991   0.233   5.688  14.211 -1.4367  1.5580  1.1833
 1526TIP3   OH225992   3.217   4.806  11.158 -0.5794  0.3849  0.1956
 1526TIP3    H125993   3.184   4.828  11.071 -1.8106 -0.5939  0.3844
 1526TIP3    H225994   3.243   4.715  11.151 -0.0093  0.5108  0.6664
 1527TIP3   OH225995   5.486   6.497   3.906 -0.2380  0.2283 -0.4223
 1527TIP3    H125996   5.517   6.408   3.893 -0.2217  0.3688 -1.4359
 1527TIP3    H225997   5.448   6.497   3.994  1.2012 -0.3447  0.2221
 1528TIP3   OH225998   0.945   6.643   4.690 -0.1526  0.5678 -0.2926
 1528TIP3    H125999   0.961   6.677   4.602 -2.0386 -1.3567 -1.4832
 1528TIP3    H226000   0.958   6.718   4.747  1.9370  1.6899 -2.0946
 1529TIP3   OH226001   1.983   5.768  12.913  0.0084 -0.5274  0.1830
 1529TIP3    H126002   1.963   5.830  12.844  0.1911 -0.3201  0.3148
 1529TIP3    H226003   1.925   5.694  12.896 -0.1247 -0.3725 -0.0440
 1530TIP3   OH226004   1.553   5.928  13.377 -0.1438  0.0156 -0.3778
 1530TIP3    H126005   1.542   5.836  13.353  1.5166 -0.3819  0.2814
 1530TIP3    H226006   1.463   5.963  13.378 -0.6168 -0.7896 -3.6366
 1531TIP3   OH226007   1.023   5.460  15.021 -0.6322  0.0539 -0.5269
 1531TIP3    H126008   1.117   5.443  15.012 -0.7923 -0.8611 -0.4887
 1531TIP3    H226009   0.993   5.475  14.931 -0.4822  0.1787 -0.5567
 1532TIP3   OH226010   5.525   6.200   3.584 -0.2127 -0.2108 -0.4150
 1532TIP3    H126011   5.449   6.143   3.595  0.9980 -1.7467  0.2176
 1532TIP3    H226012   5.565   6.170   3.502  1.6858 -1.8437  1.0412
 1533TIP3   OH226013   5.560   5.354   2.506 -0.3943 -0.2488 -0.1417
 1533TIP3    H126014   5.631   5.410   2.473 -0.0104 -0.5123  0.2210
 1533TIP3    H226015   5.598   5.266   2.508 -0.4476 -0.2650  0.8442
 1534TIP3   OH226016   0.147   5.794  16.398 -0.5207  0.2120  0.4942
 1534TIP3    H126017   0.055   5.771  16.384 -0.1752 -1.5442  0.8519
 1534TIP3    H226018   0.192   5.760  16.320 -0.3170  2.2249 -0.3092
 1535TIP3   OH226019   5.137   3.897  16.199  0.8870 -0.0850 -0.3560
 1535TIP3    H126020   5.119   3.836  16.271 -0.4515 -0.0289 -0.6099
 1535TIP3    H226021   5.224   3.872  16.167 -0.3750 -3.2852 -1.7788
 1536TIP3   OH226022   6.605   3.823  11.288  0.0026  0.4347  0.7684
 1536TIP3    H126023   6.647   3.871  11.359  2.2088  0.4436 -0.4434
 1536TIP3    H226024   6.588   3.736  11.324  1.0980  0.4389  1.3110
 1537TIP3   OH226025   5.215   4.559  12.701 -0.3716  0.0523  0.0925
 1537TIP3    H126026   5.228   4.468  12.730  4.1589 -0.0377 -1.4479
 1537TIP3    H226027   5.162   4.552  12.622 -2.3069 -0.9075  1.4134
 1538TIP3   OH226028   1.129   2.669  14.987  0.0602  0.0536  0.4049
 1538TIP3    H126029   1.150   2.687  15.079 -1.6482  1.9454  0.5030
 1538TIP3    H226030   1.054   2.610  14.991  0.2073 -0.1464  0.2144
 1539TIP3   OH226031   2.300   4.216  15.893 -0.2827 -0.7008 -0.5231
 1539TIP3    H126032   2.320   4.298  15.939 -0.2691  0.4630 -2.4488
 1539TIP3    H226033   2.384   4.185  15.861 -0.4962 -0.3692 -1.4566
 1540TIP3   OH226034   1.493   2.644   6.106  0.1826 -0.6497 -0.3987
 1540TIP3    H126035   1.449   2.559   6.105  2.0560 -1.6724 -0.7775
 1540TIP3    H226036   1.483   2.674   6.197  0.3385 -1.7717  0.0177
 1541TIP3   OH226037   4.011   4.565  11.879  0.7964  0.5118 -0.1511
 1541TIP3    H126038   3.941   4.619  11.843  0.5309  0.8448  0.8368
 1541TIP3    H226039   4.058   4.532  11.802 -0.4608  0.2497 -0.8317
 1542TIP3   OH226040   3.470   3.709   2.430 -0.3153 -0.4266  0.0719
 1542TIP3    H126041   3.392   3.751   2.468  0.7730 -1.0973  3.3856
 1542TIP3    H226042   3.536   3.778   2.430 -0.1235 -0.6122 -0.0685
 1543TIP3   OH226043   4.322   3.190   6.782  0.2318 -0.1713 -0.0947
 1543TIP3    H126044   4.240   3.186   6.734  1.0079 -1.7492 -1.3608
 1543TIP3    H226045   4.374   3.117   6.749  0.8811 -1.3240  3.0691
 1544TIP3   OH226046   4.705   4.203   3.847  0.4972  0.2192 -0.1270
 1544TIP3    H126047   4.635   4.223   3.785  0.7584  1.4267 -0.0535
 1544TIP3    H226048   4.733   4.288   3.881  1.0997 -0.3430  0.8398
 1545TIP3   OH226049   1.551   2.849   5.642  0.2675 -0.5102  0.3898
 1545TIP3    H126050   1.548   2.897   5.559  0.8920 -0.9820  0.0878
 1545TIP3    H226051   1.474   2.792   5.640  1.0277 -1.5548 -0.5187
 1546TIP3   OH226052   2.911   6.357   4.514  0.3069 -0.5844 -0.3149
 1546TIP3    H126053   2.919   6.262   4.511 -1.0285 -0.6880 -2.4352
 1546TIP3    H226054   2.828   6.376   4.470  0.3064  1.5528  0.4839
 1547TIP3   OH226055   0.644   1.477  14.775  0.9636 -0.5340  0.1755
 1547TIP3    H126056   0.685   1.538  14.714 -0.0608 -0.1993 -0.2025
 1547TIP3    H226057   0.596   1.532  14.836 -0.2836 -0.9521 -0.3985
 1548TIP3   OH226058   0.512   0.615  16.792  0.1521 -0.2193  0.0419
 1548TIP3    H126059   0.448   0.568  16.739  0.3130 -0.7210  0.2898
 1548TIP3    H226060   0.495   0.585  16.882  1.1047 -0.7917  0.0404
 1549TIP3   OH226061   2.777   0.910  13.053  0.3980 -0.5177 -0.1315
 1549TIP3    H126062   2.824   0.988  13.023  2.1575 -1.1904  0.7216
 1549TIP3    H226063   2.788   0.847  12.982 -1.7979  0.2435 -1.2212
 1550TIP3   OH226064   5.688   2.785  13.359  0.4232 -0.2701  0.5081
 1550TIP3    H126065   5.646   2.822  13.281 -0.2614  0.8709  1.3842
 1550TIP3    H226066   5.759   2.731  13.324 -0.5772 -0.7163 -0.9379
 1551TIP3   OH226067   3.545   4.522   0.330  0.2537 -0.0604 -0.2615
 1551TIP3    H126068   3.621   4.579   0.345 -0.1736  0.7305 -1.0060
 1551TIP3    H226069   3.583   4.438   0.304  0.9592  1.1363 -3.6533
 1552TIP3   OH226070   4.340   4.373   0.839  0.5783 -0.3835 -0.6762
 1552TIP3    H126071   4.364   4.465   0.852  0.2906 -0.2830 -0.8551
 1552TIP3    H226072   4.279   4.374   0.766 -2.4022 -0.2394  1.5907
 1553TIP3   OH226073   0.092   6.663   0.019  0.8744 -0.1551 -0.2647
 1553TIP3    H126074   0.005   6.697   0.038  0.9187 -0.2688  0.1431
 1553TIP3    H226075   0.077   6.571  -0.003  0.6402  0.3305 -2.2972
 1554TIP3   OH226076   1.471   5.865  15.721 -0.0866  0.0541 -0.1051
 1554TIP3    H126077   1.497   5.957  15.730  0.1206  0.0372 -0.5185
 1554TIP3    H226078   1.490   5.827  15.807 -2.0917  0.8591  0.7622
 1555TIP3   OH226079   5.383   1.414   3.969  0.3937 -0.1281  0.1625
 1555TIP3    H126080   5.337   1.337   3.935 -2.9611  1.7475 -0.0434
 1555TIP3    H226081   5.456   1.426   3.909 -0.4666 -1.7080 -1.3192
 1556TIP3   OH226082   2.204   1.137  14.543 -0.5033  0.6371 -0.2116
 1556TIP3    H126083   2.299   1.125  14.545 -0.5741  0.0985  1.0412
 1556TIP3    H226084   2.175   1.089  14.465  0.0645 -0.8392  0.4463
 1557TIP3   OH226085   5.295   2.250  13.192  0.3688  0.1584 -0.5113
 1557TIP3    H126086   5.200   2.236  13.186 -0.0362  2.1664  0.2476
 1557TIP3    H226087   5.333   2.178  13.142 -1.6199  0.2444 -2.3163
 1558TIP3   OH226088   1.423   5.495  12.022 -0.2696 -0.3817  0.3101
 1558TIP3    H126089   1.328   5.492  12.033 -0.2530 -1.0072  0.3119
 1558TIP3    H226090   1.439   5.447  11.942  0.2329 -2.3779  1.5387
 1559TIP3   OH226091   4.843   5.281  14.316 -0.2318 -0.1719 -0.7124
 1559TIP3    H126092   4.783   5.352  14.341  0.0911  0.6935 -2.2519
 1559TIP3    H226093   4.928   5.324  14.305  0.8615 -1.4749  1.9699
 1560TIP3   OH226094   3.500   0.198  14.454  0.3929  0.6442 -0.2197
 1560TIP3    H126095   3.439   0.156  14.395 -0.2725  1.2273  0.0413
 1560TIP3    H226096   3.553   0.255  14.397 -0.2842  1.2483 -0.2543
 1561TIP3   OH226097   6.801   0.401   5.688  0.3542 -0.5969  0.2989
 1561TIP3    H126098   6.798   0.379   5.595 -0.6889 -0.9586  0.4069
 1561TIP3    H226099   6.880   0.454   5.697  0.0195  0.1618 -0.9531
 1562TIP3   OH226100   2.428   1.583   1.696 -0.4633  0.3514 -0.1054
 1562TIP3    H126101   2.473   1.650   1.644 -0.2928  0.1847 -0.1737
 1562TIP3    H226102   2.392   1.632   1.770  1.4648  0.2301  0.9930
 1563TIP3   OH226103   5.002   1.666   4.358  0.0317 -0.5375  0.5473
 1563TIP3    H126104   4.951   1.672   4.278 -0.4588 -0.2688  0.8699
 1563TIP3    H226105   4.947   1.708   4.425  0.6836 -0.2293  0.9023
 1564TIP3   OH226106   6.691   6.716  14.138  0.0417  0.0216 -0.8372
 1564TIP3    H126107   6.675   6.708  14.232  0.3309 -1.7376 -0.9036
 1564TIP3    H226108   6.625   6.779  14.108  1.1684  2.1187  0.8209
 1565TIP3   OH226109   6.586   0.490   2.952  0.0387 -0.4011 -0.3911
 1565TIP3    H126110   6.675   0.464   2.927  1.4590  0.2547  3.2594
 1565TIP3    H226111   6.538   0.408   2.959  1.2941 -1.0978  0.5361
 1566TIP3   OH226112   6.074   6.797   1.509 -0.6004 -0.1061  0.7605
 1566TIP3    H126113   5.997   6.846   1.481 -0.1574  0.3445  0.3151
 1566TIP3    H226114   6.071   6.716   1.457 -1.0420 -0.3247  1.1148
 1567TIP3   OH226115   6.063   4.190  14.572  0.1333 -0.0756 -0.1075
 1567TIP3    H126116   5.979   4.204  14.617  0.2798  2.1002 -0.4019
 1567TIP3    H226117   6.089   4.102  14.598 -1.6654 -0.3643  0.9471
 1568TIP3   OH226118   4.811   2.220  11.659 -0.0518 -0.2288  0.1392
 1568TIP3    H126119   4.895   2.175  11.656  0.7750  1.3054 -1.0695
 1568TIP3    H226120   4.814   2.271  11.740  0.2595 -0.0708  0.0319
 1569TIP3   OH226121   5.691   5.697   1.932 -0.0545  0.6586  0.2243
 1569TIP3    H126122   5.713   5.632   1.865 -0.4151  1.1646 -0.3953
 1569TIP3    H226123   5.596   5.710   1.922  0.0625  1.5005  0.1342
 1570TIP3   OH226124   2.389   1.530  14.495  0.0917  0.0275 -0.3142
 1570TIP3    H126125   2.333   1.494  14.426  1.4377 -0.5910 -1.1192
 1570TIP3    H226126   2.436   1.454  14.529 -0.6668  0.2920  1.4392
 1571TIP3   OH226127   0.085   3.011   5.810  0.5349 -0.4580  0.1110
 1571TIP3    H126128   0.107   2.970   5.726 -0.0474  1.3847 -1.0110
 1571TIP3    H226129  -0.011   3.010   5.813  0.3332  2.6412 -1.0473
 1572TIP3   OH226130   4.836   6.572  15.376 -0.0872  0.2709 -0.1493
 1572TIP3    H126131   4.816   6.650  15.427 -0.1490 -0.2535  0.6324
 1572TIP3    H226132   4.750   6.540  15.347 -0.1202  0.0110  0.2419
 1573TIP3   OH226133   0.912   1.376   1.369  0.2730  0.4666  0.2172
 1573TIP3    H126134   0.998   1.352   1.404 -0.1814 -2.2924 -0.3351
 1573TIP3    H226135   0.874   1.293   1.340 -2.3756  1.6766 -0.0512
 1574TIP3   OH226136   0.930   1.600  15.442  0.6458  0.1881  0.1693
 1574TIP3    H126137   0.941   1.557  15.527  0.6841  0.8767  0.5166
 1574TIP3    H226138   1.017   1.596  15.402  0.2320 -1.7958 -0.6591
 1575TIP3   OH226139   4.916   6.394   5.648  0.4539 -0.3006  0.3564
 1575TIP3    H126140   4.852   6.371   5.581 -0.5628  0.9167  0.8716
 1575TIP3    H226141   4.964   6.468   5.611 -1.1107  1.3648  1.4942
 1576TIP3   OH226142   3.732   0.805   0.844  0.3169  0.1050  0.0459
 1576TIP3    H126143   3.803   0.852   0.801 -0.2625  1.5077  0.5515
 1576TIP3    H226144   3.717   0.728   0.789  1.4761  0.3705 -0.6702
 1577TIP3   OH226145   0.146   3.174  15.431 -0.2555 -0.0483 -0.4620
 1577TIP3    H126146   0.092   3.200  15.505  0.6009  0.8897 -0.1443
 1577TIP3    H226147   0.115   3.086  15.408  1.8805 -2.0257  3.3377
 1578TIP3   OH226148   6.560   0.105   4.486 -0.4848 -0.1270  0.2166
 1578TIP3    H126149   6.508   0.026   4.503  0.4837 -0.4437  1.9105
 1578TIP3    H226150   6.533   0.166   4.555 -2.3991  1.7254 -1.9619
 1579TIP3   OH226151   3.347   0.019  17.171 -0.2917 -0.3368 -0.8724
 1579TIP3    H126152   3.398  -0.002  17.093  0.5081  0.5181 -0.5888
 1579TIP3    H226153   3.267   0.059  17.137  0.4065  0.7825 -1.2529
 1580TIP3   OH226154   4.410   2.080  15.010  0.0821 -0.0595 -0.3729
 1580TIP3    H126155   4.414   2.045  15.099  1.0062 -1.1296 -0.8071
 1580TIP3    H226156   4.485   2.040  14.966 -0.4235  0.3775 -1.6611
 1581TIP3   OH226157   2.483   1.226  16.654  0.2821 -0.0958  0.1120
 1581TIP3    H126158   2.570   1.206  16.689 -0.1752 -1.2007  0.6434
 1581TIP3    H226159   2.467   1.158  16.589 -0.7026 -0.6519  0.9188
 1582TIP3   OH226160   6.363   1.371   0.407 -0.0958 -0.5642 -0.0792
 1582TIP3    H126161   6.307   1.333   0.474  0.3819 -1.2029 -0.0315
 1582TIP3    H226162   6.314   1.360   0.325 -1.1482  1.1664  0.2746
 1583TIP3   OH226163   3.492   5.895   3.510  0.2557 -0.2435  0.3749
 1583TIP3    H126164   3.583   5.867   3.518  0.1627 -0.2875  1.4787
 1583TIP3    H226165   3.444   5.817   3.485  0.6699  0.0330 -1.3845
 1584TIP3   OH226166   0.245   4.100  14.591  0.3166 -0.5037  0.2832
 1584TIP3    H126167   0.281   4.187  14.575 -1.6399  0.9232  2.8882
 1584TIP3    H226168   0.248   4.056  14.506  1.2792  2.1182 -1.1343
 1585TIP3   OH226169   5.167   4.462   1.426  0.5645  0.1549  0.2069
 1585TIP3    H126170   5.230   4.508   1.371  1.7258 -2.1747 -0.5574
 1585TIP3    H226171   5.214   4.440   1.506  1.0940 -2.2753 -0.6802
 1586TIP3   OH226172   2.848   1.382  14.661 -0.2954 -0.3796  0.5540
 1586TIP3    H126173   2.886   1.381  14.749  0.2609  1.7611  0.3905
 1586TIP3    H226174   2.754   1.384  14.675 -0.1946  1.3577  1.1802
 1587TIP3   OH226175   0.988   6.260   0.229  0.0592  0.2175 -0.0284
 1587TIP3    H126176   1.053   6.280   0.162  1.0302 -4.9217 -1.0908
 1587TIP3    H226177   1.035   6.269   0.312  0.7904  0.6460 -0.4810
 1588TIP3   OH226178   0.881   3.731   4.915  0.1006 -0.1604  0.5314
 1588TIP3    H126179   0.962   3.780   4.904 -0.6028  0.7436 -0.9693
 1588TIP3    H226180   0.833   3.745   4.833 -1.8009 -0.2294  1.5717
 1589TIP3   OH226181   3.442   0.767   0.942  0.1606 -0.7142  0.2136
 1589TIP3    H126182   3.455   0.760   1.037 -2.1188  1.1590  0.7533
 1589TIP3    H226183   3.493   0.844   0.916  0.1488 -0.7554  0.0656
 1590TIP3   OH226184   1.423   2.779   0.299 -0.2174 -1.1248 -0.6268
 1590TIP3    H126185   1.517   2.760   0.297  0.2031  0.8434 -1.9151
 1590TIP3    H226186   1.381   2.697   0.272  1.2869 -1.3361 -2.5030
 1591TIP3   OH226187   0.418   2.813  17.007  0.1818 -0.1558 -0.1111
 1591TIP3    H126188   0.477   2.855  16.945  1.5384  1.1588  1.9372
 1591TIP3    H226189   0.351   2.879  17.025 -1.6143 -1.3873 -1.8886
 1592TIP3   OH226190   0.135   1.191  16.787 -0.7924 -0.3328 -0.0264
 1592TIP3    H126191   0.087   1.196  16.870  0.7009 -1.7725  0.9745
 1592TIP3    H226192   0.139   1.098  16.767  1.3563 -0.2393 -0.1797
 1593TIP3   OH226193   5.846   6.810   2.283 -0.3130  0.1664 -0.4365
 1593TIP3    H126194   5.848   6.729   2.232 -0.1438 -0.0716 -0.0532
 1593TIP3    H226195   5.938   6.828   2.303 -0.4733 -0.5213  1.0064
 1594TIP3   OH226196   6.584   6.679   1.742 -0.5854  0.1783  0.1821
 1594TIP3    H126197   6.495   6.686   1.707 -0.0993 -3.1002 -2.1883
 1594TIP3    H226198   6.592   6.587   1.769  1.6858  0.7027  1.5421
 1595TIP3   OH226199   1.957   5.710  13.901 -0.2831 -0.3984  0.3901
 1595TIP3    H126200   1.933   5.798  13.927 -1.7030 -0.5627 -0.2890
 1595TIP3    H226201   1.907   5.653  13.960 -1.8681 -0.7477 -1.2285
 1596TIP3   OH226202   5.353   2.021   0.006 -0.2857 -0.0687 -0.2528
 1596TIP3    H126203   5.279   2.022  -0.054  0.5163 -2.6022 -1.4644
 1596TIP3    H226204   5.428   1.996  -0.049  0.9604 -0.0510  1.3580
 1597TIP3   OH226205   0.109   2.540   3.315  0.7149 -0.3366  0.0303
 1597TIP3    H126206   0.128   2.471   3.251 -0.2441 -0.0980 -0.5254
 1597TIP3    H226207   0.137   2.620   3.271 -0.5028 -0.1045 -0.3444
 1598TIP3   OH226208   1.799   3.188   3.895  0.4375 -0.5366  0.5622
 1598TIP3    H126209   1.829   3.272   3.929  2.0654 -0.2121 -1.4738
 1598TIP3    H226210   1.760   3.144   3.971  0.3361  1.6548  1.8840
 1599TIP3   OH226211   2.264   6.640  14.780  0.3463  0.0722  0.5253
 1599TIP3    H126212   2.209   6.577  14.733  0.1592  1.6433 -1.5049
 1599TIP3    H226213   2.202   6.693  14.830  0.5118 -1.3203  2.3221
 1600TIP3   OH226214   4.431   2.120  10.119 -0.5677  0.1938  0.8457
 1600TIP3    H126215   4.366   2.190  10.117  0.0987  0.8165 -0.3810
 1600TIP3    H226216   4.493   2.147  10.187 -0.4060  0.7106  0.4945
 1601TIP3   OH226217   1.471   4.700  10.589 -0.4807  0.6833  0.5630
 1601TIP3    H126218   1.447   4.786  10.624  0.8080  1.6134 -0.6934
 1601TIP3    H226219   1.502   4.651  10.665 -1.1833  1.3384  1.2929
 1602TIP3   OH226220   5.784   6.133  14.405  0.0632 -0.7705 -0.1697
 1602TIP3    H126221   5.731   6.213  14.396  0.6050 -0.3556  0.2381
 1602TIP3    H226222   5.748   6.089  14.482  0.7774 -0.1057  0.5666
 1603TIP3   OH226223   2.543   4.281  12.976  0.6161  1.0688 -0.0764
 1603TIP3    H126224   2.519   4.190  12.992  1.5564  0.6951 -0.7317
 1603TIP3    H226225   2.465   4.320  12.937 -0.3172  0.9517  1.5434
 1604TIP3   OH226226   1.346   2.119   5.527 -0.7621  0.2794  0.5316
 1604TIP3    H126227   1.322   2.027   5.518  0.5942 -0.0691  0.2638
 1604TIP3    H226228   1.354   2.150   5.436 -0.7494  0.5263  0.6165
 1605TIP3   OH226229   6.569   3.812  17.019 -0.5755  0.2142  0.0216
 1605TIP3    H126230   6.603   3.723  17.016 -0.9567  0.0411  0.6759
 1605TIP3    H226231   6.590   3.848  16.933 -0.9021 -0.6825 -0.4491
 1606TIP3   OH226232   2.006   3.148  12.821  0.4916  0.0430  0.2384
 1606TIP3    H126233   1.978   3.175  12.734  1.1389 -1.5216 -0.4986
 1606TIP3    H226234   1.925   3.120  12.864  0.2402  0.2931 -0.0637
 1607TIP3   OH226235   1.032   1.943  16.441  0.2706  0.2273  0.3925
 1607TIP3    H126236   0.959   2.002  16.457 -1.3795 -1.6128 -0.0859
 1607TIP3    H226237   1.055   1.959  16.349  0.3118  0.6207  0.4692
 1608TIP3   OH226238   4.585   0.529   2.390 -0.0712 -0.3404 -0.1085
 1608TIP3    H126239   4.667   0.552   2.348  1.0676 -1.6002  1.3265
 1608TIP3    H226240   4.558   0.609   2.436  0.3326  0.0757 -0.5923
 1609TIP3   OH226241   0.929   3.613  15.736  0.0024 -0.3715 -0.2721
 1609TIP3    H126242   0.981   3.576  15.807  1.3763  0.0203 -1.0185
 1609TIP3    H226243   0.856   3.553  15.725  0.1999 -0.8636  0.9380
 1610TIP3   OH226244   2.095   4.320  11.680 -0.0023  0.2872  0.0800
 1610TIP3    H126245   2.036   4.377  11.629 -0.7034  0.3773  0.9714
 1610TIP3    H226246   2.182   4.341  11.647 -0.2822  1.6021  0.1216
 1611TIP3   OH226247   5.925   5.666   0.137 -0.4128 -0.4333  0.1140
 1611TIP3    H126248   5.972   5.730   0.084  0.4502 -0.9558  0.2257
 1611TIP3    H226249   5.917   5.589   0.080 -1.5063 -0.2141 -0.0491
 1612TIP3   OH226250   1.941   1.773   2.105 -0.0801 -0.2152 -0.1328
 1612TIP3    H126251   1.855   1.778   2.063 -0.0575  1.6883 -0.0750
 1612TIP3    H226252   1.926   1.725   2.187 -0.8150 -0.9721 -0.6995
 1613TIP3   OH226253   3.746   5.528  15.481  0.2041  0.6398  0.7440
 1613TIP3    H126254   3.834   5.492  15.481 -0.3298 -0.7183  0.7294
 1613TIP3    H226255   3.754   5.612  15.437  1.2914  0.0237 -0.2590
 1614TIP3   OH226256   0.513   5.748  12.301 -0.2072  0.3079  0.1262
 1614TIP3    H126257   0.483   5.675  12.354 -0.3165  0.5523  0.4044
 1614TIP3    H226258   0.585   5.712  12.248  0.2261  0.1852  0.7948
 1615TIP3   OH226259   2.418   4.086   5.984 -0.4626 -0.5576 -0.6985
 1615TIP3    H126260   2.424   4.016   6.049  0.4998  0.6388  0.5886
 1615TIP3    H226261   2.505   4.089   5.945 -0.6673 -0.4581 -1.1478
 1616TIP3   OH226262   4.192   4.674   0.242  0.1024  0.1674 -0.5105
 1616TIP3    H126263   4.182   4.607   0.174 -0.9819 -0.0808 -0.1264
 1616TIP3    H226264   4.285   4.673   0.262 -0.1036 -2.6900  0.9096
 1617TIP3   OH226265   5.866   5.655  13.462 -0.4255 -0.6341  0.2828
 1617TIP3    H126266   5.883   5.598  13.388  0.7574 -0.0129  0.0491
 1617TIP3    H226267   5.952   5.672  13.500 -0.7217  1.0365  0.2986
 1618TIP3   OH226268   3.518   1.415  11.436  1.1123  0.3423  0.0358
 1618TIP3    H126269   3.511   1.480  11.366  2.0250 -0.5218 -0.8840
 1618TIP3    H226270   3.504   1.331  11.392 -0.5503 -0.0933  1.2907
 1619TIP3   OH226271   6.408   6.152  13.453  0.1064 -0.8256 -0.4533
 1619TIP3    H126272   6.389   6.061  13.431  0.3676 -0.6496 -1.4145
 1619TIP3    H226273   6.502   6.152  13.475  0.6157 -0.4221 -2.4905
 1620TIP3   OH226274   3.306   0.899   0.533  0.0989 -0.1119 -0.0610
 1620TIP3    H126275   3.324   0.807   0.552  1.3693  0.1037 -0.1254
 1620TIP3    H226276   3.377   0.947   0.578  0.7142  0.6867 -1.7866
 1621TIP3   OH226277   1.339   2.370  12.052 -0.3383  0.2099  0.2286
 1621TIP3    H126278   1.323   2.463  12.068 -0.7736  0.3558 -0.9675
 1621TIP3    H226279   1.331   2.360  11.957 -0.0258 -1.0032  0.3106
 1622TIP3   OH226280   6.092   6.461   5.651  0.6182 -0.1052 -0.2031
 1622TIP3    H126281   6.061   6.485   5.738  0.2518 -1.6053  0.1191
 1622TIP3    H226282   6.021   6.410   5.614  1.0527 -0.0590 -1.1111
 1623TIP3   OH226283   5.825   4.982  13.192  0.0852  0.1413  0.0640
 1623TIP3    H126284   5.918   4.966  13.173  0.1478  0.3418  0.1928
 1623TIP3    H226285   5.803   4.916  13.258 -0.1883 -0.6911 -0.8432
 1624TIP3   OH226286   0.316   6.116   6.102  0.0251 -0.5765 -0.2142
 1624TIP3    H126287   0.362   6.036   6.128  0.5547 -0.4959 -0.8992
 1624TIP3    H226288   0.261   6.137   6.178  0.8509 -0.8651  0.4844
 1625TIP3   OH226289   5.397   6.705  12.072 -0.2706  0.1644 -0.3616
 1625TIP3    H126290   5.319   6.699  12.016  0.5193 -0.2523 -1.4668
 1625TIP3    H226291   5.471   6.699  12.011  0.6381  0.7748  0.6335
 1626TIP3   OH226292   6.788   2.643   0.886 -0.0665 -0.0088 -0.0502
 1626TIP3    H126293   6.857   2.596   0.840 -1.6477 -0.4092 -2.1876
 1626TIP3    H226294   6.820   2.733   0.893  1.8816 -0.7551  1.7414
 1627TIP3   OH226295   1.388   0.721   2.304  0.4420  0.0479 -0.2403
 1627TIP3    H126296   1.352   0.731   2.216  0.8213  0.5717 -0.3487
 1627TIP3    H226297   1.365   0.803   2.348 -0.1285 -0.3944  0.2957
 1628TIP3   OH226298   1.333   3.912   3.884  0.0127 -0.3077  0.0303
 1628TIP3    H126299   1.403   3.849   3.904  0.3082  0.2416  0.7445
 1628TIP3    H226300   1.358   3.949   3.799  0.5261 -0.2012  0.2265
 1629TIP3   OH226301   5.932   1.338  14.575  0.1202 -0.1814  0.7556
 1629TIP3    H126302   6.021   1.361  14.599  0.0177 -0.2212  1.1907
 1629TIP3    H226303   5.879   1.364  14.651 -0.4036  0.9424  0.0382
 1630TIP3   OH226304   0.654   1.688   1.646 -0.0870  0.0003 -0.8938
 1630TIP3    H126305   0.701   1.675   1.563  1.4622 -0.0035 -0.0464
 1630TIP3    H226306   0.671   1.779   1.669  0.3091 -0.2712 -0.1002
 1631TIP3   OH226307   1.924   0.751  12.717  0.3178  0.1115  0.4966
 1631TIP3    H126308   1.880   0.835  12.719 -1.0144 -0.5611  0.3671
 1631TIP3    H226309   1.912   0.716  12.806  1.0926  0.1556  0.6283
 1632TIP3   OH226310   2.065   4.080  13.783 -0.8125 -0.1599 -0.2119
 1632TIP3    H126311   2.119   4.154  13.756 -1.4023  0.1481 -0.5738
 1632TIP3    H226312   1.976   4.105  13.758 -1.3249 -0.0755  1.5907
 1633TIP3   OH226313   1.679   2.116  13.771  0.2820 -0.6816  0.2297
 1633TIP3    H126314   1.709   2.186  13.830 -1.3425  0.1348  0.1455
 1633TIP3    H226315   1.683   2.155  13.684 -0.2757 -0.8190  0.1404
 1634TIP3   OH226316   5.490   4.634  16.690  0.0546  0.4976  0.3851
 1634TIP3    H126317   5.470   4.570  16.622 -0.0062  0.1607  0.7163
 1634TIP3    H226318   5.579   4.612  16.718  0.1364  0.7299  0.3119
 1635TIP3   OH226319   5.101   1.906  11.469 -0.2236  0.1122 -0.0585
 1635TIP3    H126320   5.113   1.957  11.549  0.9982 -1.5599  0.8627
 1635TIP3    H226321   5.177   1.928  11.415  0.5536 -1.0466  0.5370
 1636TIP3   OH226322   2.952   5.533  13.854 -0.0477 -0.0900  0.2088
 1636TIP3    H126323   2.905   5.570  13.779  0.0928  0.5253  0.4197
 1636TIP3    H226324   2.996   5.455  13.819 -0.0254  0.1641 -0.3361
 1637TIP3   OH226325   2.739   4.815   3.441 -0.4122  0.4147  0.2560
 1637TIP3    H126326   2.753   4.906   3.415  0.5767  0.3304  0.4368
 1637TIP3    H226327   2.723   4.769   3.359  0.5618  0.5103  0.0043
 1638TIP3   OH226328   2.266   2.159  13.254  0.5472 -0.1331 -0.3304
 1638TIP3    H126329   2.179   2.199  13.245  0.2730 -0.2838  1.3865
 1638TIP3    H226330   2.254   2.068  13.226 -0.4744 -0.8321  2.1211
 1639TIP3   OH226331   5.387   3.297   4.152  0.0447 -0.7321  0.0388
 1639TIP3    H126332   5.326   3.225   4.137  0.4188 -0.7692 -1.4186
 1639TIP3    H226333   5.424   3.278   4.239 -2.8860 -0.0036  1.5669
 1640TIP3   OH226334   3.243   6.403   5.383 -0.7140 -0.1208  0.4332
 1640TIP3    H126335   3.286   6.427   5.301 -0.1305 -2.5625 -0.0616
 1640TIP3    H226336   3.166   6.459   5.388  0.1789  1.2977 -0.8718
 1641TIP3   OH226337   0.740   5.763   5.431 -0.0113  0.0113  0.1185
 1641TIP3    H126338   0.712   5.775   5.522  0.6077  0.6979  0.2274
 1641TIP3    H226339   0.752   5.669   5.422 -0.8702 -0.1476  0.5072
 1642TIP3   OH226340   2.211   4.091  14.035  0.2569  0.1098 -0.6080
 1642TIP3    H126341   2.271   4.132  13.973 -0.3834  0.9826 -0.6781
 1642TIP3    H226342   2.133   4.072  13.984  0.5223 -1.2011 -0.5657
 1643TIP3   OH226343   2.602   6.710  13.183  0.8876  0.2972  0.1387
 1643TIP3    H126344   2.523   6.714  13.238  0.4183 -0.5565 -0.4486
 1643TIP3    H226345   2.632   6.619  13.189  1.9655  0.6647  0.5301
 1644TIP3   OH226346   2.994   0.316   2.119  0.1550  0.3430  0.1520
 1644TIP3    H126347   3.004   0.231   2.075  1.1134  0.8320 -0.5984
 1644TIP3    H226348   2.970   0.293   2.209 -2.2192 -0.6727 -0.6498
 1645TIP3   OH226349   1.353   4.567   3.023 -0.4220 -0.0461  0.0431
 1645TIP3    H126350   1.323   4.478   3.007 -1.7448  0.2530  0.7498
 1645TIP3    H226351   1.417   4.559   3.094 -1.6378 -0.2827  1.1403
 1646TIP3   OH226352   5.943   0.817  12.433 -0.5646  0.1074  0.2227
 1646TIP3    H126353   5.947   0.884  12.501 -1.3392  0.7678 -0.3706
 1646TIP3    H226354   5.934   0.865  12.351  0.0309 -0.6912 -0.3339
 1647TIP3   OH226355   4.098   5.959  16.357 -0.3020  0.0106 -0.2258
 1647TIP3    H126356   4.123   5.907  16.281 -2.6427 -0.3027 -0.8667
 1647TIP3    H226357   4.168   5.944  16.420  2.2396  1.0655 -2.6098
 1648TIP3   OH226358   6.187   1.788   4.290  0.2735 -0.3842  0.3415
 1648TIP3    H126359   6.224   1.740   4.365  1.1970 -1.9402 -1.0333
 1648TIP3    H226360   6.205   1.731   4.215 -0.7471  1.0676 -1.0515
 1649TIP3   OH226361   4.801   3.961   4.758  0.0774 -0.1097  0.3136
 1649TIP3    H126362   4.807   3.961   4.663  0.4955 -0.8907  0.3326
 1649TIP3    H226363   4.848   3.883   4.785 -0.2758 -0.0435  1.1503
 1650TIP3   OH226364   3.082   0.554  12.908 -0.0568 -0.0058  0.4444
 1650TIP3    H126365   2.997   0.515  12.928 -0.6349  0.1480 -1.5416
 1650TIP3    H226366   3.074   0.645  12.937 -1.3394  0.5691 -1.5006
 1651TIP3   OH226367   0.863   6.018   1.363 -0.2469  0.7187  0.5078
 1651TIP3    H126368   0.806   6.056   1.296 -0.8037  0.5595  0.8787
 1651TIP3    H226369   0.907   5.945   1.319 -1.9379 -0.5233  0.7575
 1652TIP3   OH226370   1.740   1.184   3.029 -0.6917 -0.4801 -0.0725
 1652TIP3    H126371   1.737   1.265   2.978 -0.8753  0.2788  1.1025
 1652TIP3    H226372   1.808   1.131   2.987 -0.1390  0.5448 -0.4952
 1653TIP3   OH226373   2.856   0.658  16.116  0.4065  0.0848  0.2866
 1653TIP3    H126374   2.915   0.710  16.062 -1.7799  2.5954  0.1714
 1653TIP3    H226375   2.842   0.577  16.066  2.8698 -0.1676 -0.1280
 1654TIP3   OH226376   0.013   1.006   2.539  0.2394  0.1663 -0.6083
 1654TIP3    H126377  -0.021   1.054   2.464 -0.7222 -0.5156 -0.6207
 1654TIP3    H226378   0.082   0.952   2.503  3.3658  3.4697 -0.1837
 1655TIP3   OH226379   1.678   5.827   4.184 -0.6758 -0.7416 -0.1028
 1655TIP3    H126380   1.769   5.803   4.168 -0.8701 -1.1136 -0.6609
 1655TIP3    H226381   1.660   5.793   4.272 -0.7715 -2.1545 -0.6519
 1656TIP3   OH226382   0.162   1.249   4.428  0.4849 -0.1847  0.2792
 1656TIP3    H126383   0.236   1.188   4.432  0.3097 -0.3734  0.7847
 1656TIP3    H226384   0.085   1.192   4.428  0.3338 -0.0549 -1.7374
 1657TIP3   OH226385   4.256   2.150   3.445 -0.4490 -0.8437  0.1382
 1657TIP3    H126386   4.165   2.124   3.434 -0.6341  0.0069 -0.4401
 1657TIP3    H226387   4.279   2.118   3.532 -1.3579 -0.9024  0.3725
 1658TIP3   OH226388   2.470   6.341  17.177 -0.2357 -0.5582 -0.1950
 1658TIP3    H126389   2.411   6.274  17.141  1.1539 -1.3965 -1.0116
 1658TIP3    H226390   2.449   6.421  17.129 -0.2920 -0.9974 -0.9101
 1659TIP3   OH226391   5.027   1.579  13.317  0.3676  0.0766 -0.3361
 1659TIP3    H126392   4.936   1.608  13.323  0.9486  1.7815  0.8642
 1659TIP3    H226393   5.022   1.492  13.277 -1.9495 -0.6652  1.3704
 1660TIP3   OH226394   3.613   1.607  16.137  0.0794  0.0559 -0.2474
 1660TIP3    H126395   3.623   1.545  16.065 -0.8369 -2.5663  1.7105
 1660TIP3    H226396   3.523   1.592  16.168  0.5092  0.9523  1.5414
 1661TIP3   OH226397   1.042   0.420  13.124  0.4479 -0.2214 -0.1481
 1661TIP3    H126398   1.058   0.489  13.188  1.7469  3.0911 -3.6411
 1661TIP3    H226399   1.130   0.389  13.101  0.0527 -0.8383 -0.8442
 1662TIP3   OH226400   2.529   6.358   1.772  0.2826  0.5649  0.4910
 1662TIP3    H126401   2.520   6.267   1.801  0.5424 -0.0330 -1.1537
 1662TIP3    H226402   2.510   6.410   1.849 -2.4634 -0.8160  0.8904
 1663TIP3   OH226403   0.868   2.566  14.999  0.3561 -0.8388 -0.1564
 1663TIP3    H126404   0.852   2.554  14.906 -1.3478  3.3562 -0.6083
 1663TIP3    H226405   0.807   2.505  15.042 -2.6243  0.6493 -1.9228
 1664TIP3   OH226406   4.687   6.101   4.982  1.0728  0.1198 -0.3164
 1664TIP3    H126407   4.768   6.116   4.934  0.2804 -0.7411 -2.0240
 1664TIP3    H226408   4.622   6.082   4.914 -0.8198  1.7661  0.9180
 1665TIP3   OH226409   3.716   4.496  15.038 -0.0590  0.6764  0.6009
 1665TIP3    H126410   3.750   4.427  15.095 -1.8216  0.4944  1.4939
 1665TIP3    H226411   3.755   4.477  14.952 -1.3022 -2.1102  0.5463
 1666TIP3   OH226412   3.383   3.232   1.770  0.2840  0.0104 -0.4746
 1666TIP3    H126413   3.382   3.159   1.832 -2.5550 -0.0670 -0.4680
 1666TIP3    H226414   3.436   3.200   1.696  0.3352 -1.4592  0.1664
 1667TIP3   OH226415   1.304   5.275  15.202 -0.1702  0.0486 -0.6061
 1667TIP3    H126416   1.249   5.329  15.259 -2.0335 -1.6913 -0.6503
 1667TIP3    H226417   1.331   5.334  15.132 -0.3824  1.4425  0.4388
 1668TIP3   OH226418   2.206   3.325  13.870  0.1027 -0.2823 -0.7150
 1668TIP3    H126419   2.176   3.278  13.947 -0.7616 -0.3246 -1.0690
 1668TIP3    H226420   2.273   3.385  13.903  1.1885 -1.6905 -0.2422
 1669TIP3   OH226421   2.325   0.379   2.763  0.1912 -0.0517 -0.3539
 1669TIP3    H126422   2.370   0.337   2.689  3.6470 -0.8454  1.9520
 1669TIP3    H226423   2.262   0.313   2.793  1.7680 -1.5172 -0.0726
 1670TIP3   OH226424   5.353   5.545  13.816  0.1257 -0.7692  0.0078
 1670TIP3    H126425   5.445   5.541  13.789  0.1030 -0.9180 -0.0464
 1670TIP3    H226426   5.312   5.471  13.772 -0.4443  0.4532 -1.6265
 1671TIP3   OH226427   1.303   4.913  16.150  0.2778 -0.3564  0.2405
 1671TIP3    H126428   1.369   4.964  16.197  0.2366  2.0819 -2.0901
 1671TIP3    H226429   1.354   4.849  16.099  0.5552 -0.7821  1.0414
 1672TIP3   OH226430   3.052   2.554  12.760  0.0326  0.2066 -0.1864
 1672TIP3    H126431   3.110   2.484  12.730  1.6100  0.2884  2.3484
 1672TIP3    H226432   3.112   2.622  12.791 -1.4738  2.1129 -1.3063
 1673TIP3   OH226433   4.630   6.483   4.821 -1.1739 -0.2327 -0.4582
 1673TIP3    H126434   4.638   6.428   4.898 -1.0396 -1.2820 -1.1970
 1673TIP3    H226435   4.694   6.553   4.834 -0.7552 -0.7153  0.1189
 1674TIP3   OH226436   0.580   5.381  10.959 -0.4633 -0.9428  0.5982
 1674TIP3    H126437   0.547   5.395  10.870  0.9015 -0.7637  0.1085
 1674TIP3    H226438   0.525   5.311  10.994 -0.8097 -1.2314 -0.4986
 1675TIP3   OH226439   2.473   6.103  15.926  0.0717 -0.7032  0.1834
 1675TIP3    H126440   2.379   6.081  15.923 -0.0100 -0.3481  0.0507
 1675TIP3    H226441   2.509   6.061  15.848 -0.0958 -0.3105 -0.1072
 1676TIP3   OH226442   2.538   0.261   1.313  0.1162 -0.9444 -0.2792
 1676TIP3    H126443   2.447   0.277   1.334  0.4149  0.8311 -0.2287
 1676TIP3    H226444   2.546   0.281   1.220  0.1285 -2.6990 -0.6862
 1677TIP3   OH226445   4.606   3.242   0.473 -0.2499  0.4007  1.1712
 1677TIP3    H126446   4.669   3.262   0.403  0.2098 -0.0149  1.4632
 1677TIP3    H226447   4.605   3.146   0.477 -0.0091  0.4320  1.9771
 1678TIP3   OH226448   6.716   6.465  14.028 -0.5914 -0.1389 -0.3555
 1678TIP3    H126449   6.709   6.552  14.067 -0.6812  0.5649 -1.8794
 1678TIP3    H226450   6.800   6.466  13.982 -0.2391 -1.1360  0.2318
 1679TIP3   OH226451   3.039   0.235  15.080  0.1458 -0.3262  0.2062
 1679TIP3    H126452   3.049   0.321  15.040 -1.8503 -0.3787 -0.5290
 1679TIP3    H226453   3.052   0.172  15.009  2.8431 -0.7549  0.9840
 1680TIP3   OH226454   0.194   2.999  15.073  0.2071 -0.0352  0.4159
 1680TIP3    H126455   0.115   2.945  15.078  0.6543 -0.8913 -1.0927
 1680TIP3    H226456   0.266   2.936  15.069  0.7397  0.6343 -1.5472
 1681TIP3   OH226457   0.531   0.117  15.414 -0.3935  0.0335 -0.0180
 1681TIP3    H126458   0.526   0.206  15.377  0.9690  0.9896  1.9539
 1681TIP3    H226459   0.531   0.130  15.509  0.0733 -2.0718  0.3226
 1682TIP3   OH226460   2.256   1.068   3.072 -0.2677  0.2609  0.2985
 1682TIP3    H126461   2.322   1.126   3.035 -0.2765  0.0264 -0.0887
 1682TIP3    H226462   2.205   1.124   3.131 -2.2627  1.4917 -2.3320
 1683TIP3   OH226463   1.308   4.111   5.742 -0.5492 -0.7250 -0.3688
 1683TIP3    H126464   1.363   4.067   5.807  1.0421  2.5467  0.6899
 1683TIP3    H226465   1.226   4.127   5.788 -0.2482 -0.4421  0.0773
 1684TIP3   OH226466   2.464   5.550  13.552  0.0282 -0.2097  0.0928
 1684TIP3    H126467   2.465   5.472  13.498  1.1919 -0.5513  0.5618
 1684TIP3    H226468   2.459   5.517  13.642  0.9151  0.2241  0.3127
 1685TIP3   OH226469   4.114   4.692  12.116  0.4440 -0.1821 -0.3010
 1685TIP3    H126470   4.209   4.703  12.113  0.5395 -0.7170  0.5700
 1685TIP3    H226471   4.090   4.675  12.025  1.3412 -1.2610 -0.3559
 1686TIP3   OH226472   0.895   5.115  13.907 -0.0781 -0.6303 -0.0083
 1686TIP3    H126473   0.963   5.076  13.963  0.9484 -2.1434 -2.1753
 1686TIP3    H226474   0.829   5.046  13.898 -1.2583  0.3411  0.9571
 1687TIP3   OH226475   3.871   5.544   4.200  0.2324 -0.3289 -0.2315
 1687TIP3    H126476   3.864   5.594   4.281  1.2343 -0.3499 -0.1155
 1687TIP3    H226477   3.818   5.466   4.216  0.8112 -0.5689  0.6020
 1688TIP3   OH226478   5.913   3.910   3.895 -0.0238 -0.1102 -0.1844
 1688TIP3    H126479   5.929   3.932   3.803  1.3045  0.7981  0.2318
 1688TIP3    H226480   5.829   3.950   3.916  0.5068  1.2391 -0.5359
 1689TIP3   OH226481   1.108   4.458  16.466  0.2781  0.1920  0.5001
 1689TIP3    H126482   1.127   4.419  16.381 -1.4628  1.5168 -0.5762
 1689TIP3    H226483   1.071   4.386  16.518 -0.6132 -0.1704 -0.6112
 1690TIP3   OH226484   4.895   5.290   1.309 -0.6878  0.1258 -0.0367
 1690TIP3    H126485   4.910   5.385   1.312  1.8678 -0.2568  1.1908
 1690TIP3    H226486   4.814   5.277   1.358 -0.2833  1.5679  1.0773
 1691TIP3   OH226487   3.270   1.045   5.215 -0.8109  0.0089  0.4037
 1691TIP3    H126488   3.350   1.087   5.247 -0.0679 -1.2571  0.2494
 1691TIP3    H226489   3.221   1.024   5.294 -0.9840  0.7245  0.5005
 1692TIP3   OH226490   1.782   2.847   4.751  0.4305 -0.2472 -0.4599
 1692TIP3    H126491   1.802   2.755   4.770  2.0278  0.2027  0.2778
 1692TIP3    H226492   1.832   2.866   4.671 -0.3856 -0.1760 -0.9582
 1693TIP3   OH226493   3.156   4.426   6.034 -0.4833  0.0441 -0.1912
 1693TIP3    H126494   3.179   4.340   6.067  1.9414  1.3390  1.8023
 1693TIP3    H226495   3.161   4.418   5.939  2.8648 -1.2916 -0.0140
 1694TIP3   OH226496   2.064   0.251  16.690 -0.6683  0.4232 -0.1859
 1694TIP3    H126497   2.119   0.299  16.751  0.4376  0.0240 -0.8239
 1694TIP3    H226498   2.016   0.188  16.744  2.2580 -1.7907  0.1121
 1695TIP3   OH226499   1.377   6.642   3.248 -0.2717 -0.3416  0.0683
 1695TIP3    H126500   1.460   6.597   3.264  1.2420  2.0457 -0.3941
 1695TIP3    H226501   1.375   6.654   3.153 -0.4773  0.7406  0.1964
 1696TIP3   OH226502   3.863   2.597  13.774  0.0033 -0.3625  0.3870
 1696TIP3    H126503   3.935   2.629  13.720 -1.0853  0.7280 -0.4880
 1696TIP3    H226504   3.815   2.538  13.716 -0.7936  0.2925  0.3601
 1697TIP3   OH226505   6.483   5.017   0.726  0.0783 -0.4778  0.2525
 1697TIP3    H126506   6.546   5.085   0.702  2.2248 -1.6328  2.2019
 1697TIP3    H226507   6.449   4.986   0.642  1.2824  0.9434 -0.8258
 1698TIP3   OH226508   4.579   2.490  16.967 -0.3507 -0.0436 -0.1930
 1698TIP3    H126509   4.511   2.522  17.026 -1.1380 -1.2764 -0.4011
 1698TIP3    H226510   4.658   2.536  16.995 -1.4812  2.4135 -0.7914
 1699TIP3   OH226511   4.499   4.497   5.448 -0.4257  0.4765 -0.9630
 1699TIP3    H126512   4.579   4.533   5.486 -0.4101 -0.4747 -0.0337
 1699TIP3    H226513   4.432   4.562   5.466 -0.0621  0.8140 -0.8205
 1700TIP3   OH226514   3.839   0.692  16.241 -0.0597  0.0921  0.2785
 1700TIP3    H126515   3.797   0.615  16.203 -3.0794  0.9637  1.4806
 1700TIP3    H226516   3.883   0.659  16.319 -0.3460 -0.6022  0.1583
 1701TIP3   OH226517   2.577   5.765  16.029  0.1794 -0.0482 -0.2503
 1701TIP3    H126518   2.532   5.728  15.953 -0.6371 -4.1051  1.9149
 1701TIP3    H226519   2.507   5.804  16.081 -0.0872 -1.4792  0.5280
 1702TIP3   OH226520   4.040   5.551   7.049  0.2008 -0.2798 -0.0666
 1702TIP3    H126521   4.135   5.537   7.049  0.1690 -0.5373 -0.8990
 1702TIP3    H226522   4.021   5.588   6.963 -0.4501 -0.1659  0.1176
 1703TIP3   OH226523   5.867   6.615   5.349  0.8048 -0.0629  0.1053
 1703TIP3    H126524   5.831   6.575   5.269  3.1570 -2.5616  0.1439
 1703TIP3    H226525   5.941   6.667   5.318  0.0865  1.2159  0.4598
 1704TIP3   OH226526   5.384   1.582  13.229  0.2841  0.1538 -0.5366
 1704TIP3    H126527   5.342   1.499  13.208  1.6852 -0.5448 -0.6805
 1704TIP3    H226528   5.390   1.628  13.145 -0.5319  0.4413 -0.4494
 1705TIP3   OH226529   2.773   5.495  14.952 -0.3672 -0.1102 -0.2407
 1705TIP3    H126530   2.805   5.519  15.039  1.1911 -1.3881 -0.4027
 1705TIP3    H226531   2.771   5.399  14.953 -3.4711 -0.1503 -0.5825
 1706TIP3   OH226532   2.549   1.911  12.644 -0.1085 -0.0473  0.0766
 1706TIP3    H126533   2.637   1.923  12.679  0.3902  0.5188 -1.3114
 1706TIP3    H226534   2.505   1.995  12.658 -0.3198 -0.2120  0.4300
 1707TIP3   OH226535   5.295   0.606   4.224 -0.0590  0.3846  0.1109
 1707TIP3    H126536   5.225   0.611   4.159  0.2614 -1.2376 -0.3918
 1707TIP3    H226537   5.253   0.569   4.302 -0.4455  2.3344  0.8984
 1708TIP3   OH226538   1.777   3.058   6.180  0.3630 -0.5137 -0.2328
 1708TIP3    H126539   1.698   3.042   6.231 -0.3230  4.0987  0.6031
 1708TIP3    H226540   1.829   3.117   6.234  2.9588 -0.9136 -2.0765
 1709TIP3   OH226541   3.140   3.946   6.995 -0.3332 -0.1991 -0.0666
 1709TIP3    H126542   3.188   4.024   7.018 -1.7656  0.7183 -0.0549
 1709TIP3    H226543   3.104   3.964   6.908 -1.2969 -0.5179  0.2439
 1710TIP3   OH226544   5.454   3.243  16.602 -0.0310  0.0101  0.1615
 1710TIP3    H126545   5.362   3.216  16.605 -0.4354  1.3815  1.5836
 1710TIP3    H226546   5.460   3.296  16.523 -0.9885  1.4772  1.0115
 1711TIP3   OH226547   1.241   1.847  17.172 -0.1302  0.3754  0.0038
 1711TIP3    H126548   1.271   1.779  17.112 -1.3368  0.3565 -0.6129
 1711TIP3    H226549   1.187   1.800  17.236 -0.7994  0.7202 -0.3021
 1712TIP3   OH226550   5.626   6.382   4.216 -0.0053  0.4338  0.2440
 1712TIP3    H126551   5.657   6.472   4.230 -0.8445  0.8388 -0.3902
 1712TIP3    H226552   5.595   6.354   4.303 -0.3303  1.0020  0.3205
 1713TIP3   OH226553   5.266   1.968  13.063  0.1259  0.5424 -0.1585
 1713TIP3    H126554   5.220   1.886  13.047  0.0790  0.7046 -0.8666
 1713TIP3    H226555   5.244   2.023  12.988  1.5648  0.5866 -0.5846
 1714TIP3   OH226556   0.197   4.789   2.549  0.5197 -0.2865 -0.2100
 1714TIP3    H126557   0.188   4.710   2.495 -0.6741 -1.3850  1.4934
 1714TIP3    H226558   0.229   4.756   2.633 -0.8530  0.9066  0.8186
 1715TIP3   OH226559   4.205   3.061   4.653  0.9716 -0.1893 -0.2756
 1715TIP3    H126560   4.218   2.976   4.693  0.4412 -0.7421 -1.2358
 1715TIP3    H226561   4.221   3.124   4.723  0.6064 -1.1034  0.6496
 1716TIP3   OH226562   3.610   5.119   4.558  0.5064  0.5053 -0.0696
 1716TIP3    H126563   3.525   5.159   4.539  0.0069 -1.0054 -1.2086
 1716TIP3    H226564   3.657   5.186   4.608 -1.6427  1.0765  1.3420
 1717TIP3   OH226565   4.571   0.164   2.420 -0.0865 -0.3488  0.2558
 1717TIP3    H126566   4.618   0.170   2.336 -0.8581  0.6865 -0.1295
 1717TIP3    H226567   4.503   0.099   2.404 -0.4879  0.1426 -0.0599
 1718TIP3   OH226568   6.610   5.915   0.935  0.5386 -0.2509  0.0634
 1718TIP3    H126569   6.532   5.903   0.881  0.3318  1.2358 -0.0196
 1718TIP3    H226570   6.601   6.003   0.970  1.3614 -0.6761  1.4203
 1719TIP3   OH226571   2.716   5.169  14.304 -0.6382 -0.2973  0.0878
 1719TIP3    H126572   2.745   5.148  14.393  1.6245 -0.0404 -0.5489
 1719TIP3    H226573   2.621   5.181  14.313 -0.6355 -1.2911  2.2580
 1720TIP3   OH226574   2.668   2.276  14.203  0.4430  0.1884  0.2619
 1720TIP3    H126575   2.715   2.212  14.149  2.0580 -1.5599  3.4291
 1720TIP3    H226576   2.728   2.351  14.209  0.4162  0.2374 -0.0931
 1721TIP3   OH226577   1.321   1.523   1.233 -0.0193  0.6240 -0.1679
 1721TIP3    H126578   1.318   1.559   1.321  2.3972  1.7636 -0.4682
 1721TIP3    H226579   1.392   1.460   1.235 -0.9678 -0.5244 -0.9418
 1722TIP3   OH226580   5.876   1.023  12.608  0.0426  0.3416  0.5504
 1722TIP3    H126581   5.873   1.106  12.655 -1.5087  0.8137 -0.2975
 1722TIP3    H226582   5.791   0.982  12.625 -0.0995 -0.0110 -0.8385
 1723TIP3   OH226583   6.458   0.734  14.725 -0.6284 -0.0705  0.6900
 1723TIP3    H126584   6.410   0.811  14.755  0.5248 -0.2462  3.3112
 1723TIP3    H226585   6.534   0.771  14.679 -2.0622  0.2183 -1.6163
 1724TIP3   OH226586   0.756   6.781   5.828  0.5950  0.3124 -0.6047
 1724TIP3    H126587   0.759   6.763   5.734 -1.6120 -2.5512 -0.2726
 1724TIP3    H226588   0.690   6.850   5.837 -0.3738 -0.5045 -1.1230
 1725TIP3   OH226589   6.784   1.874   4.234 -0.7728 -0.5264 -0.4524
 1725TIP3    H126590   6.823   1.904   4.152 -1.6549 -1.7210 -1.3558
 1725TIP3    H226591   6.857   1.870   4.296 -0.2438  1.2216 -0.9121
 1726TIP3   OH226592   2.768   3.190  14.811 -0.6486  0.2378 -0.0820
 1726TIP3    H126593   2.726   3.117  14.766  0.5423  0.3740 -1.4965
 1726TIP3    H226594   2.837   3.150  14.863  0.9657  0.3848 -1.9801
 1727TIP3   OH226595   3.213   2.001  15.898 -0.2854 -0.2365  0.0402
 1727TIP3    H126596   3.142   2.000  15.962 -1.2818  3.3109 -0.7838
 1727TIP3    H226597   3.175   1.959  15.820 -0.5038 -0.8104  0.4519
 1728TIP3   OH226598   4.407   3.559  16.134 -0.5744  1.0577 -0.0798
 1728TIP3    H126599   4.403   3.652  16.112  1.3520  1.1991  0.0171
 1728TIP3    H226600   4.496   3.545  16.165 -1.0390 -0.6863  0.6050
 1729TIP3   OH226601   0.221   2.628  14.803 -0.3242  0.6591 -0.0413
 1729TIP3    H126602   0.266   2.700  14.758  1.1545  1.0852  1.9887
 1729TIP3    H226603   0.163   2.671  14.865  2.2724  0.2768  2.8689
 1730TIP3   OH226604   0.280   4.934   2.287 -0.3147  0.1344 -0.3117
 1730TIP3    H126605   0.361   4.978   2.312 -1.7164  2.8724 -0.2109
 1730TIP3    H226606   0.233   4.921   2.369 -0.7252  0.2103 -0.5302
 1731TIP3   OH226607   2.890   3.048   0.525  0.3464  0.0254 -0.0376
 1731TIP3    H126608   2.931   3.079   0.444 -0.8213 -0.3494 -0.7917
 1731TIP3    H226609   2.882   3.127   0.579 -0.4152  0.6052 -0.9767
 1732TIP3   OH226610   0.126   0.299   0.638  0.5414 -0.6336  0.2409
 1732TIP3    H126611   0.158   0.386   0.662 -1.0132 -0.0044  0.1581
 1732TIP3    H226612   0.182   0.238   0.686  2.3823  0.3545 -0.5450
 1733TIP3   OH226613   1.774   6.189   1.665  0.4110  0.4228 -0.0718
 1733TIP3    H126614   1.761   6.158   1.754  3.3992 -0.9069  0.0278
 1733TIP3    H226615   1.837   6.261   1.674  1.4255 -0.2876 -1.1098
 1734TIP3   OH226616   4.649   5.618   3.025 -0.0276 -0.2298 -0.3924
 1734TIP3    H126617   4.588   5.677   3.069  2.1455  2.6447 -0.9013
 1734TIP3    H226618   4.706   5.586   3.095 -0.7065 -1.1299 -0.2339
 1735TIP3   OH226619   3.382   0.397   0.403 -0.0936  0.5612  0.1284
 1735TIP3    H126620   3.329   0.331   0.447  0.5532 -1.0007 -1.3141
 1735TIP3    H226621   3.344   0.404   0.316  2.4465 -1.2665 -1.2722
 1736TIP3   OH226622   6.445   6.710   5.149  0.0356  0.6992  0.0896
 1736TIP3    H126623   6.451   6.805   5.148  0.7168  0.7768  2.7670
 1736TIP3    H226624   6.534   6.680   5.134  0.2459  0.6084  1.3459
 1737TIP3   OH226625   4.487   3.632  11.557 -0.1765  0.3706  0.7132
 1737TIP3    H126626   4.516   3.722  11.541 -1.0990  0.4666 -0.6885
 1737TIP3    H226627   4.537   3.580  11.494  1.4244 -0.3344  2.5061
 1738TIP3   OH226628   2.793   0.435  15.153  0.1935  0.1863  0.0022
 1738TIP3    H126629   2.705   0.441  15.114  0.3480  0.4631 -0.3084
 1738TIP3    H226630   2.843   0.384  15.089  0.1543 -0.3188  0.3710
 1739TIP3   OH226631   1.775   0.084   3.499  0.0763 -0.0624 -0.1274
 1739TIP3    H126632   1.690   0.055   3.466 -0.1043 -0.1038  0.3629
 1739TIP3    H226633   1.756   0.123   3.584  0.4809  0.4124 -0.2501
 1740TIP3   OH226634   3.676   3.192   4.035 -0.4457  0.1241 -0.1736
 1740TIP3    H126635   3.716   3.191   3.948  0.7741  0.2316  0.3666
 1740TIP3    H226636   3.626   3.273   4.038 -0.8689 -0.0957 -0.9199
 1741TIP3   OH226637   5.443   0.096   4.142  0.0854  0.0483 -0.0134
 1741TIP3    H126638   5.437   0.080   4.048 -0.8336 -0.7728  0.1809
 1741TIP3    H226639   5.359   0.135   4.166  0.0271 -0.4384  0.6054
 1742TIP3   OH226640   2.204   0.193  13.342  0.4565  0.2446  0.0174
 1742TIP3    H126641   2.148   0.118  13.326  2.6213 -1.0294 -2.3815
 1742TIP3    H226642   2.292   0.161  13.321  1.3650  3.6920 -2.2206
 1743TIP3   OH226643   1.341   1.019   4.964 -0.7652  0.3571 -0.2496
 1743TIP3    H126644   1.246   1.018   4.955 -0.9539  1.5791  1.1387
 1743TIP3    H226645   1.356   1.061   5.049  1.0309  1.2597 -0.9607
 1744TIP3   OH226646   0.432   4.120   4.459 -0.4547  0.0789  0.0676
 1744TIP3    H126647   0.347   4.100   4.499 -1.0538 -0.0552 -1.1892
 1744TIP3    H226648   0.430   4.215   4.448 -0.6386  0.0320 -0.3437
 1745TIP3   OH226649   2.154   5.809   4.902  0.2742 -0.2428 -0.3111
 1745TIP3    H126650   2.180   5.719   4.883  0.4708  0.0158 -1.2961
 1745TIP3    H226651   2.229   5.862   4.875  0.4180  0.1835  0.8518
 1746TIP3   OH226652   2.611   3.706  14.278 -0.2566  0.0420 -0.1444
 1746TIP3    H126653   2.527   3.665  14.296  0.2886 -1.0114  0.0922
 1746TIP3    H226654   2.612   3.785  14.331 -0.7117 -0.4353  0.5860
 1747TIP3   OH226655   1.412   4.500   3.615 -0.5776 -0.1294 -0.1778
 1747TIP3    H126656   1.348   4.469   3.679 -1.1896  0.3380 -0.5571
 1747TIP3    H226657   1.360   4.525   3.539 -0.1116  1.8435  0.1072
 1748TIP3   OH226658   6.018   0.772  16.939  0.2097 -0.6222  0.5024
 1748TIP3    H126659   6.036   0.715  17.014 -0.2822  1.3980  2.2736
 1748TIP3    H226660   5.924   0.789  16.944 -0.2583 -2.1190 -1.9073
 1749TIP3   OH226661   2.733   3.645   3.975  0.0614 -0.0767 -0.1361
 1749TIP3    H126662   2.699   3.672   4.060 -0.9159  2.0838 -1.1592
 1749TIP3    H226663   2.674   3.684   3.911  1.4275 -0.6950 -1.8583
 1750TIP3   OH226664   1.893   4.033  12.505  0.4483  0.2914  0.0834
 1750TIP3    H126665   1.979   4.070  12.488  0.4769  0.1528 -0.0731
 1750TIP3    H226666   1.904   3.984  12.587  0.6672 -0.2067 -0.2371
 1751TIP3   OH226667   2.590   4.343  11.440 -0.4844 -0.2639 -0.1322
 1751TIP3    H126668   2.675   4.314  11.472 -0.3333  1.5520  1.2802
 1751TIP3    H226669   2.559   4.271  11.385  1.9200 -0.9844 -0.6539
 1752TIP3   OH226670   3.415   0.920   4.177  0.3226 -0.1118 -0.5170
 1752TIP3    H126671   3.358   0.901   4.102  0.3912  0.3884 -0.6990
 1752TIP3    H226672   3.390   0.855   4.243 -0.2788 -0.0656 -0.6927
 1753TIP3   OH226673   0.090   4.817  11.518 -0.5987 -0.6626  0.0181
 1753TIP3    H126674   0.114   4.844  11.429 -1.7550 -2.2157 -0.8107
 1753TIP3    H226675   0.133   4.733  11.529  0.3182 -0.0507  1.3272
 1754TIP3   OH226676   2.860   2.204   0.877  0.4008  0.5163  0.1777
 1754TIP3    H126677   2.938   2.237   0.832  1.9949 -1.7315  1.0615
 1754TIP3    H226678   2.832   2.276   0.934  3.1561  0.7493  1.4051
 1755TIP3   OH226679   1.306   6.603  13.656  0.1282  0.3242 -0.1810
 1755TIP3    H126680   1.397   6.631  13.669  0.2561  0.0044 -0.3891
 1755TIP3    H226681   1.298   6.592  13.562  0.1290 -0.5225 -0.0856
 1756TIP3   OH226682   4.090   0.810  12.065  0.1591  0.4704 -0.2166
 1756TIP3    H126683   4.177   0.801  12.027  1.3443 -0.6640  2.5136
 1756TIP3    H226684   4.088   0.899  12.101  0.3178  0.3862  0.0007
 1757TIP3   OH226685   0.294   4.090  11.581  0.0951  0.3471  0.7560
 1757TIP3    H126686   0.309   4.185  11.574 -1.4752  0.5284 -0.5820
 1757TIP3    H226687   0.308   4.057  11.492  0.7293 -0.7086  1.2332
 1758TIP3   OH226688   2.881   0.163   4.040  0.0472  0.4305 -0.0462
 1758TIP3    H126689   2.859   0.111   3.963  0.2233  0.2328  0.0380
 1758TIP3    H226690   2.898   0.099   4.109 -0.2270  0.6099  0.1888
 1759TIP3   OH226691   5.368   6.155   1.870  0.3613  0.6084 -0.1521
 1759TIP3    H126692   5.331   6.237   1.903  2.3111  1.7791 -0.6967
 1759TIP3    H226693   5.308   6.087   1.901  0.2021  1.9454  2.8448
 1760TIP3   OH226694   4.939   1.143   2.142 -0.0639  0.0871 -0.1988
 1760TIP3    H126695   5.015   1.133   2.199 -0.4364 -0.5952  0.1998
 1760TIP3    H226696   4.867   1.164   2.202 -0.0952  1.2686 -0.6258
 1761TIP3   OH226697   2.543   6.191  14.569  0.1342 -0.8710  0.7264
 1761TIP3    H126698   2.465   6.162  14.522 -1.0266 -1.8331  3.1190
 1761TIP3    H226699   2.542   6.286  14.561 -0.1949 -0.9788 -0.8472
 1762TIP3   OH226700   3.307   4.815  11.586  0.4354 -0.2340  0.2409
 1762TIP3    H126701   3.386   4.855  11.622  1.1202 -0.9460 -0.4357
 1762TIP3    H226702   3.238   4.880  11.602  1.3030  0.7468  0.1172
 1763TIP3   OH226703   4.968   0.747  12.504  0.4275  0.5645 -0.1680
 1763TIP3    H126704   5.037   0.706  12.451  0.3297  0.9037 -0.5682
 1763TIP3    H226705   4.937   0.677  12.561  1.6500  0.6075  0.5884
 1764TIP3   OH226706   2.000   3.948  11.173  0.1293 -0.2720 -0.5351
 1764TIP3    H126707   1.939   3.967  11.245 -0.2773 -1.2370 -0.6146
 1764TIP3    H226708   1.985   4.018  11.110  1.9281  1.7949  1.1639
 1765TIP3   OH226709   0.313   5.720   3.911  0.0787 -0.5498 -0.0668
 1765TIP3    H126710   0.389   5.771   3.882 -0.0407  0.2990  1.0589
 1765TIP3    H226711   0.247   5.785   3.933 -0.6554 -1.2571 -0.1335
 1766TIP3   OH226712   1.827   4.975  14.872  0.2625  0.1305  0.6521
 1766TIP3    H126713   1.861   5.055  14.831 -0.3519  0.2755  0.4162
 1766TIP3    H226714   1.860   4.904  14.817 -1.1674  0.3619 -0.5587
 1767TIP3   OH226715   3.999   6.406  15.349 -0.3913  0.8190  0.6712
 1767TIP3    H126716   3.923   6.354  15.322  0.0001  1.0445 -0.9992
 1767TIP3    H226717   3.987   6.418  15.443 -1.6368 -0.4151  0.7165
 1768TIP3   OH226718   1.044   0.422  11.143 -0.0374 -0.1470  0.0091
 1768TIP3    H126719   1.019   0.433  11.235  0.3218  1.3427 -0.0365
 1768TIP3    H226720   0.962   0.434  11.094  0.0795  1.0283  0.0587
 1769TIP3   OH226721   5.254   0.950   2.164 -0.2734  1.0581  0.4240
 1769TIP3    H126722   5.237   1.036   2.125 -1.3063 -0.4167 -2.5893
 1769TIP3    H226723   5.350   0.946   2.170 -0.1564  1.9317 -0.5582
 1770TIP3   OH226724   2.172   5.529  13.938  0.0682  0.1705  0.1486
 1770TIP3    H126725   2.155   5.439  13.911  2.6660 -0.3332 -0.0702
 1770TIP3    H226726   2.102   5.580  13.898 -0.8519 -1.6104 -0.6109
 1771TIP3   OH226727   4.412   6.592   4.720  0.1358  0.2128  0.0727
 1771TIP3    H126728   4.370   6.507   4.703 -2.0720  1.2526  0.0666
 1771TIP3    H226729   4.492   6.569   4.767 -0.7759 -1.8420  0.7812
 1772TIP3   OH226730   6.417   0.557  14.527  0.1369 -0.3123  0.0777
 1772TIP3    H126731   6.430   0.625  14.593  1.1887 -1.0745  0.6750
 1772TIP3    H226732   6.379   0.604  14.452 -2.0187  0.4005  1.5263
 1773TIP3   OH226733   3.767   5.067   5.068  0.1603 -0.3028  0.7349
 1773TIP3    H126734   3.713   5.081   4.990  0.8015  2.3047  0.6942
 1773TIP3    H226735   3.711   5.015   5.126 -0.3963 -2.1573 -1.3210
 1774TIP3   OH226736   5.345   5.115   3.242 -0.0251  0.0775 -0.0936
 1774TIP3    H126737   5.369   5.163   3.321  1.9666 -0.4201 -0.3400
 1774TIP3    H226738   5.428   5.083   3.207 -0.9647 -0.6503 -1.7983
 1775TIP3   OH226739   1.737   3.021   3.627 -0.5627  0.1749  1.0311
 1775TIP3    H126740   1.816   3.035   3.678  0.5919 -0.3345 -0.5606
 1775TIP3    H226741   1.669   3.004   3.692  0.7612 -0.0124  2.4060
 1776TIP3   OH226742   5.409   6.470   1.805  0.2060 -0.1567  0.0825
 1776TIP3    H126743   5.420   6.381   1.772  2.5725  0.4380 -0.9621
 1776TIP3    H226744   5.499   6.501   1.820 -0.4711  2.4480 -0.7109
 1777TIP3   OH226745   5.925   3.845  12.339 -0.1122  0.2572 -0.0166
 1777TIP3    H126746   5.913   3.806  12.425  0.4546  0.9262  0.3745
 1777TIP3    H226747   5.846   3.820  12.290 -0.2537 -0.4576  0.5602
 1778TIP3   OH226748   3.403   3.927   1.634  0.0966  0.5699  0.6840
 1778TIP3    H126749   3.436   3.976   1.709 -0.6280  1.1974  0.6097
 1778TIP3    H226750   3.308   3.924   1.647 -0.0860  1.0585 -0.4238
 1779TIP3   OH226751   5.738   2.468   2.212  0.0492  0.0953 -0.5245
 1779TIP3    H126752   5.672   2.528   2.178 -0.1366  0.8064  0.9957
 1779TIP3    H226753   5.736   2.393   2.153 -0.1071  1.3266 -2.1530
 1780TIP3   OH226754   2.465   4.740   1.934 -0.0841  0.6589 -0.7080
 1780TIP3    H126755   2.502   4.728   1.847  0.0096  0.7553 -0.6806
 1780TIP3    H226756   2.507   4.673   1.987  0.4026  1.0736 -0.5670
 1781TIP3   OH226757   3.258   4.323   1.721 -0.6678  0.3313  0.0647
 1781TIP3    H126758   3.249   4.418   1.717 -0.7350  0.2893 -1.3423
 1781TIP3    H226759   3.337   4.304   1.669 -1.3066 -0.4540 -0.6554
 1782TIP3   OH226760   4.466   1.564   2.673 -0.2605 -0.1671  0.1389
 1782TIP3    H126761   4.560   1.582   2.680 -0.3605 -0.1676  1.7540
 1782TIP3    H226762   4.462   1.474   2.639  0.2766  0.5450 -1.9486
 1783TIP3   OH226763   3.229   3.081  13.287 -0.2687 -0.7756 -0.4428
 1783TIP3    H126764   3.159   3.031  13.329 -0.6889 -1.1404 -1.5329
 1783TIP3    H226765   3.305   3.024  13.291  0.4695  0.2388  2.1753
 1784TIP3   OH226766   6.236   5.867   2.823 -0.5109  0.5427  0.0187
 1784TIP3    H126767   6.215   5.810   2.897 -3.0500  1.9270  0.4798
 1784TIP3    H226768   6.151   5.897   2.791  0.6561  3.7438 -0.4114
 1785TIP3   OH226769   0.773   4.536   2.685 -0.4091 -0.2054 -0.0999
 1785TIP3    H126770   0.765   4.472   2.756 -1.3297 -0.0046 -0.0116
 1785TIP3    H226771   0.781   4.621   2.730 -0.1820 -0.1549 -0.2315
 1786TIP3   OH226772   3.837   1.154  14.835  0.1929  0.1379  0.2446
 1786TIP3    H126773   3.874   1.204  14.908 -1.0911  0.5520  0.6321
 1786TIP3    H226774   3.897   1.170  14.762 -0.1933  2.3054  0.3334
 1787TIP3   OH226775   5.452   5.020   4.315  0.4316 -0.2467 -0.2864
 1787TIP3    H126776   5.358   5.028   4.297  0.6277  1.2660 -0.7719
 1787TIP3    H226777   5.465   4.927   4.332 -1.2800 -0.3878  0.4870
 1788TIP3   OH226778   2.445   1.381  13.223 -0.0694 -0.2630 -0.1001
 1788TIP3    H126779   2.494   1.372  13.141 -1.1097 -1.5014 -0.6267
 1788TIP3    H226780   2.454   1.295  13.266 -0.7475 -0.1086  0.3734
 1789TIP3   OH226781   2.799   4.592  15.698  0.2811 -0.3009 -0.5190
 1789TIP3    H126782   2.732   4.659  15.708  1.1449  0.3381  1.4091
 1789TIP3    H226783   2.776   4.524  15.762  0.8080 -0.6599 -0.6991
 1790TIP3   OH226784   5.374   0.519   0.238 -0.1346  0.1709  0.1535
 1790TIP3    H126785   5.320   0.457   0.287 -0.3631  0.7362  0.6340
 1790TIP3    H226786   5.322   0.600   0.237 -0.2269  0.1140 -1.2045
 1791TIP3   OH226787   0.541   0.365  15.304  0.0632 -0.3849  0.0023
 1791TIP3    H126788   0.542   0.380  15.398  1.2445 -2.8555  0.4689
 1791TIP3    H226789   0.632   0.377  15.277 -0.3327  0.7486 -0.9715
 1792TIP3   OH226790   1.953   5.762   1.541  0.3237 -0.7998  0.5772
 1792TIP3    H126791   2.038   5.719   1.528  1.0781  0.7685 -0.0312
 1792TIP3    H226792   1.964   5.812   1.623 -0.4835 -1.6284  1.2028
 1793TIP3   OH226793   2.416   0.113  13.915 -0.1673 -0.3891  0.1933
 1793TIP3    H126794   2.371   0.187  13.954  0.9179  0.0210  0.7242
 1793TIP3    H226795   2.449   0.146  13.831  1.6576  0.2524  1.1156
 1794TIP3   OH226796   2.049   6.573   3.252 -0.3067  0.3285 -0.1962
 1794TIP3    H126797   2.002   6.565   3.335 -1.2061  0.0421 -0.7162
 1794TIP3    H226798   1.990   6.625   3.197  0.6912  1.3328 -0.3594
 1795TIP3   OH226799   6.688   2.257   4.856 -0.2021  0.3552 -0.8543
 1795TIP3    H126800   6.775   2.227   4.829 -0.1472  0.1310 -0.4329
 1795TIP3    H226801   6.654   2.186   4.911  1.0504  2.1514  2.4842
 1796TIP3   OH226802   3.790   3.212   0.945 -0.2430 -0.3361  0.2894
 1796TIP3    H126803   3.853   3.280   0.924  0.4674 -1.0899 -0.0582
 1796TIP3    H226804   3.840   3.130   0.943 -1.5788 -1.2010 -1.9534
 1797TIP3   OH226805   2.620   0.546   4.223  0.5873  0.3206  0.3558
 1797TIP3    H126806   2.540   0.586   4.258  0.3967  1.0308 -0.8459
 1797TIP3    H226807   2.657   0.613   4.166  1.6774 -0.2661  0.3481
 1798TIP3   OH226808   2.308   2.695   1.489  0.1661 -0.6048 -0.0314
 1798TIP3    H126809   2.322   2.788   1.508 -0.5762 -0.3977 -0.4629
 1798TIP3    H226810   2.314   2.651   1.574  2.1491 -0.3847 -0.0243
 1799TIP3   OH226811   0.065   4.986  15.453 -0.3021  0.7017 -0.3224
 1799TIP3    H126812   0.023   4.902  15.437  0.5673  0.1702  0.1152
 1799TIP3    H226813   0.121   5.000  15.377  3.0121 -1.3170  1.5191
 1800TIP3   OH226814   6.103   5.393  16.142  0.2835 -0.3379 -0.3625
 1800TIP3    H126815   6.114   5.345  16.224 -0.1746 -0.6191 -0.4650
 1800TIP3    H226816   6.063   5.330  16.082 -0.0223  0.0727 -0.5967
 1801TIP3   OH226817   0.338   0.758  16.575 -0.3143  0.0131 -0.4521
 1801TIP3    H126818   0.272   0.825  16.597 -0.1879  0.1150 -0.3848
 1801TIP3    H226819   0.320   0.687  16.636 -1.0356 -0.3994 -1.1261
 1802TIP3   OH226820   3.863   2.839  16.755 -0.0140  0.4958  0.3746
 1802TIP3    H126821   3.951   2.855  16.721 -0.4490 -1.2655 -1.8317
 1802TIP3    H226822   3.876   2.818  16.847  1.7686  1.1232  0.3046
 1803TIP3   OH226823   5.305   4.796  16.350  0.0075  0.4108 -0.6794
 1803TIP3    H126824   5.235   4.749  16.396  1.6721 -1.3407  0.1980
 1803TIP3    H226825   5.309   4.755  16.264  1.9290 -1.7567  0.3182
 1804TIP3   OH226826   4.440   4.990  13.236 -0.2193 -0.4286  0.3452
 1804TIP3    H126827   4.531   5.017  13.224 -0.2334 -0.0652  1.0573
 1804TIP3    H226828   4.428   4.986  13.331 -0.4143 -2.2793  0.2815
 1805TIP3   OH226829   1.853   0.987  14.290  0.4506  0.4366 -0.5531
 1805TIP3    H126830   1.768   0.943  14.280  0.2194  0.6136  0.5606
 1805TIP3    H226831   1.850   1.026  14.377  1.8691  0.0303 -0.2993
 1806TIP3   OH226832   0.171   3.116  17.190  0.1444  0.3906  0.1747
 1806TIP3    H126833   0.202   3.074  17.270 -1.2432 -1.2751 -0.1243
 1806TIP3    H226834   0.190   3.209  17.204 -0.6202  0.2368  2.7010
 1807TIP3   OH226835   0.322   5.053   4.966  0.0767 -0.3406  0.9052
 1807TIP3    H126836   0.251   5.112   4.989  0.4058  0.1989  0.5485
 1807TIP3    H226837   0.402   5.101   4.985  0.4278  0.6438 -2.3642
 1808TIP3   OH226838   6.110   6.396   5.062  0.2358 -0.3858 -0.4005
 1808TIP3    H126839   6.152   6.339   5.127  0.4359  0.8270  0.5628
 1808TIP3    H226840   6.137   6.484   5.087 -1.4178  0.2746 -0.8682
 1809TIP3   OH226841   1.609   3.957  17.064 -0.2384 -0.0086  0.0905
 1809TIP3    H126842   1.672   3.924  17.000  0.8295  0.6893  0.7483
 1809TIP3    H226843   1.638   4.047  17.081  0.1689 -0.5245  2.3532
 1810TIP3   OH226844   3.920   6.587   2.304 -0.1899 -0.1840  0.4074
 1810TIP3    H126845   3.865   6.511   2.324  1.6661 -1.7616 -0.2324
 1810TIP3    H226846   3.887   6.619   2.220  1.0335 -2.3458 -0.9930
 1811TIP3   OH226847   5.807   4.757   0.621 -0.3394 -0.2609  0.1188
 1811TIP3    H126848   5.829   4.670   0.589 -0.0610 -0.5351  1.0495
 1811TIP3    H226849   5.811   4.751   0.716  0.0443  0.8539  0.1980
 1812TIP3   OH226850   2.908   6.404   1.312 -0.1422 -0.4874  0.5011
 1812TIP3    H126851   2.896   6.476   1.250  1.2260  2.4343  3.3029
 1812TIP3    H226852   2.823   6.393   1.354 -0.1211  0.2630  0.7556
 1813TIP3   OH226853   3.250   1.922   0.711 -0.3895 -0.4381  0.2594
 1813TIP3    H126854   3.221   1.924   0.802  0.2671  2.2234  0.5065
 1813TIP3    H226855   3.323   1.985   0.708 -1.2480  0.5877 -2.3362
 1814TIP3   OH226856   5.581   4.392   3.575 -0.1748  0.1406 -0.2759
 1814TIP3    H126857   5.555   4.479   3.546 -1.3587 -0.1885 -0.2884
 1814TIP3    H226858   5.621   4.405   3.660 -0.4517  0.6931 -0.2251
 1815TIP3   OH226859   5.395   3.805  16.747  0.1491  0.2649 -0.1372
 1815TIP3    H126860   5.419   3.886  16.701  2.3641 -0.1481  0.1734
 1815TIP3    H226861   5.396   3.829  16.839  1.2843 -0.1897 -0.0130
 1816TIP3   OH226862   2.971   5.190   3.425 -0.3043  0.2241 -0.0131
 1816TIP3    H126863   2.932   5.246   3.358 -0.0873 -0.5880 -0.8440
 1816TIP3    H226864   2.901   5.128   3.447  0.7261 -1.9401 -2.3013
 1817TIP3   OH226865   6.446   2.246  14.297  0.0836 -0.3251  0.1142
 1817TIP3    H126866   6.380   2.177  14.305 -0.2366 -0.2649 -1.5764
 1817TIP3    H226867   6.439   2.296  14.379 -0.9100 -1.2212  0.6027
 1818TIP3   OH226868   2.349   1.801   2.276 -0.6913 -0.2382 -0.1761
 1818TIP3    H126869   2.306   1.719   2.298 -0.2831  0.0574  2.0097
 1818TIP3    H226870   2.295   1.869   2.318 -0.9642  0.6248 -1.8464
 1819TIP3   OH226871   2.572   6.497   5.425 -0.1812 -0.1075 -0.1295
 1819TIP3    H126872   2.632   6.457   5.488 -0.5210 -0.7571 -0.2062
 1819TIP3    H226873   2.490   6.506   5.473 -0.4568 -0.6573 -0.4907
 1820TIP3   OH226874   0.514   3.949  16.832  0.0559 -0.4813 -0.4323
 1820TIP3    H126875   0.598   3.939  16.787  0.6628  1.5079  0.1349
 1820TIP3    H226876   0.538   3.982  16.919 -1.3294  0.5841 -0.4262
 1821TIP3   OH226877   3.811   1.703  12.558 -0.1834  0.3225 -0.4674
 1821TIP3    H126878   3.865   1.695  12.479 -1.0805  0.5314 -1.1247
 1821TIP3    H226879   3.854   1.647  12.623  0.8797  0.5774 -0.9274
 1822TIP3   OH226880   6.748   4.431  16.054  0.6530 -0.0471 -0.5614
 1822TIP3    H126881   6.807   4.407  15.982  2.1368  0.0459  0.5708
 1822TIP3    H226882   6.698   4.351  16.071  0.6050 -0.2071 -1.3786
 1823TIP3   OH226883   4.337   4.704  11.326  0.0110 -0.0455  0.3709
 1823TIP3    H126884   4.340   4.791  11.285  2.3246 -0.0803  0.3146
 1823TIP3    H226885   4.397   4.711  11.400  1.9941 -2.1160 -0.8837
 1824TIP3   OH226886   6.570   0.834   1.502  0.0773 -0.5883 -0.0368
 1824TIP3    H126887   6.578   0.821   1.408  0.2291  0.3305 -0.1579
 1824TIP3    H226888   6.630   0.905   1.523 -0.7459 -0.0413  0.5716
 1825TIP3   OH226889   6.080   2.568  10.594  0.2574 -0.1484 -0.5452
 1825TIP3    H126890   6.152   2.630  10.608 -0.8543  0.7314  1.9166
 1825TIP3    H226891   6.115   2.484  10.625  0.2318  0.3069  0.8106
 1826TIP3   OH226892   6.107   5.435  15.681  0.2706  0.5579 -0.3042
 1826TIP3    H126893   6.062   5.365  15.729  0.2557  0.2550 -0.7543
 1826TIP3    H226894   6.038   5.475  15.627  0.7354 -0.6819 -1.9106
 1827TIP3   OH226895   3.959   2.160   3.469  0.4970  0.9613  0.0699
 1827TIP3    H126896   3.979   2.070   3.494  1.6954  1.2722  0.3015
 1827TIP3    H226897   3.890   2.187   3.530 -2.3069 -0.8052 -2.0411
 1828TIP3   OH226898   3.060   4.873  15.632  0.2155  0.4339 -0.1510
 1828TIP3    H126899   3.101   4.893  15.548  2.4061 -0.5252  0.6123
 1828TIP3    H226900   3.134   4.857  15.691 -1.2289  1.8550  2.1827
 1829TIP3   OH226901   2.305   6.589   0.367 -0.0741  0.3509 -0.4497
 1829TIP3    H126902   2.292   6.612   0.276 -0.3447 -1.0542 -0.7924
 1829TIP3    H226903   2.395   6.555   0.371  0.8081  2.5996  0.3120
 1830TIP3   OH226904   5.951   6.404  15.135  0.0454  0.2885 -0.3646
 1830TIP3    H126905   6.045   6.404  15.115 -0.1054  0.9079 -1.1456
 1830TIP3    H226906   5.917   6.326  15.091 -0.0621  0.9327 -1.4556
 1831TIP3   OH226907   4.447   1.433  15.228 -0.1177 -0.0530 -0.5188
 1831TIP3    H126908   4.459   1.527  15.245  0.4130  0.3166 -2.6193
 1831TIP3    H226909   4.473   1.391  15.310 -1.1826  1.6468  0.7683
 1832TIP3   OH226910   6.385   0.753  11.398 -0.0838 -0.3265  0.3374
 1832TIP3    H126911   6.297   0.764  11.364  0.3201 -0.0588 -0.6530
 1832TIP3    H226912   6.394   0.820  11.465 -0.2753  0.3475 -0.3015
 1833TIP3   OH226913   0.332   1.596  16.424 -0.8965 -0.4438 -0.0283
 1833TIP3    H126914   0.334   1.680  16.469  1.5893 -0.8621  0.8162
 1833TIP3    H226915   0.257   1.602  16.364 -0.9492  2.2314  0.1883
 1834TIP3   OH226916   4.669   5.469  14.812 -0.6875  0.0050  0.2826
 1834TIP3    H126917   4.662   5.517  14.730  1.5593 -1.0792 -0.6290
 1834TIP3    H226918   4.749   5.503  14.852  0.4688 -2.2580  0.0396
 1835TIP3   OH226919   5.725   6.802   5.559  0.3103 -1.0330 -0.3703
 1835TIP3    H126920   5.810   6.820   5.599  0.4799  0.3063 -1.2565
 1835TIP3    H226921   5.737   6.826   5.467 -1.7747  1.8808  0.0104
 1836TIP3   OH226922   5.832   3.377  15.354  0.0752  0.4560  0.1754
 1836TIP3    H126923   5.854   3.334  15.437 -0.3808 -0.6993 -0.2865
 1836TIP3    H226924   5.757   3.434  15.375 -0.5192 -0.3980  0.4086
 1837TIP3   OH226925   3.325   4.569   2.985 -0.0490  0.7611  0.0479
 1837TIP3    H126926   3.421   4.568   2.986  0.0338  0.7499 -2.1129
 1837TIP3    H226927   3.303   4.647   2.934 -1.0528 -0.7830 -2.0423
 1838TIP3   OH226928   3.168   2.518  11.767 -0.2812  0.2745  0.3610
 1838TIP3    H126929   3.165   2.428  11.736  0.7795  0.6377 -0.8960
 1838TIP3    H226930   3.211   2.512  11.853  0.4359 -0.3563 -0.0281
 1839TIP3   OH226931   4.453   4.220  15.834 -0.5090 -0.1552 -0.0197
 1839TIP3    H126932   4.521   4.268  15.787 -0.7258 -1.6964 -2.0943
 1839TIP3    H226933   4.393   4.287  15.865  0.3413  1.0498 -0.8725
 1840TIP3   OH226934   0.722   0.480  16.312  0.8342  0.3261 -0.4292
 1840TIP3    H126935   0.720   0.493  16.407 -2.7617 -1.1983 -0.1345
 1840TIP3    H226936   0.736   0.568  16.276 -1.1641  1.5590  1.5288
 1841TIP3   OH226937   2.215   2.429  15.603  0.6929 -0.3637 -0.5325
 1841TIP3    H126938   2.227   2.350  15.552 -2.5815 -0.1732 -1.8736
 1841TIP3    H226939   2.178   2.493  15.541  1.0963  1.4770  1.0133
 1842TIP3   OH226940   1.022   1.193   0.194 -0.6949 -0.1220  0.1874
 1842TIP3    H126941   1.104   1.228   0.161 -1.5361  1.4022 -0.4112
 1842TIP3    H226942   0.959   1.207   0.123 -1.2438 -2.3381  0.1626
 1843TIP3   OH226943   5.881   4.782   2.701 -0.7908  0.2256  0.3003
 1843TIP3    H126944   5.928   4.766   2.783 -1.2206  0.9613  0.7025
 1843TIP3    H226945   5.912   4.869   2.673 -0.7245  0.0234 -0.2663
 1844TIP3   OH226946   2.571   0.925  13.309  0.1688 -0.0218  0.0254
 1844TIP3    H126947   2.524   0.947  13.229 -0.9430 -0.2867  0.5946
 1844TIP3    H226948   2.570   0.830  13.313  0.6212 -0.0253  0.1227
 1845TIP3   OH226949   4.821   3.268  11.957  0.7006 -0.2343  0.1870
 1845TIP3    H126950   4.798   3.232  12.042  0.2378  2.8885  1.5156
 1845TIP3    H226951   4.796   3.201  11.894 -0.1255 -2.1139  2.4067
 1846TIP3   OH226952   5.958   2.705   3.296  0.1735  0.1124  0.3420
 1846TIP3    H126953   5.994   2.638   3.239  0.3779  0.7558 -0.3008
 1846TIP3    H226954   6.035   2.742   3.341 -0.0118 -0.5967  1.2864
 1847TIP3   OH226955   2.091   0.622   2.942  0.2297 -0.1740  0.3572
 1847TIP3    H126956   2.132   0.673   2.872 -0.9945  0.0584 -0.2334
 1847TIP3    H226957   2.057   0.689   3.002 -2.8054 -0.1213 -1.2362
 1848TIP3   OH226958   2.226   1.386  10.700  0.4558 -0.3490  0.0531
 1848TIP3    H126959   2.135   1.393  10.673  0.0905 -3.2675  0.2506
 1848TIP3    H226960   2.258   1.476  10.698 -2.5644  0.8739  0.5464
 1849TIP3   OH226961   3.176   2.486   3.808 -0.1450  0.0979 -0.0037
 1849TIP3    H126962   3.233   2.562   3.820 -0.4493  0.3283 -0.0188
 1849TIP3    H226963   3.205   2.446   3.726 -0.6195  0.7485 -0.4914
 1850TIP3   OH226964   5.732   1.749  12.492  0.4218  0.3540 -0.9243
 1850TIP3    H126965   5.668   1.803  12.445 -0.3267  0.3827  0.0946
 1850TIP3    H226966   5.780   1.812  12.546 -0.8919 -0.0271  0.7673
 1851TIP3   OH226967   4.441   2.843   4.584 -0.2364 -0.1507  0.1021
 1851TIP3    H126968   4.499   2.907   4.623 -0.2070 -0.2325  0.1931
 1851TIP3    H226969   4.493   2.763   4.578  0.7442  0.5813 -2.7603
 1852TIP3   OH226970   5.763   5.538   2.392  0.0016 -0.2386 -0.1905
 1852TIP3    H126971   5.766   5.544   2.296 -0.4960 -0.5862 -0.2325
 1852TIP3    H226972   5.850   5.566   2.420 -0.0480  0.4835 -0.7069
 1853TIP3   OH226973   3.316   4.892  15.770 -0.6122 -0.1120 -0.0374
 1853TIP3    H126974   3.408   4.899  15.744 -0.8019 -0.5061 -0.8343
 1853TIP3    H226975   3.314   4.820  15.833 -0.5791 -1.0436 -1.0685
 1854TIP3   OH226976   3.577   1.707  11.996 -0.0940  0.8857 -0.3424
 1854TIP3    H126977   3.574   1.782  12.056 -0.2800  1.5343 -1.1440
 1854TIP3    H226978   3.528   1.638  12.041  1.4626  0.6805  1.1357
 1855TIP3   OH226979   6.219   5.458  12.591 -0.1634  0.0214  0.5854
 1855TIP3    H126980   6.219   5.427  12.682  0.6096  2.1300  1.3578
 1855TIP3    H226981   6.289   5.408  12.549  0.7626  0.3887  1.6648
 1856TIP3   OH226982   4.887   5.315  13.963 -0.2499 -0.2368  0.2547
 1856TIP3    H126983   4.942   5.381  13.922 -0.5926  0.1034  0.3337
 1856TIP3    H226984   4.827   5.287  13.894 -0.2970 -0.2517  0.3010
 1857TIP3   OH226985   4.807   6.448  13.120  0.6428  0.2790  0.0734
 1857TIP3    H126986   4.751   6.430  13.195 -0.1344  0.2004 -0.5099
 1857TIP3    H226987   4.896   6.438  13.153  0.3254  0.8173  1.1164
 1858TIP3   OH226988   1.832   3.530   0.383 -0.3354 -0.0716 -0.1909
 1858TIP3    H126989   1.793   3.553   0.468  1.0672  0.2605  0.3943
 1858TIP3    H226990   1.768   3.472   0.342 -1.7806  1.0554  0.3852
 1859TIP3   OH226991   5.445   0.936  16.247 -0.4213 -0.3709  0.1885
 1859TIP3    H126992   5.434   1.021  16.289  0.7492  0.3188 -0.8151
 1859TIP3    H226993   5.507   0.953  16.175  0.3612 -2.1915  0.3815
 1860TIP3   OH226994   1.317   4.145  13.350  0.1370  0.8244  0.0764
 1860TIP3    H126995   1.279   4.072  13.400  1.6109  0.9545  1.4882
 1860TIP3    H226996   1.383   4.103  13.294  0.7188  1.0076  0.6110
 1861TIP3   OH226997   4.670   5.552   5.001  0.1461 -0.2976  0.0893
 1861TIP3    H126998   4.648   5.596   5.082 -0.4243  1.6062 -1.0350
 1861TIP3    H226999   4.766   5.548   5.001  0.1497 -0.2991  0.8309
 1862TIP3   OH227000   0.006   0.025  15.818  0.3051 -0.3927 -0.4820
 1862TIP3    H127001   0.080  -0.036  15.820  1.1944  0.6770  0.3906
 1862TIP3    H227002  -0.019   0.034  15.909  1.2040  1.7261 -0.4018
 1863TIP3   OH227003   1.606   3.120  15.501 -0.0146 -0.0462  0.1366
 1863TIP3    H127004   1.641   3.047  15.450  0.1025  0.0998  0.0075
 1863TIP3    H227005   1.515   3.128  15.473  0.6305  1.5036 -1.7630
 1864TIP3   OH227006   2.188   6.739  16.605 -0.0084  0.3158 -1.0213
 1864TIP3    H127007   2.241   6.775  16.676  0.0185 -2.2896  0.4242
 1864TIP3    H227008   2.246   6.740  16.529  0.9907  0.5180 -0.2829
 1865TIP3   OH227009   6.771   4.668   2.252 -0.0839  0.4534 -0.1725
 1865TIP3    H127010   6.701   4.630   2.198  0.3362  0.3402 -0.6478
 1865TIP3    H227011   6.751   4.639   2.341  0.5370 -1.3995 -0.5787
 1866TIP3   OH227012   6.565   3.355   4.852  0.1864  0.1959  0.5752
 1866TIP3    H127013   6.485   3.402   4.875  1.1501  2.6184 -0.6625
 1866TIP3    H227014   6.539   3.263   4.850 -2.7236  0.9414 -0.3705
 1867TIP3   OH227015   4.788   0.259   5.016 -0.1084  0.2477  0.0449
 1867TIP3    H127016   4.751   0.343   5.043  0.0195  1.5201 -3.2456
 1867TIP3    H227017   4.712   0.204   4.998 -0.2147 -1.0537  3.6934
 1868TIP3   OH227018   0.017   0.317  16.769  0.1813 -0.3966 -0.0635
 1868TIP3    H127019   0.072   0.245  16.736  0.8169  0.7996 -1.7389
 1868TIP3    H227020  -0.032   0.347  16.692  0.5216  1.4588  0.4070
 1869TIP3   OH227021   6.014   5.528  11.870 -0.7948 -0.3729 -0.7124
 1869TIP3    H127022   6.062   5.549  11.951 -2.3554  0.3682  0.0737
 1869TIP3    H227023   5.972   5.610  11.846 -0.1571 -0.5155 -2.4680
 1870TIP3   OH227024   0.822   3.862   1.464 -0.2398  0.2084 -0.6302
 1870TIP3    H127025   0.851   3.882   1.553 -1.5801  0.1837 -0.1700
 1870TIP3    H227026   0.732   3.893   1.461 -0.3038 -0.0627 -1.8982
 1871TIP3   OH227027   3.633   4.822   4.603  0.4848  0.4840  0.1368
 1871TIP3    H127028   3.613   4.907   4.564  0.9302  0.0662 -1.0553
 1871TIP3    H227029   3.727   4.827   4.621  0.2134  0.8116  1.5555
 1872TIP3   OH227030   2.048   0.386   1.540 -0.4038 -0.1733  0.1086
 1872TIP3    H127031   1.990   0.460   1.524  0.8449  1.0186  0.8374
 1872TIP3    H227032   2.093   0.408   1.622 -0.3737 -1.9930  0.6160
 1873TIP3   OH227033   2.307   6.443   0.653  0.1040  0.1426  0.2205
 1873TIP3    H127034   2.261   6.392   0.586  0.0899  1.5335 -0.8685
 1873TIP3    H227035   2.329   6.525   0.610  0.5716  0.8716  1.7818
 1874TIP3   OH227036   3.284   5.965   0.112  0.1391 -0.1254  0.2478
 1874TIP3    H127037   3.257   6.043   0.160 -0.9407  0.3784 -1.0934
 1874TIP3    H227038   3.369   5.941   0.150 -0.2051  0.8192  1.6757
 1875TIP3   OH227039   5.944   3.013   5.735 -0.8567  0.4190  0.2743
 1875TIP3    H127040   5.937   2.923   5.767 -0.1947  0.9154  1.9206
 1875TIP3    H227041   5.985   3.061   5.807 -0.3651  1.8651 -0.9207
 1876TIP3   OH227042   2.507   3.576   2.892 -0.1356  0.1239  0.0561
 1876TIP3    H127043   2.581   3.522   2.866 -1.8348 -1.8684 -1.0053
 1876TIP3    H227044   2.509   3.576   2.987  0.8357 -0.4461  0.0446
 1877TIP3   OH227045   6.054   2.636  16.680  0.1921 -0.3237 -0.3880
 1877TIP3    H127046   6.058   2.696  16.755  0.0334 -0.2897 -0.4054
 1877TIP3    H227047   5.977   2.664  16.631 -0.0017 -0.6728 -0.2852
 1878TIP3   OH227048   5.109   3.812   4.890  0.3363  0.3039  0.5454
 1878TIP3    H127049   5.163   3.736   4.910 -1.4416 -0.7239  1.8008
 1878TIP3    H227050   5.045   3.815   4.962  2.6465  5.3613  2.9237
 1879TIP3   OH227051   4.683   2.473   2.370  0.3498  0.0645  0.0335
 1879TIP3    H127052   4.744   2.530   2.416 -1.3999  1.4082  0.8423
 1879TIP3    H227053   4.646   2.528   2.300 -0.2168 -0.5786 -0.1924
 1880TIP3   OH227054   6.766   2.858   0.314  0.9576  0.1452 -0.6667
 1880TIP3    H127055   6.704   2.925   0.342  2.3045  0.9707  0.4197
 1880TIP3    H227056   6.711   2.781   0.294 -0.6205  1.5249 -1.9644
 1881TIP3   OH227057   0.049   3.164  13.657  0.6826 -0.7091 -0.2528
 1881TIP3    H127058   0.067   3.249  13.697 -1.4486 -0.4631  0.3057
 1881TIP3    H227059   0.003   3.115  13.725  0.5203 -1.7534 -1.0902
 1882TIP3   OH227060   1.215   5.161   2.788  0.0258  0.2825  0.0308
 1882TIP3    H127061   1.192   5.069   2.794  2.0048 -0.2804 -0.0440
 1882TIP3    H227062   1.299   5.168   2.834  0.9113  1.6248 -1.6600
 1883TIP3   OH227063   3.405   3.781   3.480  0.1147 -0.3948  0.3039
 1883TIP3    H127064   3.316   3.792   3.514 -0.8623 -1.4549 -1.7210
 1883TIP3    H227065   3.447   3.720   3.541 -0.6856 -0.2368  1.0255
 1884TIP3   OH227066   3.307   0.215  12.314  0.4633 -0.4082 -0.4925
 1884TIP3    H127067   3.228   0.218  12.261  0.8448  0.5451 -1.0463
 1884TIP3    H227068   3.342   0.304  12.309  1.0654 -0.5719  0.5155
 1885TIP3   OH227069   0.700   0.815  17.197  0.5405 -0.1495  0.2287
 1885TIP3    H127070   0.719   0.887  17.137  1.0411 -0.8475 -0.4587
 1885TIP3    H227071   0.750   0.836  17.276  1.0194  0.0455 -0.1244
 1886TIP3   OH227072   6.360   2.562  11.747 -0.0096 -0.6336 -0.2140
 1886TIP3    H127073   6.277   2.564  11.699  0.4855  0.0487 -1.0612
 1886TIP3    H227074   6.334   2.566  11.839 -0.8914  0.3564 -0.4856
 1887TIP3   OH227075   2.412   6.595  12.698  1.0202 -0.1232 -0.3287
 1887TIP3    H127076   2.506   6.599  12.715  1.1093 -0.5457 -0.6907
 1887TIP3    H227077   2.373   6.568  12.781  1.3716 -1.3837 -0.5482
 1888TIP3   OH227078   5.734   5.351  17.118 -0.0748  0.1269  0.0860
 1888TIP3    H127079   5.687   5.324  17.197  1.1202 -1.1056  0.4183
 1888TIP3    H227080   5.705   5.290  17.050 -1.5607  1.5600 -0.6339
 1889TIP3   OH227081   1.340   2.597   2.246  0.1853  0.6454 -0.2993
 1889TIP3    H127082   1.416   2.548   2.216 -0.0368  0.0597  0.0695
 1889TIP3    H227083   1.370   2.642   2.326 -0.2412 -0.7487  0.6810
 1890TIP3   OH227084   2.243   2.815   0.540  0.2680  0.1615 -0.5711
 1890TIP3    H127085   2.208   2.733   0.574  0.2439  0.6204  0.5505
 1890TIP3    H227086   2.180   2.881   0.568  0.2324  0.5567 -1.5552
 1891TIP3   OH227087   2.578   0.840   2.692  0.0616 -0.2925 -0.0845
 1891TIP3    H127088   2.521   0.766   2.712 -0.7190 -0.0833 -1.4143
 1891TIP3    H227089   2.662   0.818   2.732 -0.6482 -1.1048  0.9847
 1892TIP3   OH227090   4.868   2.364  16.057  0.6391 -0.0920 -0.0008
 1892TIP3    H127091   4.825   2.449  16.063  1.7129  0.4871 -0.2989
 1892TIP3    H227092   4.901   2.360  15.968 -1.6421 -1.9647 -0.8895
 1893TIP3   OH227093   0.153   1.562  13.513 -0.1849 -0.0224 -0.1690
 1893TIP3    H127094   0.080   1.613  13.476 -1.2602 -2.5333 -1.7546
 1893TIP3    H227095   0.125   1.541  13.602 -0.7194  0.3081 -0.2524
 1894TIP3   OH227096   0.421   5.594  13.103 -0.4412 -0.1879 -0.4750
 1894TIP3    H127097   0.478   5.620  13.030 -0.6972 -0.0154 -0.6154
 1894TIP3    H227098   0.337   5.573  13.062 -0.9814  1.1564 -0.1086
 1895TIP3   OH227099   2.467   2.429   0.549 -0.3085  0.1536 -0.8015
 1895TIP3    H127100   2.538   2.453   0.609  0.1894  0.6614 -1.5672
 1895TIP3    H227101   2.422   2.357   0.592 -1.3698  1.9257  1.2523
 1896TIP3   OH227102   5.277   5.279  13.286 -0.1354 -0.6753  0.0680
 1896TIP3    H127103   5.269   5.307  13.194  0.6944 -0.6147 -0.0018
 1896TIP3    H227104   5.312   5.356  13.331 -1.5944 -0.3381  0.6699
 1897TIP3   OH227105   5.239   3.223  14.246 -0.2994  0.1625  0.4753
 1897TIP3    H127106   5.240   3.225  14.151  0.4958 -0.4941  0.4589
 1897TIP3    H227107   5.320   3.267  14.272 -0.9703  1.1937  0.8780
 1898TIP3   OH227108   2.609   6.598   5.800  0.0868 -0.1723 -0.0649
 1898TIP3    H127109   2.627   6.506   5.784  1.3546 -0.1580  1.0626
 1898TIP3    H227110   2.534   6.598   5.860  0.2272 -0.4822  0.1108
 1899TIP3   OH227111   3.575   6.188  13.488  0.1315 -0.4347  0.7388
 1899TIP3    H127112   3.533   6.220  13.408 -0.0438 -1.0194  0.5890
 1899TIP3    H227113   3.503   6.177  13.550  0.4554  1.5194  1.5071
 1900TIP3   OH227114   2.944   3.609  12.614 -0.3757 -0.4879 -0.0749
 1900TIP3    H127115   3.020   3.647  12.569  0.0370 -0.0856  0.9268
 1900TIP3    H227116   2.981   3.571  12.694 -1.4068  1.1617  1.2647
 1901TIP3   OH227117   5.695   1.259  16.381 -0.0950 -0.1301  0.6551
 1901TIP3    H127118   5.695   1.206  16.301  0.4455 -0.1230  0.6453
 1901TIP3    H227119   5.707   1.349  16.349  0.8626 -0.2001  0.7771
 1902TIP3   OH227120   0.384   5.781   4.316 -0.1974 -0.0407 -0.1935
 1902TIP3    H127121   0.363   5.868   4.283  0.1256  0.4111  0.7322
 1902TIP3    H227122   0.466   5.758   4.272  0.7990  1.0067  0.9966
 1903TIP3   OH227123   0.829   0.554   3.332 -0.1668  0.4684  0.2714
 1903TIP3    H127124   0.751   0.600   3.300 -1.3576 -1.4522  0.2395
 1903TIP3    H227125   0.857   0.500   3.258  0.1784 -0.1049  0.8117
 1904TIP3   OH227126   2.974   1.283   3.811  0.5953  0.5794  0.0857
 1904TIP3    H127127   3.028   1.321   3.742  1.3998  0.1659  0.4646
 1904TIP3    H227128   3.034   1.272   3.885  0.5683 -1.8778 -0.1648
 1905TIP3   OH227129   0.277   2.184  13.203 -0.1028  0.4000 -0.0816
 1905TIP3    H127130   0.349   2.127  13.176  1.1126  1.2924  1.1010
 1905TIP3    H227131   0.292   2.266  13.156 -0.0396  0.7475  0.5265
 1906TIP3   OH227132   4.586   6.648   5.571  0.1993 -0.3835 -0.3935
 1906TIP3    H127133   4.624   6.561   5.578  2.5942  0.5847 -0.4316
 1906TIP3    H227134   4.492   6.634   5.582  0.6968 -2.6631  2.2175
 1907TIP3   OH227135   2.173   5.006  15.829  0.5313 -0.4819  0.2731
 1907TIP3    H127136   2.103   4.986  15.767  1.7507 -1.2518 -0.9256
 1907TIP3    H227137   2.249   5.025  15.773  1.9071 -2.0357  1.5026
 1908TIP3   OH227138   1.128   1.349   1.115 -0.0338 -0.2130  0.8032
 1908TIP3    H127139   1.150   1.431   1.160  0.0739 -1.1872  2.6437
 1908TIP3    H227140   1.211   1.301   1.111 -0.8509 -2.2764  4.2969
 1909TIP3   OH227141   1.444   1.203  12.620  0.2016 -0.1088 -0.1304
 1909TIP3    H127142   1.395   1.141  12.675  0.0800  0.4531  0.4152
 1909TIP3    H227143   1.388   1.280  12.616  0.3021 -0.0713 -0.8988
 1910TIP3   OH227144   6.192   6.015   0.322  0.0392 -0.4146  0.1386
 1910TIP3    H127145   6.219   6.094   0.277  0.3945  0.7175  2.2129
 1910TIP3    H227146   6.245   5.945   0.283  2.4076  0.9708  0.7277
 1911TIP3   OH227147   5.675   5.584  17.021  0.0691  0.2225 -0.0395
 1911TIP3    H127148   5.592   5.541  16.997 -0.2054 -0.3235  1.7459
 1911TIP3    H227149   5.733   5.511  17.042 -0.0065  0.6688  1.8081
 1912TIP3   OH227150   4.049   6.152   5.375  0.3928 -0.2143  0.0774
 1912TIP3    H127151   4.143   6.168   5.384  0.2096  1.0358  0.0267
 1912TIP3    H227152   4.008   6.227   5.419 -0.5870 -1.1143  0.7426
 1913TIP3   OH227153   3.324   1.842   5.365  0.1313 -0.2016 -0.2423
 1913TIP3    H127154   3.249   1.810   5.415 -0.3771  1.9798  0.4603
 1913TIP3    H227155   3.289   1.861   5.278  0.6761 -2.4664 -1.0273
 1914TIP3   OH227156   0.310   4.561  16.517  0.3865 -0.2788  0.1545
 1914TIP3    H127157   0.287   4.652  16.539 -0.8864 -0.9976  2.0153
 1914TIP3    H227158   0.367   4.569  16.440 -0.3117  2.0456 -0.2091
 1915TIP3   OH227159   4.638   1.679  17.078 -0.7049 -0.3463  0.2314
 1915TIP3    H127160   4.684   1.750  17.123 -2.4039  0.3607  0.9411
 1915TIP3    H227161   4.704   1.640  17.022  0.4763  1.3418  0.3577
 1916TIP3   OH227162   2.022   0.137   5.812  0.3820 -0.4829 -0.0350
 1916TIP3    H127163   2.018   0.044   5.792  2.0623 -0.9051  1.4336
 1916TIP3    H227164   2.100   0.148   5.865  0.0397  1.7280  0.1271
 1917TIP3   OH227165   5.573   4.931  16.334  0.0101  0.0870  0.1004
 1917TIP3    H127166   5.536   4.991  16.269  1.0252  1.4075  0.6898
 1917TIP3    H227167   5.499   4.905  16.388 -0.3255  1.4809  0.3364
 1918TIP3   OH227168   1.292   5.889  11.962 -0.5034 -0.2253  0.1099
 1918TIP3    H127169   1.285   5.813  11.903 -1.2882  0.8511 -1.2691
 1918TIP3    H227170   1.216   5.881  12.020 -0.7909 -0.3035 -0.2734
 1919TIP3   OH227171   6.439   5.748   1.213 -0.1018  0.3074 -0.2207
 1919TIP3    H127172   6.508   5.810   1.236  0.2461 -0.5915  1.3325
 1919TIP3    H227173   6.473   5.663   1.242 -1.4870 -0.2793 -0.2365
 1920TIP3   OH227174   3.425   4.209  12.886  0.2320 -0.6015  0.1993
 1920TIP3    H127175   3.506   4.198  12.937  1.3625  1.1496 -1.0999
 1920TIP3    H227176   3.409   4.303  12.886 -1.5060 -0.8620 -0.0758
 1921TIP3   OH227177   1.476   4.223   1.912  0.1479  0.2979 -0.2102
 1921TIP3    H127178   1.512   4.311   1.926  0.8989 -0.1078  0.5046
 1921TIP3    H227179   1.461   4.218   1.817  0.7377  0.9525 -0.3468
 1922TIP3   OH227180   6.120   3.182  14.252  0.3251  0.6915  0.0238
 1922TIP3    H127181   6.208   3.145  14.256 -0.3835 -1.2319 -1.0037
 1922TIP3    H227182   6.134   3.276  14.262  2.3909  0.3705  0.8648
 1923TIP3   OH227183   5.220   3.147  12.893  0.2237  0.0242 -0.3091
 1923TIP3    H127184   5.247   3.238  12.881 -0.4267  0.3527  0.5778
 1923TIP3    H227185   5.268   3.117  12.970 -0.5043  0.0325  0.1648
 1924TIP3   OH227186   3.964   3.955  11.077  0.0414  0.1200 -0.6344
 1924TIP3    H127187   3.983   4.033  11.128 -0.8554  1.2197 -1.9107
 1924TIP3    H227188   3.999   3.973  10.990  1.0902 -1.5071 -0.5938
 1925TIP3   OH227189   3.174   3.738  12.488  0.1445  0.0124 -0.2313
 1925TIP3    H127190   3.211   3.770  12.406 -1.3949  1.1848 -0.5232
 1925TIP3    H227191   3.165   3.817  12.542 -0.7762 -0.4041  0.2567
 1926TIP3   OH227192   3.266   2.774   2.661  0.4465 -0.3097  0.0066
 1926TIP3    H127193   3.260   2.709   2.731  0.4960  1.0162  1.2960
 1926TIP3    H227194   3.305   2.727   2.587 -2.2922 -2.5553 -0.1954
 1927TIP3   OH227195   5.664   6.075   3.400 -0.1780  0.3771 -0.1764
 1927TIP3    H127196   5.594   6.037   3.346  0.0061  0.3784 -0.4190
 1927TIP3    H227197   5.743   6.065   3.346  0.0228  0.2959  0.1324
 1928TIP3   OH227198   4.864   5.960  11.736 -0.0526 -0.0792 -0.1721
 1928TIP3    H127199   4.854   6.011  11.817  1.5583 -1.3306  0.8654
 1928TIP3    H227200   4.788   5.901  11.736 -0.2828  0.2110  0.2116
 1929TIP3   OH227201   1.651   1.814  12.274 -0.1742 -0.2290 -0.4874
 1929TIP3    H127202   1.571   1.829  12.224 -0.4891 -3.0127 -0.9949
 1929TIP3    H227203   1.721   1.847  12.218 -0.8405  1.1150 -0.5768
 1930TIP3   OH227204   3.749   1.208   5.295  0.3972  0.6203  0.1644
 1930TIP3    H127205   3.811   1.210   5.368 -0.8827 -1.5169  1.4571
 1930TIP3    H227206   3.665   1.187   5.337 -0.2698 -1.3726 -1.9696
 1931TIP3   OH227207   6.722   4.330  12.067 -0.5202  0.1177 -0.1754
 1931TIP3    H127208   6.722   4.239  12.037 -0.4624  0.1698 -0.3361
 1931TIP3    H227209   6.781   4.375  12.006  1.3896 -0.2054  1.3429
 1932TIP3   OH227210   1.329   3.408  14.153  0.1126  0.4777 -0.1751
 1932TIP3    H127211   1.418   3.433  14.179 -0.2694  1.1538  0.4990
 1932TIP3    H227212   1.280   3.407  14.235 -0.1446 -1.4677 -0.3005
 1933TIP3   OH227213   0.015   0.743  10.069  0.0215 -0.0137  0.2133
 1933TIP3    H127214   0.064   0.663  10.090 -1.7361 -1.8049 -1.9066
 1933TIP3    H227215   0.081   0.803  10.035  1.3155 -0.7612  1.2905
 1934TIP3   OH227216   6.238   0.128   4.462 -0.6483 -0.2829  0.3801
 1934TIP3    H127217   6.166   0.083   4.505 -1.5887  1.4286  0.6964
 1934TIP3    H227218   6.222   0.221   4.480  1.1882  0.1951 -0.2420
 1935TIP3   OH227219   3.932   1.527  13.260  0.0442  0.2211 -0.5264
 1935TIP3    H127220   3.927   1.432  13.254  1.5536  0.0293  0.6359
 1935TIP3    H227221   3.876   1.549  13.335  0.6457  0.1024 -0.0301
 1936TIP3   OH227222   1.071   1.674   4.780  0.1417  0.0126 -0.9038
 1936TIP3    H127223   0.992   1.656   4.831  0.5270 -2.7414 -1.0928
 1936TIP3    H227224   1.125   1.728   4.837 -2.0943  2.6134 -1.0436
 1937TIP3   OH227225   1.721   1.140  11.912  0.3525 -0.2696 -0.1371
 1937TIP3    H127226   1.672   1.059  11.899 -0.5863  0.4565 -1.3974
 1937TIP3    H227227   1.667   1.207  11.869  2.1527  0.6686 -1.0304
 1938TIP3   OH227228   6.400   6.248  10.288 -0.3009 -0.0366  0.0282
 1938TIP3    H127229   6.313   6.265  10.324 -0.6372  0.0968 -0.8073
 1938TIP3    H227230   6.404   6.303  10.210 -0.1540 -1.3511 -0.9250
 1939TIP3   OH227231   1.331   3.889   5.923  0.1838 -0.6385  0.3473
 1939TIP3    H127232   1.421   3.919   5.914  0.1286 -0.0785  1.5124
 1939TIP3    H227233   1.289   3.953   5.981 -1.7033  0.6164 -2.1623
 1940TIP3   OH227234   1.111   3.663   2.710 -0.4748 -0.1591 -0.2723
 1940TIP3    H127235   1.060   3.742   2.730  0.1864 -0.3711  2.6707
 1940TIP3    H227236   1.163   3.647   2.788  1.9911 -1.6187 -2.0522
 1941TIP3   OH227237   2.260   1.171  11.821 -0.3982  0.3815 -0.1117
 1941TIP3    H127238   2.255   1.151  11.728 -0.0504  1.9886 -0.5183
 1941TIP3    H227239   2.262   1.267  11.825  1.1537  0.3496  1.4430
 1942TIP3   OH227240   3.545   6.154   5.676  0.3397 -0.3828  0.0825
 1942TIP3    H127241   3.496   6.234   5.658  0.1766 -0.5298 -0.1228
 1942TIP3    H227242   3.605   6.178   5.747  0.8255  0.1364 -0.4927
 1943TIP3   OH227243   0.103   4.123  12.544  0.1445  0.6385 -0.4118
 1943TIP3    H127244   0.156   4.049  12.514 -1.1263 -0.4281 -0.1040
 1943TIP3    H227245   0.092   4.178  12.466 -1.6514 -1.1985 -1.5519
 1944TIP3   OH227246   1.055   2.755   0.563 -0.2297 -0.0527 -0.6271
 1944TIP3    H127247   0.978   2.700   0.577  1.0758 -1.6762  0.6897
 1944TIP3    H227248   1.030   2.841   0.595 -1.2751 -0.7425  0.5100
 1945TIP3   OH227249   3.806   3.232  12.897  0.2817  0.3525  0.2274
 1945TIP3    H127250   3.876   3.171  12.919 -1.1872 -0.8927  1.7417
 1945TIP3    H227251   3.799   3.289  12.973 -1.5466 -0.7615  0.9577
 1946TIP3   OH227252   4.988   3.052  12.397  0.3187  0.4983 -0.8480
 1946TIP3    H127253   5.040   3.043  12.477 -0.6229 -2.0281 -0.4308
 1946TIP3    H227254   5.047   3.092  12.334  2.6479 -1.7559 -0.2598
 1947TIP3   OH227255   3.536   2.225  12.916  0.2982  0.0548  0.0395
 1947TIP3    H127256   3.447   2.257  12.929  0.2680 -0.0387  0.0676
 1947TIP3    H227257   3.542   2.209  12.822 -0.2797 -1.5438  0.2309
 1948TIP3   OH227258   1.599   4.488   2.019 -0.0531 -0.5834 -0.6393
 1948TIP3    H127259   1.637   4.473   1.932 -0.3449 -2.8481 -0.4358
 1948TIP3    H227260   1.669   4.464   2.080 -0.1677  0.0844 -0.2370
 1949TIP3   OH227261   6.309   4.576   5.403 -0.5432 -0.1381  0.3397
 1949TIP3    H127262   6.249   4.554   5.332 -0.9943 -0.4151  0.7982
 1949TIP3    H227263   6.375   4.632   5.362 -2.4650  2.2686  0.3032
 1950TIP3   OH227264   0.666   5.037   1.592  0.3844  0.1815 -0.0225
 1950TIP3    H127265   0.625   4.968   1.540  2.2195 -0.2308 -1.0137
 1950TIP3    H227266   0.635   5.021   1.681 -2.6284  0.7520 -0.8585
 1951TIP3   OH227267   2.082   4.976  12.963 -0.5836  0.8022 -0.0212
 1951TIP3    H127268   2.039   4.895  12.990  1.4221 -0.4356 -0.3561
 1951TIP3    H227269   2.139   4.999  13.036  0.2978  0.8235 -0.6980
 1952TIP3   OH227270   5.016   2.220   2.975  0.1491  0.2862  0.5439
 1952TIP3    H127271   5.004   2.209   2.881 -0.4327  1.1254  0.5042
 1952TIP3    H227272   4.962   2.296   2.997  1.1278  0.7707  1.3626
 1953TIP3   OH227273   3.420   1.102   3.042 -0.4170 -0.3654 -0.2210
 1953TIP3    H127274   3.399   1.186   3.081 -0.5396 -0.4834 -0.0314
 1953TIP3    H227275   3.418   1.040   3.115 -2.7892 -0.9690 -0.6963
 1954TIP3   OH227276   5.028   4.530   2.902 -0.5600  0.5993  0.0284
 1954TIP3    H127277   5.033   4.527   2.807 -0.4175  0.9712  0.0201
 1954TIP3    H227278   5.120   4.529   2.930 -0.5546 -2.5084  0.2971
 1955TIP3   OH227279   2.510   1.534   5.567  0.6530  0.8622  0.3357
 1955TIP3    H127280   2.470   1.603   5.513 -0.1028  0.0296 -0.2098
 1955TIP3    H227281   2.505   1.568   5.656 -0.2131  1.2865  0.1436
 1956TIP3   OH227282   5.943   3.269   1.913 -0.0898  0.4656  0.0386
 1956TIP3    H127283   5.978   3.233   1.995 -1.3600 -0.2043  0.3054
 1956TIP3    H227284   5.936   3.193   1.855 -3.1891  0.0965  0.7390
 1957TIP3   OH227285   5.143   3.386  13.903 -0.0756  0.2600  0.0496
 1957TIP3    H127286   5.059   3.432  13.909 -0.7578 -1.0125  0.8060
 1957TIP3    H227287   5.178   3.410  13.817 -0.6996  1.6403  0.1578
 1958TIP3   OH227288   3.561   4.073  13.943 -0.3303  0.5825  0.4687
 1958TIP3    H127289   3.627   4.104  14.004 -0.3416 -0.1638  0.8698
 1958TIP3    H227290   3.538   3.986  13.974 -1.2126  0.6712  0.0947
 1959TIP3   OH227291   3.964   0.133  16.466 -0.3208  0.2309 -0.1663
 1959TIP3    H127292   4.018   0.195  16.417 -0.1836 -0.4183 -0.8612
 1959TIP3    H227293   3.879   0.135  16.422  0.2847 -1.5988 -1.5711
 1960TIP3   OH227294   4.423   3.290  14.377 -0.2129 -0.4880 -0.0997
 1960TIP3    H127295   4.505   3.285  14.425  0.2455  0.3379 -0.7469
 1960TIP3    H227296   4.428   3.375  14.331 -1.4270 -0.4196 -0.1385
 1961TIP3   OH227297   0.967   2.033   2.494 -0.4943 -0.2807 -0.1765
 1961TIP3    H127298   0.992   1.989   2.576 -1.2062 -1.5686 -0.6198
 1961TIP3    H227299   1.004   1.978   2.425 -0.6453  0.3155 -0.7411
 1962TIP3   OH227300   5.602   1.261   2.249 -0.7014 -0.0951  0.1423
 1962TIP3    H127301   5.588   1.214   2.166  2.4190 -2.1205  0.6294
 1962TIP3    H227302   5.617   1.193   2.314 -0.6168  1.5193  1.9111
 1963TIP3   OH227303   4.720   5.339   4.788  0.0691  0.1402 -0.7377
 1963TIP3    H127304   4.721   5.394   4.710  0.4364  1.0353 -0.1202
 1963TIP3    H227305   4.766   5.391   4.855 -1.0624 -0.1919  0.3403
 1964TIP3   OH227306   5.130   6.640  15.379 -0.7855 -0.6331  0.3614
 1964TIP3    H127307   5.087   6.721  15.405  0.4176  1.8185 -4.1990
 1964TIP3    H227308   5.059   6.586  15.342 -1.0853  0.0961 -0.1549
 1965TIP3   OH227309   6.297   2.286   5.891  0.6444 -0.2693  1.0301
 1965TIP3    H127310   6.205   2.277   5.918  0.6354 -0.3544  0.9691
 1965TIP3    H227311   6.341   2.320   5.969  0.6422 -0.6367  1.1925
 1966TIP3   OH227312   1.518   4.034   4.994 -0.2746  0.2770  0.1620
 1966TIP3    H127313   1.457   4.083   4.939 -1.7956 -2.1916 -0.5094
 1966TIP3    H227314   1.556   3.968   4.935  0.9657 -0.0061  1.2299
 1967TIP3   OH227315   6.671   0.061  11.688  0.2869 -0.3253  0.8521
 1967TIP3    H127316   6.698   0.119  11.616 -2.2173  0.4122  0.3912
 1967TIP3    H227317   6.685  -0.027  11.653  0.8716  0.0110  0.1935
 1968TIP3   OH227318   4.734   0.420   0.065  0.6135  0.2834 -0.2327
 1968TIP3    H127319   4.781   0.414  -0.019 -0.6475  1.2726 -1.0614
 1968TIP3    H227320   4.698   0.509   0.066 -1.9372 -0.6508 -0.0818
 1969TIP3   OH227321   5.648   0.318   2.783  0.4067 -0.6325  0.0506
 1969TIP3    H127322   5.708   0.355   2.718  0.9692  0.9769  1.4269
 1969TIP3    H227323   5.563   0.318   2.738  0.7740  0.4826 -0.7085
 1970TIP3   OH227324   3.375   2.089  14.795 -0.1368 -0.1652  0.7577
 1970TIP3    H127325   3.469   2.094  14.813  0.0380  2.3630 -0.4577
 1970TIP3    H227326   3.362   2.000  14.761  1.6551 -0.8102  1.6349
 1971TIP3   OH227327   0.054   0.812  14.806  0.1646  0.7040 -0.0514
 1971TIP3    H127328   0.145   0.802  14.837 -0.3967 -2.1705  0.9926
 1971TIP3    H227329   0.003   0.821  14.887 -0.6292  0.6802 -0.5469
 1972TIP3   OH227330   6.549   2.805   5.658 -0.3178  0.4776 -0.3246
 1972TIP3    H127331   6.566   2.721   5.700 -0.7599  0.3945 -0.3060
 1972TIP3    H227332   6.511   2.783   5.573  2.1125  0.5899 -1.5583
 1973TIP3   OH227333   0.973   1.575  15.741 -0.1581 -0.2106  0.2361
 1973TIP3    H127334   1.066   1.599  15.748 -0.5531  1.5670 -0.1109
 1973TIP3    H227335   0.948   1.550  15.830  1.1973 -3.1312 -0.0811
 1974TIP3   OH227336   3.741   2.593  15.039  0.4359  0.0483 -1.1825
 1974TIP3    H127337   3.803   2.525  15.068  0.8245  0.7533 -0.2967
 1974TIP3    H227338   3.793   2.650  14.983  0.4153  0.2475 -1.0014
 1975TIP3   OH227339   1.692   1.249  15.478  0.0836  0.0184 -0.2893
 1975TIP3    H127340   1.775   1.290  15.453  0.6731 -0.3589  0.9456
 1975TIP3    H227341   1.648   1.232  15.395  0.9355  0.8479 -0.9375
 1976TIP3   OH227342   3.463   0.361   3.231  0.0166 -0.6348 -0.2856
 1976TIP3    H127343   3.370   0.383   3.233  0.1886  0.1046  2.1156
 1976TIP3    H227344   3.466   0.270   3.261  0.0765 -0.6700 -0.3964
 1977TIP3   OH227345   5.396   3.727   1.889  0.1532 -0.1070 -0.0410
 1977TIP3    H127346   5.410   3.772   1.806  1.1340  0.3368  0.3568
 1977TIP3    H227347   5.386   3.797   1.953  0.4355 -0.4451  0.3786
 1978TIP3   OH227348   1.472   2.125  12.807 -0.3609  0.1631  0.1096
 1978TIP3    H127349   1.553   2.083  12.839 -1.7958 -1.6097  1.6448
 1978TIP3    H227350   1.470   2.104  12.714 -0.0289 -1.5537  0.4471
 1979TIP3   OH227351   4.903   2.634   2.959 -0.4662  0.1513  0.5112
 1979TIP3    H127352   4.883   2.566   3.023 -2.0977 -0.5129 -0.6385
 1979TIP3    H227353   4.958   2.590   2.894 -1.1961  0.0253 -0.0276
 1980TIP3   OH227354   5.778   0.054  11.121  0.0295  0.0530  0.4565
 1980TIP3    H127355   5.789  -0.041  11.122  2.1920  0.2456  2.1477
 1980TIP3    H227356   5.772   0.079  11.214 -1.8257  1.4862  0.0181
 1981TIP3   OH227357   4.002   0.303  14.308  0.5947 -0.4428  0.2343
 1981TIP3    H127358   3.933   0.365  14.329  0.9148  0.2967 -0.8024
 1981TIP3    H227359   4.082   0.343  14.341  0.5566 -1.3288  1.4916
 1982TIP3   OH227360   3.983   2.898   2.347 -0.1778  0.1552 -0.1091
 1982TIP3    H127361   3.977   2.898   2.251 -1.0359 -0.5730 -0.0678
 1982TIP3    H227362   3.944   2.981   2.373  0.5913  0.6220 -0.4079
 1983TIP3   OH227363   0.940   3.213  15.973 -0.2929  0.1605  0.2782
 1983TIP3    H127364   0.858   3.186  15.932 -0.4332 -0.0131  0.6620
 1983TIP3    H227365   0.926   3.197  16.066  0.1433  0.2218  0.3566
 1984TIP3   OH227366   0.987   3.270  13.096  0.3238 -0.5350  0.7463
 1984TIP3    H127367   0.986   3.223  13.013 -1.0954  2.1315 -0.8967
 1984TIP3    H227368   1.076   3.258  13.130  0.6708 -2.3986 -0.6841
 1985TIP3   OH227369   2.511   0.551  16.301  0.5769 -0.3497 -0.4253
 1985TIP3    H127370   2.543   0.516  16.218 -2.1489 -0.8965 -1.3622
 1985TIP3    H227371   2.447   0.487  16.331  0.3109  0.6517  1.2677
 1986TIP3   OH227372   2.243   1.859   4.148 -0.2676 -1.2148 -0.2800
 1986TIP3    H127373   2.310   1.838   4.212  0.4968 -1.7945 -1.2525
 1986TIP3    H227374   2.278   1.934   4.100 -1.1456 -0.3289  0.4013
 1987TIP3   OH227375   3.430   6.399   5.616  0.3797 -0.2014  0.1309
 1987TIP3    H127376   3.355   6.400   5.557  0.1805 -1.7320  0.3135
 1987TIP3    H227377   3.420   6.479   5.668 -1.7106 -0.8411  0.8340
 1988TIP3   OH227378   4.852   2.997   3.271 -0.8034  0.0346  0.4549
 1988TIP3    H127379   4.778   3.048   3.236 -0.1733  0.0038 -0.9684
 1988TIP3    H227380   4.876   2.938   3.200  2.7933  2.3680 -0.5391
 1989TIP3   OH227381   0.449   3.733  12.948 -0.1198 -0.2256  0.3747
 1989TIP3    H127382   0.499   3.677  13.007 -1.1215 -1.9212 -0.3315
 1989TIP3    H227383   0.464   3.696  12.861  1.6794  2.4687 -0.6198
 1990TIP3   OH227384   4.787   1.409  13.981  0.0374  0.1325  0.1446
 1990TIP3    H127385   4.842   1.472  14.027  0.9101 -0.0959 -0.5672
 1990TIP3    H227386   4.827   1.324  14.001 -1.1298 -0.2223  1.1028
 1991TIP3   OH227387   4.939   3.890   3.010  0.0105 -0.0894  0.3231
 1991TIP3    H127388   5.020   3.901   2.960 -0.0162  2.5477  0.7517
 1991TIP3    H227389   4.968   3.871   3.099  0.1216 -0.4223  0.2183
 1992TIP3   OH227390   2.296   6.236  12.161 -0.0513 -0.1625 -0.6658
 1992TIP3    H127391   2.207   6.205  12.174  0.0775 -0.0866  0.4439
 1992TIP3    H227392   2.292   6.288  12.080 -1.1507  0.4209 -0.2490
 1993TIP3   OH227393   2.837   2.426   5.923 -0.1062 -0.1119 -0.4646
 1993TIP3    H127394   2.869   2.490   5.987 -3.4043 -0.8185  2.1497
 1993TIP3    H227395   2.856   2.341   5.963 -0.1376 -0.6626 -1.5886
 1994TIP3   OH227396   6.123   1.590  17.087  0.6990  0.0591  0.7264
 1994TIP3    H127397   6.035   1.627  17.076  0.6153 -0.4014 -0.2162
 1994TIP3    H227398   6.182   1.663  17.070  0.5177  0.0139 -0.1183
 1995TIP3   OH227399   4.145   0.151   0.328  0.1925 -0.0644 -0.3847
 1995TIP3    H127400   4.195   0.232   0.334  2.6451 -1.4150 -1.1134
 1995TIP3    H227401   4.065   0.175   0.282  0.8575  1.9132 -0.5975
 1996TIP3   OH227402   2.229   5.798   4.161 -0.3857 -0.3109  0.2443
 1996TIP3    H127403   2.191   5.827   4.244 -1.2020 -2.3641  0.6397
 1996TIP3    H227404   2.273   5.876   4.126  0.1512  0.5543  2.6764
 1997TIP3   OH227405   1.997   5.154  15.981 -0.1505 -0.0089 -0.3339
 1997TIP3    H127406   1.917   5.102  15.988  1.0432 -1.7286  1.9017
 1997TIP3    H227407   2.056   5.102  15.927  0.5926 -0.4347  0.8371
 1998TIP3   OH227408   1.687   0.446  13.749  0.0073 -0.2154  0.1540
 1998TIP3    H127409   1.634   0.412  13.676 -0.1975 -1.4214  0.8284
 1998TIP3    H227410   1.672   0.383  13.820  0.7659  0.5441  1.0073
 1999TIP3   OH227411   3.697   3.055   5.790 -0.0539  0.2093 -0.1861
 1999TIP3    H127412   3.757   3.112   5.743 -0.3921 -0.5863 -1.6301
 1999TIP3    H227413   3.638   3.115   5.836  1.3711  0.9914  0.6871
 2000TIP3   OH227414   3.635   0.266   0.579  0.1672  0.6724  0.3783
 2000TIP3    H127415   3.675   0.327   0.641  2.0882 -0.5864  0.4775
 2000TIP3    H227416   3.591   0.322   0.515  0.7269  2.1001  1.1933
 2001TIP3   OH227417   2.720   5.513  13.994  0.8271 -0.3293  0.1979
 2001TIP3    H127418   2.798   5.488  13.944  0.6470 -0.4348 -0.0333
 2001TIP3    H227419   2.682   5.586  13.944  1.2946  0.3501  0.8117
 2002TIP3   OH227420   5.622   1.382   2.981 -0.1345  0.2660  0.2638
 2002TIP3    H127421   5.632   1.291   2.953  2.7013  0.9918 -1.5782
 2002TIP3    H227422   5.551   1.416   2.926 -0.6806 -0.6141  0.4090
 2003TIP3   OH227423   0.148   2.646   2.275 -0.8209 -0.4869 -0.5547
 2003TIP3    H127424   0.210   2.581   2.308  0.0146  0.9297  0.7813
 2003TIP3    H227425   0.062   2.604   2.287 -0.3227 -1.2599  0.5302
 2004TIP3   OH227426   5.433   2.004  15.026  0.3388 -0.1052  0.4335
 2004TIP3    H127427   5.345   2.042  15.021  0.2683 -0.2672  0.4565
 2004TIP3    H227428   5.450   1.998  15.120  1.5314  2.6303  0.4965
 2005TIP3   OH227429   1.726   2.792   3.203  0.2522  0.1247 -0.3810
 2005TIP3    H127430   1.640   2.750   3.205  0.5826 -0.6480 -1.3046
 2005TIP3    H227431   1.748   2.797   3.110  1.9083 -1.2041 -0.1111
 2006TIP3   OH227432   4.435   1.205   0.492  0.1819  0.5324  0.5542
 2006TIP3    H127433   4.364   1.249   0.538 -0.0128  0.1574  0.6142
 2006TIP3    H227434   4.515   1.242   0.530  0.0593  2.1437 -0.6069
 2007TIP3   OH227435   4.945   3.953  14.527 -0.2569 -0.3802  0.1923
 2007TIP3    H127436   4.870   3.986  14.578  0.9294  1.3502  0.9082
 2007TIP3    H227437   4.932   3.990  14.440 -0.0605  0.2350  0.4173
 2008TIP3   OH227438   3.063   1.839   0.022  0.8367  0.4219  0.3783
 2008TIP3    H127439   2.988   1.899   0.018  0.8353  0.3542 -1.4506
 2008TIP3    H227440   3.035   1.770   0.082 -0.4137  0.6255  0.0638
 2009TIP3   OH227441   3.212   2.080   1.816 -0.0337  0.2931 -0.6592
 2009TIP3    H127442   3.295   2.039   1.842  0.0438  0.0427 -1.2811
 2009TIP3    H227443   3.185   2.031   1.739 -0.0415  1.2891 -1.3026
 2010TIP3   OH227444   5.219   3.689  17.066  0.3402 -0.0155 -0.0126
 2010TIP3    H127445   5.274   3.613  17.046 -0.4117 -1.0871  1.6821
 2010TIP3    H227446   5.273   3.744  17.123  0.2192 -0.3179  0.4084
 2011TIP3   OH227447   0.957   0.656   1.443 -0.1943 -0.7559  0.6045
 2011TIP3    H127448   0.904   0.719   1.491 -0.1910  0.1568 -0.5374
 2011TIP3    H227449   0.916   0.651   1.356  1.0541 -0.6910 -0.0122
 2012TIP3   OH227450   0.563   1.014  12.945 -0.2479  0.1884  0.6525
 2012TIP3    H127451   0.526   0.984  12.862 -1.7189 -2.1333  2.0257
 2012TIP3    H227452   0.655   1.034  12.925 -0.1787 -1.7141 -1.2505
 2013TIP3   OH227453   0.984   4.500  13.705  0.4958 -0.4210  0.1648
 2013TIP3    H127454   0.923   4.530  13.772  0.1809 -0.7556  0.0247
 2013TIP3    H227455   1.046   4.573  13.696  0.5808 -0.3974  0.8613
 2014TIP3   OH227456   1.835   2.265   5.179  0.0382 -0.2079  0.0209
 2014TIP3    H127457   1.827   2.316   5.260 -0.7868  0.7154 -0.6135
 2014TIP3    H227458   1.840   2.331   5.109  0.0058 -0.9891 -0.7373
 2015TIP3   OH227459   5.880   0.945  13.636 -0.4945  0.5248  0.1740
 2015TIP3    H127460   5.961   0.896  13.619  0.1187  0.7474  2.2122
 2015TIP3    H227461   5.813   0.877  13.648 -0.7096  0.3457 -1.7922
 2016TIP3   OH227462   1.687   1.564  12.605 -0.1344 -0.2704 -0.0031
 2016TIP3    H127463   1.596   1.595  12.606 -0.3915 -0.6589 -2.9498
 2016TIP3    H227464   1.683   1.477  12.646 -1.0039 -0.0854  0.3229
 2017TIP3   OH227465   3.981   1.992   0.016 -0.0614  0.1238 -0.4532
 2017TIP3    H127466   3.965   1.920   0.077 -4.1251  0.6199 -0.7064
 2017TIP3    H227467   4.005   2.066   0.072 -1.5411  0.0026  0.3745
 2018TIP3   OH227468   0.587   5.129   4.335 -1.0694  0.3191 -0.2487
 2018TIP3    H127469   0.559   5.044   4.369  0.0531  0.2537  0.5677
 2018TIP3    H227470   0.533   5.192   4.383 -1.0766  0.1151  0.0194
 2019TIP3   OH227471   1.578   0.778  12.632 -0.3077  0.2196 -0.3339
 2019TIP3    H127472   1.648   0.746  12.575 -0.2820 -1.9351  0.8012
 2019TIP3    H227473   1.562   0.706  12.693 -1.5405  1.7592  1.2702
 2020TIP3   OH227474   6.688   4.665  12.354 -0.2970  0.1158  0.4596
 2020TIP3    H127475   6.700   4.570  12.347 -1.0919  0.0966 -1.0505
 2020TIP3    H227476   6.608   4.676  12.404 -0.3980 -0.0289  0.3318
 2021TIP3   OH227477   5.094   1.106  13.460 -0.6351 -0.4440  0.1901
 2021TIP3    H127478   5.127   1.171  13.399 -0.9960 -1.0387 -0.6655
 2021TIP3    H227479   5.085   1.026  13.408 -2.5080 -0.5518  0.6116
 2022TIP3   OH227480   4.120   5.733  12.940 -0.3521  0.1572  0.1830
 2022TIP3    H127481   4.134   5.749  12.846 -0.4907  0.2839  0.1835
 2022TIP3    H227482   4.035   5.691  12.944 -0.7684  0.9897  0.3276
 2023TIP3   OH227483   4.863   1.469   0.468 -0.7929 -0.0459  0.0856
 2023TIP3    H127484   4.958   1.458   0.462 -0.7158  0.9845 -1.1545
 2023TIP3    H227485   4.828   1.380   0.469  0.2460 -0.5145  2.7960
 2024TIP3   OH227486   1.864   4.072  12.231  0.3068  0.2864 -0.5115
 2024TIP3    H127487   1.958   4.068  12.252  0.5759 -2.5766 -1.8481
 2024TIP3    H227488   1.822   4.016  12.297 -0.5515  1.6312  0.1428
 2025TIP3   OH227489   3.565   6.611   5.914  0.1420  0.2767 -0.0932
 2025TIP3    H127490   3.490   6.585   5.861  0.8501  2.7551 -2.4890
 2025TIP3    H227491   3.631   6.639   5.851  1.3841  2.5158  2.0322
 2026TIP3   OH227492   3.826   4.836  12.960 -0.5991 -0.2917 -0.2097
 2026TIP3    H127493   3.897   4.811  12.901 -0.3612 -0.4417  0.1376
 2026TIP3    H227494   3.851   4.922  12.993 -1.0777  0.1066 -0.8681
 2027TIP3   OH227495   5.361   2.168   1.901 -0.9103 -0.0548  0.0695
 2027TIP3    H127496   5.425   2.239   1.908 -0.1375 -0.8123  0.8418
 2027TIP3    H227497   5.402   2.106   1.841 -1.3917 -0.0663 -0.2516
 2028TIP3   OH227498   0.773   0.912  14.932 -0.2557 -0.2199 -0.3519
 2028TIP3    H127499   0.855   0.953  14.904 -0.3030 -0.4025 -0.7730
 2028TIP3    H227500   0.781   0.904  15.027 -1.1218  2.7147  0.0576
 2029TIP3   OH227501   5.485   5.352   4.833  0.1249  0.8455 -0.1486
 2029TIP3    H127502   5.557   5.414   4.835  0.5386  0.3601  0.1305
 2029TIP3    H227503   5.440   5.370   4.750  0.2522  1.4918 -0.0822
 2030TIP3   OH227504   2.381   0.335   3.526 -0.2886  0.0121  0.1378
 2030TIP3    H127505   2.301   0.311   3.477 -0.6743  0.3041  0.6145
 2030TIP3    H227506   2.349   0.363   3.611  0.2627  0.9153  0.0603
 2031TIP3   OH227507   4.214   3.198  12.709  0.7753  0.0139 -0.3009
 2031TIP3    H127508   4.270   3.121  12.703  0.4219 -0.3380  0.6885
 2031TIP3    H227509   4.217   3.222  12.802 -1.1052 -0.3225 -0.1282
 2032TIP3   OH227510   6.035   0.630  11.722 -0.2981  0.2593  0.1228
 2032TIP3    H127511   6.129   0.619  11.705 -0.1057 -0.6420  1.6192
 2032TIP3    H227512   5.998   0.544  11.704 -1.0321  0.8813 -1.4770
 2033TIP3   OH227513   4.585   6.077  12.899 -0.3299  0.2199 -0.1476
 2033TIP3    H127514   4.643   6.067  12.975 -1.6836  0.2722  0.9428
 2033TIP3    H227515   4.542   5.992  12.890  0.0321  0.1224 -1.0578
 2034TIP3   OH227516   4.564   2.743   2.368 -0.6073 -0.1836  0.9724
 2034TIP3    H127517   4.568   2.782   2.281  1.6419 -1.0966  0.6130
 2034TIP3    H227518   4.518   2.809   2.421  0.3266  1.5824 -0.2998
 2035TIP3   OH227519   2.174   4.770  15.516  0.4331 -0.3179  0.6635
 2035TIP3    H127520   2.083   4.779  15.544  0.9105  2.5028  1.6094
 2035TIP3    H227521   2.172   4.782  15.421 -0.0123  2.0826  0.9166
 2036TIP3   OH227522   3.921   2.610  10.506 -0.0363  0.3088  0.2473
 2036TIP3    H127523   3.852   2.565  10.456 -1.2129  1.2600  0.9722
 2036TIP3    H227524   3.890   2.609  10.596  1.2578  0.1257  0.7062
 2037TIP3   OH227525   4.599   3.325  16.438  0.6015 -0.4404  0.0060
 2037TIP3    H127526   4.596   3.413  16.400 -0.6668 -0.8488 -0.9306
 2037TIP3    H227527   4.570   3.338  16.529 -2.2645 -0.1699 -0.8357
 2038TIP3   OH227528   6.098   3.021   3.374  0.1436  0.5217  0.3020
 2038TIP3    H127529   6.009   3.029   3.406 -0.0229 -2.1833  0.7165
 2038TIP3    H227530   6.090   3.029   3.278 -0.3235  1.4623  0.4023
 2039TIP3   OH227531   0.239   0.021  13.301 -0.6011  0.3578 -0.1686
 2039TIP3    H127532   0.281   0.100  13.266  0.1564 -0.2342 -0.6143
 2039TIP3    H227533   0.267  -0.049  13.243  0.4002 -0.5958  1.4060
 2040TIP3   OH227534   2.000   3.112   3.713  0.6389  0.1394  0.2523
 2040TIP3    H127535   2.057   3.070   3.778 -0.0160 -1.5458 -0.1965
 2040TIP3    H227536   1.929   3.150   3.764 -0.4229 -2.0596  0.5447
 2041TIP3   OH227537   3.315   0.544   4.867 -0.0934 -0.3930 -0.2747
 2041TIP3    H127538   3.260   0.611   4.827 -1.2281 -1.1929 -0.0827
 2041TIP3    H227539   3.287   0.462   4.826 -1.0088 -1.1806  1.8396
 2042TIP3   OH227540   5.719   5.243   3.464 -0.4189 -0.3330  0.0185
 2042TIP3    H127541   5.801   5.245   3.513 -1.3231 -0.2689  1.5718
 2042TIP3    H227542   5.737   5.184   3.391  1.1072 -0.0492  0.1210
 2043TIP3   OH227543   6.501   6.320  14.300 -0.2961  0.0023  0.2276
 2043TIP3    H127544   6.524   6.395  14.354 -0.0261 -0.6552  1.0408
 2043TIP3    H227545   6.484   6.358  14.213  2.2428  0.7547 -0.0351
 2044TIP3   OH227546   1.851   3.765  15.805 -0.0721 -0.2021  1.0093
 2044TIP3    H127547   1.898   3.697  15.853  0.9156  0.0618  0.4346
 2044TIP3    H227548   1.805   3.815  15.872  1.4551  0.2881  1.7141
 2045TIP3   OH227549   0.041   3.121   2.530 -0.6684  0.3477 -0.0982
 2045TIP3    H127550   0.069   3.118   2.621  2.3061  1.4526 -0.8662
 2045TIP3    H227551   0.072   3.039   2.492 -0.1843  0.7298 -0.5377
 2046TIP3   OH227552   3.088   4.196  13.728  0.2536  0.5253 -0.0610
 2046TIP3    H127553   3.182   4.174  13.726 -0.1504 -1.2591 -1.1444
 2046TIP3    H227554   3.070   4.210  13.821  1.6227  1.0686  0.1517
 2047TIP3   OH227555   0.228   3.727   3.261 -0.3468  0.1857 -0.2075
 2047TIP3    H127556   0.255   3.796   3.199  2.1066 -1.7289 -1.4263
 2047TIP3    H227557   0.133   3.721   3.249 -0.5760  2.8912 -0.4868
 2048TIP3   OH227558   5.005   3.688   4.596  0.4841  0.5474  0.4285
 2048TIP3    H127559   4.982   3.665   4.506 -0.5574  1.9962  0.2820
 2048TIP3    H227560   5.099   3.671   4.602  0.7922  1.4130 -1.2817
 2049TIP3   OH227561   5.966   2.142  17.168  0.6289 -0.0456 -0.0842
 2049TIP3    H127562   5.907   2.114  17.098  1.4144  2.1991 -1.7692
 2049TIP3    H227563   5.912   2.195  17.226 -0.2294 -2.5969  1.6372
 2050TIP3   OH227564   2.776   6.570  11.819 -0.1497 -0.1102  0.5800
 2050TIP3    H127565   2.728   6.588  11.738  2.0403 -0.4803 -0.8880
 2050TIP3    H227566   2.737   6.488  11.852  0.2821 -1.1327 -1.2773
 2051TIP3   OH227567   3.254   6.470   1.491 -0.2284 -0.0551  0.6728
 2051TIP3    H127568   3.199   6.494   1.416 -0.4986 -0.1421  0.8459
 2051TIP3    H227569   3.344   6.486   1.460 -0.3777  0.6411  0.5914
 2052TIP3   OH227570   1.488   1.427  15.793 -0.8965 -0.0460  0.1293
 2052TIP3    H127571   1.507   1.474  15.874  1.5989 -1.3366  0.3866
 2052TIP3    H227572   1.528   1.481  15.725 -0.2098 -0.5124  0.1500
 2053TIP3   OH227573   5.126   2.076   4.347  0.0255 -0.8252 -0.4853
 2053TIP3    H127574   5.121   1.991   4.304  1.1498 -0.4739 -1.3774
 2053TIP3    H227575   5.038   2.092   4.381 -0.7927 -1.3486 -2.2506
 2054TIP3   OH227576   2.353   2.210   5.761  0.7947 -0.6834  0.2240
 2054TIP3    H127577   2.284   2.178   5.819  0.7408  0.4953  0.8393
 2054TIP3    H227578   2.306   2.260   5.693  0.9602 -0.9269 -0.0740
 2055TIP3   OH227579   4.632   1.288   5.027  0.4627 -0.5231 -0.1142
 2055TIP3    H127580   4.584   1.282   4.944  1.0384  0.7917 -0.5824
 2055TIP3    H227581   4.627   1.200   5.064  0.5334 -1.2691 -1.7484
 2056TIP3   OH227582   0.011   5.682   2.079  0.3442  0.2371  0.3324
 2056TIP3    H127583  -0.041   5.696   2.000 -0.4228 -0.0510  0.7653
 2056TIP3    H227584  -0.040   5.619   2.130  0.3771  1.0719  1.4380
 2057TIP3   OH227585   0.382   1.384   3.448  0.1674 -0.4775  0.0611
 2057TIP3    H127586   0.456   1.325   3.437 -0.0298 -0.7465  0.1591
 2057TIP3    H227587   0.356   1.373   3.540  0.3252 -0.0069  0.1617
 2058TIP3   OH227588   4.097   4.144  10.859 -0.1265  0.2298  0.2600
 2058TIP3    H127589   4.045   4.224  10.866 -1.2320 -0.4550  0.1699
 2058TIP3    H227590   4.134   4.147  10.771  0.2436  0.8789  0.4368
 2059TIP3   OH227591   1.853   5.100  14.121 -0.0369 -0.4881  0.0095
 2059TIP3    H127592   1.872   5.193  14.107  2.0656 -0.9775 -0.8204
 2059TIP3    H227593   1.791   5.099  14.193 -0.6326  1.5830 -0.3964
 2060TIP3   OH227594   3.190   3.191  14.915  0.1471  0.1369  0.5537
 2060TIP3    H127595   3.216   3.247  14.842 -0.2060  0.2547  0.5129
 2060TIP3    H227596   3.218   3.239  14.993 -1.9368  1.3868  0.6194
 2061TIP3   OH227597   6.439   6.543  13.422  0.4730 -0.2596 -0.1566
 2061TIP3    H127598   6.437   6.612  13.355  0.5140  0.0468  0.1547
 2061TIP3    H227599   6.403   6.466  13.378  1.5779 -0.3801 -0.8954
 2062TIP3   OH227600   2.883   5.840  14.565  0.0880  0.3950 -0.8094
 2062TIP3    H127601   2.923   5.838  14.478 -1.8549  1.3787 -1.7635
 2062TIP3    H227602   2.871   5.747  14.588 -0.1215  0.1328 -1.9382
 2063TIP3   OH227603   6.437   1.957   5.786 -0.1428 -0.0306  0.0210
 2063TIP3    H127604   6.508   2.010   5.822 -1.8948  1.1953  1.8181
 2063TIP3    H227605   6.449   1.871   5.828  0.1837  0.2142  0.4430
 2064TIP3   OH227606   5.373   4.161  10.526 -0.4598 -0.4911  0.3064
 2064TIP3    H127607   5.460   4.201  10.518 -0.0162 -1.6330 -0.8503
 2064TIP3    H227608   5.314   4.235  10.542  0.3252  0.6434 -1.6871
 2065TIP3   OH227609   6.692   3.035  14.708 -0.3647 -0.0180 -0.0450
 2065TIP3    H127610   6.657   2.954  14.745 -2.9067  1.0475  0.1417
 2065TIP3    H227611   6.754   3.066  14.774 -0.6211 -0.9677  0.6713
 2066TIP3   OH227612   1.523   2.520  15.626 -0.1164  0.2589  0.7052
 2066TIP3    H127613   1.574   2.600  15.617  1.8675 -1.0653 -0.5072
 2066TIP3    H227614   1.559   2.476  15.703  0.4547 -0.5649 -0.0088
 2067TIP3   OH227615   4.514   2.557   5.478  0.2336  0.0420  0.4319
 2067TIP3    H127616   4.511   2.601   5.563  1.1501 -0.8706  0.9666
 2067TIP3    H227617   4.551   2.471   5.497  0.9941  0.0172 -0.9756
 2068TIP3   OH227618   6.576   1.652  12.978  0.1799  0.1825 -0.7407
 2068TIP3    H127619   6.521   1.602  12.918 -0.3794 -1.0723  0.7444
 2068TIP3    H227620   6.634   1.587  13.017 -0.8210  0.5772  1.5356
 2069TIP3   OH227621   4.452   5.395   4.908  0.3575  0.1291 -0.1989
 2069TIP3    H127622   4.545   5.394   4.885  1.1005 -0.7785  2.4618
 2069TIP3    H227623   4.434   5.486   4.930  0.4960  0.3676 -1.0132
 2070TIP3   OH227624   6.501   4.601  10.943 -0.3491  0.2066 -0.0344
 2070TIP3    H127625   6.483   4.534  11.009  0.1084  1.0103  0.9280
 2070TIP3    H227626   6.489   4.556  10.860 -0.5521 -0.9379  0.5917
 2071TIP3   OH227627   4.834   6.095  11.314 -0.0159 -0.1944  0.0354
 2071TIP3    H127628   4.752   6.086  11.362  0.2115 -0.2922  0.4087
 2071TIP3    H227629   4.887   6.022  11.344  0.3885  0.1474  0.1584
 2072TIP3   OH227630   2.401   0.808  12.519  0.0053 -0.5217 -0.1912
 2072TIP3    H127631   2.308   0.788  12.519  0.3639 -2.5741 -1.8000
 2072TIP3    H227632   2.409   0.890  12.569 -2.6944  0.0550 -0.5854
 2073TIP3   OH227633   1.074   0.334  15.114 -0.3304  0.0889  0.0690
 2073TIP3    H127634   1.167   0.331  15.136 -0.0061  0.1421 -1.2326
 2073TIP3    H227635   1.030   0.355  15.197  0.8076  0.0495  0.6941
 2074TIP3   OH227636   2.647   2.498   6.375  0.2692 -0.1002  0.2480
 2074TIP3    H127637   2.580   2.566   6.377  0.4505  0.0931 -0.0527
 2074TIP3    H227638   2.680   2.493   6.465 -0.0931 -0.1424  0.3779
 2075TIP3   OH227639   5.530   2.231  15.329  0.3759  0.3369  0.3390
 2075TIP3    H127640   5.528   2.143  15.292 -0.6774  0.4999 -0.0377
 2075TIP3    H227641   5.599   2.228  15.395 -0.7693 -1.2719  1.5475
 2076TIP3   OH227642   0.590   2.028   4.245  0.2054  0.1159 -0.4875
 2076TIP3    H127643   0.683   2.050   4.244  0.5480 -1.2642 -1.4535
 2076TIP3    H227644   0.583   1.954   4.305 -0.3374  0.4719 -0.1034
 2077TIP3   OH227645   3.209   1.940  15.285 -0.0327  0.2127 -0.1222
 2077TIP3    H127646   3.274   1.884  15.329 -0.5782 -0.3829 -0.0518
 2077TIP3    H227647   3.257   1.982  15.214  0.3484 -0.5015 -0.2965
 2078TIP3   OH227648   0.544   4.126   5.079 -0.3551  0.2156  0.5509
 2078TIP3    H127649   0.576   4.216   5.073 -3.4110  1.3319 -1.7944
 2078TIP3    H227650   0.578   4.083   5.001 -1.3746  0.3319  0.0139
 2079TIP3   OH227651   6.733   5.921  11.142  0.5194  0.6233 -0.1231
 2079TIP3    H127652   6.718   6.010  11.113  1.1901  1.6820  2.4862
 2079TIP3    H227653   6.797   5.885  11.080 -0.9144  1.3624 -2.1112
 2080TIP3   OH227654   6.123   6.401   2.368 -0.5569  0.1283  0.5457
 2080TIP3    H127655   6.193   6.463   2.349  1.0176 -1.0532  2.1139
 2080TIP3    H227656   6.076   6.391   2.285 -1.3161  3.8073  0.3579
 2081TIP3   OH227657   1.695   6.105  16.437  0.5515  0.1855  0.2592
 2081TIP3    H127658   1.650   6.105  16.353 -0.1831 -0.5594  0.6373
 2081TIP3    H227659   1.784   6.076  16.417  0.8495  1.4911 -0.4737
 2082TIP3   OH227660   3.360   2.573   4.845 -0.4467 -0.3811 -1.0147
 2082TIP3    H127661   3.345   2.481   4.869  1.7408 -1.1269 -2.1740
 2082TIP3    H227662   3.393   2.568   4.755 -1.6439  1.6934 -1.6188
 2083TIP3   OH227663   3.840   2.141   6.137  0.3314  0.7938 -0.0204
 2083TIP3    H127664   3.833   2.182   6.223 -0.6443  0.9569 -0.1573
 2083TIP3    H227665   3.796   2.057   6.147  2.0106 -0.0893  0.1621
 2084TIP3   OH227666   2.953   3.225  16.661 -0.4932  0.5309  0.4498
 2084TIP3    H127667   2.983   3.270  16.740 -0.5068  0.5893  0.4218
 2084TIP3    H227668   2.926   3.295  16.602 -2.4200  0.4388  1.1504
 2085TIP3   OH227669   0.442   5.949  15.685 -0.1273 -0.0497 -0.1055
 2085TIP3    H127670   0.509   5.925  15.748  0.3746  2.3730  0.4042
 2085TIP3    H227671   0.486   6.009  15.624 -1.3460  0.0658 -0.9157
 2086TIP3   OH227672   1.903   0.830  11.692 -0.3072 -0.4990  0.2368
 2086TIP3    H127673   1.883   0.872  11.608  0.0942 -1.7097 -0.4884
 2086TIP3    H227674   1.821   0.789  11.718 -0.5620  0.2763  0.6925
 2087TIP3   OH227675   6.716   0.269   3.459 -0.0791 -0.5186 -0.0259
 2087TIP3    H127676   6.778   0.197   3.448  1.5035  0.6831  0.6624
 2087TIP3    H227677   6.709   0.308   3.372  2.1156  0.8498  0.3389
 2088TIP3   OH227678   4.925   3.707   5.956 -0.4764  0.2155 -0.5839
 2088TIP3    H127679   4.981   3.696   6.032 -0.1440  2.2831 -0.4839
 2088TIP3    H227680   4.854   3.644   5.970  0.8178 -1.1362  0.2016
 2089TIP3   OH227681   3.421   2.175  11.232 -0.7197 -0.0776  0.0777
 2089TIP3    H127682   3.361   2.165  11.306 -1.1715 -0.7250 -0.3636
 2089TIP3    H227683   3.468   2.092  11.228  0.6636  0.6260  0.7827
 2090TIP3   OH227684   6.502   6.312   3.166 -0.6739 -0.0700  0.2269
 2090TIP3    H127685   6.424   6.359   3.196 -0.8657  0.4193 -0.9874
 2090TIP3    H227686   6.520   6.348   3.079  0.7918 -0.3221  0.4008
 2091TIP3   OH227687   4.425   1.517   4.225  0.2458 -0.2318 -0.3293
 2091TIP3    H127688   4.451   1.608   4.238 -0.2481 -0.1821  0.4146
 2091TIP3    H227689   4.482   1.467   4.284  0.2914 -0.3665 -0.4886
 2092TIP3   OH227690   5.316   0.152   5.483 -1.0828  0.1121  0.2394
 2092TIP3    H127691   5.362   0.069   5.486  0.2105  0.8270  1.5968
 2092TIP3    H227692   5.278   0.162   5.571  1.5237  2.3703  1.2341
 2093TIP3   OH227693   4.115   0.850   1.395  0.2515  0.4059 -0.0405
 2093TIP3    H127694   4.082   0.862   1.306 -1.7959 -0.0868  0.5951
 2093TIP3    H227695   4.152   0.935   1.419 -0.1788  0.8653 -0.9657
 2094TIP3   OH227696   3.882   1.044  10.900  0.5171  0.4362 -0.4362
 2094TIP3    H127697   3.885   1.139  10.900  1.9847  0.4137 -0.6227
 2094TIP3    H227698   3.815   1.021  10.835  0.0747  1.3272 -0.2998
 2095TIP3   OH227699   0.962   4.749   5.532 -0.1394 -0.5580 -0.3716
 2095TIP3    H127700   0.931   4.674   5.483  0.8742 -0.7936 -0.6793
 2095TIP3    H227701   0.943   4.729   5.623 -1.8831 -0.1920 -0.6277
 2096TIP3   OH227702   5.794   2.624  11.045 -0.4463  0.6479 -0.0746
 2096TIP3    H127703   5.790   2.714  11.077  2.4200  0.4944  0.9978
 2096TIP3    H227704   5.834   2.632  10.958  0.4549  0.4038  0.3039
 2097TIP3   OH227705   2.069   3.474  11.118  0.3381  0.8082 -0.0090
 2097TIP3    H127706   2.106   3.549  11.071  0.6656  1.6897  1.5647
 2097TIP3    H227707   2.011   3.432  11.055  1.6994  1.1775 -1.5792
 2098TIP3   OH227708   1.739   5.508   3.995 -0.1488 -0.6324 -0.1903
 2098TIP3    H127709   1.811   5.449   4.018 -1.3930 -2.3426 -0.4879
 2098TIP3    H227710   1.782   5.592   3.978  1.7911 -1.6001 -0.4059
 2099TIP3   OH227711   6.132   0.178  10.742  0.6629 -0.0718 -0.0096
 2099TIP3    H127712   6.091   0.113  10.798 -0.6875  0.9799  0.2826
 2099TIP3    H227713   6.162   0.246  10.802  1.3890 -0.0638 -0.3679
 2100TIP3   OH227714   0.467   4.717  14.181 -0.0529  0.4239 -0.6903
 2100TIP3    H127715   0.558   4.690  14.192  0.8835  3.2706 -0.6416
 2100TIP3    H227716   0.437   4.671  14.103  0.4240 -2.7522  0.8328
 2101TIP3   OH227717   6.421   3.735   1.383  0.6125 -0.0332 -0.2784
 2101TIP3    H127718   6.398   3.776   1.300 -0.3301  0.4170  0.1788
 2101TIP3    H227719   6.448   3.647   1.360 -2.4928 -0.9684 -0.8855
 2102TIP3   OH227720   2.272   4.088  15.639  0.1766 -1.1083  0.3037
 2102TIP3    H127721   2.358   4.074  15.599  0.4839 -0.2230  0.6379
 2102TIP3    H227722   2.290   4.144  15.715 -1.0611  1.8591 -1.4280
 2103TIP3   OH227723   5.589   4.767  17.102 -0.2179 -0.1019  0.2657
 2103TIP3    H127724   5.538   4.788  17.181 -0.2224 -0.1957  0.2863
 2103TIP3    H227725   5.659   4.711  17.133 -0.7009 -0.8223  0.0760
 2104TIP3   OH227726   4.129   2.592   5.683  0.2822 -0.4462  0.4862
 2104TIP3    H127727   4.048   2.621   5.642  0.4145 -1.5381 -0.5756
 2104TIP3    H227728   4.198   2.612   5.620  0.8696  0.4460  1.3634
 2105TIP3   OH227729   2.390   5.548  11.429 -0.3606 -0.9592  1.1883
 2105TIP3    H127730   2.431   5.463  11.414  0.7686 -0.4786  1.4454
 2105TIP3    H227731   2.429   5.605  11.362  0.3352 -0.2024  2.2109
 2106TIP3   OH227732   4.149   4.871  12.818  0.5040 -0.5032  0.4887
 2106TIP3    H127733   4.210   4.865  12.891  3.1808  2.8673 -1.1803
 2106TIP3    H227734   4.199   4.842  12.742 -0.3220  1.0927 -0.7418
 2107TIP3   OH227735   1.523   3.331   5.288 -0.3114  0.5137  0.5365
 2107TIP3    H127736   1.562   3.379   5.362  1.1000 -0.9529  0.8039
 2107TIP3    H227737   1.434   3.311   5.317  0.0064  0.5389  1.5869
 2108TIP3   OH227738   4.422   5.114  15.669 -0.1430  0.4112  0.0540
 2108TIP3    H127739   4.397   5.187  15.725  0.9274  1.5672 -0.8994
 2108TIP3    H227740   4.428   5.039  15.728  0.2463  1.4217  1.3457
 2109TIP3   OH227741   3.126   2.841   3.031  0.0717  0.2659  0.0377
 2109TIP3    H127742   3.112   2.920   2.978 -0.8000  1.1966  1.5821
 2109TIP3    H227743   3.048   2.787   3.013  0.0969  0.2808 -0.1237
 2110TIP3   OH227744   5.281   1.951  13.332  0.3404 -0.0841  0.1427
 2110TIP3    H127745   5.358   1.894  13.338  0.8713  0.5069 -0.7830
 2110TIP3    H227746   5.264   1.958  13.238  0.8545  2.0126  0.1679
 2111TIP3   OH227747   2.246   6.323  13.278  0.3399 -0.1973 -0.8150
 2111TIP3    H127748   2.298   6.326  13.198 -0.3374 -2.4833 -1.4070
 2111TIP3    H227749   2.309   6.338  13.348  0.6950  3.6342 -1.7224
 2112TIP3   OH227750   4.431   5.844  12.881  0.3401 -0.0354 -0.8625
 2112TIP3    H127751   4.425   5.751  12.899  0.4276  0.0787 -0.2207
 2112TIP3    H227752   4.387   5.856  12.797 -1.1810 -0.4089 -0.1363
 2113TIP3   OH227753   4.263   3.906   5.759  0.3045 -0.4846 -0.1148
 2113TIP3    H127754   4.216   3.837   5.712 -0.6465 -1.5751  2.2662
 2113TIP3    H227755   4.215   3.986   5.739  0.1912 -0.8375 -1.3209
 2114TIP3   OH227756   3.499   3.137   4.412  0.3994 -0.2786  0.5494
 2114TIP3    H127757   3.459   3.087   4.340 -0.1857  0.3803  0.3980
 2114TIP3    H227758   3.593   3.122   4.402  0.3394 -0.1144 -0.4267
 2115TIP3   OH227759   6.337   0.360  15.312  0.0017  0.7694 -0.5427
 2115TIP3    H127760   6.270   0.408  15.265  0.5056  0.1547 -1.9398
 2115TIP3    H227761   6.418   0.378  15.264  0.7852  1.2203  0.9000
 2116TIP3   OH227762   4.112   2.524   1.695 -0.0162 -0.1154  0.4874
 2116TIP3    H127763   4.092   2.611   1.729  0.0437 -0.6345  1.9297
 2116TIP3    H227764   4.190   2.536   1.641 -1.0598  1.0189 -0.8589
 2117TIP3   OH227765   2.357   2.784   4.258  0.4747  0.5861 -0.2639
 2117TIP3    H127766   2.416   2.849   4.296  0.1416  0.0114  1.3283
 2117TIP3    H227767   2.412   2.733   4.198  0.5030  2.9397 -2.4203
 2118TIP3   OH227768   5.862   5.495  16.224  0.5373 -0.6410 -0.0980
 2118TIP3    H127769   5.903   5.577  16.197  0.1299 -1.2758 -3.0849
 2118TIP3    H227770   5.933   5.431  16.224  0.2642 -0.9954 -1.6183
 2119TIP3   OH227771   1.790   2.292   5.586 -0.5008 -0.0942 -0.6013
 2119TIP3    H127772   1.865   2.232   5.582  0.0547  0.6299 -1.1064
 2119TIP3    H227773   1.815   2.357   5.652 -1.3311 -0.7071  0.3474
 2120TIP3   OH227774   2.020   5.997   4.284 -0.0642 -0.0986 -0.4966
 2120TIP3    H127775   2.091   5.963   4.338  1.5179  0.8082 -1.9158
 2120TIP3    H227776   2.052   6.082   4.253 -2.0962  0.6932 -0.5621
 2121TIP3   OH227777   0.234   0.579   0.010  0.3617 -0.7676  0.0039
 2121TIP3    H127778   0.268   0.559  -0.077  0.1716  1.3134 -0.6148
 2121TIP3    H227779   0.290   0.649   0.042 -0.4861 -0.4767  0.9200
 2122TIP3   OH227780   0.588   0.029  17.178  0.1434  0.0282  0.1769
 2122TIP3    H127781   0.514   0.040  17.238  1.4719 -0.7222  2.0923
 2122TIP3    H227782   0.647  -0.031  17.225  1.5975 -0.0240 -1.6146
 2123TIP3   OH227783   2.574   0.939  17.237 -0.5018 -0.5540  0.2013
 2123TIP3    H127784   2.634   0.866  17.224 -0.6789 -0.4007 -1.8635
 2123TIP3    H227785   2.585   0.993  17.158 -1.8349  0.5719  0.7436
 2124TIP3   OH227786   4.319   1.664   3.584  0.7843 -0.3909 -0.0658
 2124TIP3    H127787   4.244   1.620   3.544 -0.1617  0.9279  0.1754
 2124TIP3    H227788   4.352   1.601   3.648  1.6761 -2.1159 -2.0868
 2125TIP3   OH227789   1.599   1.687   2.963  0.9714  0.5014  0.0865
 2125TIP3    H127790   1.656   1.610   2.962 -0.0156 -0.3726  2.2378
 2125TIP3    H227791   1.536   1.672   2.892  1.5132 -0.0808 -0.2761
 2126TIP3   OH227792   1.100   4.848   4.569  0.4124 -0.5536 -0.0707
 2126TIP3    H127793   1.083   4.768   4.519 -0.1607 -1.7399  1.9271
 2126TIP3    H227794   1.048   4.915   4.525 -1.1627 -1.8440 -0.2800
 2127TIP3   OH227795   6.347   6.054   4.164 -0.2771  0.3640  0.3017
 2127TIP3    H127796   6.330   6.090   4.251  0.0996  0.3992  0.3648
 2127TIP3    H227797   6.287   5.981   4.156  1.0822 -0.9325  1.4144
 2128TIP3   OH227798   2.924   1.438  16.573  0.1265 -0.1908  0.0872
 2128TIP3    H127799   2.900   1.435  16.666 -1.8090  0.0278 -0.3732
 2128TIP3    H227800   2.924   1.531  16.551  0.0294 -0.2743 -0.2679
 2129TIP3   OH227801   1.493   2.025   0.830  0.1227  1.0585 -0.1857
 2129TIP3    H127802   1.487   2.065   0.743 -0.7922 -1.6761 -1.5332
 2129TIP3    H227803   1.531   1.938   0.813 -0.6041  0.2321  2.0793
 2130TIP3   OH227804   5.373   3.974   5.558 -0.6658  0.4530 -0.7438
 2130TIP3    H127805   5.425   4.039   5.605  2.1112 -2.3735  0.4344
 2130TIP3    H227806   5.399   3.986   5.466 -0.9188  1.5929 -0.6805
 2131TIP3   OH227807   4.273   1.955  15.859 -0.6215 -0.5764 -0.3271
 2131TIP3    H127808   4.286   1.915  15.773 -2.0865 -2.7947  0.4052
 2131TIP3    H227809   4.194   1.914  15.894 -1.0453  1.4907  1.4224
 2132TIP3   OH227810   4.943   1.817   2.570 -0.0062  0.0008  0.3372
 2132TIP3    H127811   4.901   1.894   2.533  2.7245 -0.2354 -4.0421
 2132TIP3    H227812   5.037   1.832   2.556  0.7020 -3.6021  0.2127
 2133TIP3   OH227813   3.794   0.156  14.845 -0.2237  0.2464  0.2569
 2133TIP3    H127814   3.778   0.177  14.937  0.5440  3.0139 -0.1373
 2133TIP3    H227815   3.822   0.064  14.845  0.8873  0.5012  2.9341
 2134TIP3   OH227816   0.543   1.685  12.651 -0.0975  0.1238  0.3390
 2134TIP3    H127817   0.578   1.690  12.740  1.5129 -0.6210 -0.2217
 2134TIP3    H227818   0.594   1.749  12.601  1.0687 -1.5194 -0.6582
 2135TIP3   OH227819   5.468   5.380   4.348  0.2112  0.1052  0.7840
 2135TIP3    H127820   5.552   5.378   4.303  1.0593  0.5446  2.2631
 2135TIP3    H227821   5.452   5.288   4.371 -1.9353 -0.7589 -3.2154
 2136TIP3   OH227822   0.738   2.424   1.995 -0.5376  0.0919  0.2169
 2136TIP3    H127823   0.788   2.506   2.000  1.8526 -1.2876  0.4333
 2136TIP3    H227824   0.654   2.445   2.037  0.1463  2.3026  0.6408
 2137TIP3   OH227825   4.493   6.491  16.449  0.1011  0.1953 -0.1106
 2137TIP3    H127826   4.421   6.431  16.431  0.8680 -0.6665 -0.3824
 2137TIP3    H227827   4.564   6.435  16.481  0.6453  1.0242  0.1791
 2138TIP3   OH227828   6.026   5.425   5.054 -0.0739  0.3146 -0.0878
 2138TIP3    H127829   5.971   5.404   4.978  0.0949 -4.3761  0.7609
 2138TIP3    H227830   5.968   5.472   5.113 -2.3679 -1.7197 -0.5252
 2139TIP3   OH227831   6.072   3.168  16.399  0.0819  0.4581 -0.2328
 2139TIP3    H127832   6.069   3.130  16.487  0.6325  1.6672  0.3454
 2139TIP3    H227833   6.083   3.262  16.415  0.3872  0.6701 -1.6058
 2140TIP3   OH227834   0.398   0.598   1.490  0.0084  0.5265  0.2841
 2140TIP3    H127835   0.392   0.565   1.401  0.6735  0.3385  0.3066
 2140TIP3    H227836   0.310   0.585   1.527  0.8311 -3.8262  1.2045
 2141TIP3   OH227837   0.294   4.806  10.773 -0.2363  0.4437  0.2157
 2141TIP3    H127838   0.354   4.873  10.807  0.3104  0.8105 -1.3948
 2141TIP3    H227839   0.313   4.802  10.680 -3.4639  1.3574 -0.6105
 2142TIP3   OH227840   1.574   5.288   5.178 -0.0903 -0.1123  0.3750
 2142TIP3    H127841   1.542   5.198   5.185 -1.2195  0.0784 -1.6758
 2142TIP3    H227842   1.542   5.331   5.257  1.7902 -1.8103  2.2046
 2143TIP3   OH227843   3.622   5.429   4.035 -0.0588  0.2468 -0.0467
 2143TIP3    H127844   3.622   5.505   3.977  2.2101  1.4568  1.3945
 2143TIP3    H227845   3.698   5.378   4.008  2.0876  1.6753  2.6626
 2144TIP3   OH227846   1.409   0.479  16.655  0.0200 -0.4983 -0.6852
 2144TIP3    H127847   1.322   0.513  16.677 -0.1680 -0.6155 -1.2307
 2144TIP3    H227848   1.408   0.471  16.559  0.8995  0.2395 -0.7723
 2145TIP3   OH227849   0.049   2.663   5.179 -0.4698  0.4481  0.7301
 2145TIP3    H127850   0.033   2.625   5.093  1.2409 -0.7213  0.8644
 2145TIP3    H227851   0.108   2.736   5.163  0.6569 -0.3807  0.9613
 2146TIP3   OH227852   1.648   5.334   2.720  0.1723  0.5139  0.4845
 2146TIP3    H127853   1.616   5.322   2.631 -0.7971  0.9193  0.7570
 2146TIP3    H227854   1.587   5.284   2.774  1.6359 -0.9944  0.8218
 2147TIP3   OH227855   1.603   1.785  12.930 -0.5440  0.3497 -0.0742
 2147TIP3    H127856   1.656   1.708  12.947  1.5539  1.9029  0.9057
 2147TIP3    H227857   1.586   1.822  13.017  2.7259  3.5891 -0.5915
 2148TIP3   OH227858   4.722   2.318  11.094 -0.6937 -0.0941  0.8484
 2148TIP3    H127859   4.786   2.262  11.136  0.5438  1.2635  0.8770
 2148TIP3    H227860   4.651   2.327  11.157 -0.8047 -1.3996  0.9259
 2149TIP3   OH227861   6.395   3.099  12.788 -0.2670  0.6479  0.4076
 2149TIP3    H127862   6.471   3.156  12.776  0.3337 -0.2283 -0.0327
 2149TIP3    H227863   6.406   3.061  12.876  0.6066 -0.6061 -0.2097
 2150TIP3   OH227864   4.748   1.269   5.421 -0.3667 -0.2149  0.1987
 2150TIP3    H127865   4.662   1.233   5.399 -1.0450  1.4026  0.0393
 2150TIP3    H227866   4.744   1.360   5.393  0.3444  0.7285  2.8009
 2151TIP3   OH227867   6.606   6.391   2.263 -0.0553 -0.0903 -0.3484
 2151TIP3    H127868   6.672   6.332   2.228 -1.5343 -2.7412  1.0494
 2151TIP3    H227869   6.540   6.334   2.302 -1.8076  2.4895  0.7734
 2152TIP3   OH227870   3.598   1.428   3.313 -0.1003 -0.3426 -0.2440
 2152TIP3    H127871   3.543   1.496   3.274 -0.0833  1.0001  1.9059
 2152TIP3    H227872   3.630   1.467   3.395 -0.3021 -3.0185  1.2204
 2153TIP3   OH227873   3.640   6.801  13.729  0.0314 -0.2495 -0.2155
 2153TIP3    H127874   3.585   6.795  13.650 -0.1407  0.6339 -0.1704
 2153TIP3    H227875   3.587   6.849  13.792  0.6961  0.2584 -0.0283
 2154TIP3   OH227876   1.043   0.535  11.414 -0.7989 -0.0239 -0.5285
 2154TIP3    H127877   0.977   0.506  11.476  0.2302  1.3878  1.3115
 2154TIP3    H227878   1.029   0.629  11.407  0.7264  0.2239 -0.4508
 2155TIP3   OH227879   0.208   4.892   5.455 -0.2337  0.3791 -0.5850
 2155TIP3    H127880   0.173   4.979   5.477 -0.4543  0.4809 -1.3064
 2155TIP3    H227881   0.257   4.907   5.374  2.4617  0.4846  0.9364
 2156TIP3   OH227882   1.474   2.846  15.629 -0.1372 -0.2981 -0.0095
 2156TIP3    H127883   1.429   2.818  15.550  0.9768 -1.4866 -0.2543
 2156TIP3    H227884   1.427   2.925  15.657 -2.3534 -1.4605 -0.2356
 2157TIP3   OH227885   1.752   0.086  10.635  0.4588  0.2652 -0.0666
 2157TIP3    H127886   1.752   0.000  10.592 -2.5292  0.9047 -1.6184
 2157TIP3    H227887   1.780   0.147  10.567 -1.3657  0.9445 -0.2539
 2158TIP3   OH227888   2.079   0.257  12.720  0.1307 -0.1685  0.1386
 2158TIP3    H127889   2.077   0.305  12.636 -0.7393 -1.1724 -0.4438
 2158TIP3    H227890   2.133   0.311  12.777 -1.4171  1.9427 -0.2477
 2159TIP3   OH227891   0.042   6.030  10.801  0.1989 -0.0949  0.1620
 2159TIP3    H127892   0.109   6.019  10.869  0.3981 -0.3574 -0.0753
 2159TIP3    H227893   0.030   5.942  10.766 -0.4740 -0.0966  0.3940
 2160TIP3   OH227894   5.371   1.498  14.074  0.4175  0.3148 -0.2572
 2160TIP3    H127895   5.368   1.585  14.113  0.5439 -0.2534  1.0843
 2160TIP3    H227896   5.463   1.484  14.052  0.7168 -0.1017  1.1008
 2161TIP3   OH227897   6.132   0.644  10.086  0.8111  0.1123  0.2440
 2161TIP3    H127898   6.208   0.587  10.100  1.5701  0.3219 -2.5347
 2161TIP3    H227899   6.061   0.585  10.064  0.6805  0.0524  0.8036
 2162TIP3   OH227900   3.299   1.646   0.425 -0.1638  0.1132 -0.7325
 2162TIP3    H127901   3.218   1.694   0.442 -1.2503 -0.8393 -2.8695
 2162TIP3    H227902   3.304   1.580   0.494 -1.0359  0.4122 -0.3809
 2163TIP3   OH227903   1.263   3.265  16.987 -0.5230  0.5630 -0.0547
 2163TIP3    H127904   1.348   3.228  17.011 -0.3474  1.2842  0.4865
 2163TIP3    H227905   1.246   3.232  16.899  0.1605  0.1395 -0.0355
 2164TIP3   OH227906   3.922   2.478  13.361  0.8109  0.1281  0.2307
 2164TIP3    H127907   3.841   2.521  13.334  0.7452  0.3515  0.7919
 2164TIP3    H227908   3.895   2.417  13.430  1.1228  0.2046  0.4198
 2165TIP3   OH227909   5.455   5.516  12.678  0.0370  0.1860 -0.3018
 2165TIP3    H127910   5.439   5.441  12.620 -0.0411 -0.7872  0.9399
 2165TIP3    H227911   5.464   5.590  12.618 -0.4548 -0.7047 -1.5420
 2166TIP3   OH227912   5.427   5.058  14.401 -0.4272  0.5519  0.2605
 2166TIP3    H127913   5.423   5.006  14.481 -2.9976 -0.1602 -0.2441
 2166TIP3    H227914   5.395   5.144  14.427 -2.0430  0.0965 -0.0958
 2167TIP3   OH227915   2.556   0.214  16.197 -0.6635 -0.0252 -0.0997
 2167TIP3    H127916   2.510   0.188  16.277 -3.1522  0.9573 -1.1163
 2167TIP3    H227917   2.549   0.137  16.140 -0.6863 -0.0044 -0.1247
 2168TIP3   OH227918   1.348   2.527   5.514 -0.4301 -0.2228  0.0643
 2168TIP3    H127919   1.418   2.479   5.469 -0.9267 -0.2948 -0.6452
 2168TIP3    H227920   1.361   2.507   5.606 -0.3017 -1.2910 -0.1715
 2169TIP3   OH227921   5.765   3.205  12.507  0.3657 -0.2851 -0.0138
 2169TIP3    H127922   5.707   3.193  12.432  0.8475  1.9438 -0.8142
 2169TIP3    H227923   5.816   3.124  12.510 -2.8234 -2.4754  0.8830
 2170TIP3   OH227924   0.807   5.599   2.702 -0.1532  0.1819  0.7475
 2170TIP3    H127925   0.860   5.671   2.670 -0.5343 -0.0358 -0.4039
 2170TIP3    H227926   0.867   5.525   2.707 -0.3623 -0.1107 -0.7272
 2171TIP3   OH227927   2.061   6.115  12.165 -0.2369  0.4493  0.2526
 2171TIP3    H127928   1.999   6.069  12.221  0.6617 -2.0055 -0.6412
 2171TIP3    H227929   2.017   6.123  12.081  0.5409 -1.2256 -0.3593
 2172TIP3   OH227930   1.363   5.601  13.487  0.2375 -0.3641  0.2893
 2172TIP3    H127931   1.383   5.643  13.571 -0.7975  0.3204  0.2150
 2172TIP3    H227932   1.430   5.633  13.427 -0.0853  0.6014  0.4269
 2173TIP3   OH227933   2.048   0.702   5.243  0.3433 -0.4698  0.0311
 2173TIP3    H127934   2.115   0.638   5.267  1.6259  1.1376  0.9428
 2173TIP3    H227935   2.055   0.770   5.309  0.4561  1.6360 -2.0001
 2174TIP3   OH227936   0.398   4.901  11.849  0.0166  0.0173  0.4552
 2174TIP3    H127937   0.460   4.968  11.821 -0.1565 -0.4856 -1.3048
 2174TIP3    H227938   0.318   4.949  11.870  0.4226  0.5034  0.9134
 2175TIP3   OH227939   4.538   2.813  16.033 -0.3217  0.2576 -0.0384
 2175TIP3    H127940   4.558   2.879  15.966 -0.4510  0.8279  0.4798
 2175TIP3    H227941   4.453   2.779  16.007 -0.4188  0.5485 -0.1097
 2176TIP3   OH227942   5.904   3.458  12.779  0.1635  0.5371 -0.1833
 2176TIP3    H127943   5.810   3.476  12.788 -0.1854 -1.3514  0.3711
 2176TIP3    H227944   5.927   3.409  12.857  1.5742  0.7211 -0.4553
 2177TIP3   OH227945   2.317   2.740  12.922  0.1477  0.8480  0.1401
 2177TIP3    H127946   2.366   2.690  12.988  1.2551  1.4467 -0.2032
 2177TIP3    H227947   2.346   2.830  12.934 -1.6441  1.4008  0.5819
 2178TIP3   OH227948   4.482   5.937  11.918  0.3821  0.3017  0.1210
 2178TIP3    H127949   4.392   5.932  11.886  0.3218  1.0188  0.1616
 2178TIP3    H227950   4.485   5.875  11.991 -0.1267  0.3909  0.2204
 2179TIP3   OH227951   4.187   3.706   1.896  0.4816  1.1166  0.8012
 2179TIP3    H127952   4.194   3.660   1.979 -2.2603 -0.0768  0.4904
 2179TIP3    H227953   4.132   3.782   1.915  0.0823  0.9944  0.1871
 2180TIP3   OH227954   5.175   4.597  12.969  0.0415 -0.2749  0.2124
 2180TIP3    H127955   5.203   4.603  12.878 -0.0272  1.6141  0.2832
 2180TIP3    H227956   5.085   4.563  12.964 -0.4233  1.0119 -0.5200
 2181TIP3   OH227957   1.569   1.984  12.467 -0.3089  0.1305 -0.4851
 2181TIP3    H127958   1.585   1.952  12.556 -0.2967  1.0763 -0.1360
 2181TIP3    H227959   1.616   1.923  12.411  1.1271  0.4824  0.2689
 2182TIP3   OH227960   6.808   4.128  15.291  0.4260 -0.0973  0.5890
 2182TIP3    H127961   6.868   4.078  15.236  0.5826  0.4663  0.2391
 2182TIP3    H227962   6.795   4.210  15.243 -2.9035 -1.2717 -0.8374
 2183TIP3   OH227963   1.710   0.634   1.116  0.0450 -0.3984  0.4723
 2183TIP3    H127964   1.781   0.603   1.061  1.7615  1.2945  1.6165
 2183TIP3    H227965   1.674   0.710   1.069  2.1891  1.6992  1.9885
 2184TIP3   OH227966   4.403   6.307  11.482 -0.4263 -0.8328 -0.0261
 2184TIP3    H127967   4.402   6.256  11.401  0.0406 -2.3750  0.9105
 2184TIP3    H227968   4.312   6.310  11.510 -0.9181  1.4146 -1.5864
 2185TIP3   OH227969   0.571   3.282   0.560 -0.0255  0.5236  0.7332
 2185TIP3    H127970   0.502   3.233   0.604 -1.0699  0.4148 -0.9310
 2185TIP3    H227971   0.592   3.229   0.483  0.7352  1.3666  0.3493
 2186TIP3   OH227972   0.179   1.376   3.248 -0.5067 -0.3594 -0.5888
 2186TIP3    H127973   0.124   1.414   3.318 -1.0989 -2.6466  0.2659
 2186TIP3    H227974   0.262   1.356   3.292 -0.4607 -0.7136 -0.8409
 2187TIP3   OH227975   0.238   4.103   5.182  0.1253  0.1488  0.1702
 2187TIP3    H127976   0.179   4.153   5.126 -0.4113  0.6922  1.1747
 2187TIP3    H227977   0.321   4.100   5.134  0.0530  1.6895 -0.1077
 2188TIP3   OH227978   5.748   2.488  14.233  0.2124 -0.0313 -0.0099
 2188TIP3    H127979   5.794   2.405  14.247  1.0729  0.7631  2.2680
 2188TIP3    H227980   5.714   2.481  14.144  3.3827 -1.3234 -1.2916
 2189TIP3   OH227981   4.006   1.228  14.628  0.3580 -0.2107 -0.2421
 2189TIP3    H127982   4.059   1.308  14.626  0.3725 -0.2329 -0.8856
 2189TIP3    H227983   4.067   1.159  14.653  0.2747  0.0245  0.6579
 2190TIP3   OH227984   1.755   5.067   3.545  0.0833  0.0814  0.3256
 2190TIP3    H127985   1.832   5.116   3.516 -0.6977 -0.0430 -2.1639
 2190TIP3    H227986   1.745   5.092   3.637  2.2132  1.2287  0.3208
 2191TIP3   OH227987   0.941   6.017  14.797  0.0231  0.2941 -0.6890
 2191TIP3    H127988   0.937   6.108  14.825 -0.3240  0.3564 -0.9287
 2191TIP3    H227989   1.032   5.991  14.810 -0.3890 -0.1565  1.9582
 2192TIP3   OH227990   4.958   0.246  12.551  0.4005 -0.0360  0.0470
 2192TIP3    H127991   4.917   0.267  12.467 -1.4130 -0.3752  0.7917
 2192TIP3    H227992   4.901   0.178  12.589  1.0156  0.3029  1.6598
 2193TIP3   OH227993   6.253   0.394  14.102  0.6740 -0.3812 -0.6508
 2193TIP3    H127994   6.319   0.325  14.098  0.9300 -0.1333 -0.7256
 2193TIP3    H227995   6.251   0.421  14.194 -0.7178 -1.7297 -0.2479
 2194TIP3   OH227996   0.655   2.665  12.185 -0.3500 -0.1458  0.7413
 2194TIP3    H127997   0.705   2.744  12.166 -1.5557  0.5747  0.4616
 2194TIP3    H227998   0.673   2.606  12.112  0.5959 -0.1650  0.9791
 2195TIP3   OH227999   2.015   2.960  15.899 -0.0499 -0.1177  0.3364
 2195TIP3    H128000   2.031   2.955  15.804 -1.7967  1.4041 -0.0997
 2195TIP3    H228001   2.088   2.911  15.938  0.0734 -1.8146 -1.8169
 2196TIP3   OH228002   6.627   5.655   1.907  0.3385 -0.3411  0.3243
 2196TIP3    H128003   6.610   5.743   1.874 -0.2521 -0.5059  0.1780
 2196TIP3    H228004   6.541   5.613   1.909  0.7098 -1.1640 -0.3080
 2197TIP3   OH228005   1.998   1.272   2.916  0.4411  0.0022  0.3570
 2197TIP3    H128006   2.093   1.271   2.905  0.7492  1.7473  2.1335
 2197TIP3    H228007   1.970   1.350   2.868 -0.0433 -0.3050  0.1407
 2198TIP3   OH228008   2.651   4.092   4.326  0.2327  0.7645 -0.3163
 2198TIP3    H128009   2.580   4.034   4.354 -0.5505  0.5753 -2.4989
 2198TIP3    H228010   2.731   4.044   4.347 -0.3454 -0.1115 -0.0669
 2199TIP3   OH228011   1.754   4.350  14.055 -0.2854  0.0165 -0.6256
 2199TIP3    H128012   1.664   4.380  14.042 -0.2906  0.6450  0.7068
 2199TIP3    H228013   1.807   4.413  14.008 -0.4410  0.7845  0.2031
 2200TIP3   OH228014   6.304   3.801   4.322  0.4132 -0.2377 -0.3550
 2200TIP3    H128015   6.347   3.819   4.238  0.4104  1.6157 -0.0108
 2200TIP3    H228016   6.288   3.888   4.359  2.0585 -1.0193  2.4408
 2201TIP3   OH228017   5.667   5.875   5.797  0.2678  0.6608  0.5746
 2201TIP3    H128018   5.754   5.837   5.803 -0.0190 -0.2486 -0.6206
 2201TIP3    H228019   5.675   5.946   5.733  0.3468  1.2604  1.2390
 2202TIP3   OH228020   1.805   2.156  15.912 -0.4501  0.1993  0.8651
 2202TIP3    H128021   1.877   2.095  15.900 -0.8711 -0.4823  1.7087
 2202TIP3    H228022   1.844   2.232  15.955  0.2357  0.9036 -0.9022
 2203TIP3   OH228023   4.030   3.756  16.183 -0.1503 -0.1092  0.2217
 2203TIP3    H128024   4.074   3.839  16.166 -0.8452  0.7184  2.1503
 2203TIP3    H228025   3.998   3.728  16.097  0.8475  1.1717 -0.6071
 2204TIP3   OH228026   6.448   4.801  14.435  0.6446  0.4320  0.1369
 2204TIP3    H128027   6.453   4.894  14.455 -3.1949  1.0778 -1.0870
 2204TIP3    H228028   6.434   4.759  14.520 -0.8372  1.3997  0.4053
 2205TIP3   OH228029   6.287   6.759   3.431  0.3063  0.3200 -0.1402
 2205TIP3    H128030   6.295   6.852   3.414  0.0685  1.1339  3.4307
 2205TIP3    H228031   6.196   6.738   3.410 -0.4861  1.6352  1.7678
 2206TIP3   OH228032   5.937   2.185  13.813 -0.2845 -0.0672 -0.2318
 2206TIP3    H128033   5.963   2.212  13.901 -0.8073 -1.4292  0.3667
 2206TIP3    H228034   5.842   2.197  13.812 -0.4932 -1.5796 -0.0404
 2207TIP3   OH228035   0.939   6.372  14.011 -0.0601  0.3337  0.2370
 2207TIP3    H128036   0.895   6.446  14.052  1.8735  0.9372  1.3681
 2207TIP3    H228037   0.977   6.408  13.931 -1.0712 -0.0257 -0.4104
 2208TIP3   OH228038   2.440   0.065  13.636 -0.0426  0.4448  0.0408
 2208TIP3    H128039   2.376  -0.003  13.618  0.4259  0.0352 -0.1156
 2208TIP3    H228040   2.391   0.134  13.680 -0.4367 -0.1968  0.6272
 2209TIP3   OH228041   1.613   3.579   4.589 -0.1066 -0.1991 -0.2865
 2209TIP3    H128042   1.704   3.572   4.618  0.1023  2.2734 -0.1277
 2209TIP3    H228043   1.561   3.552   4.666  0.4994  1.6419  0.8312
 2210TIP3   OH228044   3.048   4.235  13.996 -0.5092 -0.0658 -0.1516
 2210TIP3    H128045   2.993   4.260  14.071 -1.0620  0.5492 -0.7500
 2210TIP3    H228046   3.090   4.153  14.023 -1.5952 -0.4659  0.3861
 2211TIP3   OH228047   2.801   5.026   2.726  0.4138  0.3743  0.1267
 2211TIP3    H128048   2.787   4.951   2.668  1.4699  0.7900 -0.7074
 2211TIP3    H228049   2.777   5.102   2.673 -0.3394  0.6644  0.8583
 2212TIP3   OH228050   1.707   3.929   1.171 -0.0907  0.2520  0.1331
 2212TIP3    H128051   1.723   3.931   1.077  1.8126 -1.5329  0.3555
 2212TIP3    H228052   1.635   3.867   1.182  0.1422 -0.0725 -0.1273
 2213TIP3   OH228053   2.967   1.041   6.099 -0.4936 -0.5993 -0.0282
 2213TIP3    H128054   3.038   0.979   6.082 -0.3416 -1.1924  2.3515
 2213TIP3    H228055   2.899   0.989   6.142 -1.6564  0.3091 -0.7146
 2214TIP3   OH228056   4.877   6.202   1.340  0.0705 -1.3830  0.3948
 2214TIP3    H128057   4.862   6.142   1.266 -0.3874 -0.7186 -0.0631
 2214TIP3    H228058   4.846   6.287   1.308 -0.5139 -1.1685  1.4956
 2215TIP3   OH228059   2.983   5.094  16.757  0.0965 -0.3022 -0.1280
 2215TIP3    H128060   2.989   5.174  16.810 -1.3278  0.3980 -0.9556
 2215TIP3    H228061   2.992   5.023  16.819  0.2788  0.5133  0.7994
 2216TIP3   OH228062   3.276   0.430  16.221 -0.2855 -0.0541  0.3558
 2216TIP3    H128063   3.196   0.413  16.271 -0.8831  0.2163 -0.4803
 2216TIP3    H228064   3.297   0.522  16.240  0.2335 -0.3140  1.1140
 2217TIP3   OH228065   3.861   3.452  10.773  0.3977  0.0997 -0.1511
 2217TIP3    H128066   3.859   3.546  10.757  0.1427  0.0230 -0.5950
 2217TIP3    H228067   3.954   3.432  10.785  0.4240  0.4606  0.3084
 2218TIP3   OH228068   1.675   2.158  16.637 -0.3572  0.2643 -0.1341
 2218TIP3    H128069   1.663   2.074  16.593 -1.6367  0.6899 -0.6407
 2218TIP3    H228070   1.769   2.175  16.631 -0.4704  0.3922 -2.9011
 2219TIP3   OH228071   2.939   1.934  13.644 -0.3665  0.1966 -0.2391
 2219TIP3    H128072   2.991   2.014  13.641 -0.4452  0.3025  0.7354
 2219TIP3    H228073   2.990   1.870  13.594 -1.8757  1.6675 -4.0445
 2220TIP3   OH228074   1.648   6.335   5.613 -0.2309  0.6548  0.0331
 2220TIP3    H128075   1.641   6.429   5.594 -0.0567  0.8708  1.0165
 2220TIP3    H228076   1.668   6.330   5.706  3.5407 -0.1955 -0.6250
 2221TIP3   OH228077   6.270   1.793   2.391  0.3208  0.1190 -0.0697
 2221TIP3    H128078   6.225   1.829   2.467  1.5552  1.7381 -0.0435
 2221TIP3    H228079   6.200   1.762   2.334 -0.8215  1.9920  0.2270
 2222TIP3   OH228080   1.271   6.024   1.953  0.7424 -0.1140 -0.3127
 2222TIP3    H128081   1.184   6.031   1.993  0.2221 -0.2165 -1.3906
 2222TIP3    H228082   1.254   5.989   1.866  1.5200  2.9790 -1.8452
 2223TIP3   OH228083   3.769   6.085  12.026  0.1043 -0.8094 -0.9620
 2223TIP3    H128084   3.775   6.001  12.072  0.1973  0.3590  1.2850
 2223TIP3    H228085   3.675   6.105  12.027  0.4105  1.3155  2.9490
 2224TIP3   OH228086   0.959   2.426   3.328  0.5513  0.6959 -0.3976
 2224TIP3    H128087   1.014   2.361   3.285 -1.6196 -1.3915 -0.2387
 2224TIP3    H228088   0.908   2.466   3.257 -1.1120 -0.8505 -0.1513
 2225TIP3   OH228089   1.038   0.996   2.323 -0.0921  0.1347  0.1781
 2225TIP3    H128090   1.035   0.989   2.227 -0.2622  0.8949  0.1232
 2225TIP3    H228091   0.950   0.969   2.351 -0.1854  0.3423  0.0886
 2226TIP3   OH228092   4.293   2.582  15.698  0.2013 -0.1482 -0.8689
 2226TIP3    H128093   4.348   2.507  15.678  1.1279  0.8649 -2.2690
 2226TIP3    H228094   4.205   2.556  15.668  0.3665 -0.9159 -0.7049
 2227TIP3   OH228095   4.150   6.280  14.905 -0.2100 -0.1056  0.6400
 2227TIP3    H128096   4.129   6.372  14.887 -0.1760 -0.5775 -2.3449
 2227TIP3    H228097   4.217   6.284  14.974  1.9484  2.3394 -1.3749
 2228TIP3   OH228098   5.775   2.124  11.922  0.1865 -0.7531 -0.6396
 2228TIP3    H128099   5.854   2.086  11.883  0.7233 -1.0238  0.6831
 2228TIP3    H228100   5.779   2.217  11.898  0.0142 -1.0757 -2.0026
 2229TIP3   OH228101   3.774   5.493  16.881 -0.4466  0.2848 -0.0138
 2229TIP3    H128102   3.756   5.399  16.873 -2.3387  0.6099 -0.1240
 2229TIP3    H228103   3.820   5.502  16.965  2.8548 -1.0662 -1.5359
 2230TIP3   OH228104   1.834   5.378  13.141 -0.1009  0.2664 -0.1227
 2230TIP3    H128105   1.828   5.402  13.048  0.5798 -1.4756 -0.6573
 2230TIP3    H228106   1.864   5.458  13.184 -1.9402  1.5782 -1.1339
 2231TIP3   OH228107   1.856   2.581   1.408  0.0941  0.1690 -0.0971
 2231TIP3    H128108   1.865   2.522   1.333  1.6603 -1.0437  0.9569
 2231TIP3    H228109   1.812   2.528   1.474  1.1568  0.2727  0.7246
 2232TIP3   OH228110   3.164   6.282  17.182  0.3654 -0.0946 -0.0713
 2232TIP3    H128111   3.104   6.352  17.208  0.2546 -0.1456 -0.1914
 2232TIP3    H228112   3.219   6.268  17.259  0.1595 -0.1187  0.0722
 2233TIP3   OH228113   5.754   3.785   2.255 -0.2186 -0.2490  0.3409
 2233TIP3    H128114   5.748   3.729   2.333  0.4700  1.9204  2.0382
 2233TIP3    H228115   5.670   3.774   2.211 -0.1457 -2.5097  0.6130
 2234TIP3   OH228116   2.936   1.767  12.049  0.0142 -0.0396 -0.3052
 2234TIP3    H128117   2.864   1.817  12.010 -0.0513 -1.4081 -2.0801
 2234TIP3    H228118   2.896   1.687  12.082  0.6297 -0.6273 -0.9308
 2235TIP3   OH228119   1.922   5.302   1.169  0.4038 -0.2457 -0.3609
 2235TIP3    H128120   1.924   5.240   1.096  2.5026 -1.1949  0.4224
 2235TIP3    H228121   2.006   5.289   1.214  0.9545  3.1528 -0.1188
 2236TIP3   OH228122   6.671   0.491  12.772 -0.1367  0.3055 -0.1232
 2236TIP3    H128123   6.679   0.587  12.777  2.9983  0.1092  0.4463
 2236TIP3    H228124   6.732   0.459  12.838 -1.2541 -2.1272 -0.1933
 2237TIP3   OH228125   0.061   3.314  13.394 -0.2048 -0.5602  0.1932
 2237TIP3    H128126   0.060   3.242  13.457 -1.0505  0.6812  1.6364
 2237TIP3    H228127  -0.001   3.378  13.428 -1.1436 -0.0798 -2.2109
 2238TIP3   OH228128   3.595   3.688  14.782 -0.1902 -0.0895 -0.0164
 2238TIP3    H128129   3.605   3.600  14.819 -3.3800 -0.2442  0.8097
 2238TIP3    H228130   3.504   3.691  14.752  0.3511  2.3531 -1.7187
 2239TIP3   OH228131   5.837   3.272   0.621 -0.3748  0.0978  0.3132
 2239TIP3    H128132   5.875   3.361   0.622  3.3962 -1.2646 -1.3633
 2239TIP3    H228133   5.884   3.226   0.690  0.5981 -1.4866 -1.3135
 2240TIP3   OH228134   4.154   6.143   5.737  0.3113  0.0398 -0.1555
 2240TIP3    H128135   4.150   6.051   5.711  0.9982 -0.0611  0.0865
 2240TIP3    H228136   4.213   6.184   5.673  1.7934 -0.1533  1.0346
 2241TIP3   OH228137   2.166   2.300  14.566  0.2816 -0.1313  0.4272
 2241TIP3    H128138   2.168   2.387  14.606 -0.2424 -0.9360  2.3277
 2241TIP3    H228139   2.074   2.274  14.570  0.5372 -1.0567  0.5757
 2242TIP3   OH228140   0.058   6.343   4.228 -0.3411  0.3386  0.0613
 2242TIP3    H128141   0.080   6.250   4.228 -1.6551  0.0088 -0.0364
 2242TIP3    H228142  -0.019   6.349   4.170  0.5638  1.6945 -1.0534
 2243TIP3   OH228143   3.610   2.518  11.984 -0.1699  0.0823 -0.1502
 2243TIP3    H128144   3.693   2.509  12.030 -1.4258 -1.9062  1.9874
 2243TIP3    H228145   3.588   2.429  11.956 -2.3484  0.1989  0.9308
 2244TIP3   OH228146   2.911   1.399   4.677 -0.3626  0.0734 -0.1443
 2244TIP3    H128147   2.995   1.437   4.704 -0.4034 -0.4413  0.7430
 2244TIP3    H228148   2.891   1.335   4.745 -0.1958 -1.6862 -1.7022
 2245TIP3   OH228149   3.109   2.121  12.162  0.8351 -0.0912 -0.1599
 2245TIP3    H128150   3.119   2.159  12.249  4.1885  2.0414 -1.2638
 2245TIP3    H228151   3.166   2.044  12.163  0.0624 -0.6717 -0.1875
 2246TIP3   OH228152   6.074   3.888  13.618 -0.1405 -0.3987 -0.2225
 2246TIP3    H128153   5.989   3.929  13.633  0.2815  0.4296 -0.0355
 2246TIP3    H228154   6.133   3.961  13.599  0.2010 -1.0865 -1.9368
 2247TIP3   OH228155   1.247   1.401   2.647  0.2850  0.0584  0.5668
 2247TIP3    H128156   1.181   1.424   2.713 -0.4668  1.0570 -0.4910
 2247TIP3    H228157   1.197   1.387   2.567  1.1047 -1.8725  0.3213
 2248TIP3   OH228158   5.962   1.034   0.796 -0.2532  0.1726  0.3633
 2248TIP3    H128159   5.927   0.953   0.833 -0.8778  0.5992  0.7125
 2248TIP3    H228160   6.051   1.039   0.830  0.1967 -0.9544 -0.5836
 2249TIP3   OH228161   5.374   0.735   0.660 -0.4837 -0.1675  0.0161
 2249TIP3    H128162   5.393   0.646   0.689 -0.4747 -0.7837 -1.7879
 2249TIP3    H228163   5.458   0.770   0.631 -0.7646 -0.2030 -0.8821
 2250TIP3   OH228164   2.413   4.606   1.111  0.4909  0.6685  0.1360
 2250TIP3    H128165   2.401   4.579   1.020  2.4703 -0.9454  0.2923
 2250TIP3    H228166   2.485   4.669   1.109  3.2798 -2.2601  0.8843
 2251TIP3   OH228167   5.017   6.316  13.204  0.2067 -0.0776 -0.3089
 2251TIP3    H128168   4.981   6.309  13.292  1.4550 -1.7643  0.1284
 2251TIP3    H228169   5.065   6.234  13.191  0.0518  0.1170 -2.5710
 2252TIP3   OH228170   0.974   1.317  15.273 -0.1174 -0.3498 -0.2670
 2252TIP3    H128171   0.996   1.289  15.362  1.6198 -0.6332 -0.7499
 2252TIP3    H228172   0.878   1.319  15.272 -0.2109 -1.6405  1.2133
 2253TIP3   OH228173   3.820   3.907  17.084 -0.4519 -0.3112 -0.0627
 2253TIP3    H128174   3.730   3.940  17.090  0.4386  2.9919 -2.0658
 2253TIP3    H228175   3.819   3.847  17.010 -1.3862 -2.3217  1.4615
 2254TIP3   OH228176   0.774   1.840   4.602  0.0448 -0.3731  0.1915
 2254TIP3    H128177   0.840   1.874   4.663  0.0921 -1.4488  0.7609
 2254TIP3    H228178   0.737   1.764   4.647 -0.1976 -0.9553 -0.9573
 2255TIP3   OH228179   1.644   4.582  16.270  0.3191  0.4661 -0.1640
 2255TIP3    H128180   1.603   4.505  16.309  0.1860  0.8810  0.5419
 2255TIP3    H228181   1.732   4.553  16.247 -0.0779 -0.1936 -0.9071
 2256TIP3   OH228182   0.249   0.106   3.534 -0.3692  0.0886 -0.0500
 2256TIP3    H128183   0.209   0.028   3.494 -0.6337  0.2254 -0.0569
 2256TIP3    H228184   0.230   0.176   3.472 -2.0273  0.5907  0.9796
 2257TIP3   OH228185   2.391   3.517  13.978  0.3732  0.7117 -0.0758
 2257TIP3    H128186   2.484   3.536  13.991  0.6503 -0.5884 -0.0008
 2257TIP3    H228187   2.359   3.493  14.065  0.4506 -0.7202 -0.4126
 2258TIP3   OH228188   5.827   5.004   5.015  0.1707  0.5465  0.0211
 2258TIP3    H128189   5.917   5.034   5.003 -0.7421  3.0434 -1.1994
 2258TIP3    H228190   5.800   4.973   4.929  0.1883 -1.3457  0.6505
 2259TIP3   OH228191   1.440   0.355  11.651  0.7003  0.0078  0.2764
 2259TIP3    H128192   1.374   0.353  11.582  1.7068 -0.0275 -0.7116
 2259TIP3    H228193   1.411   0.425  11.710  0.5511  1.0137 -0.9470
 2260TIP3   OH228194   5.151   0.505  11.276 -0.2357  0.0941  0.4308
 2260TIP3    H128195   5.229   0.459  11.308 -0.4546 -2.3141 -2.0862
 2260TIP3    H228196   5.183   0.590  11.247  1.5181 -0.8371 -0.5382
 2261TIP3   OH228197   3.002   4.946  16.989  0.2254  0.2417 -0.4892
 2261TIP3    H128198   3.014   4.862  17.033  0.6838  0.5124 -0.0762
 2261TIP3    H228199   3.045   5.009  17.047  1.2836  0.5502 -1.5604
 2262TIP3   OH228200   4.343   4.305  16.188  0.3365 -0.6599 -0.1363
 2262TIP3    H128201   4.293   4.370  16.236  3.1447  1.7707 -0.2073
 2262TIP3    H228202   4.330   4.328  16.096  2.1215  0.5710 -0.1341
 2263TIP3   OH228203   1.397   1.952   1.408 -0.2285  0.5096  0.4793
 2263TIP3    H128204   1.355   2.018   1.353  0.0395  0.4784  0.2337
 2263TIP3    H228205   1.425   1.999   1.486  0.2868  0.7657  0.1450
 2264TIP3   OH228206   4.278   2.917   6.305 -0.4332 -0.1952  0.8756
 2264TIP3    H128207   4.270   3.012   6.299 -1.4173 -0.3666 -1.3960
 2264TIP3    H228208   4.206   2.890   6.362 -0.0280  0.4106  1.6911
 2265TIP3   OH228209   3.592   3.145   1.597 -0.0161 -0.3460 -0.0262
 2265TIP3    H128210   3.623   3.107   1.515 -0.7852 -0.3197 -0.3418
 2265TIP3    H228211   3.626   3.087   1.665  0.8564 -0.2139 -0.3423
 2266TIP3   OH228212   3.681   6.565   6.630 -0.0912  0.2712 -0.7819
 2266TIP3    H128213   3.758   6.603   6.672 -0.9042 -1.5235  2.6532
 2266TIP3    H228214   3.609   6.621   6.658 -0.6403 -0.8785  0.1299
 2267TIP3   OH228215   4.592   6.416  14.039 -0.1819  0.5718  0.0273
 2267TIP3    H128216   4.508   6.371  14.028 -0.1378  0.6171 -0.5160
 2267TIP3    H228217   4.652   6.349  14.071 -0.0879  0.2068 -0.8925
 2268TIP3   OH228218   2.909   0.506  16.767 -0.2506  0.2328 -0.2284
 2268TIP3    H128219   2.850   0.432  16.780 -0.6286  0.4075 -0.8913
 2268TIP3    H228220   2.936   0.531  16.855 -1.1250  0.1148  0.0815
 2269TIP3   OH228221   6.066   6.611  10.123  0.0748 -0.3220 -0.3010
 2269TIP3    H128222   6.114   6.694  10.124  1.7577 -1.1004 -3.3864
 2269TIP3    H228223   5.977   6.634  10.150 -0.4546  3.2884 -4.0857
 2270TIP3   OH228224   4.022   1.834  15.554 -0.0630  0.2349  0.3247
 2270TIP3    H128225   4.030   1.917  15.602  0.4093  0.5362 -0.2573
 2270TIP3    H228226   4.028   1.859  15.462 -0.4713 -0.3897  0.1233
 2271TIP3   OH228227   3.338   0.907  16.927 -0.1652 -0.6241  0.6827
 2271TIP3    H128228   3.349   0.816  16.899 -1.1899 -0.8494  0.9487
 2271TIP3    H228229   3.426   0.943  16.929  0.0953 -1.1059 -1.0917
 2272TIP3   OH228230   3.062   1.764  17.013 -0.6389  0.4376 -0.0036
 2272TIP3    H128231   3.083   1.795  17.101  1.4011 -1.9884  0.4796
 2272TIP3    H228232   2.980   1.715  17.024 -0.4252  0.1973  0.5450
 2273TIP3   OH228233   5.424   5.618  10.829  0.2049  0.8474 -0.1627
 2273TIP3    H128234   5.371   5.567  10.767  1.4771  0.2561 -0.7936
 2273TIP3    H228235   5.484   5.668  10.774  0.3318  1.4756  0.5393
 2274TIP3   OH228236   0.731   2.860  16.239  0.6434 -0.1308 -0.2288
 2274TIP3    H128237   0.709   2.793  16.303  1.1996 -0.0831  0.0106
 2274TIP3    H228238   0.652   2.867  16.184  0.1463 -0.1305  0.4744
 2275TIP3   OH228239   4.518   5.599  16.109  0.1044 -0.2391 -0.3962
 2275TIP3    H128240   4.577   5.668  16.081  0.2542  0.2163  1.0140
 2275TIP3    H228241   4.535   5.527  16.047  0.6504  0.6095 -1.2585
 2276TIP3   OH228242   0.110   1.845  12.434  0.0327 -0.0739  0.3333
 2276TIP3    H128243   0.146   1.758  12.415  2.5247  0.5675  1.7360
 2276TIP3    H228244   0.027   1.827  12.479 -0.3774 -1.6512 -0.9362
 2277TIP3   OH228245   1.135   0.136   2.202 -0.0061  0.2598 -0.1736
 2277TIP3    H128246   1.132   0.137   2.106  2.0403  0.3005 -0.2940
 2277TIP3    H228247   1.052   0.098   2.229 -0.7425  0.5097 -1.9544
 2278TIP3   OH228248   4.456   4.162   2.915 -0.5186  0.0897  0.2316
 2278TIP3    H128249   4.369   4.124   2.924 -1.2682  1.7767  0.4718
 2278TIP3    H228250   4.516   4.088   2.922 -1.9381 -1.1399 -0.2575
 2279TIP3   OH228251   2.038   0.676  14.731  0.1298  0.4212  0.5473
 2279TIP3    H128252   2.096   0.600  14.736 -0.0409  0.3432  4.3061
 2279TIP3    H228253   2.098   0.751  14.723  0.6003  0.1249  1.1380
 2280TIP3   OH228254   4.475   3.593   1.481  0.4061  0.6167  0.8421
 2280TIP3    H128255   4.380   3.591   1.473  0.3359 -2.4469  1.1592
 2280TIP3    H228256   4.491   3.610   1.573 -0.0034 -1.5819  1.3794
 2281TIP3   OH228257   5.251   4.621  15.305 -0.4165 -0.0647  0.6093
 2281TIP3    H128258   5.326   4.680  15.296 -0.9298  0.4155 -0.7632
 2281TIP3    H228259   5.284   4.537  15.272 -0.5954  0.2678 -0.4706
 2282TIP3   OH228260   3.210   5.638  15.991  0.1544  0.0755 -0.4801
 2282TIP3    H128261   3.287   5.618  15.938  0.6801 -0.0136  0.2902
 2282TIP3    H228262   3.229   5.725  16.028  1.6297 -1.3863  2.6229
 2283TIP3   OH228263   4.762   5.926   2.087 -0.2130 -0.3348 -0.0990
 2283TIP3    H128264   4.730   5.850   2.135 -0.0200  0.1720  0.8770
 2283TIP3    H228265   4.824   5.891   2.024 -0.2929 -1.0050  0.1827
 2284TIP3   OH228266   0.924   4.698   0.659  0.3078 -0.0793 -0.3865
 2284TIP3    H128267   0.879   4.780   0.639  1.2709  0.9717  1.4776
 2284TIP3    H228268   0.932   4.654   0.575 -0.3228  1.6856 -1.4233
 2285TIP3   OH228269   2.053   5.929   5.445 -0.3879  0.0405  0.6294
 2285TIP3    H128270   1.981   5.945   5.384 -1.4055 -0.7301  1.5896
 2285TIP3    H228271   2.110   5.867   5.401  1.4144  2.8861 -1.4320
 2286TIP3   OH228272   4.274   3.453  15.908 -0.0881 -0.1372  0.2924
 2286TIP3    H128273   4.328   3.455  15.987  0.3724  1.0649 -0.0320
 2286TIP3    H228274   4.295   3.534  15.862 -0.0890 -0.9609 -1.2464
 2287TIP3   OH228275   0.847   6.251  14.335  0.0692  0.3382  0.4841
 2287TIP3    H128276   0.772   6.229  14.390 -1.2134 -0.2134 -1.4009
 2287TIP3    H228277   0.854   6.178  14.274  0.8788  1.3400 -0.6690
 2288TIP3   OH228278   3.938   4.849   0.246  0.0044 -0.4384  0.0930
 2288TIP3    H128279   4.000   4.776   0.248  0.5095 -0.0036  1.1650
 2288TIP3    H228280   3.993   4.927   0.248 -0.5753 -0.0455  0.9774
 2289TIP3   OH228281   3.728   6.425  13.160 -0.1422  0.6493  0.1363
 2289TIP3    H128282   3.683   6.509  13.170 -0.0634  0.3872  3.5301
 2289TIP3    H228283   3.668   6.372  13.107 -1.2553  2.0859 -0.0939
 2290TIP3   OH228284   6.060   1.836  15.936 -0.4069  0.2544 -0.0941
 2290TIP3    H128285   6.069   1.861  16.028  1.4502  0.3118 -0.2471
 2290TIP3    H228286   6.140   1.787  15.916 -0.1678  1.3020 -1.9947
 2291TIP3   OH228287   0.369   1.863  11.565 -0.0657 -0.0737 -0.3396
 2291TIP3    H128288   0.409   1.776  11.556 -0.4029 -0.2132 -0.5081
 2291TIP3    H228289   0.435   1.915  11.610  0.3716 -0.2545 -0.7631
 2292TIP3   OH228290   0.043   0.004  16.362 -0.4750  0.0303  0.3843
 2292TIP3    H128291   0.133  -0.020  16.385 -0.6451 -1.2128 -0.1399
 2292TIP3    H228292  -0.005  -0.079  16.367 -1.2504  0.3806 -0.8495
 2293TIP3   OH228293   2.493   3.964  13.145  0.2092 -0.2139  0.7739
 2293TIP3    H128294   2.569   3.905  13.148  1.6339  1.4932  0.3592
 2293TIP3    H228295   2.418   3.908  13.163  1.4487 -2.1899  0.1406
 2294TIP3   OH228296   4.827   2.026  12.201  0.1604 -0.1384  0.0739
 2294TIP3    H128297   4.782   2.111  12.193  1.0823  0.5456  1.6899
 2294TIP3    H228298   4.796   1.990  12.284  0.8870 -0.7028  0.1065
 2295TIP3   OH228299   1.474   2.645  13.867  0.4824  0.0820  0.3075
 2295TIP3    H128300   1.393   2.696  13.874 -0.3078 -0.8859 -1.1831
 2295TIP3    H228301   1.523   2.667  13.946 -1.5341  0.1633  1.6033
 2296TIP3   OH228302   1.565   6.477  12.213 -0.0322 -0.5757  0.2269
 2296TIP3    H128303   1.529   6.513  12.294  2.3792  0.5415  0.8994
 2296TIP3    H228304   1.609   6.551  12.171  1.0713 -1.7222 -0.7395
 2297TIP3   OH228305   1.433   6.579  12.428 -0.3183  1.0208  0.7158
 2297TIP3    H128306   1.435   6.545  12.517  0.4769 -2.4274 -0.4690
 2297TIP3    H228307   1.342   6.605  12.414 -0.6281  0.8579  2.2461
 2298TIP3   OH228308   0.203   3.498   3.987 -0.0804  0.4589 -0.1552
 2298TIP3    H128309   0.132   3.524   4.046  1.7129 -0.0019  2.3575
 2298TIP3    H228310   0.175   3.413   3.952 -0.8837  0.3872  0.6184
 2299TIP3   OH228311   3.896   6.551   1.114  0.0054 -0.3610  0.1895
 2299TIP3    H128312   3.903   6.562   1.019  2.4401  1.9964  0.5299
 2299TIP3    H228313   3.843   6.625   1.143  0.6783 -0.1071  0.7996
 2300TIP3   OH228314   0.679   3.753  15.809  0.3639  0.3814 -0.2700
 2300TIP3    H128315   0.771   3.754  15.780  0.2068 -1.3884 -0.9575
 2300TIP3    H228316   0.675   3.682  15.873 -0.5242  0.4673 -0.2183
 2301TIP3   OH228317   0.984   4.823  12.037  0.9063  0.1184  0.8526
 2301TIP3    H128318   0.922   4.779  11.979  0.0785 -0.6210  2.2432
 2301TIP3    H228319   1.062   4.836  11.984 -0.5591  1.4928 -1.1209
 2302TIP3   OH228320   3.697   1.276   4.182 -0.2456  0.2108  0.5857
 2302TIP3    H128321   3.679   1.205   4.120 -0.1944 -0.4631  1.3141
 2302TIP3    H228322   3.612   1.320   4.192 -1.0219 -1.4800  2.1966
 2303TIP3   OH228323   4.228   6.445  16.310 -0.0601  0.6568  0.0706
 2303TIP3    H128324   4.197   6.416  16.224 -0.3594  1.1551  0.0062
 2303TIP3    H228325   4.181   6.527  16.326 -1.6138 -0.5028  1.6513
 2304TIP3   OH228326   1.063   2.734  12.258  0.4644 -0.2131 -0.2781
 2304TIP3    H128327   1.087   2.792  12.186  1.6939  1.0067  1.0536
 2304TIP3    H228328   0.990   2.778  12.301 -0.0904 -0.8042 -0.5989
 2305TIP3   OH228329   4.049   6.681  16.381  0.1719 -0.8766  0.9191
 2305TIP3    H128330   4.004   6.631  16.449 -3.2051  0.5134 -0.0892
 2305TIP3    H228331   4.015   6.770  16.391  1.5031 -0.0860 -1.0373
 2306TIP3   OH228332   4.267   3.187   1.841  0.4981 -0.0629 -0.4081
 2306TIP3    H128333   4.298   3.170   1.752 -1.0269 -1.4089 -0.7209
 2306TIP3    H228334   4.171   3.185   1.834  0.3479 -1.4593  1.4733
 2307TIP3   OH228335   0.795   0.460  12.954 -0.2076 -0.3010 -0.5136
 2307TIP3    H128336   0.783   0.369  12.927 -0.0334 -0.6356  0.4763
 2307TIP3    H228337   0.886   0.464  12.984 -0.1570  0.2505 -0.7327
 2308TIP3   OH228338   3.912   5.573  12.997  0.0153  0.4481 -0.2557
 2308TIP3    H128339   3.893   5.626  13.074  0.8303 -1.0416  1.0385
 2308TIP3    H228340   3.928   5.485  13.032  0.4603 -0.2605 -2.1264
 2309TIP3   OH228341   1.093   2.329  12.852 -0.0775  0.1972  0.3188
 2309TIP3    H128342   1.039   2.403  12.880  0.0131  1.0343 -1.5631
 2309TIP3    H228343   1.031   2.263  12.822 -0.1216  1.0359 -1.5482
 2310TIP3   OH228344   2.712   1.674   6.050 -0.4624 -0.1046  0.7262
 2310TIP3    H128345   2.731   1.757   6.007 -1.8583  0.1840  0.6174
 2310TIP3    H228346   2.791   1.622   6.037  0.3815  1.1441  0.6754
 2311TIP3   OH228347   3.777   2.841  13.296  0.3062 -0.3648 -0.1952
 2311TIP3    H128348   3.691   2.870  13.326  0.6986 -1.0712  1.7854
 2311TIP3    H228349   3.800   2.902  13.226 -1.5372  0.1909 -0.3595
 2312TIP3   OH228350   4.816   3.933   4.478  0.2601 -0.0072  0.3599
 2312TIP3    H128351   4.895   3.880   4.486 -0.8261 -1.8247 -0.5043
 2312TIP3    H228352   4.778   3.908   4.394 -1.9108 -0.1291  1.3070
 2313TIP3   OH228353   6.544   0.986   2.998 -0.6302 -0.1223 -0.1170
 2313TIP3    H128354   6.501   1.070   2.980 -0.2250  0.2201  0.4563
 2313TIP3    H228355   6.622   0.987   2.942 -1.3585 -0.7566 -1.1796
 2314TIP3   OH228356   4.684   3.583  13.264  0.3464  0.4030  0.0348
 2314TIP3    H128357   4.716   3.664  13.302  0.9979  0.6741 -1.0410
 2314TIP3    H228358   4.683   3.599  13.169  0.9723 -0.9886 -0.2423
 2315TIP3   OH228359   4.693   4.805  12.645 -0.1487  0.1979  0.2671
 2315TIP3    H128360   4.757   4.870  12.616 -1.1561  0.3459 -1.8591
 2315TIP3    H228361   4.610   4.853  12.647 -0.3109 -0.1043  2.4994
 2316TIP3   OH228362   5.866   6.450  11.322  0.0353 -0.4914 -0.4661
 2316TIP3    H128363   5.925   6.456  11.397  1.0203  2.3047 -1.3157
 2316TIP3    H228364   5.864   6.357  11.300  2.6475 -0.9456  0.8086
 2317TIP3   OH228365   3.682   0.643   4.348  0.0583  0.5068  0.2391
 2317TIP3    H128366   3.675   0.711   4.281 -1.0273  1.0113  0.8448
 2317TIP3    H228367   3.624   0.573   4.318 -2.4356  1.7670  1.8161
 2318TIP3   OH228368   5.838   6.212  14.987  0.3550  0.6840 -0.4075
 2318TIP3    H128369   5.876   6.137  14.940 -1.8754 -0.0352 -1.1995
 2318TIP3    H228370   5.745   6.211  14.963 -0.7755  0.8478  3.2940
 2319TIP3   OH228371   4.802   0.030   5.477 -0.1743  0.0826  0.4563
 2319TIP3    H128372   4.720  -0.012   5.502  0.8199 -2.1105  0.2871
 2319TIP3    H228373   4.800   0.033   5.381 -0.0825  0.0965  0.4547
 2320TIP3   OH228374   1.619   5.696   2.036  0.1397 -0.4579 -0.3536
 2320TIP3    H128375   1.533   5.730   2.060  0.6466  1.1749 -0.7407
 2320TIP3    H228376   1.603   5.605   2.010 -1.2768 -0.5299  0.6677
 2321TIP3   OH228377   1.293   2.336   3.129  0.2139 -0.2257  0.2053
 2321TIP3    H128378   1.250   2.389   3.061  0.2723 -0.3950  0.0352
 2321TIP3    H228379   1.221   2.308   3.186  0.1996  0.1475  0.3755
 2322TIP3   OH228380   3.528   5.566   4.278 -0.4030 -0.2193  0.2086
 2322TIP3    H128381   3.596   5.621   4.316  0.4925 -1.7360  0.9430
 2322TIP3    H228382   3.576   5.501   4.226 -1.3796 -0.5610 -0.2932
 2323TIP3   OH228383   5.442   1.485   2.669 -0.0789  0.4107  0.4520
 2323TIP3    H128384   5.382   1.433   2.722 -0.9820  1.3560  0.3935
 2323TIP3    H228385   5.528   1.447   2.686 -0.3883  0.4398  2.2898
 2324TIP3   OH228386   0.314   5.387   3.758 -0.0421  0.1716  0.0577
 2324TIP3    H128387   0.356   5.325   3.818 -0.6122  0.8288  1.1742
 2324TIP3    H228388   0.233   5.412   3.803 -1.0845 -0.2221 -1.5353
 2325TIP3   OH228389   5.334   2.642  14.643  0.0034  0.5789 -0.3573
 2325TIP3    H128390   5.394   2.570  14.625 -1.1632 -0.4088 -0.4853
 2325TIP3    H228391   5.371   2.716  14.595  0.8868 -0.1027 -0.7709
 2326TIP3   OH228392   2.611   3.295  15.810  0.6081 -0.3051  0.3378
 2326TIP3    H128393   2.662   3.221  15.842  0.1830 -0.4595  0.6666
 2326TIP3    H228394   2.660   3.372  15.840  1.8415 -0.4222 -1.2552
 2327TIP3   OH228395   6.655   3.208   0.614 -0.6029  0.0685 -0.4897
 2327TIP3    H128396   6.702   3.149   0.556 -0.3208 -1.0427  0.8237
 2327TIP3    H228397   6.706   3.209   0.695 -1.3459  1.0349 -0.0066
 2328TIP3   OH228398   6.309   0.768   0.160 -0.0113  0.9202 -0.1684
 2328TIP3    H128399   6.258   0.711   0.218  1.1581  0.6258  0.6032
 2328TIP3    H228400   6.374   0.710   0.121  2.0704  1.9013  1.6421
 2329TIP3   OH228401   2.530   1.320  12.158  0.7851  0.4653 -0.2018
 2329TIP3    H128402   2.543   1.254  12.091  1.5063  2.6204 -2.3341
 2329TIP3    H228403   2.451   1.367  12.130  0.5434  0.7927  0.9876
 2330TIP3   OH228404   5.887   3.576  17.018 -0.2024 -0.5756  0.0222
 2330TIP3    H128405   5.829   3.561  16.943 -0.4961  1.7744 -0.3000
 2330TIP3    H228406   5.949   3.503  17.015 -0.5682 -0.8636 -2.1600
 2331TIP3   OH228407   0.767   0.759   5.260 -0.0439 -0.0559  0.2902
 2331TIP3    H128408   0.731   0.691   5.316 -1.1886 -1.0092 -1.4922
 2331TIP3    H228409   0.862   0.751   5.270 -0.1946 -1.1589  0.9799
 2332TIP3   OH228410   4.659   6.277   6.860 -0.0617 -0.3274  0.5579
 2332TIP3    H128411   4.617   6.250   6.778  1.1360 -0.4495 -0.0222
 2332TIP3    H228412   4.700   6.361   6.840 -0.3717  0.0021  1.2463
 2333TIP3   OH228413   1.377   1.391  15.443  0.2917 -0.0207  0.1286
 2333TIP3    H128414   1.420   1.408  15.527  1.6862 -1.3057 -0.2675
 2333TIP3    H228415   1.372   1.295  15.438  0.6302  0.0086 -1.4210
 2334TIP3   OH228416   2.182   3.613  12.473 -0.3466  0.5045 -0.2404
 2334TIP3    H128417   2.199   3.707  12.483  0.3117  0.2870  0.8620
 2334TIP3    H228418   2.227   3.573  12.548  0.4642 -0.8183 -1.4033
 2335TIP3   OH228419   1.491   5.549  12.309  0.0142 -0.5816  0.6210
 2335TIP3    H128420   1.466   5.468  12.264 -1.4675 -0.1165  0.5511
 2335TIP3    H228421   1.416   5.607  12.296  0.2152  0.1149  2.3589
 2336TIP3   OH228422   0.579   2.928  16.843  0.1485  0.5840  0.0190
 2336TIP3    H128423   0.663   2.969  16.822 -0.5749  2.0958 -0.0632
 2336TIP3    H228424   0.536   2.916  16.758 -0.4617  1.5301  0.1737
 2337TIP3   OH228425   2.780   6.170   1.751  0.4296  0.6010 -0.1375
 2337TIP3    H128426   2.829   6.153   1.671 -0.3879  1.1821 -0.7811
 2337TIP3    H228427   2.727   6.091   1.764 -0.8468  1.2384 -1.2456
 2338TIP3   OH228428   4.724   2.286  13.051 -0.0389  0.0695  1.2234
 2338TIP3    H128429   4.647   2.322  13.096 -0.7613 -1.1717  1.0359
 2338TIP3    H228430   4.793   2.350  13.068 -1.4081  1.9134  0.3232
 2339TIP3   OH228431   4.631   2.371  11.353 -0.4796 -0.3629  0.4544
 2339TIP3    H128432   4.628   2.298  11.414  1.0209 -0.3109  0.6232
 2339TIP3    H228433   4.688   2.435  11.395 -2.0317  1.0834  0.4794
 2340TIP3   OH228434   2.862   1.266  12.205  0.1422 -0.3599  0.4583
 2340TIP3    H128435   2.807   1.189  12.221  1.3693 -1.4336 -0.2634
 2340TIP3    H228436   2.948   1.240  12.237  0.4327  0.9737  0.8029
 2341TIP3   OH228437   0.327   6.516   1.297  0.6408 -0.6931 -0.3500
 2341TIP3    H128438   0.414   6.480   1.284  1.2330  0.4978  0.1911
 2341TIP3    H228439   0.341   6.609   1.315 -0.7811 -0.3284 -0.9206
 2342TIP3   OH228440   1.712   5.494   0.159  0.2951  0.4403  0.2794
 2342TIP3    H128441   1.689   5.563   0.222 -0.0218 -1.5816  2.5081
 2342TIP3    H228442   1.804   5.474   0.179 -0.3666 -1.5844  1.5624
 2343TIP3   OH228443   4.534   1.882  12.648  0.1969  0.1461 -0.5640
 2343TIP3    H128444   4.560   1.851  12.735 -1.9066 -1.0371 -0.2786
 2343TIP3    H228445   4.464   1.946  12.666 -0.1709 -0.0219 -1.3631
 2344TIP3   OH228446   6.619   2.098   0.006 -0.6323  0.1818 -0.6771
 2344TIP3    H128447   6.579   2.177   0.043  1.0400 -0.6625  3.4869
 2344TIP3    H228448   6.551   2.031   0.014 -0.7120  0.3120 -0.2028
 2345TIP3   OH228449   6.452   5.298  12.532 -0.3345 -0.5975  0.0969
 2345TIP3    H128450   6.462   5.203  12.523  1.2152 -0.6972  2.1800
 2345TIP3    H228451   6.541   5.332  12.528 -0.8866  0.8214 -0.7359
 2346TIP3   OH228452   4.677   5.090   2.947  0.0373  0.2757 -0.2324
 2346TIP3    H128453   4.634   5.169   2.981 -2.6972 -1.0661 -0.2810
 2346TIP3    H228454   4.629   5.070   2.866  2.4352  0.0044 -1.6854
 2347TIP3   OH228455   0.933   4.852  10.814 -0.1765 -0.4617 -0.1942
 2347TIP3    H128456   0.984   4.928  10.844 -0.7200 -0.1388 -0.0647
 2347TIP3    H228457   0.879   4.828  10.889  0.3671 -1.3118 -0.0651
 2348TIP3   OH228458   2.057   2.738  13.077 -0.7950  0.0462 -0.5284
 2348TIP3    H128459   2.108   2.733  12.996  0.6537  0.5919  0.3089
 2348TIP3    H228460   2.117   2.777  13.141 -3.2557  3.8242 -0.2426
 2349TIP3   OH228461   0.592   6.426   1.032  0.2816 -0.2160  0.2790
 2349TIP3    H128462   0.678   6.467   1.040  0.5597 -0.4726 -1.1378
 2349TIP3    H228463   0.600   6.343   1.080  0.1863  0.6388  1.8359
 2350TIP3   OH228464   2.246   4.484  13.716  0.2581 -0.2638 -0.3731
 2350TIP3    H128465   2.168   4.447  13.676 -0.0424 -0.1444  0.0921
 2350TIP3    H228466   2.212   4.550  13.777  0.6278 -1.3098  1.0154
 2351TIP3   OH228467   3.013   2.990  14.730 -0.4930  0.4582  0.4828
 2351TIP3    H128468   3.059   3.046  14.793  2.1721  1.1827 -1.8792
 2351TIP3    H228469   3.014   2.903  14.770  3.7324  0.2686  0.3722
 2352TIP3   OH228470   3.055   4.219   4.944 -0.2071 -0.3014 -0.1692
 2352TIP3    H128471   3.121   4.285   4.968  0.0498 -1.1799  1.7608
 2352TIP3    H228472   3.082   4.140   4.993 -2.3363 -0.8676  0.1778
 2353TIP3   OH228473   2.697   6.765  16.719  0.4459 -0.2897  0.3032
 2353TIP3    H128474   2.606   6.757  16.749  0.6775  0.7328  1.3891
 2353TIP3    H228475   2.740   6.815  16.789  1.3060  1.2289 -1.2439
 2354TIP3   OH228476   3.219   3.038   2.585 -0.1120 -0.3858  0.7390
 2354TIP3    H128477   3.223   2.942   2.593  0.1257 -0.4468 -0.0535
 2354TIP3    H228478   3.130   3.055   2.554  0.3949 -0.4986 -0.8721
 2355TIP3   OH228479   0.070   3.064   5.018 -1.0501  0.1729  0.3546
 2355TIP3    H128480   0.066   3.108   5.104 -0.4305  0.3491  0.2965
 2355TIP3    H228481   0.071   3.136   4.955  3.6103  0.3732  0.3258
 2356TIP3   OH228482   0.173   2.145  12.240 -0.4924  0.6233  0.2185
 2356TIP3    H128483   0.253   2.093  12.233 -0.4072  0.7284  0.4058
 2356TIP3    H228484   0.102   2.080  12.240 -0.5270  0.5874 -1.6205
 2357TIP3   OH228485   2.526   3.512   4.748  0.3643  0.5460  0.4036
 2357TIP3    H128486   2.496   3.427   4.778  1.5179  0.8261  2.5214
 2357TIP3    H228487   2.470   3.575   4.793  0.6892  0.9415  0.2665
 2358TIP3   OH228488   0.605   4.862  16.605 -0.5090 -0.2873 -0.0606
 2358TIP3    H128489   0.514   4.846  16.630 -0.1539  0.2258  1.7183
 2358TIP3    H228490   0.655   4.794  16.651  0.1348  0.3260  0.1685
 2359TIP3   OH228491   1.309   2.904   3.241 -0.0274 -0.1848 -0.2374
 2359TIP3    H128492   1.334   2.958   3.166  0.5618  0.8143  0.6398
 2359TIP3    H228493   1.215   2.918   3.251  0.1862  1.0802  0.2434
 2360TIP3   OH228494   1.313   3.981  17.122  0.5807 -0.1450 -0.0822
 2360TIP3    H128495   1.311   4.064  17.076  0.1656  0.0446  0.2703
 2360TIP3    H228496   1.405   3.956  17.125  0.9060  1.0945  1.2177
 2361TIP3   OH228497   6.515   2.711  14.397  0.0942 -0.0419 -0.2169
 2361TIP3    H128498   6.550   2.716  14.308  1.0787  0.4087  0.1746
 2361TIP3    H228499   6.429   2.751  14.392  0.6834  1.2042 -0.7061
 2362TIP3   OH228500   1.111   1.935  12.899 -0.3559  0.2855 -0.0678
 2362TIP3    H128501   1.162   1.924  12.818  0.8107 -3.1669  0.9465
 2362TIP3    H228502   1.027   1.893  12.880 -0.3639  0.1630  0.2383
 2363TIP3   OH228503   2.345   5.221  11.027  0.4564  0.0688  0.2911
 2363TIP3    H128504   2.391   5.194  10.948  0.0191 -0.3639  0.1790
 2363TIP3    H228505   2.388   5.302  11.053  0.5624  0.2508 -0.4235
 2364TIP3   OH228506   3.193   5.959   4.449  1.1881 -0.1829  0.0547
 2364TIP3    H128507   3.253   5.888   4.474  0.3014 -0.8114  0.4573
 2364TIP3    H228508   3.202   6.024   4.518  2.5110  0.4276 -0.6663
 2365TIP3   OH228509   4.665   1.414   5.692  0.2557 -0.0884 -0.6747
 2365TIP3    H128510   4.692   1.375   5.608  0.2771  0.1813 -0.7921
 2365TIP3    H228511   4.736   1.474   5.714 -0.5264  1.1000 -1.2951
 2366TIP3   OH228512   1.999   0.478  14.426 -0.1410  0.3785  0.4365
 2366TIP3    H128513   2.044   0.396  14.405  0.6593  1.0340 -0.5499
 2366TIP3    H228514   1.933   0.454  14.490 -0.1657 -1.1029 -0.1040
 2367TIP3   OH228515   3.373   4.268   3.936  0.1743 -0.0197  0.6284
 2367TIP3    H128516   3.422   4.213   3.875 -0.0094  0.1282  0.3444
 2367TIP3    H228517   3.405   4.243   4.022  0.6288 -0.0447  0.4549
 2368TIP3   OH228518   6.424   0.576   0.678 -0.0636  0.2000 -0.8819
 2368TIP3    H128519   6.373   0.655   0.695  0.0483  0.4622 -1.7570
 2368TIP3    H228520   6.475   0.596   0.600 -0.4178 -0.9171 -1.4260
 2369TIP3   OH228521   0.425   5.255   6.600 -0.1889 -1.1204  0.6677
 2369TIP3    H128522   0.357   5.247   6.667 -1.1371  0.1007 -0.0983
 2369TIP3    H228523   0.452   5.347   6.604 -0.4643 -0.9593 -0.7854
 2370TIP3   OH228524   3.045   3.412   6.454  0.3783  0.1490  0.0882
 2370TIP3    H128525   3.033   3.506   6.471 -1.5136 -0.0823  0.2418
 2370TIP3    H228526   3.101   3.382   6.526  1.1575  1.1625 -0.0555
 2371TIP3   OH228527   2.633   3.776  12.901 -0.3629 -0.1469  0.4695
 2371TIP3    H128528   2.537   3.780  12.907 -0.3787 -0.6889  0.6179
 2371TIP3    H228529   2.655   3.689  12.933  0.2198  0.1615  0.9173
 2372TIP3   OH228530   4.765   6.047  12.695  0.2790 -0.4625 -0.0912
 2372TIP3    H128531   4.712   6.076  12.769  1.9696 -0.4696  1.1812
 2372TIP3    H228532   4.775   6.125  12.641  0.8571  0.1322  0.8461
 2373TIP3   OH228533   6.675   1.531   1.044  0.1291  0.1790 -0.0093
 2373TIP3    H128534   6.628   1.604   1.083 -0.2835  1.1824 -2.1936
 2373TIP3    H228535   6.754   1.521   1.097  0.0018  1.9721  0.5672
 2374TIP3   OH228536   2.068   0.658  11.318 -0.8676 -0.0415  0.4107
 2374TIP3    H128537   2.121   0.585  11.285  0.0052  0.5322  0.5293
 2374TIP3    H228538   2.032   0.626  11.401 -0.6800 -0.4193  0.3479
 2375TIP3   OH228539   2.653   3.570  14.028 -0.2008 -0.9014  0.3439
 2375TIP3    H128540   2.654   3.485  14.071  0.3470 -0.3549  1.4846
 2375TIP3    H228541   2.643   3.633  14.100 -0.7840 -0.0048 -0.4857
 2376TIP3   OH228542   4.229   5.420   3.554 -0.0470  0.0806 -0.4046
 2376TIP3    H128543   4.272   5.504   3.536 -1.2980  0.6274 -0.9668
 2376TIP3    H228544   4.273   5.357   3.498  0.2467  0.5675 -0.7268
 2377TIP3   OH228545   0.726   5.092  16.683  0.3875 -0.4379 -0.5715
 2377TIP3    H128546   0.645   5.144  16.685 -0.5996 -1.9293 -0.0724
 2377TIP3    H228547   0.698   5.007  16.650  1.4915 -1.4035  0.8796
 2378TIP3   OH228548   0.905   4.892  14.798 -0.4417  0.0049 -0.0275
 2378TIP3    H128549   0.835   4.863  14.740  0.3421  1.0248 -1.5660
 2378TIP3    H228550   0.863   4.902  14.883 -2.2060  0.7024 -0.9315
 2379TIP3   OH228551   3.494   2.720   2.935  0.2843 -0.0595 -0.1763
 2379TIP3    H128552   3.466   2.812   2.930  1.3082  0.2039 -2.1701
 2379TIP3    H228553   3.540   2.705   2.852  2.6466 -1.5486  1.2822
 2380TIP3   OH228554   3.422   4.718   0.669  0.0042  0.7950 -0.0321
 2380TIP3    H128555   3.352   4.712   0.735  2.0228  1.1233  2.2773
 2380TIP3    H228556   3.419   4.809   0.640 -1.1591  0.5507 -0.7569
 2381TIP3   OH228557   0.988   5.544   4.704  0.5252 -0.3199  0.0213
 2381TIP3    H128558   0.930   5.618   4.717  0.8943 -0.0245 -0.0160
 2381TIP3    H228559   1.076   5.578   4.720  0.7801 -0.5143 -0.9283
 2382TIP3   OH228560   6.291   0.528  11.752 -0.3491  0.3700  0.4307
 2382TIP3    H128561   6.266   0.463  11.817  0.5438  0.7484  1.1811
 2382TIP3    H228562   6.364   0.488  11.704 -0.6576  0.3030  0.0085
 2383TIP3   OH228563   2.080   4.148  11.889  0.0823  0.3634  0.2216
 2383TIP3    H128564   2.006   4.197  11.925 -0.0673 -0.2303  0.7465
 2383TIP3    H228565   2.118   4.206  11.824  0.8046  1.7760  1.8545
 2384TIP3   OH228566   2.630   5.338   5.332 -0.3246  0.9897  0.2992
 2384TIP3    H128567   2.620   5.254   5.377  1.4367 -0.2053 -1.3680
 2384TIP3    H228568   2.554   5.389   5.360 -1.9461 -1.4510  0.7143
 2385TIP3   OH228569   2.845   3.602   4.324  0.4346 -0.1165  0.0367
 2385TIP3    H128570   2.936   3.592   4.353  0.8828 -0.5792 -1.4739
 2385TIP3    H228571   2.810   3.671   4.380  1.5334 -0.3386  1.0400
 2386TIP3   OH228572   3.297   1.428   0.638  0.3051  0.3548  0.4969
 2386TIP3    H128573   3.372   1.474   0.675 -0.4154  2.6854 -0.7417
 2386TIP3    H228574   3.334   1.350   0.597  2.2763  2.1003 -1.2303
 2387TIP3   OH228575   1.046   6.483  13.780 -0.2271  0.2777 -0.1928
 2387TIP3    H128576   1.131   6.521  13.761 -0.8326  1.4069 -0.7451
 2387TIP3    H228577   1.042   6.404  13.726  0.6130 -0.0043  0.1465
 2388TIP3   OH228578   0.087   3.754  13.100 -0.3465 -0.5632 -0.1914
 2388TIP3    H128579   0.142   3.678  13.120 -0.3826 -0.3562  0.7272
 2388TIP3    H228580   0.146   3.816  13.058 -0.2564 -0.9867 -0.7109
 2389TIP3   OH228581   0.155   5.413   5.675  0.7139  0.5917 -0.3100
 2389TIP3    H128582   0.192   5.375   5.596  2.1763  1.2429  0.0326
 2389TIP3    H228583   0.079   5.462   5.644  0.0566 -0.8200 -1.0181
 2390TIP3   OH228584   3.403   2.062  15.094  0.1764  0.0572 -0.1732
 2390TIP3    H128585   3.419   2.151  15.126  3.5368 -0.3780 -0.2086
 2390TIP3    H228586   3.359   2.074  15.010 -0.2027  1.6270  0.2120
 2391TIP3   OH228587   0.286   1.582  13.972  0.0104  0.1673  0.1998
 2391TIP3    H128588   0.272   1.516  14.039 -0.6550 -0.2668 -0.3567
 2391TIP3    H228589   0.335   1.651  14.017 -0.9672  0.1802  1.3107
 2392TIP3   OH228590   4.168   3.318  13.802 -0.2117  0.4036  0.1080
 2392TIP3    H128591   4.231   3.277  13.743  0.2702  1.8497 -0.4386
 2392TIP3    H228592   4.083   3.294  13.766  0.0368 -0.7118  0.2444
 2393TIP3   OH228593   6.038   4.269   3.838 -0.0658  0.3130  0.5289
 2393TIP3    H128594   6.131   4.250   3.821 -0.4246  0.5112 -2.0109
 2393TIP3    H228595   5.991   4.219   3.772 -1.7021  1.1590  1.0070
 2394TIP3   OH228596   3.640   3.537   1.913  0.1799  0.3590 -0.7156
 2394TIP3    H128597   3.564   3.590   1.938 -0.9308 -1.1203 -0.8386
 2394TIP3    H228598   3.614   3.495   1.831  1.4742  0.4713 -1.2150
 2395TIP3   OH228599   0.621   5.769  15.917  1.2696 -0.2944 -0.1484
 2395TIP3    H128600   0.632   5.751  16.011 -0.4839 -0.8759 -0.0197
 2395TIP3    H228601   0.685   5.838  15.898  2.1861 -0.6994  1.2890
 2396TIP3   OH228602   2.638   4.395  12.683  0.2176  0.1396 -0.4279
 2396TIP3    H128603   2.547   4.418  12.664  0.5085  1.5411 -0.1911
 2396TIP3    H228604   2.687   4.427  12.608  0.7342  1.1217  0.3012
 2397TIP3   OH228605   0.409   5.894  12.521 -0.4039  0.3683  0.0631
 2397TIP3    H128606   0.338   5.832  12.508 -1.6047  1.6047  0.5178
 2397TIP3    H228607   0.464   5.884  12.443 -1.6143  0.0939 -0.7791
 2398TIP3   OH228608   3.850   0.275  12.911 -0.6977  0.0906  0.6656
 2398TIP3    H128609   3.763   0.257  12.946 -0.5005 -0.6683  0.7711
 2398TIP3    H228610   3.833   0.318  12.827 -1.1708  0.1436  0.7830
 2399TIP3   OH228611   1.217   2.093   2.919  0.5763 -0.0124 -0.0583
 2399TIP3    H128612   1.285   2.135   2.867  0.7123  0.8933  0.8145
 2399TIP3    H228613   1.165   2.165   2.954 -0.6901 -0.6809 -0.4999
 2400TIP3   OH228614   1.887   3.515  12.762 -0.4929 -0.2668  0.1749
 2400TIP3    H128615   1.844   3.563  12.691  0.2402  0.4882  0.2348
 2400TIP3    H228616   1.978   3.507  12.735  0.0719  1.0614  1.5367
 2401TIP3   OH228617   4.122   3.632  13.023  0.4748  0.2271 -0.5408
 2401TIP3    H128618   4.202   3.604  13.068 -0.7863 -0.3868  1.4553
 2401TIP3    H228619   4.107   3.563  12.958  1.4083  0.2266 -0.7808
 2402TIP3   OH228620   3.610   2.542  13.329  0.5432  0.2081 -0.5890
 2402TIP3    H128621   3.627   2.622  13.278  1.2303 -0.2037 -1.0078
 2402TIP3    H228622   3.632   2.470  13.270 -0.9580 -0.3276 -0.5456
 2403TIP3   OH228623   2.979   0.721  11.825  0.0665 -0.3262 -0.0290
 2403TIP3    H128624   3.026   0.684  11.750  0.4750 -1.9336  0.9631
 2403TIP3    H228625   2.888   0.695  11.810  0.2370 -1.1384  0.2967
 2404TIP3   OH228626   5.667   3.676   3.247  0.2085 -0.2870  0.3241
 2404TIP3    H128627   5.664   3.772   3.248 -1.2185 -0.3141  0.4782
 2404TIP3    H228628   5.680   3.652   3.338 -0.8968 -0.2437  0.5136
 2405TIP3   OH228629   4.491   4.218  12.510 -0.9501 -0.1187  0.1686
 2405TIP3    H128630   4.408   4.198  12.553 -0.6022  0.2403  1.0288
 2405TIP3    H228631   4.556   4.214  12.581 -0.1973 -0.6522 -0.5388
 2406TIP3   OH228632   2.450   5.224  14.379  0.4387 -0.8515 -0.8038
 2406TIP3    H128633   2.391   5.236  14.453  1.3217 -1.0419 -0.0424
 2406TIP3    H228634   2.393   5.219  14.303 -0.5383 -1.2488 -0.0678
 2407TIP3   OH228635   2.164   1.196   2.161 -0.1122  0.2556  0.3439
 2407TIP3    H128636   2.244   1.190   2.213  0.0887  0.1664  0.0223
 2407TIP3    H228637   2.101   1.142   2.209  0.4901 -1.0515 -0.2848
 2408TIP3   OH228638   2.872   6.288   3.736 -0.3884  0.2405  0.3211
 2408TIP3    H128639   2.869   6.370   3.785  0.5879 -0.6255  1.9202
 2408TIP3    H228640   2.855   6.220   3.801 -0.3369 -0.8997 -0.8034
 2409TIP3   OH228641   5.018   0.456   5.639  0.2542  0.2500 -0.5426
 2409TIP3    H128642   5.045   0.505   5.561 -0.1784  1.4723  0.0476
 2409TIP3    H228643   4.983   0.522   5.698  0.2137 -0.7041  0.5473
 2410TIP3   OH228644   0.979   2.106   1.514  0.3313  0.2883  0.0320
 2410TIP3    H128645   0.940   2.142   1.434  1.0198 -0.9231 -0.8772
 2410TIP3    H228646   0.930   2.024   1.529  1.5289 -0.5105 -0.3053
 2411TIP3   OH228647   3.830   3.361  13.698 -0.4330  0.0566  0.2529
 2411TIP3    H128648   3.821   3.366  13.603  3.3075  0.3869 -0.2454
 2411TIP3    H228649   3.875   3.278  13.713  0.5937  0.8191  1.5423
 2412TIP3   OH228650   1.698   6.088   2.415  0.3301  0.0112  0.1523
 2412TIP3    H128651   1.672   6.177   2.439 -2.5779 -0.6639 -0.1535
 2412TIP3    H228652   1.793   6.094   2.400  0.1145  3.2134 -0.6459
 2413TIP3   OH228653   4.228   2.545  11.370 -0.0546 -0.1190 -0.5130
 2413TIP3    H128654   4.147   2.547  11.421 -0.6808  0.1271 -1.4857
 2413TIP3    H228655   4.257   2.636  11.366  0.8649 -0.3392  0.7288
 2414TIP3   OH228656   4.124   1.075  16.566  0.3217  0.0474 -0.1360
 2414TIP3    H128657   4.053   1.011  16.563  0.7709 -0.5918  1.6512
 2414TIP3    H228658   4.081   1.160  16.557 -0.7676 -0.2831  1.4948
 2415TIP3   OH228659   0.954   4.738   5.822 -0.0991  0.3675 -0.8497
 2415TIP3    H128660   1.016   4.666   5.832  0.0811  0.4604 -1.2478
 2415TIP3    H228661   0.944   4.775   5.909  1.7228  1.4296 -1.0492
 2416TIP3   OH228662   2.902   1.734  14.848 -0.6554 -0.2620 -0.3211
 2416TIP3    H128663   2.892   1.707  14.757  1.1106  1.6346 -1.1566
 2416TIP3    H228664   2.952   1.816  14.843  0.6134 -0.7668  2.4034
 2417TIP3   OH228665   5.836   0.896  12.160 -0.2394 -0.5105 -0.4397
 2417TIP3    H128666   5.834   0.977  12.109  2.8127 -0.2691 -0.3473
 2417TIP3    H228667   5.872   0.831  12.100 -0.3225 -1.1969  0.2396
 2418TIP3   OH228668   2.681   0.727  11.994  0.0477 -0.3220 -0.1520
 2418TIP3    H128669   2.622   0.767  11.931  0.4890 -0.1948 -0.4854
 2418TIP3    H228670   2.759   0.782  11.993  0.6135 -1.1132 -0.5272
 2419TIP3   OH228671   1.919   2.354  11.423  0.4395 -0.3112  0.2863
 2419TIP3    H128672   1.935   2.447  11.403  2.0683 -0.6656 -0.1977
 2419TIP3    H228673   1.875   2.321  11.345  1.6775 -0.3847 -0.4051
 2420TIP3   OH228674   5.657   3.267   4.083  0.1602 -0.3578  0.5742
 2420TIP3    H128675   5.661   3.181   4.042 -0.2198  0.6827 -1.7841
 2420TIP3    H228676   5.582   3.262   4.142  0.6184 -1.8565  1.0699
 2421TIP3   OH228677   2.425   0.331  15.248  0.1331  0.2054  0.3901
 2421TIP3    H128678   2.476   0.307  15.170 -1.1352  1.1112 -0.7706
 2421TIP3    H228679   2.407   0.247  15.291 -1.0821 -0.6205 -1.5729
 2422TIP3   OH228680   2.643   3.510  15.090 -0.1788 -0.0123 -0.3886
 2422TIP3    H128681   2.731   3.472  15.091  0.9940  2.4915 -1.1702
 2422TIP3    H228682   2.613   3.502  15.181  1.8758  1.2117  0.4598
 2423TIP3   OH228683   5.810   5.965   0.390 -0.5212 -0.6061 -0.0855
 2423TIP3    H128684   5.819   5.973   0.295  1.8201 -0.1917  0.1146
 2423TIP3    H228685   5.824   6.053   0.423 -4.4231 -0.0537  0.5853
 2424TIP3   OH228686   4.885   5.147   2.168 -0.3250 -0.1171 -0.0118
 2424TIP3    H128687   4.834   5.095   2.106 -0.1364  1.9612 -2.0351
 2424TIP3    H228688   4.962   5.093   2.188 -0.1384 -0.6662 -2.0041
 2425TIP3   OH228689   3.327   5.805   0.929 -0.3266 -0.1994 -0.1003
 2425TIP3    H128690   3.364   5.784   1.015 -1.8027 -0.3377  0.5225
 2425TIP3    H228691   3.352   5.897   0.915  0.2258 -0.2783  0.3069
 2426TIP3   OH228692   2.928   1.990   0.448  0.6461 -0.3036  0.2133
 2426TIP3    H128693   2.880   2.043   0.385  2.8999  1.3416 -0.2703
 2426TIP3    H228694   2.873   1.988   0.526 -0.6356  0.6028 -0.6408
 2427TIP3   OH228695   4.025   2.759  14.140 -0.1681 -0.5943  0.3530
 2427TIP3    H128696   3.942   2.729  14.178 -0.8955 -2.4447 -2.4077
 2427TIP3    H228697   4.080   2.681  14.139  1.1123  0.2797  0.8113
 2428TIP3   OH228698   0.129   2.842   0.727 -0.5085 -0.1339  0.7402
 2428TIP3    H128699   0.191   2.778   0.691 -0.5741  0.8329 -1.2312
 2428TIP3    H228700   0.183   2.901   0.778 -0.1004 -0.4588  0.6927
 2429TIP3   OH228701   0.190   1.571   5.491  0.3493 -0.5288  0.2694
 2429TIP3    H128702   0.270   1.524   5.468  1.3402  1.1232  0.1181
 2429TIP3    H228703   0.162   1.611   5.409  0.8675  1.0019  0.7897
 2430TIP3   OH228704   2.558   5.595  17.211  0.5155  0.2882  0.1466
 2430TIP3    H128705   2.508   5.554  17.282 -0.9665 -1.2311 -1.6494
 2430TIP3    H228706   2.492   5.642  17.159  1.6511  1.8750  0.0861
 2431TIP3   OH228707   2.931   2.691  14.520 -0.1415 -0.2399  0.5214
 2431TIP3    H128708   2.889   2.680  14.605 -0.4275 -2.1556  0.1778
 2431TIP3    H228709   3.012   2.642  14.526 -1.0665 -2.0653 -0.8764
 2432TIP3   OH228710   5.381   4.180  14.939 -0.2621 -0.1350 -0.4522
 2432TIP3    H128711   5.450   4.212  14.882  1.1952  2.0420  2.2848
 2432TIP3    H228712   5.422   4.110  14.991 -0.1914  0.8126  0.8288
 2433TIP3   OH228713   5.069   6.034  15.686  0.5864 -0.0768 -0.4593
 2433TIP3    H128714   5.137   5.997  15.743  1.7487  1.6915 -0.6178
 2433TIP3    H228715   5.018   6.092  15.744 -1.4670 -2.0751 -0.1155
 2434TIP3   OH228716   1.126   1.574  13.546  0.8186 -0.2041  0.3297
 2434TIP3    H128717   1.181   1.631  13.600 -0.9904  0.3334  1.7171
 2434TIP3    H228718   1.083   1.517  13.609  0.8513 -1.5789 -0.8516
 2435TIP3   OH228719   0.325   4.653   3.090 -0.0057  0.0077  0.2264
 2435TIP3    H128720   0.303   4.745   3.078 -0.1791 -0.1914 -1.1571
 2435TIP3    H228721   0.305   4.635   3.182 -1.8424  0.8355  0.0171
 2436TIP3   OH228722   6.017   2.726  15.100 -0.1301  0.2017  0.4605
 2436TIP3    H128723   6.111   2.739  15.114 -0.1403  0.2975  0.4438
 2436TIP3    H228724   5.978   2.732  15.187 -0.2112  0.9438  0.3801
 2437TIP3   OH228725   5.145   5.186  16.133  0.5654 -0.1973 -0.5474
 2437TIP3    H128726   5.102   5.258  16.177  1.0601  0.1534 -0.6249
 2437TIP3    H228727   5.205   5.150  16.199  0.1818 -0.6595 -0.4482
 2438TIP3   OH228728   2.725   4.670   2.938 -0.0698 -0.3171 -0.2953
 2438TIP3    H128729   2.685   4.585   2.954  3.6006 -2.2140 -0.1224
 2438TIP3    H228730   2.766   4.661   2.852  0.9313  1.0407  0.0153
 2439TIP3   OH228731   0.306   4.588   4.791 -0.6890 -0.0911  0.1174
 2439TIP3    H128732   0.333   4.561   4.879 -0.9946  2.4098  1.0615
 2439TIP3    H228733   0.388   4.591   4.741 -0.7557 -3.8765 -0.5216
 2440TIP3   OH228734   2.724   3.089  15.928 -0.3137 -0.2489  0.4320
 2440TIP3    H128735   2.706   3.006  15.972  1.7456 -0.5335  0.8532
 2440TIP3    H228736   2.765   3.064  15.845 -0.2033  0.3355  0.3031
 2441TIP3   OH228737   6.613   3.387  13.182 -0.1981  0.3693  0.1817
 2441TIP3    H128738   6.696   3.383  13.230 -0.3690 -0.6547  0.4177
 2441TIP3    H228739   6.565   3.458  13.224  0.2040  0.3822  0.6340
 2442TIP3   OH228740   5.715   1.136  16.138 -0.0290  0.3928  0.7021
 2442TIP3    H128741   5.796   1.170  16.100 -0.7087 -0.2966 -1.5095
 2442TIP3    H228742   5.713   1.044  16.112 -3.1054  1.1243 -2.4047
 2443TIP3   OH228743   0.831   1.707   4.973  0.3657  0.2321 -0.3463
 2443TIP3    H128744   0.816   1.677   5.062 -1.9566  1.0681 -0.3758
 2443TIP3    H228745   0.859   1.798   4.982 -3.1593  1.4873 -0.4059
 2444TIP3   OH228746   5.304   5.537  15.029  0.2025 -0.6527 -0.3950
 2444TIP3    H128747   5.365   5.470  15.060 -0.3394 -1.8166 -1.7141
 2444TIP3    H228748   5.355   5.590  14.967  0.6804  0.3091  0.7793
 2445TIP3   OH228749   5.409   0.402  11.321 -0.1306 -0.0301 -0.2922
 2445TIP3    H128750   5.462   0.475  11.290 -0.3413 -0.2418 -1.1803
 2445TIP3    H228751   5.421   0.333  11.255 -0.2144 -0.6739  0.3431
 2446TIP3   OH228752   3.617   6.042   6.572  0.0474 -0.2856  0.5993
 2446TIP3    H128753   3.644   5.998   6.652 -2.6483 -0.9048  1.2715
 2446TIP3    H228754   3.544   5.991   6.539  0.6078  0.3680 -1.9169
 2447TIP3   OH228755   0.070   3.949  17.048 -0.0037 -0.5473 -0.2093
 2447TIP3    H128756   0.111   3.867  17.075 -1.1122 -1.9521 -2.4801
 2447TIP3    H228757   0.141   4.014  17.051  0.6571 -1.2486  2.6591
 2448TIP3   OH228758   4.661   0.717  11.434  0.2263  0.0134 -0.3705
 2448TIP3    H128759   4.658   0.802  11.477  2.0291 -0.1348  0.1383
 2448TIP3    H228760   4.754   0.701  11.418  0.0879 -2.3991  0.6978
 2449TIP3   OH228761   5.794   3.176   3.636  0.0457 -0.2965  0.0911
 2449TIP3    H128762   5.864   3.200   3.697  1.7170 -2.8981 -0.6909
 2449TIP3    H228763   5.817   3.221   3.555  0.4562 -0.6124  0.0287
 2450TIP3   OH228764   2.296   3.572  15.537 -0.7189 -0.3970 -0.3360
 2450TIP3    H128765   2.241   3.543  15.609 -0.6850  0.7858  0.1859
 2450TIP3    H228766   2.260   3.657  15.511  0.9552  0.5150  0.1618
 2451TIP3   OH228767   3.336   2.867   5.675  0.5471  0.4361 -0.5827
 2451TIP3    H128768   3.257   2.823   5.642 -0.4652 -0.0544  2.2493
 2451TIP3    H228769   3.405   2.802   5.665 -0.1964 -0.5152  0.2615
 2452TIP3   OH228770   2.802   4.911   5.805 -0.0887  0.3518 -0.3436
 2452TIP3    H128771   2.728   4.883   5.859 -0.3871  1.1743 -0.2998
 2452TIP3    H228772   2.825   4.835   5.753 -0.8381  0.0238 -0.2039
 2453TIP3   OH228773   6.308   3.637  16.483 -0.0394  0.2417  0.1834
 2453TIP3    H128774   6.331   3.730  16.492 -1.8471  0.5801  1.9930
 2453TIP3    H228775   6.318   3.601  16.571 -0.1416 -1.0960 -0.3287
 2454TIP3   OH228776   4.523   5.256  16.143 -0.0308 -0.2759 -0.1822
 2454TIP3    H128777   4.514   5.331  16.202  0.1204 -0.4774  0.0969
 2454TIP3    H228778   4.442   5.257  16.091 -0.9898 -1.1215  1.2121
 2455TIP3   OH228779   3.957   1.035  12.375 -0.7341  0.2232  0.3142
 2455TIP3    H128780   3.935   1.127  12.391 -0.0251  0.4851 -0.1553
 2455TIP3    H228781   4.041   1.038  12.330  1.1984 -0.7842  3.5441
 2456TIP3   OH228782   3.564   1.528   3.870 -0.5457  0.5425 -0.2031
 2456TIP3    H128783   3.639   1.473   3.853 -0.3086  0.2308  1.6136
 2456TIP3    H228784   3.506   1.474   3.924 -1.3415  1.3065 -0.2619
 2457TIP3   OH228785   1.905   1.084  16.805  0.0282 -0.3646  0.1120
 2457TIP3    H128786   1.884   1.063  16.714 -0.0225  0.2886 -0.0325
 2457TIP3    H228787   1.849   1.026  16.857  0.6390 -1.3157 -0.2621
 2458TIP3   OH228788   2.273   3.811  10.448  0.4307 -0.2384  0.2377
 2458TIP3    H128789   2.183   3.780  10.439 -0.3865  1.6288  1.5501
 2458TIP3    H228790   2.325   3.730  10.454 -1.3910 -1.3939  1.6837
 2459TIP3   OH228791   0.293   6.380  11.851  0.0136 -0.0224  0.3626
 2459TIP3    H128792   0.205   6.360  11.883 -0.3734 -0.4720 -0.9208
 2459TIP3    H228793   0.326   6.446  11.912 -0.5558 -1.0444  1.8491
 2460TIP3   OH228794   0.406   6.741  13.771 -0.3066 -0.2069  0.7935
 2460TIP3    H128795   0.423   6.781  13.686 -0.2721 -0.9524  0.4402
 2460TIP3    H228796   0.492   6.737  13.813 -0.2355 -0.3341  0.6369
 2461TIP3   OH228797   4.249   1.406  16.108  0.2345 -0.1712  0.7019
 2461TIP3    H128798   4.293   1.345  16.049 -1.3027  1.5455 -2.4959
 2461TIP3    H228799   4.319   1.443  16.162  1.8097 -1.5283 -0.3319
 2462TIP3   OH228800   4.903   5.254   2.859  0.4724  0.4365 -0.6603
 2462TIP3    H128801   4.850   5.182   2.826 -0.8966  1.5970 -1.0791
 2462TIP3    H228802   4.859   5.333   2.827  1.4820  1.4853  0.4494
 2463TIP3   OH228803   1.811   1.969   0.945 -0.2501  0.3888  0.4292
 2463TIP3    H128804   1.758   2.042   0.912  1.7367  2.3393  1.2700
 2463TIP3    H228805   1.809   1.904   0.875 -2.2121  1.1535 -0.2895
 2464TIP3   OH228806   5.161   5.025  16.395  0.3672  0.1896 -0.6792
 2464TIP3    H128807   5.105   4.974  16.336  0.7586  0.8306 -1.6187
 2464TIP3    H228808   5.240   4.972  16.404  1.1597  1.0182 -2.4013
 2465TIP3   OH228809   3.706   0.850  16.044  0.7490 -0.4900 -0.0653
 2465TIP3    H128810   3.740   0.772  16.086 -1.2896 -1.1607  0.4592
 2465TIP3    H228811   3.628   0.820  15.997  0.2609  1.1211 -0.3452
 2466TIP3   OH228812   4.328   4.587   3.079  0.0086  0.2182 -0.1368
 2466TIP3    H128813   4.272   4.636   3.140  0.1810 -0.0352  0.2307
 2466TIP3    H228814   4.328   4.640   2.999  0.4187  0.9678  0.3478
 2467TIP3   OH228815   6.727   0.063  12.114 -0.0340  0.6263  0.4009
 2467TIP3    H128816   6.687   0.016  12.187 -0.7807  0.1334 -0.2939
 2467TIP3    H228817   6.657   0.070  12.049  1.5849 -2.8723 -2.1299
 2468TIP3   OH228818   4.718   0.438   0.844 -0.3360 -0.1233 -0.1064
 2468TIP3    H128819   4.671   0.502   0.899 -1.1564 -0.9933  0.2252
 2468TIP3    H228820   4.656   0.366   0.832  0.3111 -0.5314 -1.1030
 2469TIP3   OH228821   0.316   2.485   6.341  0.4562  0.1263  0.3197
 2469TIP3    H128822   0.327   2.525   6.427  0.2895  2.2022 -0.5545
 2469TIP3    H228823   0.259   2.546   6.293 -0.1496 -1.4012 -0.9881
 2470TIP3   OH228824   2.698   2.235   3.084  0.1052  0.3152 -0.3816
 2470TIP3    H128825   2.632   2.216   3.017 -0.0243 -0.3595 -0.0714
 2470TIP3    H228826   2.741   2.315   3.053 -0.7162  0.6504 -0.6890
 2471TIP3   OH228827   2.203   5.472  12.234  0.0059 -0.1993 -0.3338
 2471TIP3    H128828   2.113   5.496  12.212 -0.6674 -0.4523  1.8945
 2471TIP3    H228829   2.193   5.396  12.293  1.5580  0.8145  1.3174
 2472TIP3   OH228830   2.987   6.414  16.281  0.6238 -0.2317 -0.3313
 2472TIP3    H128831   3.010   6.448  16.367  0.6350  0.4289 -0.5883
 2472TIP3    H228832   3.051   6.453  16.222  0.3389 -0.3223 -0.7025
 2473TIP3   OH228833   2.183   3.442   5.367  0.2324 -0.8052  0.0837
 2473TIP3    H128834   2.209   3.534   5.374 -0.6585 -0.6095  1.1273
 2473TIP3    H228835   2.212   3.403   5.449  2.1994 -1.9105 -1.0678
 2474TIP3   OH228836   4.324   4.084  15.427 -0.1965  0.0926  0.7651
 2474TIP3    H128837   4.250   4.135  15.395 -0.7654 -0.9213  0.3916
 2474TIP3    H228838   4.398   4.144  15.425 -0.7341  0.7483 -0.1237
 2475TIP3   OH228839   2.519   6.200   0.165  0.2400  0.0464 -0.0329
 2475TIP3    H128840   2.499   6.234   0.077 -0.2576  2.7847  1.0467
 2475TIP3    H228841   2.612   6.221   0.178  0.3712 -0.5521  0.0448
 2476TIP3   OH228842   1.288   4.229   3.263 -0.2062 -0.2720  0.5147
 2476TIP3    H128843   1.242   4.239   3.347 -1.2146  3.5917 -0.3082
 2476TIP3    H228844   1.377   4.260   3.282 -0.0913 -0.5567  0.4363
 2477TIP3   OH228845   1.519   1.958   1.843 -0.1342 -0.8289 -0.3902
 2477TIP3    H128846   1.586   1.932   1.779  0.7339 -1.3649  0.7111
 2477TIP3    H228847   1.441   1.909   1.817 -0.6511  1.0120 -2.6674
 2478TIP3   OH228848   4.894   4.591  12.743 -0.4254  0.4805 -0.5611
 2478TIP3    H128849   4.946   4.619  12.668 -1.4680 -0.2274 -1.5843
 2478TIP3    H228850   4.809   4.632  12.730 -0.6173  0.3647  0.2639
 2479TIP3   OH228851   0.379   4.499  13.523 -0.3972  0.0502 -0.0524
 2479TIP3    H128852   0.367   4.591  13.545 -0.2059 -0.5244  2.8110
 2479TIP3    H228853   0.290   4.465  13.511 -0.5267  0.3372  0.0963
 2480TIP3   OH228854   0.726   2.594  11.761 -0.1368 -0.5853 -0.2795
 2480TIP3    H128855   0.776   2.575  11.682  1.3415 -0.5214  0.5990
 2480TIP3    H228856   0.668   2.518  11.772  1.3147 -1.7167 -0.1722
 2481TIP3   OH228857   6.360   2.075  11.476  0.3328  0.1025 -0.6615
 2481TIP3    H128858   6.287   2.086  11.537 -0.2675 -1.6161 -0.9933
 2481TIP3    H228859   6.438   2.074  11.531 -0.0214  0.5696 -0.1473
 2482TIP3   OH228860   1.736   3.775   2.331 -0.2242  0.5841 -0.3353
 2482TIP3    H128861   1.650   3.746   2.300  0.5261 -0.7126 -1.2768
 2482TIP3    H228862   1.792   3.698   2.325  0.6331  0.9579  1.8593
 2483TIP3   OH228863   3.429   4.129  11.637  0.1603  0.2930  0.8800
 2483TIP3    H128864   3.360   4.073  11.599  1.4693 -0.4310 -0.5196
 2483TIP3    H228865   3.413   4.215  11.599  0.7606 -0.1621 -0.4628
 2484TIP3   OH228866   4.489   3.159   3.601 -0.4653  0.0754 -0.6886
 2484TIP3    H128867   4.478   3.184   3.510 -1.0809 -1.5411 -1.0921
 2484TIP3    H228868   4.527   3.071   3.598  0.3849  0.3603  0.6280
 2485TIP3   OH228869   3.215   3.747   6.039 -0.2918 -0.0478  0.0383
 2485TIP3    H128870   3.214   3.705   5.953 -0.8361  2.2784 -1.1871
 2485TIP3    H228871   3.146   3.703   6.089 -1.1780 -0.2863 -1.3411
 2486TIP3   OH228872   2.438   2.025   5.554  0.0665  0.1513  0.4877
 2486TIP3    H128873   2.518   2.078   5.544  0.8992 -1.4316 -2.4315
 2486TIP3    H228874   2.368   2.084   5.525  0.5631  0.6124  0.1902
 2487TIP3   OH228875   2.101   5.692  16.816 -0.1302  0.6378  0.3673
 2487TIP3    H128876   2.017   5.702  16.770  0.3531  0.7082 -0.5304
 2487TIP3    H228877   2.089   5.615  16.872 -0.7272  0.5234  0.0914
 2488TIP3   OH228878   1.913   5.823  11.142  0.0300  0.7060  0.2342
 2488TIP3    H128879   1.977   5.876  11.095  1.9884 -1.3959  0.4006
 2488TIP3    H228880   1.844   5.805  11.078  0.5232  1.4531 -0.5108
 2489TIP3   OH228881   5.110   5.714  11.082  0.2135 -0.0191  0.1422
 2489TIP3    H128882   5.105   5.760  11.166 -0.5865 -0.4042  0.3127
 2489TIP3    H228883   5.113   5.621  11.104 -0.1052 -0.1292 -0.2558
 2490TIP3   OH228884   2.589   6.349  12.584  0.2207 -0.7091 -0.2005
 2490TIP3    H128885   2.666   6.292  12.592 -1.3477 -2.7430  1.4994
 2490TIP3    H228886   2.609   6.423  12.640  0.5870 -1.6909  1.0076
 2491TIP3   OH228887   2.481   1.608   3.487 -0.0123 -0.7901 -0.1990
 2491TIP3    H128888   2.528   1.565   3.558  3.0504  0.2063 -1.4714
 2491TIP3    H228889   2.446   1.536   3.435  0.3433 -1.5999  0.6460
 2492TIP3   OH228890   4.004   1.295   3.769 -0.1367 -0.2928  0.1136
 2492TIP3    H128891   4.060   1.361   3.812  0.6635 -1.1630  0.4387
 2492TIP3    H228892   4.009   1.219   3.826 -2.2755 -0.1806  0.5464
 2493TIP3   OH228893   4.484   1.898   1.894  0.2943 -0.0186  0.3465
 2493TIP3    H128894   4.522   1.859   1.973  0.6985  0.9690  0.6564
 2493TIP3    H228895   4.490   1.829   1.828  0.6172 -0.6166  0.9840
 2494TIP3   OH228896   2.335   3.661  14.255 -0.2601 -0.0673  0.2199
 2494TIP3    H128897   2.294   3.667  14.341 -0.6097 -0.2465  0.0690
 2494TIP3    H228898   2.275   3.707  14.196 -0.5080 -0.7726 -0.0896
 2495TIP3   OH228899   3.447   3.624  16.362 -0.1201 -0.2098  0.3359
 2495TIP3    H128900   3.531   3.670  16.358 -0.7184  0.8499 -0.6126
 2495TIP3    H228901   3.455   3.555  16.297 -0.0126 -0.0449  0.1720
 2496TIP3   OH228902   0.230   6.035   3.505 -0.4870  0.3891  0.0744
 2496TIP3    H128903   0.154   5.979   3.517  0.5155 -0.8045  1.1464
 2496TIP3    H228904   0.195   6.124   3.505 -1.7988 -0.0973  1.2645
 2497TIP3   OH228905   3.005   0.464  14.391  0.1037  0.1812 -0.2806
 2497TIP3    H128906   3.040   0.552  14.378  1.5719 -0.5196 -1.4619
 2497TIP3    H228907   2.928   0.476  14.446  0.8865  2.0808  0.4768
 2498TIP3   OH228908   4.510   0.053  14.078 -0.2218 -0.7045 -0.3955
 2498TIP3    H128909   4.550  -0.027  14.111  1.4836 -0.1044 -0.8936
 2498TIP3    H228910   4.583   0.104  14.044 -1.0028  1.7696  1.2977
 2499TIP3   OH228911   5.227   2.563  16.109  0.3479  0.3214 -0.2038
 2499TIP3    H128912   5.244   2.566  16.015  2.1994  1.8754  0.1190
 2499TIP3    H228913   5.247   2.473  16.134  2.9598  0.6414 -0.8439
 2500TIP3   OH228914   0.785   2.220  15.209 -0.5735  0.9951 -0.6171
 2500TIP3    H128915   0.845   2.218  15.134 -0.8256 -1.9829 -0.8376
 2500TIP3    H228916   0.842   2.244  15.283  0.8636 -1.1086 -0.9346
 2501TIP3   OH228917   5.330   2.256  13.892  0.3668 -0.6517  0.1635
 2501TIP3    H128918   5.353   2.221  13.978  0.5265  1.0603  0.8564
 2501TIP3    H228919   5.271   2.191  13.854  0.1173 -1.3188  1.6578
 2502TIP3   OH228920   4.611   4.253   0.293 -0.1489  0.3937 -0.1315
 2502TIP3    H128921   4.521   4.221   0.290 -0.7987  1.8619  1.7527
 2502TIP3    H228922   4.661   4.182   0.333 -0.4065 -0.4770 -1.3077
 2503TIP3   OH228923   2.898   0.475   5.668  0.5201 -0.1176 -0.2483
 2503TIP3    H128924   2.935   0.392   5.698 -0.0675 -0.3899 -0.2593
 2503TIP3    H228925   2.968   0.516   5.617  1.2911  0.0253  0.8812
 2504TIP3   OH228926   1.902   2.762  16.817 -0.4612 -0.2000 -0.0910
 2504TIP3    H128927   1.989   2.777  16.856 -0.2376  0.4084 -0.8027
 2504TIP3    H228928   1.892   2.667  16.818 -0.3555 -0.2189  1.2165
 2505TIP3   OH228929   3.363   2.148  11.934 -0.2485 -0.1789  0.5051
 2505TIP3    H128930   3.285   2.103  11.966 -0.0246 -0.6114  0.4436
 2505TIP3    H228931   3.390   2.204  12.007 -0.9685  0.4397  0.3120
 2506TIP3   OH228932   4.446   1.144   1.584  0.0501  0.0365 -0.3604
 2506TIP3    H128933   4.361   1.128   1.542  0.5053  0.0135 -1.3114
 2506TIP3    H228934   4.483   1.057   1.595 -0.9743 -0.1543  2.1417
 2507TIP3   OH228935   1.727   4.394   5.050 -0.2444  0.5678  0.6692
 2507TIP3    H128936   1.634   4.411   5.066 -0.2455  0.2281  1.0486
 2507TIP3    H228937   1.729   4.325   4.984 -0.2643  0.5686  0.6680
 2508TIP3   OH228938   2.550   4.180  15.798 -0.1292 -0.4816 -0.1364
 2508TIP3    H128939   2.567   4.099  15.750  0.6277 -0.1602 -0.4370
 2508TIP3    H228940   2.565   4.249  15.734  0.8180 -0.0476  0.5286
 2509TIP3   OH228941   2.249   2.426   2.117 -0.7039 -0.1104 -0.0751
 2509TIP3    H128942   2.281   2.340   2.145 -2.7443 -0.6194  0.8572
 2509TIP3    H228943   2.199   2.409   2.038 -0.4526  0.3430 -0.3371
 2510TIP3   OH228944   6.233   6.417  13.191 -0.0068  0.1380 -0.2846
 2510TIP3    H128945   6.174   6.343  13.176  0.2033 -0.1426  0.2653
 2510TIP3    H228946   6.190   6.491  13.147 -0.0689 -0.3674 -1.0977
 2511TIP3   OH228947   2.996   6.097  13.391  0.1141 -0.6161 -0.2890
 2511TIP3    H128948   3.001   6.193  13.383  3.4352 -0.5216  1.3618
 2511TIP3    H228949   2.920   6.073  13.337  0.1184  2.7678 -2.1052
 2512TIP3   OH228950   4.303   2.282  14.823 -0.4196  0.1844 -0.3499
 2512TIP3    H128951   4.346   2.228  14.889 -1.3956  0.7965  0.8497
 2512TIP3    H228952   4.250   2.221  14.772  1.1447 -0.4470 -1.2907
 2513TIP3   OH228953   3.862   0.327   5.569  0.4221 -0.3621  0.2870
 2513TIP3    H128954   3.830   0.246   5.530  1.4629 -0.2686 -0.7972
 2513TIP3    H228955   3.951   0.307   5.598  0.7318  0.4170 -0.0968
 2514TIP3   OH228956   4.394   3.100  13.371  0.5427  0.0547  0.7257
 2514TIP3    H128957   4.424   3.080  13.460 -1.9386  0.1027  1.6473
 2514TIP3    H228958   4.393   3.016  13.326  1.7233  0.0138  0.7436
 2515TIP3   OH228959   2.350   4.477  16.042  0.4723  0.5111  0.2710
 2515TIP3    H128960   2.262   4.500  16.072 -0.1603 -1.9278  0.4627
 2515TIP3    H228961   2.373   4.546  15.980 -0.9635  1.9692  1.2814
 2516TIP3   OH228962   5.486   5.664  15.778 -0.4974 -0.5985 -0.0215
 2516TIP3    H128963   5.491   5.752  15.741  0.4815 -0.8972 -0.6318
 2516TIP3    H228964   5.533   5.670  15.861 -2.8801  0.1259  1.3556
 2517TIP3   OH228965   5.134   4.563   5.338  0.0029  0.3070 -0.6399
 2517TIP3    H128966   5.094   4.500   5.277 -0.8400  0.2918 -0.0880
 2517TIP3    H228967   5.192   4.616   5.283 -1.4700  0.9315 -1.6593
 2518TIP3   OH228968   6.130   1.411  10.963 -0.6825  0.8346  0.0793
 2518TIP3    H128969   6.128   1.400  10.868  1.6062 -0.9952  0.1431
 2518TIP3    H228970   6.040   1.394  10.991 -1.0018 -0.5706 -1.6160
 2519TIP3   OH228971   3.823   6.679   4.440 -0.0514  0.1948 -0.5985
 2519TIP3    H128972   3.894   6.617   4.423 -0.3946  0.0787 -1.6405
 2519TIP3    H228973   3.825   6.691   4.535  1.5528  0.4315 -0.6361
 2520TIP3   OH228974   4.951   0.223   1.447  0.6710 -0.0270 -0.1375
 2520TIP3    H128975   5.043   0.195   1.444  0.8235  0.5425 -1.0912
 2520TIP3    H228976   4.955   0.319   1.444  0.0167 -0.0186 -1.7748
 2521TIP3   OH228977   4.666   4.442   5.030  0.3346  0.2444 -0.1536
 2521TIP3    H128978   4.593   4.415   5.086 -0.3123 -1.1061 -1.5794
 2521TIP3    H228979   4.728   4.369   5.036  0.0802 -0.1078 -1.4504
 2522TIP3   OH228980   1.950   3.777  17.133 -0.0637  0.3362  0.4668
 2522TIP3    H128981   2.031   3.761  17.181  1.1509 -1.7826 -2.0284
 2522TIP3    H228982   1.952   3.871  17.115  1.8469  0.3561  0.5019
 2523TIP3   OH228983   0.234   6.168   5.172  0.3701  0.3215  0.0929
 2523TIP3    H128984   0.263   6.199   5.258  1.3426 -0.1312 -0.0619
 2523TIP3    H228985   0.204   6.079   5.188 -0.8606  0.7405  0.2270
 2524TIP3   OH228986   4.169   4.374  11.082  0.4074 -0.1428 -0.2070
 2524TIP3    H128987   4.238   4.384  11.148 -1.8397  0.9546  2.1549
 2524TIP3    H228988   4.139   4.284  11.092 -0.5337  0.2759  1.0027
 2525TIP3   OH228989   3.829   0.354  13.414  0.0957 -0.0667 -0.2327
 2525TIP3    H128990   3.821   0.259  13.414 -0.0094 -0.0994  1.7751
 2525TIP3    H228991   3.775   0.383  13.488 -0.6324  1.6468 -1.3648
 2526TIP3   OH228992   4.458   1.215   4.775  0.2183  0.3442  0.4200
 2526TIP3    H128993   4.538   1.257   4.743  0.2289  1.7270  2.1054
 2526TIP3    H228994   4.389   1.250   4.719  0.6958 -0.4004 -0.6610
 2527TIP3   OH228995   1.698   5.969  10.874  0.1590 -0.4765 -0.0019
 2527TIP3    H128996   1.678   5.883  10.912  2.5144 -1.1454 -0.1020
 2527TIP3    H228997   1.765   5.950  10.808 -0.0055  1.3360 -0.7331
 2528TIP3   OH228998   1.534   6.207  12.827 -0.6512  0.2128  0.1475
 2528TIP3    H128999   1.531   6.176  12.918  2.8121  0.8172  0.5868
 2528TIP3    H229000   1.590   6.285  12.830 -0.2918  0.1307 -2.5437
 2529TIP3   OH229001   0.384   2.548  16.355  0.6152  0.0057 -0.3160
 2529TIP3    H129002   0.323   2.536  16.428  2.3474  2.5271  1.7325
 2529TIP3    H229003   0.369   2.638  16.326  0.8489 -0.5475 -2.2932
 2530TIP3   OH229004   2.163   1.961   5.259 -0.2199  0.2736 -0.6911
 2530TIP3    H129005   2.196   2.024   5.323 -0.3408 -1.5421  1.2965
 2530TIP3    H229006   2.204   1.986   5.177 -1.1776  3.6423 -0.3290
 2531TIP3   OH229007   5.022   0.234  13.234  0.0088 -0.0816 -0.2066
 2531TIP3    H129008   5.073   0.160  13.201 -0.8725  0.0475 -1.9770
 2531TIP3    H229009   5.074   0.311  13.211  0.7280 -0.0975  1.2676
 2532TIP3   OH229010   5.424   5.567  15.324 -0.1593  0.0503  0.7023
 2532TIP3    H129011   5.362   5.612  15.382 -0.8619  2.0074 -1.4038
 2532TIP3    H229012   5.372   5.498  15.283 -0.4710  0.5369  0.2668
 2533TIP3   OH229013   2.532   1.451  10.913 -0.1068  0.0498  0.3521
 2533TIP3    H129014   2.575   1.451  10.998 -0.6450 -0.1131  0.6290
 2533TIP3    H229015   2.577   1.383  10.863 -0.3651 -0.4535  0.8009
 2534TIP3   OH229016   0.089   4.010   4.941  0.0918  0.1580 -0.3013
 2534TIP3    H129017   0.113   3.934   4.994 -0.5191  0.5250  0.5197
 2534TIP3    H229018  -0.006   4.016   4.951  0.1614  1.1522 -0.1976
 2535TIP3   OH229019   0.481   2.482   2.610 -0.0715 -0.5199 -0.0729
 2535TIP3    H129020   0.443   2.533   2.682 -0.0438  1.5615 -1.4767
 2535TIP3    H229021   0.535   2.544   2.562 -0.4945 -1.7205 -2.2000
 2536TIP3   OH229022   5.062   3.164  11.113  0.2782  0.0834 -0.0945
 2536TIP3    H129023   5.017   3.082  11.134 -0.4940  0.0920 -1.5880
 2536TIP3    H229024   5.082   3.157  11.020 -0.3882  1.8576 -0.3977
 2537TIP3   OH229025   0.665   2.931  10.885 -0.3637  0.1201  0.5741
 2537TIP3    H129026   0.619   2.889  10.957  0.1693 -1.0539  0.2590
 2537TIP3    H229027   0.624   3.017  10.877  0.4238  0.8175  3.1140
 2538TIP3   OH229028   4.937   2.687  12.817  0.2483 -0.1532 -0.5000
 2538TIP3    H129029   5.023   2.672  12.777  1.2176 -0.3394  1.5359
 2538TIP3    H229030   4.955   2.745  12.891 -1.5287  0.5038 -0.5504
 2539TIP3   OH229031   6.455   6.630   2.682 -0.3538  0.0215 -0.5550
 2539TIP3    H129032   6.527   6.690   2.664  0.7460 -0.1980  2.5138
 2539TIP3    H229033   6.480   6.548   2.638  1.4340 -0.1132  0.6446
 2540TIP3   OH229034   1.559   4.351  11.016  0.0029  0.2110  0.3698
 2540TIP3    H129035   1.545   4.256  11.013 -0.3931  0.2721  0.1469
 2540TIP3    H229036   1.507   4.381  11.091  0.5067  0.1924  0.7282
 2541TIP3   OH229037   1.367   5.700  12.878 -0.6844  0.3153 -0.0477
 2541TIP3    H129038   1.407   5.781  12.908  0.4154  0.3902 -1.6271
 2541TIP3    H229039   1.440   5.644  12.853 -1.3919 -1.4265  1.5501
 2542TIP3   OH229040   0.059   3.867   0.201  0.0590  0.3727 -0.0046
 2542TIP3    H129041   0.008   3.937   0.242  0.3238 -0.1507  1.2652
 2542TIP3    H229042   0.019   3.786   0.233  0.5665 -0.0522 -0.4192
 2543TIP3   OH229043   1.722   6.572  11.021 -0.0218 -0.5858  0.4805
 2543TIP3    H129044   1.743   6.493  10.971 -0.6941 -1.3692  1.3712
 2543TIP3    H229045   1.665   6.623  10.963  1.7886  0.0930 -0.7563
 2544TIP3   OH229046   3.397   1.881  14.590  0.7338 -0.1285 -0.4083
 2544TIP3    H129047   3.315   1.835  14.573  0.4976 -0.0904  0.5895
 2544TIP3    H229048   3.371   1.973  14.599  0.6869 -0.2779  1.1961
 2545TIP3   OH229049   4.763   3.261   2.782 -0.4444  0.1765  0.6558
 2545TIP3    H129050   4.753   3.219   2.867  0.6163  1.4851  1.4823
 2545TIP3    H229051   4.674   3.277   2.752 -0.8377 -0.5925  1.3746
 2546TIP3   OH229052   0.905   5.483  15.744 -0.3517 -0.0094  0.0434
 2546TIP3    H129053   0.907   5.398  15.789  1.5277 -1.0797 -1.8582
 2546TIP3    H229054   0.906   5.460  15.651 -0.1720  2.1134 -0.5105
 2547TIP3   OH229055   3.661   0.533  13.155 -0.3736 -0.7056  0.0916
 2547TIP3    H129056   3.719   0.572  13.219  2.0077  0.1508 -2.3884
 2547TIP3    H229057   3.698   0.446  13.139  0.6673  0.0180 -1.8425
 2548TIP3   OH229058   3.153   0.511   2.906 -0.2927 -0.0743  0.0359
 2548TIP3    H129059   3.073   0.460   2.897 -0.7972  0.7413 -0.1159
 2548TIP3    H229060   3.168   0.548   2.819  0.4320 -0.4762 -0.0222
 2549TIP3   OH229061   5.190   0.372  15.387 -0.3150 -0.0871  0.6658
 2549TIP3    H129062   5.183   0.448  15.444  0.2011  1.0274 -0.6884
 2549TIP3    H229063   5.174   0.297  15.444 -1.7980  1.0677  1.8489
 2550TIP3   OH229064   3.990   1.411  17.076  0.1689 -0.2324 -0.3058
 2550TIP3    H129065   3.999   1.355  16.999  0.1517 -0.6622  0.0044
 2550TIP3    H229066   4.008   1.354  17.150 -1.1831 -0.1568  0.1024
 2551TIP3   OH229067   5.196   2.244   0.440 -0.0528 -0.3267 -0.1570
 2551TIP3    H129068   5.274   2.264   0.388 -1.2156  0.2559 -1.7775
 2551TIP3    H229069   5.144   2.324   0.437 -0.9808 -0.8918  0.3922
 2552TIP3   OH229070   6.512   4.821   5.843  0.0524 -0.1548  0.1158
 2552TIP3    H129071   6.459   4.899   5.831  0.7904 -0.0583 -3.7507
 2552TIP3    H229072   6.564   4.839   5.921  0.1179  3.1927 -0.5505
 2553TIP3   OH229073   3.690   5.320   0.309 -0.3057 -0.3254  0.1801
 2553TIP3    H129074   3.639   5.275   0.376  0.7764 -0.4373  0.9631
 2553TIP3    H229075   3.707   5.407   0.346 -2.4908  0.8355 -1.3736
 2554TIP3   OH229076   0.573   5.948   5.276  0.1921 -0.2610  0.0498
 2554TIP3    H129077   0.520   6.013   5.321  1.9392  1.2425  0.0527
 2554TIP3    H229078   0.562   5.868   5.328  0.3316  0.8117  1.8043
 2555TIP3   OH229079   1.220   0.784  14.740  0.1202  0.3555 -0.2297
 2555TIP3    H129080   1.159   0.721  14.701  1.2568 -0.2205 -1.1465
 2555TIP3    H229081   1.299   0.777  14.686  1.2624  0.5401  1.3564
 2556TIP3   OH229082   3.261   6.616   1.782  0.3429 -0.5035 -0.4691
 2556TIP3    H129083   3.214   6.535   1.758 -0.8957  0.6675 -2.2212
 2556TIP3    H229084   3.322   6.631   1.711  0.4476  0.1938 -0.2418
 2557TIP3   OH229085   5.105   6.500  16.405 -0.4879  0.1954  0.5522
 2557TIP3    H129086   5.193   6.535  16.422 -0.4144  0.1940  0.1672
 2557TIP3    H229087   5.081   6.536  16.320 -0.4238 -0.6661  0.1598
 2558TIP3   OH229088   6.302   5.874  12.897  0.8954  0.1794 -0.0745
 2558TIP3    H129089   6.346   5.840  12.975 -0.1315  0.7179  0.7708
 2558TIP3    H229090   6.319   5.808  12.829 -0.6846 -1.8573  1.3923
 2559TIP3   OH229091   6.697   6.268  10.723 -0.6745 -0.5246 -0.5901
 2559TIP3    H129092   6.738   6.266  10.810 -0.8378 -1.3411 -0.5203
 2559TIP3    H229093   6.771   6.264  10.662 -0.5865 -0.6478 -0.4778
 2560TIP3   OH229094   5.559   4.576  12.624  0.0814 -0.2804  0.6129
 2560TIP3    H129095   5.511   4.494  12.617  1.8408 -1.5742  2.2403
 2560TIP3    H229096   5.575   4.586  12.718 -0.4526  2.1834  0.4982
 2561TIP3   OH229097   0.868   4.259   2.574  0.2697  0.0656  0.3698
 2561TIP3    H129098   0.826   4.338   2.609 -1.1555 -1.6797  2.8581
 2561TIP3    H229099   0.948   4.249   2.626 -1.1747 -1.8020  2.3773
 2562TIP3   OH229100   5.781   0.110  12.334  0.1666 -0.4693  0.0480
 2562TIP3    H129101   5.794   0.026  12.379 -1.4821 -0.4397  0.6580
 2562TIP3    H229102   5.706   0.094  12.277  1.3334 -0.0777 -1.6807
 2563TIP3   OH229103   1.932   6.018   0.165 -0.0643  0.1707 -0.0215
 2563TIP3    H129104   1.882   5.957   0.111  1.1833  0.3194 -1.4463
 2563TIP3    H229105   2.023   6.001   0.139  0.4361  1.3433  0.9346
 2564TIP3   OH229106   1.617   5.014  17.045  0.7430  0.2870  0.3459
 2564TIP3    H129107   1.554   5.065  17.096 -0.2959 -0.7915  0.2015
 2564TIP3    H229108   1.563   4.963  16.985  1.8804  0.6952 -1.0805
 2565TIP3   OH229109   5.976   5.973   0.638  0.1641  0.3385  0.1852
 2565TIP3    H129110   5.978   6.055   0.589  0.0547 -0.0774 -0.5415
 2565TIP3    H229111   5.888   5.971   0.677  0.6513  1.2172  1.3866
 2566TIP3   OH229112   5.571   2.567  12.837 -0.1012 -0.2257  0.4785
 2566TIP3    H129113   5.513   2.593  12.908 -0.1917  1.2310 -0.0954
 2566TIP3    H229114   5.640   2.515  12.879 -0.1268  0.6420  1.6378
 2567TIP3   OH229115   0.479   3.887  12.228 -0.2444  0.0992 -0.3528
 2567TIP3    H129116   0.493   3.981  12.240 -1.8250  0.1755  1.5550
 2567TIP3    H229117   0.564   3.847  12.247  0.1940  1.0741 -0.2084
 2568TIP3   OH229118   2.834   1.298  14.144  0.1951  0.2204  0.1159
 2568TIP3    H129119   2.890   1.256  14.210 -1.1469 -2.4677 -0.3016
 2568TIP3    H229120   2.759   1.330  14.194 -0.3214 -0.8874  0.1016
 2569TIP3   OH229121   3.465   2.444  11.258 -0.3839 -0.0323  0.3590
 2569TIP3    H129122   3.446   2.353  11.235 -1.3618 -0.0713  1.2296
 2569TIP3    H229123   3.423   2.496  11.190  2.0833 -0.2255 -1.4353
 2570TIP3   OH229124   2.872   4.459   5.814  0.3115  0.1407  0.1592
 2570TIP3    H129125   2.952   4.510   5.818  0.3096  0.0746  1.2465
 2570TIP3    H229126   2.835   4.479   5.728  1.4880  0.1590 -0.3597
 2571TIP3   OH229127   4.224   1.713  14.403  0.1878 -0.0520  0.7466
 2571TIP3    H129128   4.237   1.639  14.344  0.1457 -0.5209  1.3181
 2571TIP3    H229129   4.306   1.719  14.453  0.8732  1.3694 -0.4650
 2572TIP3   OH229130   0.794   1.929   0.579  0.2436 -0.4069  0.0506
 2572TIP3    H129131   0.836   1.926   0.665  0.0090 -0.5576  0.1603
 2572TIP3    H229132   0.769   1.838   0.562  0.0206 -0.3278 -0.0457
 2573TIP3   OH229133   1.690   6.412  12.910  0.6496  0.3010 -0.0845
 2573TIP3    H129134   1.776   6.374  12.892  0.4945 -0.2812  0.3850
 2573TIP3    H229135   1.707   6.481  12.974  0.8467  0.6216 -0.4738
 2574TIP3   OH229136   5.966   2.813  16.851 -0.2481 -0.0491 -0.0025
 2574TIP3    H129137   5.996   2.810  16.942 -1.5008  0.4720  0.4569
 2574TIP3    H229138   5.877   2.778  16.854  0.2879 -1.6879 -1.3369
 2575TIP3   OH229139   4.751   2.663   3.431  0.3930 -0.1802  0.1272
 2575TIP3    H129140   4.827   2.630   3.382  0.7436 -0.2659  0.7184
 2575TIP3    H229141   4.744   2.606   3.507 -0.8799 -0.7842 -0.4237
 2576TIP3   OH229142   0.477   4.384  16.670 -0.4701  0.1230  0.1872
 2576TIP3    H129143   0.513   4.454  16.724 -0.9062 -0.7664  1.6991
 2576TIP3    H229144   0.430   4.429  16.600 -0.6002  1.3375  1.0216
 2577TIP3   OH229145   5.827   4.625   0.254 -0.4188  0.4515 -0.0433
 2577TIP3    H129146   5.896   4.562   0.276  0.8670  1.9299  0.3520
 2577TIP3    H229147   5.844   4.647   0.162 -1.4326 -0.4309 -0.4604
 2578TIP3   OH229148   0.633   4.903  13.935 -0.8429 -0.2281 -0.1735
 2578TIP3    H129149   0.599   4.844  14.001  0.7162 -0.3686  0.5424
 2578TIP3    H229150   0.602   4.867  13.852 -0.9531 -1.3332  0.3364
 2579TIP3   OH229151   1.844   0.836   2.450 -0.0062 -0.2539  0.6502
 2579TIP3    H129152   1.865   0.756   2.497  1.2666 -1.7038 -2.1821
 2579TIP3    H229153   1.757   0.820   2.413  0.8564 -1.0704 -1.1754
 2580TIP3   OH229154   4.204   1.433   2.102  0.6604 -0.1686  0.1235
 2580TIP3    H129155   4.143   1.436   2.175  0.8236  0.8956  0.2322
 2580TIP3    H229156   4.191   1.516   2.056  2.1316  0.1566  0.2387
 2581TIP3   OH229157   1.231   6.739  14.321 -0.7771  0.1063 -0.0995
 2581TIP3    H129158   1.245   6.833  14.329 -0.1346  0.2178 -2.0102
 2581TIP3    H229159   1.314   6.700  14.349 -0.4885  0.1992 -0.8119
 2582TIP3   OH229160   2.149   4.501  15.350  0.3449 -0.3190  0.3960
 2582TIP3    H129161   2.133   4.442  15.424  1.2883  1.7662  2.4152
 2582TIP3    H229162   2.244   4.498  15.338  0.2177 -0.4677 -0.5993
 2583TIP3   OH229163   0.888   2.612  16.648 -0.3381  0.2726  0.3317
 2583TIP3    H129164   0.973   2.656  16.654  0.8730 -2.0417  1.8477
 2583TIP3    H229165   0.830   2.664  16.704 -0.4858  2.8136 -1.9709
 2584TIP3   OH229166   2.311   3.306   0.464 -0.1285  0.3691  0.6844
 2584TIP3    H129167   2.350   3.232   0.510 -1.1108  0.3113  1.4545
 2584TIP3    H229168   2.217   3.290   0.468 -0.2583  0.0866 -1.8227
 2585TIP3   OH229169   6.542   2.344  11.599 -0.0315  0.4497 -0.4496
 2585TIP3    H129170   6.481   2.375  11.665  1.4845  2.3424  0.1632
 2585TIP3    H229171   6.546   2.249  11.612  0.4753  0.7695  2.4738
 2586TIP3   OH229172   5.573   6.668  11.864  0.1745  0.1622  0.1298
 2586TIP3    H129173   5.588   6.629  11.778  0.1120  1.8849 -0.7048
 2586TIP3    H229174   5.661   6.682  11.900  0.2022 -0.4340  0.3149
 2587TIP3   OH229175   1.269   6.718   5.115  0.0124 -0.3829 -0.4835
 2587TIP3    H129176   1.345   6.699   5.170 -0.5906  0.1282  0.5623
 2587TIP3    H229177   1.207   6.761   5.174 -0.4255  0.7248 -1.7167
 2588TIP3   OH229178   5.192   5.286   2.227  0.3966 -0.1516  0.4883
 2588TIP3    H129179   5.160   5.292   2.137  1.3096  0.7272  0.1941
 2588TIP3    H229180   5.150   5.359   2.273  1.3183  0.5222  0.2958
 2589TIP3   OH229181   5.710   4.296  11.372  0.2990 -0.4976 -0.1943
 2589TIP3    H129182   5.799   4.267  11.389  0.7404  0.5716 -0.6329
 2589TIP3    H229183   5.714   4.338  11.286 -0.4571  0.2422  0.1126
 2590TIP3   OH229184   6.148   6.113  12.282 -0.1993  0.4091 -0.1497
 2590TIP3    H129185   6.074   6.069  12.324  1.2215 -1.3128  0.6802
 2590TIP3    H229186   6.114   6.141  12.197 -1.9483  0.1688  0.4169
 2591TIP3   OH229187   3.314   2.808   2.079  0.0853 -0.0994  0.1924
 2591TIP3    H129188   3.358   2.880   2.034  1.0456  0.3027  1.6744
 2591TIP3    H229189   3.329   2.731   2.024  1.3249  0.3491 -0.1211
 2592TIP3   OH229190   6.667   6.438  15.602 -0.0924 -0.5963  0.3556
 2592TIP3    H129191   6.679   6.517  15.549 -3.3303 -0.2598 -0.0750
 2592TIP3    H229192   6.729   6.448  15.674 -0.4803  2.4324  0.3891
 2593TIP3   OH229193   6.017   6.491   2.639 -0.1397 -0.2947 -0.3933
 2593TIP3    H129194   6.063   6.575   2.639 -1.1293  0.3191  1.7797
 2593TIP3    H229195   6.042   6.450   2.556  1.4007  1.5619 -0.9227
 2594TIP3   OH229196   6.397   5.284  12.890 -0.5701  0.2738  0.0794
 2594TIP3    H129197   6.387   5.378  12.906  2.3105  0.6282  0.3583
 2594TIP3    H229198   6.382   5.243  12.975 -1.1337  0.5332  0.1097
 2595TIP3   OH229199   6.285   4.006   1.509 -0.0235 -0.0930 -0.4150
 2595TIP3    H129200   6.231   4.085   1.514 -0.5350 -0.4380 -0.3851
 2595TIP3    H229201   6.222   3.934   1.513  0.3046 -0.4936 -1.8528
 2596TIP3   OH229202   4.578   3.738  15.078  0.6759 -0.6067 -0.0146
 2596TIP3    H129203   4.526   3.778  15.147 -2.3420 -0.9773 -1.8449
 2596TIP3    H229204   4.668   3.740  15.110 -0.3078  0.9560  3.0162
 2597TIP3   OH229205   0.055   2.637   5.952 -0.3588  0.0679 -0.0077
 2597TIP3    H129206  -0.014   2.703   5.952 -0.4852 -0.0636  0.4691
 2597TIP3    H229207   0.036   2.582   5.876 -0.1943  0.6363 -0.4646
 2598TIP3   OH229208   4.267   6.483   4.507 -0.0456 -0.1460  0.2204
 2598TIP3    H129209   4.187   6.524   4.475  0.4484  0.8583  0.2247
 2598TIP3    H229210   4.328   6.490   4.434  1.2040  2.4686  1.4074
 2599TIP3   OH229211   1.916   5.900   2.366 -0.0759  0.4703  0.2877
 2599TIP3    H129212   1.899   5.873   2.276 -0.0708 -1.2953  0.7744
 2599TIP3    H229213   2.011   5.905   2.372 -0.0486 -0.0624  0.3557
 2600TIP3   OH229214   3.874   6.399   1.921 -0.0632 -0.1300 -0.2466
 2600TIP3    H129215   3.941   6.335   1.899  0.8276 -0.0642  2.0145
 2600TIP3    H229216   3.797   6.370   1.872  1.2253 -0.9479 -1.8936
 2601TIP3   OH229217   0.452   6.471  16.361  0.1745 -0.1447 -0.0104
 2601TIP3    H129218   0.425   6.398  16.306 -0.6754  0.3794 -0.3133
 2601TIP3    H229219   0.371   6.501  16.403  0.4467  0.8044 -0.1254
 2602TIP3   OH229220   3.616   1.545   0.194  0.5447  0.3833  0.1465
 2602TIP3    H129221   3.645   1.597   0.268  1.1406  1.0213 -0.5292
 2602TIP3    H229222   3.674   1.569   0.122 -0.6699  0.5625 -0.8249
 2603TIP3   OH229223   0.410   6.267  11.560 -0.2085  0.6590  0.3571
 2603TIP3    H129224   0.372   6.308  11.482  0.9114  2.2190  0.5794
 2603TIP3    H229225   0.350   6.291  11.631  0.0570  1.3270  0.3636
 2604TIP3   OH229226   5.904   5.685   5.921  0.0414 -0.1443  0.1428
 2604TIP3    H129227   5.919   5.734   6.002  2.1630 -1.3271  0.5349
 2604TIP3    H229228   5.823   5.636   5.937 -0.5395  1.0040  0.8237
 2605TIP3   OH229229   6.438   2.341   4.897 -0.0688  0.1472  0.1036
 2605TIP3    H129230   6.378   2.335   4.822 -0.2281 -1.4343  0.3408
 2605TIP3    H229231   6.525   2.336   4.859 -0.1444 -0.3813 -0.0077
 2606TIP3   OH229232   2.817   4.028  13.921 -0.2961  0.3223  0.2471
 2606TIP3    H129233   2.726   4.055  13.934 -0.1563  0.5330  0.8541
 2606TIP3    H229234   2.868   4.105  13.945  0.0136  0.8502 -1.9179
 2607TIP3   OH229235   3.210   4.736   1.290  0.3503 -1.2603  0.4011
 2607TIP3    H129236   3.164   4.652   1.288 -1.1191 -0.5190 -2.8794
 2607TIP3    H229237   3.176   4.779   1.369  0.8009 -3.4902  1.8961
 2608TIP3   OH229238   4.599   5.977  15.791 -0.0758  0.2343  0.0002
 2608TIP3    H129239   4.565   6.020  15.713 -3.2443  1.2675  1.7454
 2608TIP3    H229240   4.604   5.884  15.767 -0.4956  0.5878 -1.5681
 2609TIP3   OH229241   4.045   6.800   2.453  0.2978 -0.2674  0.2849
 2609TIP3    H129242   4.014   6.765   2.536  0.0225  0.4577  0.4923
 2609TIP3    H229243   4.000   6.747   2.387  1.7422 -1.9385  0.5683
 2610TIP3   OH229244   6.421   6.648  11.387 -0.2975 -0.0985  0.0783
 2610TIP3    H129245   6.409   6.742  11.401  1.5054  0.0168  1.2496
 2610TIP3    H229246   6.382   6.607  11.464  0.2418 -0.1849  0.3135
 2611TIP3   OH229247   5.692   5.158   2.641  0.0294  0.7640  0.2749
 2611TIP3    H129248   5.744   5.091   2.596 -0.6183  0.6994 -0.3974
 2611TIP3    H229249   5.647   5.110   2.711 -0.1811  0.5464 -0.0029
 2612TIP3   OH229250   3.116   3.575   5.223 -0.2587  0.3345  0.2192
 2612TIP3    H129251   3.112   3.604   5.315 -0.4600 -1.5064  0.8427
 2612TIP3    H229252   3.025   3.556   5.201 -0.2708  1.2404 -0.5429
 2613TIP3   OH229253   3.963   2.514  12.517  0.3589 -0.5596  0.3585
 2613TIP3    H129254   3.987   2.606  12.528 -0.8813 -0.3756  1.8907
 2613TIP3    H229255   4.046   2.469  12.504  1.0994  0.6426  0.7790
 2614TIP3   OH229256   2.093   1.593  16.153 -0.6619 -0.0789 -0.4534
 2614TIP3    H129257   2.183   1.610  16.128 -0.4490 -0.4320  0.0539
 2614TIP3    H229258   2.040   1.634  16.084 -0.1216  0.2447 -0.6774
 2615TIP3   OH229259   4.515   2.695   3.309 -0.0417  0.1077  0.4308
 2615TIP3    H129260   4.535   2.717   3.218  2.1915  0.5785  0.9766
 2615TIP3    H229261   4.599   2.674   3.348 -0.8413  0.5985  2.5803
 2616TIP3   OH229262   6.803   2.193   0.776  0.2338 -0.2496 -0.8448
 2616TIP3    H129263   6.753   2.244   0.841  2.7704  1.4395 -0.0774
 2616TIP3    H229264   6.760   2.212   0.693 -1.2264  0.0275 -0.0671
 2617TIP3   OH229265   4.150   1.197   0.352 -0.1265 -0.2102  0.6847
 2617TIP3    H129266   4.232   1.154   0.376  0.9800  1.6324  0.4499
 2617TIP3    H229267   4.176   1.262   0.287 -2.0566 -0.6933 -0.6474
 2618TIP3   OH229268   4.643   0.429  11.045  0.2617 -0.0260 -0.8577
 2618TIP3    H129269   4.660   0.353  10.990 -0.0024 -1.4828  0.9854
 2618TIP3    H229270   4.726   0.445  11.090  0.0721  0.2260 -0.5965
 2619TIP3   OH229271   6.153   5.477  15.372  0.4869 -0.2336  0.3694
 2619TIP3    H129272   6.139   5.485  15.467  0.5590 -1.2002  0.4749
 2619TIP3    H229273   6.182   5.564  15.345 -1.3380  0.5905  0.9065
 2620TIP3   OH229274   5.278   1.183  14.229  0.5342 -0.2730 -0.4872
 2620TIP3    H129275   5.358   1.235  14.221  1.8978 -2.0172  1.0090
 2620TIP3    H229276   5.249   1.170  14.139  1.8280  0.5438 -1.0515
 2621TIP3   OH229277   5.789   4.477   4.219 -0.3319 -0.1490 -0.4113
 2621TIP3    H129278   5.777   4.390   4.181  0.6713 -0.1108 -0.8449
 2621TIP3    H229279   5.779   4.463   4.313 -1.7030 -0.4445 -0.5841
 2622TIP3   OH229280   6.656   3.996   3.900  0.0807 -0.3666 -0.0149
 2622TIP3    H129281   6.717   4.070   3.898  1.1335 -1.2198 -0.0346
 2622TIP3    H229282   6.629   3.984   3.808  0.7756 -0.7108 -0.1762
 2623TIP3   OH229283   6.322   2.188  16.800  0.0596 -0.1181 -0.6731
 2623TIP3    H129284   6.309   2.277  16.833 -3.2137 -0.9519  0.6430
 2623TIP3    H229285   6.383   2.148  16.862 -1.5474  0.0771  1.0960
 2624TIP3   OH229286   3.307   3.807  14.326 -0.1528  0.5048 -0.1071
 2624TIP3    H129287   3.357   3.882  14.358 -0.4628  0.2355  1.0932
 2624TIP3    H229288   3.216   3.827  14.350 -0.1767 -0.4585  0.6995
 2625TIP3   OH229289   0.282   1.589  16.028  0.8484  0.2025 -0.0045
 2625TIP3    H129290   0.219   1.619  15.963  1.0397 -0.7794 -0.6540
 2625TIP3    H229291   0.232   1.530  16.085  0.9103  0.3215  0.1746
 2626TIP3   OH229292   5.470   5.033  16.008  0.0925  0.6187  0.1331
 2626TIP3    H129293   5.388   5.056  15.965  0.3141 -0.7094 -1.0951
 2626TIP3    H229294   5.472   4.937  16.006  1.4673  0.6113  0.5356
 2627TIP3   OH229295   1.947   6.229  15.983 -0.3662 -0.6877  0.3877
 2627TIP3    H129296   1.931   6.140  16.017  0.5799 -0.7400  0.7155
 2627TIP3    H229297   1.970   6.280  16.060 -2.4685  0.2573  0.4495
 2628TIP3   OH229298   6.496   5.074  14.449 -0.2618  0.2558  0.2481
 2628TIP3    H129299   6.426   5.125  14.490 -0.1728  0.0425  0.6769
 2628TIP3    H229300   6.527   5.129  14.377 -1.8314 -0.2514 -0.8626
 2629TIP3   OH229301   5.763   4.055  15.155 -0.2825 -0.3705  0.1920
 2629TIP3    H129302   5.843   4.103  15.133 -0.0868 -1.0271 -0.5587
 2629TIP3    H229303   5.788   3.996  15.225 -0.1377 -0.4970  0.0331
 2630TIP3   OH229304   3.186   5.419   0.260  0.0983 -0.1989  0.0321
 2630TIP3    H129305   3.143   5.497   0.224  0.3957 -0.6800 -1.4038
 2630TIP3    H229306   3.275   5.448   0.281 -0.1096  0.1094  0.5237
 2631TIP3   OH229307   4.777   2.736  13.456 -0.1535 -0.3392  0.0032
 2631TIP3    H129308   4.770   2.705  13.546  1.8123 -0.8978  0.0087
 2631TIP3    H229309   4.700   2.701  13.412  0.0510 -2.0285  0.9265
 2632TIP3   OH229310   2.842   3.869   4.848  0.2060  0.0239  0.6727
 2632TIP3    H129311   2.919   3.857   4.792  1.5753  0.4450  2.3785
 2632TIP3    H229312   2.818   3.780   4.874  0.4962 -0.0705  0.6289
 2633TIP3   OH229313   0.783   2.160  13.282  0.1430 -0.1896 -0.1075
 2633TIP3    H129314   0.728   2.236  13.265  0.1604 -0.5692 -2.0251
 2633TIP3    H229315   0.872   2.191  13.264  0.0603 -0.8920 -1.9706
 2634TIP3   OH229316   3.074   2.907   2.030 -0.3207  0.3876 -0.1129
 2634TIP3    H129317   3.158   2.874   2.060 -0.4001  0.1018 -0.2009
 2634TIP3    H229318   3.010   2.842   2.060 -0.4947  0.5276 -0.1727
 2635TIP3   OH229319   1.829   3.439   3.972 -0.3428 -0.6030  0.3267
 2635TIP3    H129320   1.735   3.431   3.984 -0.4554  0.4694  0.2297
 2635TIP3    H229321   1.855   3.510   4.029 -0.1054  1.2076 -1.9005
 2636TIP3   OH229322   5.088   3.748   5.383 -0.2827 -0.4694 -0.0756
 2636TIP3    H129323   5.064   3.840   5.396 -1.1242 -0.6928  0.0147
 2636TIP3    H229324   5.058   3.704   5.463 -2.7368 -1.3423 -1.3655
 2637TIP3   OH229325   4.427   0.633  13.862 -0.3103 -0.7605  0.1996
 2637TIP3    H129326   4.509   0.667  13.899 -1.3108 -0.3725  2.1875
 2637TIP3    H229327   4.419   0.545  13.899 -0.4459 -1.0830 -0.5792
 2638TIP3   OH229328   0.937   3.233  11.803 -0.7915  0.3702 -0.3475
 2638TIP3    H129329   0.918   3.181  11.725  0.6063 -0.9782  0.1542
 2638TIP3    H229330   1.029   3.259  11.792 -0.9960  1.3595  0.1891
 2639TIP3   OH229331   4.447   0.652  15.132 -0.0260 -0.1249  0.5608
 2639TIP3    H129332   4.386   0.682  15.064  0.0329  0.1527  0.6287
 2639TIP3    H229333   4.493   0.731  15.160  0.3306 -0.3259  0.5499
 2640TIP3   OH229334   1.302   5.790   0.725  0.2462 -0.1884  0.6153
 2640TIP3    H129335   1.318   5.785   0.631 -1.2972  1.6858  0.2022
 2640TIP3    H229336   1.389   5.805   0.764  0.8528 -0.6943 -0.5206
 2641TIP3   OH229337   6.541   2.878  11.886 -0.4004  0.6608  0.4191
 2641TIP3    H129338   6.548   2.800  11.831  0.0856  2.4171 -2.2009
 2641TIP3    H229339   6.616   2.873  11.945  0.4361 -0.1946 -0.6698
 2642TIP3   OH229340   4.041   3.316  14.092  0.0282  0.1819  0.1683
 2642TIP3    H129341   3.999   3.374  14.028  2.1063 -0.3951 -1.8538
 2642TIP3    H229342   3.999   3.231  14.079  0.6388  0.0026 -0.6203
 2643TIP3   OH229343   6.558   6.603  12.569 -0.8643 -0.3214 -0.0998
 2643TIP3    H129344   6.584   6.659  12.642  0.4431  0.8854 -1.4229
 2643TIP3    H229345   6.640   6.566  12.536 -1.6094 -2.4380  0.2154
 2644TIP3   OH229346   5.024   2.267  12.468 -0.3150 -0.5506  0.1652
 2644TIP3    H129347   4.989   2.350  12.501  0.6794  0.5036 -1.2762
 2644TIP3    H229348   5.051   2.220  12.547 -0.4026  0.7344  1.0012
 2645TIP3   OH229349   3.702   4.168   2.725  0.1360 -0.7739 -0.3337
 2645TIP3    H129350   3.701   4.211   2.639  0.1770  0.6954  0.3680
 2645TIP3    H229351   3.615   4.127   2.732 -0.9657  1.4739  0.0301
 2646TIP3   OH229352   5.229   6.630  10.300 -0.4401  0.4628  0.1587
 2646TIP3    H129353   5.269   6.656  10.383  1.6875 -0.6149 -0.4493
 2646TIP3    H229354   5.261   6.541  10.284 -2.2713 -0.0667 -0.9631
 2647TIP3   OH229355   0.655   0.002  13.199 -0.0958  0.1295 -0.0609
 2647TIP3    H129356   0.740  -0.031  13.170 -0.2005  0.0622 -0.2919
 2647TIP3    H229357   0.667   0.022  13.292  0.4859  1.1634 -0.3429
 2648TIP3   OH229358   1.561   6.584  11.248 -0.1834 -0.5595  0.2427
 2648TIP3    H129359   1.486   6.642  11.231  0.9579  1.1127  0.6714
 2648TIP3    H229360   1.610   6.584  11.165  0.1847 -0.3319  0.4569
 2649TIP3   OH229361   3.178   4.600  15.512  0.8099  0.5252 -0.3679
 2649TIP3    H129362   3.083   4.605  15.501  0.7736 -0.7066 -0.8351
 2649TIP3    H229363   3.206   4.690  15.523 -0.5272  0.8396  0.7164
 2650TIP3   OH229364   3.074   3.441   5.524 -0.4278  0.1636 -0.0693
 2650TIP3    H129365   3.033   3.357   5.545 -0.6531  0.1776 -0.4357
 2650TIP3    H229366   3.001   3.503   5.524 -0.4763  0.1207 -1.1020
 2651TIP3   OH229367   4.414   5.045   6.816  0.6567 -0.6511  0.2574
 2651TIP3    H129368   4.411   5.110   6.746  3.7799  0.1062  0.7224
 2651TIP3    H229369   4.321   5.026   6.834 -0.3481  2.5088 -0.9110
 2652TIP3   OH229370   6.071   2.983   2.625  0.7396 -0.4072  0.3183
 2652TIP3    H129371   6.095   3.075   2.630 -0.7777  0.0227  0.1590
 2652TIP3    H229372   6.132   2.939   2.684  1.5958  0.6561  0.2658
 2653TIP3   OH229373   4.363   3.823  16.089 -0.1161  0.0848 -0.2309
 2653TIP3    H129374   4.422   3.888  16.127  1.5938 -1.5258  0.0091
 2653TIP3    H229375   4.336   3.862  16.005  0.5562  1.2643  0.0748
 2654TIP3   OH229376   4.736   5.116  14.970 -0.2486  0.4227  1.0036
 2654TIP3    H129377   4.690   5.192  14.933  0.7782  1.6315  2.0971
 2654TIP3    H229378   4.815   5.107  14.917 -0.5184 -0.0982  0.6802
 2655TIP3   OH229379   3.142   3.153   2.943 -0.1460  0.4691  0.6332
 2655TIP3    H129380   3.178   3.204   2.871 -1.3906  1.0143  0.3766
 2655TIP3    H229381   3.193   3.181   3.020  0.7592  0.3439  0.0949
 2656TIP3   OH229382   5.279   2.602  15.815 -0.2482  0.6976 -0.3626
 2656TIP3    H129383   5.292   2.697  15.810 -1.4577  0.9038 -0.0330
 2656TIP3    H229384   5.273   2.574  15.724 -0.4225  1.0273 -0.4561
 2657TIP3   OH229385   3.455   5.784   2.106 -0.5779  0.0501  0.7916
 2657TIP3    H129386   3.360   5.794   2.098 -0.4611 -0.2745 -2.5830
 2657TIP3    H229387   3.490   5.869   2.082 -0.0504 -0.8119 -1.8551
 2658TIP3   OH229388   2.509   3.368  12.443 -0.0912 -0.0717 -0.0302
 2658TIP3    H129389   2.585   3.312  12.458  0.6762  1.2102  0.9812
 2658TIP3    H229390   2.531   3.419  12.366 -1.2165 -1.7949 -1.5967
 2659TIP3   OH229391   4.787   6.351   2.159 -0.6546 -0.4865  0.2871
 2659TIP3    H129392   4.721   6.293   2.197 -0.8691 -0.4200  0.0154
 2659TIP3    H229393   4.750   6.378   2.075 -1.5336  1.7383  1.3138
 2660TIP3   OH229394   5.793   0.270   4.786  0.4687  0.8600  0.2930
 2660TIP3    H129395   5.733   0.198   4.806  1.2115 -0.0018 -0.5251
 2660TIP3    H229396   5.763   0.342   4.842 -0.6568  0.1117  0.6812
 2661TIP3   OH229397   5.752   0.719  13.614  0.4157  0.0435  0.2743
 2661TIP3    H129398   5.659   0.741  13.607  0.3761  0.1370  1.0102
 2661TIP3    H229399   5.766   0.651  13.547 -0.3381 -0.4734  0.6233
 2662TIP3   OH229400   4.390   0.302   4.812  0.4348 -0.4012  0.1337
 2662TIP3    H129401   4.464   0.256   4.850  0.8081 -1.5081 -1.8314
 2662TIP3    H229402   4.319   0.237   4.812 -0.0875  0.1497  0.5124
 2663TIP3   OH229403   6.447   3.991   1.822  0.6429  0.0189 -0.4454
 2663TIP3    H129404   6.409   4.000   1.909  1.9183 -0.9246  0.2537
 2663TIP3    H229405   6.407   4.061   1.770 -0.4909  0.2952  0.7640
 2664TIP3   OH229406   0.582   0.230  11.123  0.0165 -0.2344  0.3639
 2664TIP3    H129407   0.647   0.222  11.054 -0.4820  2.0681 -0.4920
 2664TIP3    H229408   0.508   0.177  11.093 -0.3247  0.9876 -1.1022
 2665TIP3   OH229409   0.698   5.830  15.187 -0.1652  0.1748  0.0711
 2665TIP3    H129410   0.791   5.838  15.207 -0.2950 -0.8910  1.3340
 2665TIP3    H229411   0.692   5.839  15.092  1.0961  1.2078  0.0632
 2666TIP3   OH229412   3.503   0.120   3.363  0.1826  0.1522  0.5619
 2666TIP3    H129413   3.575   0.079   3.412  0.7841  2.3359  1.6430
 2666TIP3    H229414   3.431   0.125   3.426 -0.2511 -0.1913  0.1036
 2667TIP3   OH229415   6.433   5.515  14.620  0.1753 -0.1337  0.0671
 2667TIP3    H129416   6.372   5.555  14.681 -0.2797  0.1014 -0.5416
 2667TIP3    H229417   6.393   5.431  14.598  1.4730 -1.3180  1.9148
 2668TIP3   OH229418   1.683   1.633  16.302  0.6137  0.0515 -0.6592
 2668TIP3    H129419   1.701   1.693  16.230  1.2934 -1.7376 -2.0343
 2668TIP3    H229420   1.769   1.605  16.333  0.2999 -0.3597 -0.1437
 2669TIP3   OH229421   0.262   0.552   4.267  0.3401  0.2695 -0.5646
 2669TIP3    H129422   0.252   0.598   4.351  0.4534 -0.4062 -0.1749
 2669TIP3    H229423   0.246   0.460   4.288  0.3202  0.0988 -1.2986
 2670TIP3   OH229424   0.269   3.977   6.105 -0.3485 -0.2953  0.7590
 2670TIP3    H129425   0.319   4.056   6.125  1.5308 -1.3832  0.6565
 2670TIP3    H229426   0.187   3.988   6.152  0.2832  1.2477  1.5916
 2671TIP3   OH229427   4.447   6.639   2.175 -0.0723 -0.9616  0.1196
 2671TIP3    H129428   4.363   6.619   2.133  0.5288 -1.6197 -0.8188
 2671TIP3    H229429   4.423   6.678   2.259 -1.3173 -1.1140 -0.1402
 2672TIP3   OH229430   3.550   3.021   1.160  0.1256 -0.2779 -0.0466
 2672TIP3    H129431   3.631   2.979   1.129  0.1928 -1.9604  2.1349
 2672TIP3    H229432   3.571   3.114   1.160  2.4127 -0.7013  1.1861
 2673TIP3   OH229433   1.454   1.037  16.918 -0.2859 -0.1835 -0.1002
 2673TIP3    H129434   1.497   1.064  17.000  1.7925 -0.6984 -0.9618
 2673TIP3    H229435   1.404   1.114  16.892  1.4515  1.1059  0.1341
 2674TIP3   OH229436   3.763   5.622   2.907  0.4574  0.1240 -0.4171
 2674TIP3    H129437   3.822   5.547   2.920 -0.0321  0.0017  1.4212
 2674TIP3    H229438   3.696   5.589   2.848  0.4067 -0.8205  0.1388
 2675TIP3   OH229439   0.165   0.307  14.558  0.2706 -0.2742  0.2489
 2675TIP3    H129440   0.096   0.370  14.579  0.4183  0.5057 -1.3908
 2675TIP3    H229441   0.122   0.240  14.506  0.5922 -0.2087 -0.1049
 2676TIP3   OH229442   1.625   1.498   1.528 -0.0354 -0.3679 -0.1095
 2676TIP3    H129443   1.701   1.511   1.584  0.7447 -2.4846 -0.5761
 2676TIP3    H229444   1.552   1.488   1.588  0.7771 -2.5485  0.6134
 2677TIP3   OH229445   3.633   4.812   4.905 -0.2300 -0.3373  0.5664
 2677TIP3    H129446   3.618   4.729   4.859  2.3469  0.2138 -1.5497
 2677TIP3    H229447   3.623   4.879   4.837  2.4754  0.6122  0.9634
 2678TIP3   OH229448   6.018   4.231   3.367 -0.0417  0.0269  0.2804
 2678TIP3    H129449   6.095   4.188   3.330 -0.3352 -1.4354  1.2738
 2678TIP3    H229450   5.946   4.207   3.309  0.1172  0.7852 -0.2373
 2679TIP3   OH229451   0.959   3.852  16.120 -0.1540  0.5631  0.0027
 2679TIP3    H129452   0.887   3.915  16.112  1.0950  2.0095 -0.3455
 2679TIP3    H229453   0.933   3.794  16.192 -2.0010  0.5577 -0.6295
 2680TIP3   OH229454   5.115   4.745   0.720  0.4991  0.2395 -0.0180
 2680TIP3    H129455   5.087   4.832   0.751 -0.3459 -0.5161  1.4605
 2680TIP3    H229456   5.035   4.704   0.688  1.1162  0.4535 -1.9975
 2681TIP3   OH229457   4.711   3.559   4.283 -0.3054 -0.2151  0.1726
 2681TIP3    H129458   4.663   3.480   4.256 -0.5500  0.0937 -0.3216
 2681TIP3    H229459   4.649   3.608   4.336 -0.7048  0.3941 -0.8273
 2682TIP3   OH229460   1.273   2.743   3.866  0.3651  0.0900  0.2134
 2682TIP3    H129461   1.274   2.752   3.962  2.7631  0.2392  0.2432
 2682TIP3    H229462   1.365   2.754   3.841  0.5181 -3.9087 -1.7200
 2683TIP3   OH229463   6.518   2.815  11.462 -0.3577 -0.0146  0.4440
 2683TIP3    H129464   6.456   2.758  11.507 -1.7376 -0.1513 -1.4995
 2683TIP3    H229465   6.557   2.759  11.394 -0.7817  0.9995 -0.6589
 2684TIP3   OH229466   0.852   3.981  16.372 -0.1344  0.8063  0.2914
 2684TIP3    H129467   0.782   3.982  16.437 -0.4988  0.0454 -0.0801
 2684TIP3    H229468   0.807   3.972  16.288  0.4165  0.0419  0.0716
 2685TIP3   OH229469   5.967   2.636  12.724 -0.0338 -0.7175  0.1307
 2685TIP3    H129470   5.985   2.614  12.633  1.9549  0.0656  0.2976
 2685TIP3    H229471   5.904   2.569  12.752 -0.2029 -1.3468 -1.6128
 2686TIP3   OH229472   4.854   2.897   2.239 -0.7160  0.0782 -0.0040
 2686TIP3    H129473   4.869   2.967   2.301 -1.3662 -0.9558  1.3803
 2686TIP3    H229474   4.927   2.837   2.251 -0.5887  0.1075 -0.5902
 2687TIP3   OH229475   3.616   1.849   2.922  0.3330 -0.0157  0.1982
 2687TIP3    H129476   3.621   1.943   2.942 -1.2458  0.2021 -0.3378
 2687TIP3    H229477   3.602   1.845   2.827  0.6350 -0.8217  0.1750
 2688TIP3   OH229478   5.985   3.760  14.120 -0.3578 -0.1265 -0.2327
 2688TIP3    H129479   6.035   3.721  14.191 -0.2405  0.0938 -0.1956
 2688TIP3    H229480   6.048   3.770  14.049 -0.4288 -0.1624 -0.3015
 2689TIP3   OH229481   4.472   2.313   0.729  0.4554  0.6735 -0.2761
 2689TIP3    H129482   4.525   2.251   0.780  0.5109  0.8279 -0.1421
 2689TIP3    H229483   4.388   2.269   0.716 -0.1146  1.2035  1.2607
 2690TIP3   OH229484   2.384   0.367   2.078 -0.2186  0.1579  0.1193
 2690TIP3    H129485   2.402   0.452   2.118  0.2525 -0.8710  2.2411
 2690TIP3    H229486   2.443   0.307   2.124  0.2188 -1.1766 -2.0521
 2691TIP3   OH229487   4.424   2.449  11.523  0.0091 -0.1229  0.3808
 2691TIP3    H129488   4.371   2.471  11.447 -0.8837 -1.4858  0.5797
 2691TIP3    H229489   4.505   2.413  11.487  0.4884  1.2101  0.0833
 2692TIP3   OH229490   6.327   0.008  16.155  0.1576 -0.0639 -0.0242
 2692TIP3    H129491   6.288  -0.079  16.151 -2.4652  1.0553 -0.7758
 2692TIP3    H229492   6.295   0.053  16.077  2.4239  1.2526 -0.3066
 2693TIP3   OH229493   1.973   5.213   6.462  0.2280  0.0828  0.1511
 2693TIP3    H129494   2.039   5.272   6.499  0.4132  0.8503 -1.3412
 2693TIP3    H229495   2.022   5.137   6.432  0.2466  0.0249  0.3299
 2694TIP3   OH229496   5.150   2.516   1.003  0.1043  0.1974  0.3375
 2694TIP3    H129497   5.163   2.539   1.095  1.2073  0.0994  0.2210
 2694TIP3    H229498   5.202   2.581   0.955  1.2111 -0.9872 -0.1122
 2695TIP3   OH229499   4.936   0.174  16.628 -0.0380  0.0924 -0.1517
 2695TIP3    H129500   4.996   0.248  16.639 -0.2916  0.1032  1.3929
 2695TIP3    H229501   4.972   0.125  16.554  2.7984 -0.7649  1.6265
 2696TIP3   OH229502   4.060   1.788   5.904 -0.4024  0.0543 -0.1580
 2696TIP3    H129503   3.991   1.833   5.954  0.8963  0.2167  1.5611
 2696TIP3    H229504   4.068   1.703   5.947  0.1558 -0.1320 -0.6337
 2697TIP3   OH229505   3.019   3.663  11.911  0.4162  0.0152 -0.2920
 2697TIP3    H129506   3.013   3.712  11.993 -1.5290 -1.0241  0.2398
 2697TIP3    H229507   3.106   3.624  11.914 -0.2972 -1.6442  2.2905
 2698TIP3   OH229508   4.251   6.180  13.344 -0.0239  0.3463 -0.6481
 2698TIP3    H129509   4.218   6.124  13.274 -0.1298 -0.9811  0.4141
 2698TIP3    H229510   4.238   6.129  13.424  1.6381  1.1174  0.1716
 2699TIP3   OH229511   5.889   1.733  14.839 -0.4421  0.5671 -0.5649
 2699TIP3    H129512   5.826   1.669  14.806  1.5779 -1.5896 -0.4661
 2699TIP3    H229513   5.943   1.755  14.764  0.3656  0.2981 -0.0777
 2700TIP3   OH229514   3.998   5.109  12.548 -0.1307 -0.5923 -0.3341
 2700TIP3    H129515   4.079   5.058  12.539  0.1362 -0.2226 -0.0409
 2700TIP3    H229516   3.931   5.053  12.510  0.8615  0.7598 -4.8016
 2701TIP3   OH229517   5.430   5.074  13.144  0.5957  0.5023 -0.4927
 2701TIP3    H129518   5.352   5.018  13.146 -0.8153  2.2967 -1.9129
 2701TIP3    H229519   5.406   5.151  13.195  1.8717  0.6171 -0.0227
 2702TIP3   OH229520   1.416   2.677   0.752  0.0914 -0.0167 -0.0170
 2702TIP3    H129521   1.345   2.625   0.716  0.8107 -1.7423  0.9296
 2702TIP3    H229522   1.407   2.669   0.847  1.0504  0.4347  0.1288
 2703TIP3   OH229523   0.808   3.771  13.727  0.5475 -0.5185  0.3443
 2703TIP3    H129524   0.801   3.866  13.733 -0.3719 -0.3862 -1.9516
 2703TIP3    H229525   0.794   3.740  13.817 -1.3239  1.4001  0.7885
 2704TIP3   OH229526   4.930   4.482   5.960 -0.1120  0.1105  0.4826
 2704TIP3    H129527   4.844   4.498   5.923  0.0600  1.9677  0.7913
 2704TIP3    H229528   4.971   4.568   5.965  1.3415 -0.5811  1.3938
 2705TIP3   OH229529   3.658   4.236  11.994  0.1583 -0.2282 -0.5786
 2705TIP3    H129530   3.741   4.251  11.949  0.2173 -0.4574 -0.5457
 2705TIP3    H229531   3.626   4.323  12.016  0.4470 -0.1459 -0.4893
 2706TIP3   OH229532   2.747   4.801  16.884 -0.5632 -0.3674 -0.0882
 2706TIP3    H129533   2.667   4.841  16.850  0.1849  0.9597 -0.3155
 2706TIP3    H229534   2.744   4.819  16.978 -0.4071 -0.0972 -0.1348
 2707TIP3   OH229535   5.156   5.762   5.077  0.1690  0.0309  0.5686
 2707TIP3    H129536   5.113   5.719   5.004 -2.0756  1.7023  0.8026
 2707TIP3    H229537   5.090   5.763   5.147  1.3827  0.7045  1.7616
 2708TIP3   OH229538   3.467   1.072  15.236  0.1916 -0.0833  0.0361
 2708TIP3    H129539   3.427   1.058  15.150 -0.1960 -0.0465  0.2083
 2708TIP3    H229540   3.479   1.167  15.241 -2.4430  0.2737  1.1685
 2709TIP3   OH229541   0.315   0.249  16.439  0.1364  0.0398 -0.3226
 2709TIP3    H129542   0.317   0.305  16.360  0.4661 -0.5768 -0.7608
 2709TIP3    H229543   0.370   0.174  16.416 -1.8729 -1.4479 -0.4756
 2710TIP3   OH229544   6.090   5.699   0.545  0.2335  0.3540 -0.1559
 2710TIP3    H129545   6.084   5.792   0.565  0.4356  0.6900 -1.5479
 2710TIP3    H229546   6.014   5.681   0.490  0.9923  0.0494 -1.1343
 2711TIP3   OH229547   5.290   6.040   0.285 -0.0075 -0.3801 -0.5826
 2711TIP3    H129548   5.210   6.066   0.331 -1.2033 -2.4354 -1.3902
 2711TIP3    H229549   5.289   6.090   0.203  0.8044  1.3531  0.4124
 2712TIP3   OH229550   6.576   1.501  13.625  0.7283 -0.3723 -0.7088
 2712TIP3    H129551   6.520   1.451  13.567 -0.6514 -0.9614  1.0468
 2712TIP3    H229552   6.647   1.441  13.648 -1.1148 -1.7859  1.6796
 2713TIP3   OH229553   1.230   1.359   0.133 -0.3007  0.5781  0.2684
 2713TIP3    H129554   1.204   1.451   0.132 -2.3057  0.0881  1.1247
 2713TIP3    H229555   1.292   1.353   0.206 -0.4866  1.1728  0.4859
 2714TIP3   OH229556   0.710   3.230   0.817  0.0810  0.1165 -0.6303
 2714TIP3    H129557   0.656   3.153   0.837  1.5838 -0.8463 -0.1257
 2714TIP3    H229558   0.665   3.272   0.744 -1.4264 -0.5511 -0.1276
 2715TIP3   OH229559   2.184   1.024  15.853  0.0778  0.1109 -0.2545
 2715TIP3    H129560   2.196   1.065  15.767  0.3831 -0.0776 -0.3048
 2715TIP3    H229561   2.090   1.026  15.868 -0.2243 -1.8529 -1.5809
 2716TIP3   OH229562   2.687   5.821  11.097  0.1183  0.0082 -0.6645
 2716TIP3    H129563   2.629   5.786  11.029  0.5278 -1.3368 -0.3459
 2716TIP3    H229564   2.767   5.843  11.050  0.0761 -0.0638 -0.7725
 2717TIP3   OH229565   2.922   4.504  12.913 -0.0397 -0.4543  0.7249
 2717TIP3    H129566   2.964   4.464  12.989 -1.6455  0.5051  2.1837
 2717TIP3    H229567   2.955   4.594  12.912 -0.1520 -0.4162  0.3901
 2718TIP3   OH229568   2.159   1.076  16.647  0.2663  0.1727 -0.5061
 2718TIP3    H129569   2.212   1.000  16.621 -0.9784 -0.5753 -0.9266
 2718TIP3    H229570   2.139   1.061  16.739  1.0498  0.6421 -0.2427
 2719TIP3   OH229571   0.379   2.195   2.600  0.4847  0.3978 -0.0047
 2719TIP3    H129572   0.367   2.105   2.631  0.3539 -0.0634 -1.3395
 2719TIP3    H229573   0.301   2.241   2.632 -1.4735 -0.9061 -2.5170
 2720TIP3   OH229574   4.888   0.985  11.860 -0.0319  0.2195  0.2149
 2720TIP3    H129575   4.880   1.036  11.780 -1.5022 -0.0159  0.1975
 2720TIP3    H229576   4.977   0.949  11.856  0.3107  1.1132 -0.7483
 2721TIP3   OH229577   1.685   2.101  14.225  0.3090 -0.1952  0.0758
 2721TIP3    H129578   1.639   2.078  14.144 -0.8951  0.8701  0.4235
 2721TIP3    H229579   1.655   2.036  14.289 -3.3216  2.2298  1.1339
 2722TIP3   OH229580   6.128   5.112  12.292  0.2661  0.1935 -0.2224
 2722TIP3    H129581   6.126   5.040  12.229  0.5805  0.9866 -1.1800
 2722TIP3    H229582   6.048   5.102  12.342 -0.3302 -0.0979 -1.1974
 2723TIP3   OH229583   4.701   3.790   5.649 -0.2696  0.0459  0.3169
 2723TIP3    H129584   4.636   3.720   5.636 -0.4001  0.3825 -1.0629
 2723TIP3    H229585   4.659   3.868   5.611  1.7066 -0.1614 -2.5935
 2724TIP3   OH229586   2.175   0.365  16.199  0.0129 -0.4020  0.0964
 2724TIP3    H129587   2.232   0.356  16.275 -1.7084 -0.5672  1.4239
 2724TIP3    H229588   2.094   0.322  16.225 -0.8684  0.1796 -1.5799
 2725TIP3   OH229589   1.892   0.576  15.131 -0.1200 -0.1178 -0.0387
 2725TIP3    H129590   1.822   0.639  15.146  0.0553 -0.0922  0.7700
 2725TIP3    H229591   1.960   0.600  15.195  0.4260 -0.4258 -0.4910
 2726TIP3   OH229592   2.773   5.640   3.608 -0.3240 -0.1304  0.3729
 2726TIP3    H129593   2.717   5.701   3.560  0.8124  0.1223 -0.6788
 2726TIP3    H229594   2.761   5.664   3.700 -0.4717  1.1900  0.0312
 2727TIP3   OH229595   2.233   1.530   2.661 -0.4234 -0.1651 -0.0165
 2727TIP3    H129596   2.274   1.457   2.613  1.5724  1.0087 -0.2387
 2727TIP3    H229597   2.291   1.604   2.644 -1.5501  1.1096  1.4622
 2728TIP3   OH229598   6.249   0.884   2.900  0.1334  0.3626  0.6363
 2728TIP3    H129599   6.162   0.912   2.872 -0.1039 -1.3843 -0.5375
 2728TIP3    H229600   6.291   0.964   2.930 -1.6205  1.3676  0.5500
 2729TIP3   OH229601   4.881   0.538  12.656 -0.7550  0.0341 -0.1142
 2729TIP3    H129602   4.815   0.504  12.597 -1.5861  1.2684  0.0568
 2729TIP3    H229603   4.831   0.578  12.728  0.2101 -0.8648  1.1041
 2730TIP3   OH229604   4.551   3.392   2.514  0.2510 -0.6419  0.5095
 2730TIP3    H129605   4.519   3.326   2.452 -2.7868  0.6968  0.4432
 2730TIP3    H229606   4.535   3.355   2.600 -1.5803 -0.0444  0.4738
 2731TIP3   OH229607   3.779   1.328  15.678  0.3024 -0.4642  0.9334
 2731TIP3    H129608   3.791   1.421  15.694  1.8306  0.0681 -2.4454
 2731TIP3    H229609   3.867   1.295  15.660 -0.5739 -1.6361 -1.7564
 2732TIP3   OH229610   5.615   4.860  11.954  0.5887  0.4373  0.3897
 2732TIP3    H129611   5.574   4.912  12.023  1.7227  0.5990  0.9549
 2732TIP3    H229612   5.597   4.769  11.979 -0.7385  0.5045 -0.2016
 2733TIP3   OH229613   6.121   0.328   2.280  0.1029  0.1096  0.2230
 2733TIP3    H129614   6.073   0.323   2.363 -0.1930  0.2770  0.0633
 2733TIP3    H229615   6.053   0.331   2.213  0.3268 -2.4324 -0.2026
 2734TIP3   OH229616   5.495   3.296  15.609  0.3744 -0.1892  0.1856
 2734TIP3    H129617   5.543   3.299  15.692 -0.8260  1.5855  0.8804
 2734TIP3    H229618   5.407   3.269  15.633  0.5098 -1.7038 -0.8479
 2735TIP3   OH229619   3.391   6.224  14.784 -0.2620  0.7680  0.4706
 2735TIP3    H129620   3.419   6.133  14.770  0.1878  0.5376  2.5433
 2735TIP3    H229621   3.317   6.235  14.725 -0.4520 -1.0225  0.3101
 2736TIP3   OH229622   5.163   6.437  15.911 -0.2398 -0.0299 -0.5694
 2736TIP3    H129623   5.225   6.371  15.880  0.5050  0.2709  0.2495
 2736TIP3    H229624   5.105   6.452  15.836  0.4987 -0.5156 -1.2576
 2737TIP3   OH229625   6.671   4.742  13.254  0.1124  0.7295 -0.0776
 2737TIP3    H129626   6.622   4.790  13.186 -0.7255 -1.3947 -1.0656
 2737TIP3    H229627   6.722   4.677  13.206  0.8696  0.3115  1.2367
 2738TIP3   OH229628   1.853   0.112   4.811  0.0510 -0.1165  0.6022
 2738TIP3    H129629   1.805   0.194   4.817 -1.5938 -1.1037  1.8241
 2738TIP3    H229630   1.802   0.059   4.749  2.0689  0.3551 -1.5793
 2739TIP3   OH229631   1.546   6.658   0.704 -0.2661  0.4015  0.2418
 2739TIP3    H129632   1.482   6.636   0.636 -0.5662 -1.3377  1.0071
 2739TIP3    H229633   1.623   6.606   0.682 -0.2147  0.1533  0.9559
 2740TIP3   OH229634   4.928   6.450  13.735 -0.5010  0.6426 -0.1112
 2740TIP3    H129635   4.911   6.381  13.799  0.3760  0.7827  0.2814
 2740TIP3    H229636   4.870   6.522  13.762 -1.9281 -0.1544 -0.9236
 2741TIP3   OH229637   5.205   2.104   3.534  0.0385  0.2896  0.1494
 2741TIP3    H129638   5.286   2.147   3.561  1.0651 -1.8457  0.6492
 2741TIP3    H229639   5.155   2.092   3.615  1.3580 -2.5480  0.6570
 2742TIP3   OH229640   3.204   0.701   4.302 -0.3298 -0.3982 -0.2865
 2742TIP3    H129641   3.219   0.608   4.287  0.7440 -0.4470  0.8925
 2742TIP3    H229642   3.143   0.727   4.233  0.4187 -1.6608 -1.4835
 2743TIP3   OH229643   1.768   1.782   5.167  0.0190  0.1620 -0.5680
 2743TIP3    H129644   1.794   1.860   5.216  0.7978 -0.7399  0.5154
 2743TIP3    H229645   1.701   1.812   5.106  0.7302  1.7885 -0.5956
 2744TIP3   OH229646   0.904   0.936   5.513 -0.3249  0.2140 -0.5763
 2744TIP3    H129647   0.874   0.965   5.600 -0.8904  2.0755 -1.3401
 2744TIP3    H229648   0.852   0.858   5.495  0.0024 -0.3730  0.8552
 2745TIP3   OH229649   2.505   3.148  12.947 -0.1020  0.2493 -0.3040
 2745TIP3    H129650   2.500   3.174  12.856 -1.4550  0.0650 -0.2959
 2745TIP3    H229651   2.458   3.216  12.995 -1.7235 -0.9608 -0.0560
 2746TIP3   OH229652   3.673   5.009   6.021  0.8204 -0.1852 -0.4585
 2746TIP3    H129653   3.733   5.051   5.960  1.3702 -0.1685  0.0808
 2746TIP3    H229654   3.586   5.022   5.983  0.7878  2.7483  0.3668
 2747TIP3   OH229655   3.146   1.986   5.927 -0.3010  0.0143 -0.0873
 2747TIP3    H129656   3.237   1.966   5.947  0.5154  0.3055 -3.1090
 2747TIP3    H229657   3.119   1.918   5.865 -0.9240  1.9247 -2.0344
 2748TIP3   OH229658   1.833   3.945   1.530  0.3727  0.2388 -0.5872
 2748TIP3    H129659   1.748   3.969   1.493  0.0049 -0.8372 -0.4791
 2748TIP3    H229660   1.882   3.907   1.457  0.3538 -0.1264 -0.4157
 2749TIP3   OH229661   6.580   4.491   2.152  0.0405 -0.4161  0.0019
 2749TIP3    H129662   6.540   4.465   2.069  0.8901  1.0106 -0.9211
 2749TIP3    H229663   6.508   4.523   2.205 -0.3969 -0.4050 -0.5877
 2750TIP3   OH229664   5.545   1.308  17.194  0.1964 -0.2025  0.2271
 2750TIP3    H129665   5.452   1.328  17.196 -0.1673 -1.8056  1.3623
 2750TIP3    H229666   5.583   1.374  17.135 -1.7166  0.1325 -0.6979
 2751TIP3   OH229667   5.901   6.297  13.931  0.1755 -0.3335  0.1854
 2751TIP3    H129668   5.968   6.259  13.874  0.4835 -0.2470  0.4898
 2751TIP3    H229669   5.939   6.292  14.019 -0.1040 -0.0307  0.3231
 2752TIP3   OH229670   5.048   5.843   0.040 -0.7064 -0.2150  0.9174
 2752TIP3    H129671   5.089   5.757   0.047 -0.9235 -0.6402 -1.7980
 2752TIP3    H229672   5.113   5.897  -0.006 -2.2639 -0.3317 -1.6143
 2753TIP3   OH229673   0.947   2.252  17.233  0.2250  0.0648 -0.1551
 2753TIP3    H129674   0.895   2.184  17.277 -0.8323  1.7552  1.3338
 2753TIP3    H229675   0.933   2.331  17.286  2.3694  1.1820 -1.1497
 2754TIP3   OH229676   2.286   2.229  15.788  0.3348  0.5643 -0.3592
 2754TIP3    H129677   2.251   2.302  15.737  2.7989  2.7289  0.8166
 2754TIP3    H229678   2.314   2.268  15.871  2.2831 -1.5915  0.1258
 2755TIP3   OH229679   5.522   1.513   4.694  0.6548  0.5399 -0.0924
 2755TIP3    H129680   5.443   1.562   4.719 -0.3322 -0.5390 -0.9752
 2755TIP3    H229681   5.522   1.438   4.753  0.5867  0.1387 -0.5990
 2756TIP3   OH229682   2.778   3.979  14.276 -0.3567 -0.1864 -0.0807
 2756TIP3    H129683   2.726   3.960  14.354 -1.4499 -0.0091 -0.7430
 2756TIP3    H229684   2.726   3.943  14.204  0.4111  0.0654 -0.7676
 2757TIP3   OH229685   4.758   5.936  13.259 -0.0870 -0.0163  0.5247
 2757TIP3    H129686   4.831   5.973  13.209 -0.0341 -0.9441 -0.1133
 2757TIP3    H229687   4.693   6.006  13.261 -0.3396 -0.1260 -1.3822
 2758TIP3   OH229688   6.769   3.331   4.431  0.1509 -0.2901  0.2552
 2758TIP3    H129689   6.681   3.325   4.468  0.2151 -0.2125  0.4212
 2758TIP3    H229690   6.761   3.291   4.344  0.0985 -0.8600  0.5180
 2759TIP3   OH229691   1.663   6.767  15.245 -0.0409  0.4071  0.2603
 2759TIP3    H129692   1.674   6.679  15.208  0.0235  0.4037  0.2888
 2759TIP3    H229693   1.689   6.758  15.337 -2.4544 -0.1629  0.9668
 2760TIP3   OH229694   2.147   2.952   5.184 -0.8836  0.1862 -0.5800
 2760TIP3    H129695   2.159   2.937   5.091  1.6728  0.4220 -0.3861
 2760TIP3    H229696   2.053   2.964   5.196 -1.3901 -1.0329 -2.9126
 2761TIP3   OH229697   5.941   0.278  15.086 -0.2091  0.2594 -0.0363
 2761TIP3    H129698   5.924   0.254  15.177  1.8024  0.4878  0.4304
 2761TIP3    H229699   5.899   0.208  15.035  0.0197 -0.7507  1.1052
 2762TIP3   OH229700   0.557   1.962   1.416 -0.3086 -0.0289 -0.2290
 2762TIP3    H129701   0.493   2.012   1.366  0.3834 -0.1390 -1.2615
 2762TIP3    H229702   0.584   2.021   1.487 -0.2792  0.6769 -0.8133
 2763TIP3   OH229703   6.496   5.268   6.675 -0.1420  0.1470  0.0458
 2763TIP3    H129704   6.445   5.348   6.664  1.6927  1.1297 -2.1792
 2763TIP3    H229705   6.481   5.219   6.594  0.1505 -0.9098  0.6208
 2764TIP3   OH229706   2.491   5.209  17.136  0.1733  0.7753 -0.6171
 2764TIP3    H129707   2.447   5.293  17.126  0.7474  1.2145  0.3777
 2764TIP3    H229708   2.574   5.221  17.090  0.3737  0.8593 -0.2410
 2765TIP3   OH229709   1.012   1.583  16.461  0.7861 -0.3663 -0.7420
 2765TIP3    H129710   1.055   1.499  16.445  0.5542 -0.4457 -0.9507
 2765TIP3    H229711   1.080   1.648  16.442  1.0206 -0.5090 -0.4038
 2766TIP3   OH229712   4.982   1.249   3.175 -0.2779 -0.0032  0.2044
 2766TIP3    H129713   5.039   1.179   3.205 -0.6419 -0.3453  0.1099
 2766TIP3    H229714   5.023   1.329   3.207  1.9380  0.0557 -2.4430
 2767TIP3   OH229715   2.445   5.146  10.780  0.3062  0.2987 -0.4914
 2767TIP3    H129716   2.398   5.175  10.702  1.8023 -1.4728 -2.1566
 2767TIP3    H229717   2.535   5.129  10.750  0.5497 -1.9635  1.2004
 2768TIP3   OH229718   5.749   3.670  15.514  0.2376 -0.1047  0.1063
 2768TIP3    H129719   5.666   3.639  15.479 -0.2822  1.6237 -0.2893
 2768TIP3    H229720   5.767   3.613  15.589 -0.8849 -1.0082 -0.2953
 2769TIP3   OH229721   2.890   0.957   0.425 -0.8776  0.4637 -0.1685
 2769TIP3    H129722   2.811   0.939   0.374 -0.8848  0.6723 -0.2286
 2769TIP3    H229723   2.961   0.922   0.370 -0.7042  2.2575 -1.1490
 2770TIP3   OH229724   4.286   5.761   0.961  0.6917  0.6519  0.1111
 2770TIP3    H129725   4.326   5.690   0.911  0.1961 -0.5773  1.4206
 2770TIP3    H229726   4.346   5.777   1.034  0.5751  1.2784  0.0769
 2771TIP3   OH229727   5.439   4.839   0.062 -0.0894  0.1452 -0.1858
 2771TIP3    H129728   5.390   4.769   0.104 -0.3783  0.0275 -0.7054
 2771TIP3    H229729   5.376   4.910   0.051  0.5379  1.0211  1.5693
 2772TIP3   OH229730   3.606   1.877   0.709  0.0862  0.2157 -0.0232
 2772TIP3    H129731   3.598   1.861   0.803 -1.1417 -0.0097 -0.1597
 2772TIP3    H229732   3.546   1.949   0.692 -0.2951 -0.2758 -0.7739
 2773TIP3   OH229733   4.259   2.622   3.110  0.0828  0.4147 -0.4693
 2773TIP3    H129734   4.246   2.553   3.174 -0.2694 -0.1675 -1.1442
 2773TIP3    H229735   4.176   2.670   3.108  0.3438  0.8983  0.0357
 2774TIP3   OH229736   6.078   4.321  13.812  0.0927 -0.2494  0.0114
 2774TIP3    H129737   5.986   4.306  13.836  0.3307 -1.3590  0.2979
 2774TIP3    H229738   6.127   4.292  13.889  0.7655 -1.4648 -0.8377
 2775TIP3   OH229739   5.184   0.372   5.013 -0.5416 -0.0777  0.0531
 2775TIP3    H129740   5.125   0.359   4.939 -1.2756 -1.8653  0.8897
 2775TIP3    H229741   5.159   0.304   5.075  0.1867  1.2418  1.8684
 2776TIP3   OH229742   0.608   2.010  16.896 -0.1483  0.1780  0.1836
 2776TIP3    H129743   0.672   2.064  16.850 -1.1242  1.0964 -0.1389
 2776TIP3    H229744   0.554   1.973  16.826  0.2303 -0.8641  0.4309
 2777TIP3   OH229745   4.291   6.791   6.539 -0.2174 -0.2519  0.0582
 2777TIP3    H129746   4.321   6.710   6.497  1.3004 -0.1168  0.8232
 2777TIP3    H229747   4.345   6.799   6.617  1.0056  2.4579 -0.9344
 2778TIP3   OH229748   3.024   0.782  14.789 -0.1214 -0.4929 -0.5078
 2778TIP3    H129749   3.119   0.785  14.798 -0.3132  0.3210  1.7036
 2778TIP3    H229750   2.994   0.868  14.817 -1.5624 -0.9236 -0.6320
 2779TIP3   OH229751   6.222   2.199  14.741  0.4179 -0.2603  0.1199
 2779TIP3    H129752   6.270   2.277  14.715 -0.0575 -0.3162 -0.9841
 2779TIP3    H229753   6.151   2.232  14.796 -1.5508  0.4995 -2.6626
 2780TIP3   OH229754   5.446   6.578   1.006  0.0087  0.2136  0.4954
 2780TIP3    H129755   5.486   6.530   1.080 -1.7294  0.2813  1.5242
 2780TIP3    H229756   5.418   6.510   0.946 -1.0673 -0.0201  1.2328
 2781TIP3   OH229757   0.602   4.844   4.957 -0.2090 -0.4003  0.3290
 2781TIP3    H129758   0.611   4.838   5.052 -1.5882 -0.1540  0.4938
 2781TIP3    H229759   0.672   4.903   4.930 -0.4684  0.3913  1.3366
 2782TIP3   OH229760   0.364   6.566  12.498 -0.2893  0.2653  0.0397
 2782TIP3    H129761   0.348   6.658  12.520 -0.5481  0.7104 -1.8178
 2782TIP3    H229762   0.458   6.555  12.510 -0.5054  0.2459  1.9987
 2783TIP3   OH229763   3.932   1.845   1.926  0.1162  0.3971  1.1149
 2783TIP3    H129764   3.943   1.867   1.834 -0.5031 -1.1221  0.6353
 2783TIP3    H229765   3.888   1.921   1.965 -0.9284  0.4744 -0.1668
 2784TIP3   OH229766   2.697   3.207   3.832 -0.7539 -0.1222 -0.2456
 2784TIP3    H129767   2.622   3.200   3.773 -2.2370 -0.3588  1.5749
 2784TIP3    H229768   2.659   3.233   3.916  1.0902 -1.1513  0.9769
 2785TIP3   OH229769   2.844   2.905   1.746 -0.0318  0.2002 -0.6203
 2785TIP3    H129770   2.799   2.829   1.710  2.0772 -1.5200  0.1636
 2785TIP3    H229771   2.929   2.871   1.774  0.3075  2.4912  1.3992
 2786TIP3   OH229772   6.550   2.017  12.672  0.5682 -0.3802 -0.1549
 2786TIP3    H129773   6.590   2.102  12.691  2.7796 -1.3568 -0.1206
 2786TIP3    H229774   6.534   1.979  12.759  3.3889 -1.6069 -0.0669
 2787TIP3   OH229775   0.000   4.019  16.269 -0.8639  0.2934  0.7208
 2787TIP3    H129776   0.033   3.929  16.270  0.8182  0.8531 -0.3336
 2787TIP3    H229777   0.032   4.057  16.351  2.8597  1.3320 -1.0105
 2788TIP3   OH229778   0.274   3.235   4.416 -0.0943  0.0147 -0.3012
 2788TIP3    H129779   0.348   3.251   4.357  0.8524 -1.8676  0.2756
 2788TIP3    H229780   0.221   3.170   4.370 -0.6943  0.4008 -0.1565
 2789TIP3   OH229781   0.772   2.942   1.884  0.0223  0.5143 -0.0215
 2789TIP3    H129782   0.739   3.019   1.838  0.5018 -0.4338 -2.0655
 2789TIP3    H229783   0.867   2.953   1.885  0.1348 -0.2659 -0.7866
 2790TIP3   OH229784   5.042   4.453   0.872 -0.1643  0.0699  0.1575
 2790TIP3    H129785   5.039   4.463   0.777  1.5495 -0.0168  0.0609
 2790TIP3    H229786   5.032   4.359   0.887 -0.7409  0.1192  0.0851
 2791TIP3   OH229787   5.265   1.252  15.239  0.0707  0.1981 -0.2128
 2791TIP3    H129788   5.322   1.313  15.192  0.0164 -0.0043 -0.5495
 2791TIP3    H229789   5.316   1.171  15.244  0.5537  0.5724  1.1485
 2792TIP3   OH229790   0.590   2.491  13.505  0.4941 -0.8756  0.5595
 2792TIP3    H129791   0.564   2.549  13.576 -0.4947  0.8759 -1.1357
 2792TIP3    H229792   0.678   2.462  13.529  1.0856  1.4371  1.4611
 2793TIP3   OH229793   5.874   2.184  16.796  0.0919  0.3127 -0.1084
 2793TIP3    H129794   5.939   2.253  16.812  0.2921  0.2832 -0.7621
 2793TIP3    H229795   5.795   2.231  16.769  0.4088  0.2816 -1.1613
 2794TIP3   OH229796   4.128   2.823  16.643  0.4984 -0.7296  0.8460
 2794TIP3    H129797   4.206   2.858  16.599  0.8363 -1.8593  0.5028
 2794TIP3    H229798   4.122   2.733  16.612 -1.6334 -0.3413 -0.0260
 2795TIP3   OH229799   3.197   6.165  12.026  0.0598  0.1649 -0.2693
 2795TIP3    H129800   3.184   6.256  12.054 -1.6120  0.5516 -2.1525
 2795TIP3    H229801   3.110   6.126  12.027 -0.1783  0.1261 -4.3465
 2796TIP3   OH229802   2.717   1.332  13.592 -0.3189 -0.2555 -0.0417
 2796TIP3    H129803   2.725   1.317  13.686  3.0490 -2.2700 -0.4445
 2796TIP3    H229804   2.739   1.425  13.580  0.2736 -0.2295  1.1131
 2797TIP3   OH229805   5.219   5.811  16.072  0.0613  0.4215 -0.3113
 2797TIP3    H129806   5.196   5.897  16.038  0.7351 -0.0457 -2.0136
 2797TIP3    H229807   5.279   5.829  16.145 -0.4672  1.3982 -0.1066
 2798TIP3   OH229808   4.871   0.445   0.631  0.8356 -0.3008  0.2321
 2798TIP3    H129809   4.915   0.528   0.650 -0.4935  0.5740 -0.3603
 2798TIP3    H229810   4.824   0.425   0.712 -0.7707  0.8115 -0.3695
 2799TIP3   OH229811   3.421   5.169  16.006  0.2269  0.1950  0.8915
 2799TIP3    H129812   3.353   5.168  16.072  0.6614 -0.0785  1.3410
 2799TIP3    H229813   3.426   5.079  15.973 -0.7192  0.5495 -0.2874
 2800TIP3   OH229814   1.968   1.417  11.468  0.1675 -0.1111 -0.5688
 2800TIP3    H129815   1.989   1.396  11.377  0.1588 -0.0456 -0.5862
 2800TIP3    H229816   2.048   1.456  11.503  0.0267  0.2748 -0.6769
 2801TIP3   OH229817   3.255   4.178  16.679  0.1108  0.5822  0.0795
 2801TIP3    H129818   3.239   4.084  16.671  1.8627  0.1656  0.8896
 2801TIP3    H229819   3.170   4.216  16.700 -0.7467 -0.7263 -0.9470
 2802TIP3   OH229820   1.237   3.767   1.575 -0.4908  0.3607 -0.0254
 2802TIP3    H129821   1.214   3.685   1.531 -0.1016 -0.0265  0.4634
 2802TIP3    H229822   1.296   3.812   1.514  0.1286 -0.2188  0.1264
 2803TIP3   OH229823   2.049   4.572  13.039  0.0796  0.1802 -0.1970
 2803TIP3    H129824   2.005   4.492  13.066  1.6131 -0.3426  0.8810
 2803TIP3    H229825   1.986   4.642  13.056 -0.4474 -0.5706  1.0405
 2804TIP3   OH229826   6.171   4.730   4.631 -0.1008 -0.2328 -0.2962
 2804TIP3    H129827   6.113   4.724   4.556 -0.5918 -2.2005  0.1668
 2804TIP3    H229828   6.250   4.682   4.605 -0.7944 -2.1020  0.8337
 2805TIP3   OH229829   4.141   5.464  13.666  0.1677  0.3193 -0.2151
 2805TIP3    H129830   4.092   5.482  13.586 -1.5353  0.5146  0.8042
 2805TIP3    H229831   4.163   5.551  13.701 -1.6546  0.3740  0.9629
 2806TIP3   OH229832   4.015   3.052  12.929 -0.3126  0.2020  0.5067
 2806TIP3    H129833   4.102   3.068  12.965 -0.6005  1.5010  0.6751
 2806TIP3    H229834   4.007   2.957  12.926  1.5349  0.0292 -0.5310
 2807TIP3   OH229835   0.987   4.306  12.414 -0.0664  0.3901  0.3327
 2807TIP3    H129836   1.031   4.225  12.441  0.0539 -0.2497 -1.6024
 2807TIP3    H229837   1.007   4.313  12.321 -1.0794  2.0344  0.2099
 2808TIP3   OH229838   1.096   1.547  11.804  0.4430 -0.1996 -0.5606
 2808TIP3    H129839   1.110   1.454  11.787  0.6150 -0.1182 -0.8893
 2808TIP3    H229840   1.142   1.564  11.886 -1.6346 -0.9168  0.8277
 2809TIP3   OH229841   2.795   3.154  14.296 -0.3626  0.2449  0.5676
 2809TIP3    H129842   2.874   3.207  14.304 -0.5236  0.6093 -0.1649
 2809TIP3    H229843   2.821   3.067  14.326  0.0382  0.6069  1.3057
 2810TIP3   OH229844   6.632   6.527  13.656  0.6567  0.2560  0.0147
 2810TIP3    H129845   6.666   6.616  13.652 -0.8008  0.8042 -1.1912
 2810TIP3    H229846   6.604   6.508  13.566  0.8079 -1.3767  0.2748
 2811TIP3   OH229847   6.672   2.912  12.536  0.1577 -0.4696  0.0924
 2811TIP3    H129848   6.729   2.975  12.491  0.3321 -1.0726 -0.5473
 2811TIP3    H229849   6.728   2.836  12.550  0.2787 -0.0904  1.8805
 2812TIP3   OH229850   0.844   0.876  14.664 -0.1959 -0.5943 -0.4977
 2812TIP3    H129851   0.900   0.943  14.702  1.6249 -2.1538 -0.3177
 2812TIP3    H229852   0.771   0.868  14.726 -1.1616  2.0166 -1.1387
 2813TIP3   OH229853   4.523   6.160   5.454  0.5042  0.0919 -0.3840
 2813TIP3    H129854   4.484   6.078   5.424  1.0746  0.0626 -1.0865
 2813TIP3    H229855   4.615   6.152   5.430  0.8493  0.3734  0.7709
 2814TIP3   OH229856   5.402   0.514  13.761 -0.0246 -0.2792 -0.2584
 2814TIP3    H129857   5.443   0.500  13.846 -0.1615 -1.3811 -0.3640
 2814TIP3    H229858   5.423   0.605  13.739  0.2773 -0.0811  0.8018
 2815TIP3   OH229859   5.038   0.246   4.023  0.7150 -0.2763  0.1359
 2815TIP3    H129860   5.099   0.198   3.967  1.7063  0.8806  0.2032
 2815TIP3    H229861   4.966   0.270   3.964  1.0182 -0.3819 -0.2813
 2816TIP3   OH229862   6.620   4.434   0.028 -0.1349 -0.2291  0.6098
 2816TIP3    H129863   6.678   4.492   0.076  1.8658 -1.3964 -0.2808
 2816TIP3    H229864   6.594   4.485  -0.049  0.2250  0.0773  0.6898
 2817TIP3   OH229865   0.799   2.620   5.696 -0.1896 -0.0443 -0.1053
 2817TIP3    H129866   0.865   2.687   5.712  1.6557 -1.8133  0.0778
 2817TIP3    H229867   0.795   2.611   5.601  2.2646 -2.1111 -0.1067
 2818TIP3   OH229868   0.826   0.660   5.584 -0.2813  0.1436 -0.0058
 2818TIP3    H129869   0.842   0.676   5.678  0.9841  2.9347 -0.5804
 2818TIP3    H229870   0.846   0.568   5.572 -1.2204 -0.5031  2.5891
 2819TIP3   OH229871   0.336   3.728  16.879 -0.2993  0.1011 -0.4949
 2819TIP3    H129872   0.393   3.653  16.860 -0.1198  0.0484  0.2054
 2819TIP3    H229873   0.394   3.804  16.872 -0.1921  0.0658  0.0147
 2820TIP3   OH229874   6.611   4.114  15.043  0.2724  0.5004 -0.2403
 2820TIP3    H129875   6.520   4.090  15.063 -0.2641  1.6943 -1.1090
 2820TIP3    H229876   6.606   4.154  14.956  1.7774 -0.1929 -0.6684
 2821TIP3   OH229877   5.015   3.046   0.549 -0.3405 -0.7305 -0.3682
 2821TIP3    H129878   5.052   3.116   0.603  0.6294 -1.0485 -0.6105
 2821TIP3    H229879   4.989   3.090   0.467  0.7852 -0.7403 -0.7431
 2822TIP3   OH229880   4.069   2.753  10.864  0.0941  0.2003 -0.4664
 2822TIP3    H129881   4.050   2.659  10.868  0.9990  0.0374  0.7214
 2822TIP3    H229882   4.164   2.758  10.852  0.1920  0.9452  0.5004
 2823TIP3   OH229883   2.240   6.776  14.121  0.0825  0.2709 -0.5611
 2823TIP3    H129884   2.266   6.820  14.040 -0.4665 -0.0863 -0.9385
 2823TIP3    H229885   2.146   6.790  14.126 -0.0084 -0.3817 -0.3969
 2824TIP3   OH229886   3.182   3.182   4.566  0.2471  0.3580  0.1158
 2824TIP3    H129887   3.211   3.205   4.478 -0.3034 -0.6569 -0.3464
 2824TIP3    H229888   3.137   3.260   4.598  2.4687  1.5853  0.4326
 2825TIP3   OH229889   0.550   0.481   4.287 -0.1696 -0.0793 -0.0864
 2825TIP3    H129890   0.588   0.569   4.293 -2.5818  1.1035 -0.6459
 2825TIP3    H229891   0.496   0.473   4.365 -1.6535 -0.1336 -1.0723
 2826TIP3   OH229892   0.496   4.341   4.867 -0.5219  0.6460  0.1209
 2826TIP3    H129893   0.403   4.318   4.867 -0.8003  1.6897 -0.4665
 2826TIP3    H229894   0.502   4.417   4.924  0.1265  0.0598  0.8468
 2827TIP3   OH229895   5.970   3.090   4.361 -0.3416 -0.0751  0.3542
 2827TIP3    H129896   5.932   3.012   4.400 -0.5937 -0.0594  0.1483
 2827TIP3    H229897   6.045   3.111   4.416 -0.0983 -0.6306  0.2374
 2828TIP3   OH229898   4.554   3.405   3.752  0.6329 -0.5276 -0.5272
 2828TIP3    H129899   4.587   3.493   3.730 -0.3639  0.1211  0.4926
 2828TIP3    H229900   4.559   3.357   3.669  0.4614  0.7290 -1.2937
 2829TIP3   OH229901   5.714   6.372   4.592  0.4659 -0.2031 -0.3134
 2829TIP3    H129902   5.656   6.355   4.517  0.8732 -2.0293 -0.2660
 2829TIP3    H229903   5.784   6.427   4.556 -0.2353  0.3583 -0.8499
 2830TIP3   OH229904   2.546   3.754   3.757 -0.2031 -0.2197  0.0404
 2830TIP3    H129905   2.495   3.835   3.765  0.2764 -0.1065  2.6104
 2830TIP3    H229906   2.625   3.780   3.710 -0.8924  0.3568 -0.8484
 2831TIP3   OH229907   5.556   0.668   2.111 -0.2636 -0.3941  0.2660
 2831TIP3    H129908   5.580   0.575   2.102  2.8263  0.4773 -1.7927
 2831TIP3    H229909   5.539   0.698   2.022 -0.7073  1.1817  0.8454
 2832TIP3   OH229910   5.894   3.343   3.459 -0.0053 -0.4773 -0.2157
 2832TIP3    H129911   5.896   3.323   3.365  0.8750  2.2584 -0.8858
 2832TIP3    H229912   5.986   3.355   3.482 -0.3506  3.4391 -0.2373
 2833TIP3   OH229913   1.179   3.776  15.988  0.2463  0.5336 -0.4629
 2833TIP3    H129914   1.107   3.820  16.033  1.1400 -0.1628  1.7451
 2833TIP3    H229915   1.151   3.685  15.979  0.2526  0.5759 -0.9737
 2834TIP3   OH229916   2.239   5.258  14.563 -0.4734  0.1668 -0.1778
 2834TIP3    H129917   2.205   5.320  14.499  0.4074 -0.2514 -1.0702
 2834TIP3    H229918   2.164   5.239  14.619 -0.5769  2.6450  0.6583
 2835TIP3   OH229919   2.508   5.469  12.103 -0.1912  0.8578 -0.0489
 2835TIP3    H129920   2.466   5.405  12.161  0.6251  0.6309  0.3029
 2835TIP3    H229921   2.457   5.464  12.022 -0.7097  0.4309  0.2908
 2836TIP3   OH229922   1.441   6.123  13.076 -0.0158 -0.0684 -0.0204
 2836TIP3    H129923   1.529   6.133  13.114 -0.2920 -1.2225  0.9899
 2836TIP3    H229924   1.384   6.111  13.151 -0.8481 -0.6895 -0.7367
 2837TIP3   OH229925   3.564   1.615   6.725 -0.0116 -0.1535 -0.0536
 2837TIP3    H129926   3.488   1.664   6.691 -1.2590 -1.1685  1.1435
 2837TIP3    H229927   3.639   1.657   6.685 -1.2502  0.3215 -2.0285
 2838TIP3   OH229928   2.636   5.421   1.325  0.4512 -0.6376  0.1496
 2838TIP3    H129929   2.580   5.496   1.304 -0.4196 -1.5885 -1.1081
 2838TIP3    H229930   2.676   5.397   1.242  0.7555 -1.5419  0.5470
 2839TIP3   OH229931   6.390   4.619   4.475  0.4479 -0.1730 -0.2843
 2839TIP3    H129932   6.375   4.617   4.380  2.2010 -1.5475 -0.5917
 2839TIP3    H229933   6.462   4.681   4.486 -0.4015  0.7318  0.2877
 2840TIP3   OH229934   3.187   6.671   4.021 -0.2812 -0.0289  0.0918
 2840TIP3    H129935   3.127   6.681   4.095  0.6081 -0.2225  0.8566
 2840TIP3    H229936   3.184   6.756   3.976 -1.2533 -0.0946  0.0084
 2841TIP3   OH229937   4.375   3.718  11.284 -0.1006 -0.6509 -0.6633
 2841TIP3    H129938   4.395   3.704  11.377  1.0633  1.9507 -0.4276
 2841TIP3    H229939   4.326   3.640  11.258  0.0195 -1.7190  1.9806
 2842TIP3   OH229940   4.312   2.486  12.277  0.8143  0.0616  0.2027
 2842TIP3    H129941   4.218   2.476  12.266  0.6355  0.9791  0.8076
 2842TIP3    H229942   4.345   2.504  12.189  0.4445 -0.3376 -0.0201
 2843TIP3   OH229943   0.197   6.703  16.752  0.0765  0.3931  0.1914
 2843TIP3    H129944   0.159   6.697  16.839  0.7553 -1.3045  0.4069
 2843TIP3    H229945   0.289   6.727  16.768  0.3543 -0.5079  0.0017
 2844TIP3   OH229946   3.280   1.516  12.792  0.1010  0.2614 -0.6189
 2844TIP3    H129947   3.319   1.482  12.711 -0.9393  0.4880 -1.2383
 2844TIP3    H229948   3.204   1.566  12.762  0.4078  1.4019  0.4102
 2845TIP3   OH229949   0.035   4.066  16.007 -0.3379 -0.2812  0.2226
 2845TIP3    H129950   0.123   4.040  15.982  0.3339  1.3432  0.7655
 2845TIP3    H229951   0.035   4.065  16.102 -1.0767 -0.7918  0.2223
 2846TIP3   OH229952   3.310   1.303   2.406  0.0405 -0.9572  0.1287
 2846TIP3    H129953   3.340   1.360   2.477 -0.0161 -0.4657 -0.2336
 2846TIP3    H229954   3.316   1.214   2.441 -2.5125 -0.6064  1.7282
 2847TIP3   OH229955   6.410   1.520  13.253  0.1021  0.1769 -0.1743
 2847TIP3    H129956   6.352   1.523  13.329 -1.9592 -0.6355 -1.6218
 2847TIP3    H229957   6.395   1.603  13.208 -0.3546 -0.2526 -0.8307
 2848TIP3   OH229958   2.157   0.464  16.859  0.4436 -0.3865 -0.6820
 2848TIP3    H129959   2.152   0.545  16.909 -2.4428 -1.3780  0.8885
 2848TIP3    H229960   2.213   0.485  16.784  0.4270  2.7913  0.0528
 2849TIP3   OH229961   5.570   3.734   3.773 -0.4102 -0.2045  0.1752
 2849TIP3    H129962   5.596   3.711   3.862 -2.1182  2.7070  1.5517
 2849TIP3    H229963   5.487   3.688   3.759 -0.5590 -0.0093  0.4138
 2850TIP3   OH229964   0.671   2.528   1.343  0.3794  0.0222 -0.8589
 2850TIP3    H129965   0.644   2.559   1.429 -0.3727  1.8573 -1.7181
 2850TIP3    H229966   0.764   2.550   1.338  0.2787  0.4732 -0.7537
 2851TIP3   OH229967   5.693   3.575   4.159  0.8327  0.2528 -0.3741
 2851TIP3    H129968   5.760   3.643   4.148  0.7434  0.4452  0.2381
 2851TIP3    H229969   5.727   3.520   4.230  1.0276 -0.4997 -1.0355
 2852TIP3   OH229970   4.042   6.034   1.075  0.1780 -0.1975 -0.4919
 2852TIP3    H129971   4.105   6.044   1.147 -0.5492 -1.4489  0.3670
 2852TIP3    H229972   4.056   6.110   1.020  2.1239 -0.1957 -0.0760
 2853TIP3   OH229973   4.690   0.212  13.866  0.6518  0.0399 -0.2173
 2853TIP3    H129974   4.704   0.201  13.960  0.8407 -1.1214 -0.3676
 2853TIP3    H229975   4.777   0.201  13.827  0.1363 -2.8879 -0.7896
 2854TIP3   OH229976   2.289   3.706   3.182 -0.2714  0.4240  0.4100
 2854TIP3    H129977   2.217   3.742   3.130 -1.2764  0.3490  1.6775
 2854TIP3    H229978   2.342   3.783   3.205 -0.6128  0.6506  0.4476
 2855TIP3   OH229979   6.437   3.780  14.986  0.1143  0.1377 -0.3891
 2855TIP3    H129980   6.495   3.790  15.061  1.5170  1.0079 -1.5447
 2855TIP3    H229981   6.493   3.792  14.910 -1.0440 -1.7771 -1.6406
 2856TIP3   OH229982   1.213   0.023   2.755  0.3537 -0.1315 -0.2033
 2856TIP3    H129983   1.293   0.075   2.749  0.1045  0.5114  1.5078
 2856TIP3    H229984   1.163   0.064   2.825 -0.4318 -1.9311  0.3400
 2857TIP3   OH229985   3.046   0.373  13.788 -0.9909  0.2153 -0.1369
 2857TIP3    H129986   2.973   0.408  13.839 -0.8650 -0.6520  0.6860
 2857TIP3    H229987   3.057   0.434  13.716 -1.0382  1.6433  1.0084
 2858TIP3   OH229988   4.457   5.877   2.700  0.4962 -0.0335 -0.3303
 2858TIP3    H129989   4.536   5.886   2.648  1.7420  1.6369  1.6993
 2858TIP3    H229990   4.424   5.966   2.710 -0.7001 -0.5114  0.2627
 2859TIP3   OH229991   5.585   4.731  10.766  0.3882  0.0534  0.1721
 2859TIP3    H129992   5.549   4.664  10.824  0.8878  0.5368  1.0546
 2859TIP3    H229993   5.537   4.811  10.788 -0.0342  0.0518 -0.7049
 2860TIP3   OH229994   4.579   6.174  13.254  0.0688  0.4384  0.0444
 2860TIP3    H129995   4.549   6.220  13.332 -1.1840 -0.5681  0.1680
 2860TIP3    H229996   4.508   6.115  13.231 -0.2370  1.7108 -2.7171
 2861TIP3   OH229997   2.891   0.130  16.147  0.1278 -0.1118  0.7099
 2861TIP3    H129998   2.874   0.035  16.149 -1.3418  0.1264  2.0559
 2861TIP3    H229999   2.830   0.166  16.212 -0.7453  1.9907 -1.1649
 2862TIP3   OH230000   2.524   6.620  14.740  0.4235  0.4102  0.2078
 2862TIP3    H130001   2.431   6.625  14.762  0.0990  0.4049 -1.0775
 2862TIP3    H230002   2.549   6.709  14.718  0.3614  0.1895 -0.7930
 2863TIP3   OH230003   6.687   5.846   1.455 -0.0312 -0.3775 -0.5312
 2863TIP3    H130004   6.698   5.877   1.365 -1.2130 -0.2776 -0.6546
 2863TIP3    H230005   6.635   5.914   1.497 -0.0625 -0.7579  0.0460
 2864TIP3   OH230006   2.128   0.244  14.376 -0.2172  0.1402 -0.4331
 2864TIP3    H130007   2.113   0.152  14.397  2.2891 -0.3346 -0.4067
 2864TIP3    H230008   2.214   0.245  14.335  0.2209  2.5843  0.4056
 2865TIP3   OH230009   0.955   1.105  16.557 -0.3577  0.0160 -0.5661
 2865TIP3    H130010   0.980   1.147  16.639 -0.5587 -1.1798  0.1350
 2865TIP3    H230011   1.035   1.061  16.527  0.1445  1.6786 -1.8430
 2866TIP3   OH230012   1.591   3.848   4.812 -0.4958  0.1273  0.3145
 2866TIP3    H130013   1.665   3.859   4.752 -0.7033  0.6103  0.1419
 2866TIP3    H230014   1.576   3.753   4.815  0.2225  0.0149  0.4662
 2867TIP3   OH230015   2.914   4.091   1.307  0.3859  0.5023  0.2543
 2867TIP3    H130016   2.941   4.014   1.356 -0.7287 -0.9214 -1.2456
 2867TIP3    H230017   2.819   4.095   1.320  0.1347  0.3575 -1.3466
 2868TIP3   OH230018   3.163   4.060   5.141 -0.1541  0.4907  0.0467
 2868TIP3    H130019   3.076   4.026   5.164 -0.0723  0.7931  0.8286
 2868TIP3    H230020   3.219   3.982   5.137 -0.1730  0.4313  0.8722
 2869TIP3   OH230021   1.293   2.607   4.860 -0.1946 -0.2363  0.5334
 2869TIP3    H130022   1.289   2.653   4.777 -1.2567 -0.5279  0.4117
 2869TIP3    H230023   1.227   2.649   4.915 -1.6099 -1.9574  0.2290
 2870TIP3   OH230024   4.893   1.048   3.693  0.0794  0.0766 -0.6270
 2870TIP3    H130025   4.932   1.038   3.607 -0.4052  1.2417 -0.9999
 2870TIP3    H230026   4.967   1.044   3.754  0.4996 -0.0481 -1.1411
 2871TIP3   OH230027   3.038   0.938  14.021  0.2059  0.2679 -0.0617
 2871TIP3    H130028   3.080   0.902  13.943  1.4737  1.7506 -0.1024
 2871TIP3    H230029   2.987   1.012  13.989 -1.0094 -0.4057  0.2528
 2872TIP3   OH230030   4.904   0.881   4.465  1.1108 -0.1434  0.4916
 2872TIP3    H130031   4.997   0.860   4.462  1.0102 -0.9319  1.9557
 2872TIP3    H230032   4.872   0.835   4.543 -0.1879  1.3731  0.9000
 2873TIP3   OH230033   0.902   2.538   1.547  0.4702  0.3075  0.1959
 2873TIP3    H130034   0.985   2.495   1.569 -0.5610 -0.8396  2.1830
 2873TIP3    H230035   0.892   2.605   1.615  0.2223  1.1111 -0.6165
 2874TIP3   OH230036   1.930   6.088   3.489  0.3585 -0.1892  0.0322
 2874TIP3    H130037   1.935   6.153   3.559 -2.5558  0.1393  0.0611
 2874TIP3    H230038   1.879   6.131   3.421  2.1903 -0.9044 -1.9034
 2875TIP3   OH230039   6.567   4.000   5.358 -0.4135 -0.4307  0.1180
 2875TIP3    H130040   6.483   4.033   5.327 -0.6058 -1.1783 -0.1780
 2875TIP3    H230041   6.620   3.993   5.278 -0.4031 -0.9065  0.1654
 2876TIP3   OH230042   4.520   0.176   0.241 -0.0419 -0.0087 -0.2630
 2876TIP3    H130043   4.463   0.100   0.256 -0.7576  0.7272  0.8494
 2876TIP3    H230044   4.556   0.162   0.153 -1.4104 -0.8387 -0.7154
 2877TIP3   OH230045   1.657   3.340  11.896  0.1741 -0.2602  0.2226
 2877TIP3    H130046   1.746   3.307  11.911  0.4368  1.0023  1.6517
 2877TIP3    H230047   1.659   3.375  11.807  1.7435  1.5780  0.9201
 2878TIP3   OH230048   2.185   0.908  12.960 -0.0975 -0.3015  0.2158
 2878TIP3    H130049   2.098   0.892  12.995 -0.0539 -0.2848  0.3362
 2878TIP3    H230050   2.243   0.852  13.012 -0.0373 -0.3152  0.1346
 2879TIP3   OH230051   1.686   4.159   0.657 -0.3431 -0.3427  0.4348
 2879TIP3    H130052   1.645   4.243   0.635  0.4351 -0.2796 -0.8928
 2879TIP3    H230053   1.725   4.173   0.743 -0.5627  0.5333  0.4065
 2880TIP3   OH230054   1.338   6.582   5.662 -0.1736  0.1892 -0.5458
 2880TIP3    H130055   1.300   6.496   5.645 -2.0544  1.2276 -1.9998
 2880TIP3    H230056   1.264   6.636   5.691  0.6650  1.6763 -1.0602
 2881TIP3   OH230057   0.095   1.516  10.865  0.0827  0.4319  0.0483
 2881TIP3    H130058   0.028   1.537  10.930 -0.7117 -0.5226 -0.4409
 2881TIP3    H230059   0.054   1.452  10.807  1.6259 -0.6778  0.1174
 2882TIP3   OH230060   1.824   0.533   5.437  0.5021 -0.6843  0.4561
 2882TIP3    H130061   1.795   0.497   5.353  1.0523 -1.2698  0.5159
 2882TIP3    H230062   1.743   0.544   5.487  0.1699 -0.3194 -0.1472
 2883TIP3   OH230063   5.912   0.105  12.787  0.4633 -0.5610  0.0739
 2883TIP3    H130064   5.846   0.162  12.827 -0.8152 -1.3205 -0.8769
 2883TIP3    H230065   5.996   0.142  12.814 -0.3475  0.4214  1.3367
 2884TIP3   OH230066   3.323   4.086   6.374 -0.5768 -0.2464 -0.3159
 2884TIP3    H130067   3.329   4.046   6.287  1.3582 -2.2680  0.6395
 2884TIP3    H230068   3.337   4.179   6.359 -0.7345 -0.4990 -2.2056
 2885TIP3   OH230069   1.660   1.846   1.646  0.3230 -0.4848 -0.3641
 2885TIP3    H130070   1.755   1.860   1.643  0.7316 -2.2556  1.3066
 2885TIP3    H230071   1.633   1.841   1.555  1.6132  1.2578 -0.8895
 2886TIP3   OH230072   6.723   0.658   1.011 -0.4525  0.4795 -0.5636
 2886TIP3    H130073   6.641   0.643   0.964 -1.6814  0.0239  1.5952
 2886TIP3    H230074   6.765   0.572   1.014 -0.5823  0.4191 -0.4567
 2887TIP3   OH230075   4.187   1.083   1.518 -0.0553  0.9770 -0.3159
 2887TIP3    H130076   4.121   1.153   1.515 -0.7753  0.3370  0.3869
 2887TIP3    H230077   4.172   1.039   1.601  0.9413  0.5009 -0.3773
 2888TIP3   OH230078   6.257   2.602  12.026 -0.0032  0.1618  0.0166
 2888TIP3    H130079   6.243   2.691  12.057  0.0680 -0.2106  1.1687
 2888TIP3    H230080   6.171   2.574  11.994  0.1155  0.8476 -0.9843
 2889TIP3   OH230081   5.447   2.423   2.544 -0.3384  0.2928 -0.6567
 2889TIP3    H130082   5.543   2.423   2.539 -0.3075  0.9993 -0.1399
 2889TIP3    H230083   5.428   2.423   2.638 -0.8429  0.5826 -0.7549
 2890TIP3   OH230084   6.583   5.875  16.088 -0.2506 -0.5572  0.1389
 2890TIP3    H130085   6.525   5.799  16.080  0.6409 -1.0961 -2.5020
 2890TIP3    H230086   6.543   5.941  16.032 -0.2524  0.4396  1.2887
 2891TIP3   OH230087   0.819   4.306  16.250  0.5940 -0.5295  0.8297
 2891TIP3    H130088   0.764   4.248  16.197 -0.9843  0.7107  1.0244
 2891TIP3    H230089   0.891   4.251  16.279 -0.5376 -2.2339  0.5418
 2892TIP3   OH230090   5.079   6.214  11.503  0.0784 -0.1432  0.1030
 2892TIP3    H130091   5.015   6.193  11.571  1.3017 -0.5524  1.1768
 2892TIP3    H230092   5.043   6.291  11.459 -2.3730 -1.7930 -1.0282
 2893TIP3   OH230093   6.068   0.494  12.151 -0.3301  0.1824  0.2879
 2893TIP3    H130094   5.996   0.471  12.210 -0.1253 -1.4867 -0.0590
 2893TIP3    H230095   6.146   0.457  12.193  0.1769  1.0318  0.1204
 2894TIP3   OH230096   0.830   1.117   1.356  0.0825  0.3165 -0.3445
 2894TIP3    H130097   0.736   1.116   1.338 -0.6315  1.3363  2.7188
 2894TIP3    H230098   0.858   1.026   1.347 -1.6065 -0.3020  0.3593
 2895TIP3   OH230099   4.310   2.183  13.434  0.4607  0.2896  0.4938
 2895TIP3    H130100   4.296   2.273  13.464 -0.7342 -0.0175  0.9378
 2895TIP3    H230101   4.238   2.167  13.373  0.5383 -0.4393  0.5856
 2896TIP3   OH230102   2.627   2.045  12.178  0.2250  0.3085  0.4352
 2896TIP3    H130103   2.608   1.994  12.257  0.8844  1.3302  1.2723
 2896TIP3    H230104   2.650   1.979  12.113  2.0582 -0.4706  1.7767
 2897TIP3   OH230105   5.152   1.680  15.265  0.5690 -0.0114  0.3921
 2897TIP3    H130106   5.202   1.743  15.318 -1.6471  1.4802  0.8601
 2897TIP3    H230107   5.162   1.712  15.175  1.5194 -0.5352  0.2922
 2898TIP3   OH230108   1.990   5.374  15.809  0.1907  0.0436  0.1415
 2898TIP3    H130109   2.006   5.285  15.841 -0.2264 -0.1234 -0.1149
 2898TIP3    H230110   1.990   5.428  15.888  2.2460  0.1035  0.1610
 2899TIP3   OH230111   4.129   4.256   5.420 -0.5364 -0.2959 -0.7071
 2899TIP3    H130112   4.218   4.231   5.446 -0.1723 -0.2897 -1.9221
 2899TIP3    H230113   4.139   4.300   5.336 -1.6650 -0.0189 -0.7216
 2900TIP3   OH230114   2.072   3.685   2.094 -0.4618  0.2128 -1.0664
 2900TIP3    H130115   2.003   3.673   2.029  0.4519 -2.3775 -1.6757
 2900TIP3    H230116   2.143   3.628   2.065  0.8222  0.5921  1.0763
 2901TIP3   OH230117   5.115   3.712  12.470  0.1842  0.9437 -0.3445
 2901TIP3    H130118   5.029   3.748  12.492 -0.3722 -0.7563  0.3605
 2901TIP3    H230119   5.166   3.721  12.550  0.0402  0.1720 -0.1643
 2902TIP3   OH230120   6.542   3.701   5.293 -0.2721 -0.5409  0.1743
 2902TIP3    H130121   6.632   3.695   5.262  0.5372  1.0246  2.0140
 2902TIP3    H230122   6.510   3.611   5.291  0.3756 -0.8197 -2.9712
 2903TIP3   OH230123   0.220   4.313   3.118  0.4634  0.3088  0.2263
 2903TIP3    H130124   0.175   4.229   3.104  0.3062 -0.1170  2.8332
 2903TIP3    H230125   0.150   4.373   3.143  0.6344  1.1529 -1.2430
 2904TIP3   OH230126   1.412   5.107   2.248 -0.5899 -0.2180 -0.2228
 2904TIP3    H130127   1.372   5.045   2.187  1.9430 -1.2344 -0.9800
 2904TIP3    H230128   1.392   5.070   2.335  0.2868 -1.7658 -0.6395
 2905TIP3   OH230129   1.072   2.046   5.252  0.1171  0.3723 -0.1160
 2905TIP3    H130130   1.051   2.032   5.344 -0.7654  2.5428  0.0714
 2905TIP3    H230131   1.031   2.130   5.230 -1.6778 -1.0949 -3.0994
 2906TIP3   OH230132   0.254   4.909   0.405 -0.1473  0.1789  0.1831
 2906TIP3    H130133   0.237   4.841   0.340  0.3412  0.6295 -0.4318
 2906TIP3    H230134   0.330   4.956   0.370  1.0699 -0.4905  1.7979
 2907TIP3   OH230135   5.564   3.478  15.398 -0.2817  0.4457 -0.0253
 2907TIP3    H130136   5.534   3.425  15.472  1.4560 -0.4370  0.0957
 2907TIP3    H230137   5.508   3.452  15.325  0.2183 -1.2248  0.1547
 2908TIP3   OH230138   2.158   3.378   1.962  0.0144 -0.3375 -0.2573
 2908TIP3    H130139   2.152   3.361   1.868 -2.1226  1.5998 -0.5444
 2908TIP3    H230140   2.231   3.440   1.970  0.4580 -0.8025 -0.5516
 2909TIP3   OH230141   3.234   4.429  11.826  0.2606  0.6854 -0.2031
 2909TIP3    H130142   3.221   4.518  11.858  0.2038  0.7336 -0.3627
 2909TIP3    H230143   3.275   4.439  11.741 -0.1785  0.5715 -0.4305
 2910TIP3   OH230144   6.813   5.402   4.570  0.4622 -0.0019 -0.4920
 2910TIP3    H130145   6.801   5.489   4.609  1.0439  0.2924 -0.9672
 2910TIP3    H230146   6.896   5.371   4.605  0.5523 -0.1108 -0.7992
 2911TIP3   OH230147   5.178   1.360  15.687  0.1651 -0.3577 -0.1804
 2911TIP3    H130148   5.184   1.405  15.602  0.0302  1.0733  0.5345
 2911TIP3    H230149   5.264   1.322  15.700  0.3328 -0.1865 -0.7567
 2912TIP3   OH230150   4.935   1.804   0.728 -0.3511 -0.7086  0.3240
 2912TIP3    H130151   4.976   1.729   0.771 -0.0746  0.4870  2.2632
 2912TIP3    H230152   5.000   1.834   0.665  1.1070  0.0670  2.1075
 2913TIP3   OH230153   4.780   4.133  16.230 -0.8729 -0.1946 -0.2074
 2913TIP3    H130154   4.869   4.160  16.208 -1.0243 -0.6069 -1.4286
 2913TIP3    H230155   4.786   4.039  16.246 -0.9807 -0.1108  0.3295
 2914TIP3   OH230156   4.122   0.817  15.799  0.2306 -0.7304  0.3390
 2914TIP3    H130157   4.106   0.911  15.806  0.9608 -0.6807  1.9241
 2914TIP3    H230158   4.199   0.809  15.742  0.6493 -0.2911  0.8273
 2915TIP3   OH230159   0.552   6.752   0.897  0.1405  0.3849 -0.0990
 2915TIP3    H130160   0.592   6.708   0.822 -0.0837  0.1868 -0.1058
 2915TIP3    H230161   0.468   6.784   0.864 -0.2059 -0.1815  0.2055
 2916TIP3   OH230162   5.078   4.897   3.812  0.1511 -0.3833  0.2285
 2916TIP3    H130163   5.027   4.976   3.793 -1.2938 -1.1320  0.8224
 2916TIP3    H230164   5.149   4.899   3.748 -0.1585  1.1102 -0.1182
 2917TIP3   OH230165   2.478   5.612   1.222  0.4195  0.7342  0.4393
 2917TIP3    H130166   2.389   5.580   1.211  0.5480  0.9829 -1.7969
 2917TIP3    H230167   2.470   5.686   1.282 -0.9152  0.9079  0.0604
 2918TIP3   OH230168   3.998   0.756  10.952  0.1061  0.0916 -0.4862
 2918TIP3    H130169   4.001   0.842  10.911  0.2320  1.0917  1.4934
 2918TIP3    H230170   3.921   0.714  10.915  1.8123 -0.3303 -3.9553
 2919TIP3   OH230171   3.154   0.552  11.697 -0.1211  0.0846 -1.0900
 2919TIP3    H130172   3.244   0.523  11.686  0.5860  0.9175  1.5628
 2919TIP3    H230173   3.103   0.472  11.704  0.3712 -0.3935 -2.6924
 2920TIP3   OH230174   3.075   3.376  16.841 -0.6485 -0.0284 -0.1680
 2920TIP3    H130175   3.149   3.349  16.895 -0.2472 -0.1916 -0.7857
 2920TIP3    H230176   3.086   3.471  16.832 -0.6577 -0.0161 -0.0411
 2921TIP3   OH230177   6.770   3.321   5.779 -0.2452  0.2219  0.8919
 2921TIP3    H130178   6.717   3.245   5.755  0.7690 -0.1302 -0.3538
 2921TIP3    H230179   6.752   3.385   5.711  0.2620  0.4115  0.9292
 2922TIP3   OH230180   6.478   1.550  12.067  0.1631  0.8024 -0.1097
 2922TIP3    H130181   6.538   1.516  12.000  0.5339 -0.0944  0.6572
 2922TIP3    H230182   6.443   1.472  12.110  0.6102  1.3668  1.3379
 2923TIP3   OH230183   1.211   4.229   0.526  0.1048 -0.0974  0.1454
 2923TIP3    H130184   1.156   4.164   0.569  1.2189 -0.9236  0.3890
 2923TIP3    H230185   1.285   4.241   0.586  0.5377  0.4571 -0.4821
 2924TIP3   OH230186   1.883   6.738  12.966  0.0410  0.0612 -0.6738
 2924TIP3    H130187   1.936   6.753  13.044 -0.3063  0.5719 -0.5302
 2924TIP3    H230188   1.825   6.666  12.990 -0.5952  0.7188 -0.1795
 2925TIP3   OH230189   0.935   6.770   6.039 -0.4367 -1.0412 -0.0926
 2925TIP3    H130190   0.878   6.742   6.111 -1.2245 -0.3140 -0.4136
 2925TIP3    H230191   0.881   6.761   5.961 -1.3657  2.7110 -0.1086
 2926TIP3   OH230192   1.115   3.777  13.161  0.6004  0.1437 -0.0383
 2926TIP3    H130193   1.105   3.694  13.206  1.2255  0.3376  0.4870
 2926TIP3    H230194   1.176   3.827  13.216  0.2405  0.9461 -0.3411
 2927TIP3   OH230195   2.889   5.645   1.166  0.5247 -0.1432 -0.6045
 2927TIP3    H130196   2.924   5.558   1.186  1.5664  0.3185 -0.3489
 2927TIP3    H230197   2.963   5.692   1.127 -0.5528  0.0052 -2.6259
 2928TIP3   OH230198   4.422   6.044  15.576  0.7036 -0.2438 -0.3384
 2928TIP3    H130199   4.377   6.075  15.655  0.1279 -0.2385 -0.6573
 2928TIP3    H230200   4.388   6.100  15.506  0.9501 -0.4729 -0.6438
 2929TIP3   OH230201   4.927   4.643   3.860 -0.0784 -0.3026  0.4072
 2929TIP3    H130202   4.950   4.586   3.786  1.0678  1.0732 -0.3450
 2929TIP3    H230203   4.995   4.710   3.861 -1.3407  1.0282  1.3101
 2930TIP3   OH230204   5.242   3.398  16.098 -0.1898  0.0950  1.0581
 2930TIP3    H130205   5.270   3.325  16.154 -1.2917 -0.2493  1.2062
 2930TIP3    H230206   5.216   3.466  16.159  1.7114  0.9974  0.9125
 2931TIP3   OH230207   3.461   1.725   5.729  0.4205  0.3008 -0.1871
 2931TIP3    H130208   3.443   1.762   5.815 -0.4005  0.8450 -0.5778
 2931TIP3    H230209   3.522   1.786   5.689  1.1187 -0.1611  0.1428
 2932TIP3   OH230210   0.607   1.714  14.339  0.1680 -0.2939 -0.3336
 2932TIP3    H130211   0.649   1.650  14.281 -1.4284 -1.6400 -0.0578
 2932TIP3    H230212   0.543   1.758  14.283  0.4126  0.2140 -0.2148
 2933TIP3   OH230213   2.228   5.245   2.227 -0.4387  0.0341 -0.1642
 2933TIP3    H130214   2.186   5.200   2.154 -0.3413 -2.8271  1.4297
 2933TIP3    H230215   2.321   5.241   2.208 -0.5042  1.3380 -0.9209
 2934TIP3   OH230216   0.365   6.091  10.785  0.1813  0.1886 -0.9938
 2934TIP3    H130217   0.355   6.168  10.841 -1.8533  0.1545 -1.2342
 2934TIP3    H230218   0.365   6.126  10.696 -0.9402 -0.0579 -1.1132
 2935TIP3   OH230219   1.838   5.711   0.504 -0.4915  0.3838 -0.3692
 2935TIP3    H130220   1.830   5.647   0.574 -0.8393  0.4879 -0.3106
 2935TIP3    H230221   1.748   5.725   0.474 -0.3799  0.5773 -0.6218
 2936TIP3   OH230222   2.797   2.237  15.833  0.0573  0.3290  0.4287
 2936TIP3    H130223   2.876   2.266  15.880  0.4302  0.6921 -0.3937
 2936TIP3    H230224   2.826   2.229  15.742 -0.5307 -0.8095  0.3234
 2937TIP3   OH230225   5.108   5.776   3.516 -0.1878 -0.1107  0.0496
 2937TIP3    H130226   5.046   5.707   3.493 -1.9716  0.9990  1.3305
 2937TIP3    H230227   5.116   5.771   3.611  0.3682  0.8781  0.0643
 2938TIP3   OH230228   6.081   0.509   1.516  0.1751  0.4902 -0.4164
 2938TIP3    H130229   6.002   0.558   1.537 -0.1853 -0.7149  1.2164
 2938TIP3    H230230   6.085   0.440   1.582  1.9773 -0.1830 -1.1646
 2939TIP3   OH230231   5.695   1.356  13.122  0.0220  0.1069 -0.5601
 2939TIP3    H130232   5.689   1.397  13.036  0.0690 -0.5913 -0.9051
 2939TIP3    H230233   5.682   1.263  13.105  1.5877 -0.2417 -0.0163
 2940TIP3   OH230234   0.605   6.284   3.988 -0.5278  0.7342  0.1848
 2940TIP3    H130235   0.579   6.224   3.918  1.3360  0.4372 -0.2835
 2940TIP3    H230236   0.695   6.259   4.009 -1.4097 -0.0970  3.6294
 2941TIP3   OH230237   4.376   6.456  13.680  0.0156 -0.0738 -0.0835
 2941TIP3    H130238   4.315   6.529  13.675 -0.0368 -0.1224 -0.1632
 2941TIP3    H230239   4.462   6.497  13.688 -0.0582 -0.0095  0.4012
 2942TIP3   OH230240   1.074   0.387   6.032 -0.3807  0.2348  0.1720
 2942TIP3    H130241   1.081   0.356   6.122 -0.4276  1.2516  0.5412
 2942TIP3    H230242   1.015   0.462   6.037  0.0166  0.6156 -0.6191
 2943TIP3   OH230243   1.423   2.174   3.733  0.2716  0.3841  0.1404
 2943TIP3    H130244   1.421   2.269   3.722  3.2524  0.7349  1.6456
 2943TIP3    H230245   1.439   2.140   3.645 -4.3661  0.8032 -1.1768
 2944TIP3   OH230246   4.875   1.038  15.602  0.0086  0.2451  0.9276
 2944TIP3    H130247   4.817   1.112  15.589 -0.2473 -0.2776 -1.4297
 2944TIP3    H230248   4.817   0.964  15.618  0.0027 -0.1813 -0.9098
 2945TIP3   OH230249   4.334   2.762  10.813 -0.0961  0.5750 -0.4175
 2945TIP3    H130250   4.374   2.849  10.810 -0.2680  0.6366 -1.0075
 2945TIP3    H230251   4.321   2.738  10.721  0.5059 -0.3325 -0.2805
 2946TIP3   OH230252   3.223   5.708   4.187  0.2568  0.0129  0.2519
 2946TIP3    H130253   3.282   5.777   4.156 -1.1959  0.6395 -1.2145
 2946TIP3    H230254   3.252   5.691   4.277  1.8186  1.2139  0.0239
 2947TIP3   OH230255   2.562   6.437   3.434 -0.2015  0.4026 -0.5193
 2947TIP3    H130256   2.474   6.473   3.426 -0.4041  0.7742  2.3555
 2947TIP3    H230257   2.594   6.471   3.517  2.2028 -0.7349 -0.8979
 2948TIP3   OH230258   2.425   4.952  16.452 -0.7416  0.0060  0.1958
 2948TIP3    H130259   2.355   4.996  16.500  2.4380  4.6094  1.3160
 2948TIP3    H230260   2.398   4.957  16.360 -2.3122  0.6730  0.6607
 2949TIP3   OH230261   3.154   5.450  11.112 -0.4048  0.1783  0.0678
 2949TIP3    H130262   3.130   5.391  11.041 -0.5094  0.1295  0.1445
 2949TIP3    H230263   3.070   5.482  11.146 -0.3412  1.1215 -0.6102
 2950TIP3   OH230264   2.076   0.923   5.411  0.4740 -0.3317 -0.3145
 2950TIP3    H130265   2.013   0.988   5.379 -0.4152 -1.7290 -1.5581
 2950TIP3    H230266   2.139   0.974   5.462  1.1529  1.9076 -3.0593
 2951TIP3   OH230267   3.192   0.035  14.950  0.5576 -0.3824  0.1814
 2951TIP3    H130268   3.259   0.070  15.009  0.4183 -0.5735  0.4551
 2951TIP3    H230269   3.224   0.056  14.862  0.7819 -0.1253  0.3238
 2952TIP3   OH230270   0.520   5.458   2.740 -0.8344  0.1875  0.0696
 2952TIP3    H130271   0.600   5.507   2.761 -0.9630  0.6886 -0.5673
 2952TIP3    H230272   0.536   5.370   2.774  0.3249  0.0556 -0.7544
 2953TIP3   OH230273   5.556   3.863   0.158 -0.2631 -0.2694  0.4640
 2953TIP3    H130274   5.639   3.820   0.178  0.4690  0.5835 -0.6116
 2953TIP3    H230275   5.515   3.878   0.243  0.9570 -0.1845  1.0579
 2954TIP3   OH230276   3.993   6.354   2.479  0.0114  0.4383 -0.4513
 2954TIP3    H130277   3.899   6.342   2.492  0.4805 -2.0832  1.5497
 2954TIP3    H230278   4.007   6.333   2.386 -1.7126  4.3780 -1.7915
 2955TIP3   OH230279   2.210   5.366  10.686  0.0368 -0.2327  0.2463
 2955TIP3    H130280   2.257   5.288  10.658  1.9496  0.8638  0.1819
 2955TIP3    H230281   2.170   5.401  10.606 -1.2470 -1.3628  0.3623
 2956TIP3   OH230282   4.499   5.762  13.964  0.2763 -0.0435  1.0870
 2956TIP3    H130283   4.525   5.794  13.877  0.6057 -0.0612  1.1781
 2956TIP3    H230284   4.421   5.813  13.986 -0.4212 -0.7576  0.3356
 2957TIP3   OH230285   2.333   0.407   6.057 -0.0819  0.3681  0.1382
 2957TIP3    H130286   2.316   0.396   6.151  0.4181  0.8112  0.2851
 2957TIP3    H230287   2.428   0.418   6.052  0.3747 -2.7799 -0.7084
 2958TIP3   OH230288   3.050   0.829   0.233  0.0989 -0.4847  0.3672
 2958TIP3    H130289   3.085   0.758   0.287 -1.5492 -1.7765 -0.1479
 2958TIP3    H230290   2.988   0.785   0.174 -0.7324  1.3501 -0.2088
 2959TIP3   OH230291   4.836   6.697  16.912  0.0624  0.6318  0.4830
 2959TIP3    H130292   4.908   6.642  16.883  0.0883  0.9614 -0.0849
 2959TIP3    H230293   4.865   6.787  16.895 -0.7586  0.7419 -0.4077
 2960TIP3   OH230294   5.831   1.765  16.775 -0.0561  0.0880 -0.2009
 2960TIP3    H130295   5.858   1.698  16.711  1.7973 -1.2548  1.8414
 2960TIP3    H230296   5.904   1.770  16.836 -1.1778  2.3300  1.0612
 2961TIP3   OH230297   5.013   5.385  15.617  0.1190  0.0080  0.1181
 2961TIP3    H130298   5.067   5.306  15.612  2.0629  1.3447 -1.8497
 2961TIP3    H230299   4.940   5.360  15.674  0.9557 -2.9946  0.0747
 2962TIP3   OH230300   3.273   0.754   1.590  0.0386 -0.2130  0.0839
 2962TIP3    H130301   3.294   0.683   1.529 -0.3078 -0.5358  0.3328
 2962TIP3    H230302   3.247   0.709   1.671 -1.9439  0.1497 -0.3132
 2963TIP3   OH230303   4.885   0.492   4.172  0.3434 -0.4086  0.1913
 2963TIP3    H130304   4.816   0.427   4.180 -0.8048  0.7583  0.2159
 2963TIP3    H230305   4.849   0.571   4.213  0.7422  0.9052 -1.7849
 2964TIP3   OH230306   2.728   6.459  17.072  0.0668  0.3927  0.5384
 2964TIP3    H130307   2.657   6.509  17.032  0.2341  0.8250  0.7778
 2964TIP3    H230308   2.695   6.369  17.075 -0.3105  0.5196  0.2792
 2965TIP3   OH230309   1.011   4.627  16.199  0.1992 -0.5080 -0.5858
 2965TIP3    H130310   1.077   4.603  16.134  0.0381 -1.2907 -0.4690
 2965TIP3    H230311   1.049   4.703  16.245  2.5270 -2.8151  1.6618
 2966TIP3   OH230312   5.812   5.406  16.575  0.0190 -0.3592 -0.6873
 2966TIP3    H130313   5.775   5.317  16.579 -0.3815 -0.1604  1.7408
 2966TIP3    H230314   5.740   5.462  16.604  1.5212  0.2596  2.1631
 2967TIP3   OH230315   4.003   0.567   6.090 -0.1941 -0.0145 -0.2477
 2967TIP3    H130316   4.085   0.519   6.076  0.2817  1.4333 -3.0261
 2967TIP3    H230317   4.014   0.607   6.177  1.1751 -1.4226  0.2764
 2968TIP3   OH230318   0.381   1.799  16.600 -0.5361 -0.3698  0.6270
 2968TIP3    H130319   0.475   1.814  16.610 -0.6450 -0.5017  2.0400
 2968TIP3    H230320   0.341   1.881  16.628 -0.8440  0.0108 -0.8244
 2969TIP3   OH230321   3.285   0.181   4.715  0.0600 -0.4213  0.0429
 2969TIP3    H130322   3.326   0.098   4.689  0.7884 -1.1441  3.1455
 2969TIP3    H230323   3.355   0.245   4.713 -0.1392 -0.2179 -0.7787
 2970TIP3   OH230324   1.964   3.084  11.472  0.3148 -0.6143  0.5196
 2970TIP3    H130325   1.908   3.058  11.399  0.9249 -2.5909  0.7077
 2970TIP3    H230326   2.005   3.165  11.443  0.5017 -1.3204 -1.3319
 2971TIP3   OH230327   5.656   3.609   1.343 -0.1994  1.2173 -0.0891
 2971TIP3    H130328   5.723   3.664   1.301  0.4785  0.5166  0.0632
 2971TIP3    H230329   5.676   3.615   1.436 -0.6218  1.3561 -0.0080
 2972TIP3   OH230330   1.592   0.066   3.767 -0.0643  0.4467 -0.4124
 2972TIP3    H130331   1.514   0.062   3.821 -0.7573  0.3081 -1.4026
 2972TIP3    H230332   1.590   0.153   3.728  0.7820  0.7937  0.2682
 2973TIP3   OH230333   1.092   4.168   1.685 -0.1695 -0.3963 -0.2917
 2973TIP3    H130334   1.102   4.263   1.681 -0.2764 -0.4152 -1.3713
 2973TIP3    H230335   1.171   4.134   1.643 -0.5989 -0.7556 -0.8233
 2974TIP3   OH230336   4.262   2.339   1.858  0.5671 -0.3754 -0.1553
 2974TIP3    H130337   4.301   2.260   1.819 -0.6801 -0.4312 -1.3382
 2974TIP3    H230338   4.292   2.411   1.802  1.2794 -0.0560  0.6187
 2975TIP3   OH230339   4.214   0.500  11.357 -0.0777  0.0280 -0.3075
 2975TIP3    H130340   4.239   0.561  11.426  0.0193 -1.1464  0.7255
 2975TIP3    H230341   4.220   0.552  11.276 -2.4559  2.1331  0.7049
 2976TIP3   OH230342   3.631   0.318  14.708 -0.3397  0.2633 -0.0847
 2976TIP3    H130343   3.611   0.274  14.625 -1.9052 -0.0928  0.4513
 2976TIP3    H230344   3.695   0.261  14.751  1.6454  1.1698 -1.6253
 2977TIP3   OH230345   4.932   6.315  15.384  0.3648 -0.6441 -0.3638
 2977TIP3    H130346   4.937   6.400  15.340  0.5043 -0.3062  0.2999
 2977TIP3    H230347   4.906   6.335  15.473 -1.0159 -1.4121 -0.5661
 2978TIP3   OH230348   3.328   5.923   1.667  0.6772  0.3366 -0.0910
 2978TIP3    H130349   3.332   5.978   1.589 -0.0268 -1.2641 -1.3205
 2978TIP3    H230350   3.274   5.848   1.641 -2.0066  1.0233  2.7581
 2979TIP3   OH230351   3.534   0.852  14.528  0.5115 -0.0355 -0.0295
 2979TIP3    H130352   3.496   0.937  14.504  1.4530  0.4762  0.2028
 2979TIP3    H230353   3.618   0.850  14.481 -0.3757 -1.7376 -1.6423
 2980TIP3   OH230354   1.823   1.699   2.343 -0.3283  0.0183 -0.7673
 2980TIP3    H130355   1.777   1.616   2.352 -0.8234  0.4308  0.6957
 2980TIP3    H230356   1.915   1.677   2.356 -0.2556 -0.5373 -2.0437
 2981TIP3   OH230357   0.746   5.698  13.872  0.8396 -0.0024  0.1435
 2981TIP3    H130358   0.740   5.713  13.778 -2.1902 -0.2850  0.1823
 2981TIP3    H230359   0.754   5.603  13.881  2.6044  0.1127  0.2136
 2982TIP3   OH230360   3.889   1.826  15.319 -0.4062  0.2460 -0.0686
 2982TIP3    H130361   3.843   1.744  15.338 -1.5427  1.3101  2.1475
 2982TIP3    H230362   3.820   1.892  15.313  0.6188  1.3950  0.3070
 2983TIP3   OH230363   6.002   2.337  12.831 -0.4472 -0.2753  0.0302
 2983TIP3    H130364   6.038   2.316  12.745 -0.7464  0.4727 -0.2875
 2983TIP3    H230365   6.050   2.281  12.891 -0.0142 -0.5830 -0.5896
 2984TIP3   OH230366   5.863   2.373  11.737  0.5272  0.7116  0.1591
 2984TIP3    H130367   5.867   2.418  11.821 -0.6622  1.1251  0.0089
 2984TIP3    H230368   5.807   2.428  11.682 -0.2900 -0.5160 -0.2911
 2985TIP3   OH230369   1.667   5.325   1.333 -0.6192 -0.9565  0.2896
 2985TIP3    H130370   1.588   5.271   1.326 -3.0058  2.3820 -1.5189
 2985TIP3    H230371   1.710   5.315   1.248 -0.3798 -1.0278  0.4214
 2986TIP3   OH230372   5.211   5.470  16.694 -0.3912 -0.4223  0.0983
 2986TIP3    H130373   5.208   5.384  16.652 -0.7543 -0.3993  0.0687
 2986TIP3    H230374   5.293   5.471  16.743 -0.3513 -0.7568  0.0358
 2987TIP3   OH230375   5.428   0.173   0.525  1.0722  0.4500 -0.0927
 2987TIP3    H130376   5.361   0.173   0.594  0.7028  1.2404 -0.4316
 2987TIP3    H230377   5.388   0.123   0.453 -0.5836  3.5992 -1.5633
 2988TIP3   OH230378   2.667   2.236  14.721  0.6543 -0.0783 -0.3579
 2988TIP3    H130379   2.680   2.210  14.630  1.7084 -0.3154 -0.1479
 2988TIP3    H230380   2.572   2.235  14.733  0.5071 -0.0344 -1.4539
 2989TIP3   OH230381   1.325   1.359  17.107  0.1986  0.3209  0.0640
 2989TIP3    H130382   1.277   1.351  17.190 -1.3100  2.7171 -0.4776
 2989TIP3    H230383   1.407   1.403  17.131  0.7569 -0.9345  0.5456
 2990TIP3   OH230384   2.506   2.782   5.235  0.1697 -0.1449  0.1588
 2990TIP3    H130385   2.446   2.731   5.179 -0.6771  0.8507  0.1338
 2990TIP3    H230386   2.453   2.855   5.267  1.4992  1.0453 -0.2490
 2991TIP3   OH230387   3.297   1.074   6.160 -0.3804 -1.0369  0.3807
 2991TIP3    H130388   3.233   1.139   6.189  0.6713  1.0387 -1.6210
 2991TIP3    H230389   3.244   1.003   6.121 -1.5532  0.7239 -1.4379
 2992TIP3   OH230390   1.681   6.427  10.657  1.0987  0.6109 -0.4702
 2992TIP3    H130391   1.599   6.431  10.707 -0.0894  1.4856 -2.3676
 2992TIP3    H230392   1.688   6.335  10.630  0.8322  0.4893 -0.1372
 2993TIP3   OH230393   6.004   3.371   2.497 -0.2791  0.5542  0.0769
 2993TIP3    H130394   6.074   3.434   2.515 -0.0793  0.8095 -1.4517
 2993TIP3    H230395   6.037   3.319   2.424 -1.2411 -0.0688  0.0718
 2994TIP3   OH230396   0.453   6.206  12.169 -0.5122  0.3746  0.2957
 2994TIP3    H130397   0.510   6.167  12.103 -0.4105  2.1347 -0.7454
 2994TIP3    H230398   0.507   6.214  12.247  0.0345  0.1636 -0.0613
 2995TIP3   OH230399   3.094   0.707  15.433  0.2400 -0.7108 -0.2958
 2995TIP3    H130400   3.108   0.612  15.432 -0.9169 -0.9150  0.5945
 2995TIP3    H230401   3.182   0.744  15.436  0.7293 -1.7303 -1.2760
 2996TIP3   OH230402   5.080   6.706  14.943 -0.0286 -0.2286  0.1062
 2996TIP3    H130403   5.012   6.677  14.882  0.6707  1.0170 -1.3520
 2996TIP3    H230404   5.034   6.721  15.026 -1.0457 -1.7858 -0.1362
 2997TIP3   OH230405   0.295   4.928   5.701  0.6733  0.2326  0.8870
 2997TIP3    H130406   0.204   4.930   5.730  0.1967  0.3997 -0.5367
 2997TIP3    H230407   0.295   4.871   5.625  1.7958  0.1098  0.9612
 2998TIP3   OH230408   4.090   6.714   2.881  0.1556  0.0165 -0.5326
 2998TIP3    H130409   4.157   6.679   2.940  0.9440  0.6210 -1.0489
 2998TIP3    H230410   4.076   6.646   2.816  2.4644  0.9626 -2.1676
 2999TIP3   OH230411   4.907   0.989  14.614  0.3268 -0.4098  0.1960
 2999TIP3    H130412   4.875   1.059  14.670 -1.5766  0.1878 -1.5025
 2999TIP3    H230413   4.894   1.022  14.525 -0.3158 -2.7550 -0.6612
 3000TIP3   OH230414   4.670   5.038   5.559 -0.3148 -0.7827  0.0648
 3000TIP3    H130415   4.579   5.025   5.586 -0.7329 -1.6080 -1.5623
 3000TIP3    H230416   4.688   4.964   5.500  0.7322  0.4546 -1.2420
 3001TIP3   OH230417   3.179   6.610   1.233 -0.3912  0.0595  0.1115
 3001TIP3    H130418   3.147   6.543   1.172  0.1326 -1.1699  1.1334
 3001TIP3    H230419   3.120   6.684   1.220 -2.2412 -1.3065  0.3242
 3002TIP3   OH230420   4.269   5.088   1.881 -0.3365 -0.0057  0.5105
 3002TIP3    H130421   4.268   5.123   1.792 -1.5144  0.9252  0.8703
 3002TIP3    H230422   4.280   5.165   1.937 -1.7134 -0.3140  1.2536
 3003TIP3   OH230423   5.181   4.533   2.068 -0.4041  0.3218  0.1279
 3003TIP3    H130424   5.205   4.559   2.157  1.9275 -2.2301  0.4077
 3003TIP3    H230425   5.102   4.480   2.078 -1.2885  1.6377  0.3639
 3004TIP3   OH230426   3.489   0.594  12.106 -0.2224  0.0632 -0.1725
 3004TIP3    H130427   3.475   0.588  12.012  1.0142 -0.3363 -0.3457
 3004TIP3    H230428   3.522   0.682  12.121  1.0695 -0.3618 -0.3471
 3005TIP3   OH230429   2.122   3.332  15.845  0.4164 -0.0675  0.4453
 3005TIP3    H130430   2.066   3.271  15.893 -0.1260 -0.1638 -0.2929
 3005TIP3    H230431   2.192   3.277  15.809  0.9940  0.0484  1.3405
 3006TIP3   OH230432   5.734   4.310   0.690  0.0745  0.1149 -0.1016
 3006TIP3    H130433   5.807   4.346   0.640  0.8549 -0.0782  0.8579
 3006TIP3    H230434   5.660   4.365   0.667  0.8328  1.1818 -0.0565
 3007TIP3   OH230435   1.212   5.357  14.687  0.4855  0.1721 -0.2711
 3007TIP3    H130436   1.143   5.420  14.665  1.3922  0.7551 -1.5727
 3007TIP3    H230437   1.165   5.276  14.709 -0.7151  1.3282  1.6579
 3008TIP3   OH230438   6.399   3.171  11.898  0.3658 -0.4138  0.1494
 3008TIP3    H130439   6.388   3.201  11.988  1.4110 -0.9476  0.4836
 3008TIP3    H230440   6.488   3.134  11.897 -0.3762 -2.2712 -0.5586
 3009TIP3   OH230441   4.477   1.252   2.858 -0.0913  0.3229 -0.5226
 3009TIP3    H130442   4.392   1.214   2.834  0.0324  0.4318 -1.1696
 3009TIP3    H230443   4.467   1.277   2.949 -0.8447  0.5659 -0.6608
 3010TIP3   OH230444   3.403   3.096  15.837  0.0268 -0.1118 -0.0703
 3010TIP3    H130445   3.319   3.133  15.808  0.0437  0.1670  0.2191
 3010TIP3    H230446   3.388   3.002  15.840 -0.0249 -0.1330 -0.7975
 3011TIP3   OH230447   5.540   4.454   3.012 -0.8160  0.0765 -0.0342
 3011TIP3    H130448   5.488   4.408   2.946  1.0503 -0.9914 -0.8404
 3011TIP3    H230449   5.559   4.387   3.078  3.7026 -1.1963 -2.2343
 3012TIP3   OH230450   0.985   3.570   0.188 -0.0016  0.3105  0.3780
 3012TIP3    H130451   1.010   3.600   0.100 -0.3660  2.9615  1.0901
 3012TIP3    H230452   1.067   3.542   0.228  0.2322 -0.5283 -0.6177
 3013TIP3   OH230453   5.891   4.493  14.792 -0.7400  0.0176  1.0574
 3013TIP3    H130454   5.834   4.561  14.755 -2.0001 -1.1918  0.7171
 3013TIP3    H230455   5.892   4.512  14.886 -0.6018  0.8349  0.9055
 3014TIP3   OH230456   4.641   5.993   3.993 -0.4373  0.2290 -0.0698
 3014TIP3    H130457   4.593   5.913   3.973  0.6694 -0.2867 -0.8022
 3014TIP3    H230458   4.733   5.968   3.985  0.1946  0.3082  4.3641
 3015TIP3   OH230459   5.173   5.784   2.086 -0.1794 -0.4504  0.1688
 3015TIP3    H130460   5.173   5.829   2.170  0.9198 -1.8150  0.9473
 3015TIP3    H230461   5.241   5.718   2.094  0.5333 -0.0926 -2.1033
 3016TIP3   OH230462   2.335   0.300   3.796 -0.3926 -0.7105  0.3645
 3016TIP3    H130463   2.317   0.207   3.780  1.4707 -0.9008 -0.9754
 3016TIP3    H230464   2.389   0.300   3.876 -1.1956 -0.6743  0.9166
 3017TIP3   OH230465   5.645   5.603  11.982 -0.2602  0.5046 -0.1757
 3017TIP3    H130466   5.730   5.640  12.003  1.3063 -2.1623 -1.3222
 3017TIP3    H230467   5.641   5.604  11.886 -1.0264 -0.3976 -0.1743
 3018TIP3   OH230468   3.473   5.678   5.294  0.0604 -0.0482  0.3663
 3018TIP3    H130469   3.395   5.631   5.325  0.6301  0.2894  2.4178
 3018TIP3    H230470   3.442   5.768   5.281 -0.4445 -0.4087 -1.2580
 3019TIP3   OH230471   4.777   4.858  13.660  0.2978  0.4838  0.6910
 3019TIP3    H130472   4.757   4.764  13.658  1.8420  0.1203 -0.6241
 3019TIP3    H230473   4.815   4.876  13.574  2.1106  1.8034  1.6806
 3020TIP3   OH230474   4.417   6.746   1.816 -0.3607 -0.3024  0.4370
 3020TIP3    H130475   4.439   6.808   1.885  0.6101 -1.2035  0.9812
 3020TIP3    H230476   4.485   6.758   1.749 -1.1844  0.4319 -0.2858
 3021TIP3   OH230477   1.850   5.272  15.060 -0.2392 -0.3209 -0.1716
 3021TIP3    H130478   1.892   5.248  14.978 -0.5708  0.8609 -0.7119
 3021TIP3    H230479   1.758   5.286  15.037 -0.2532  0.4429  0.3027
 3022TIP3   OH230480   5.023   0.218   4.459 -0.0021 -0.1711  0.1630
 3022TIP3    H130481   4.981   0.267   4.530 -0.4603  0.3777 -0.4688
 3022TIP3    H230482   4.954   0.208   4.393  0.4169 -0.6650 -0.2097
 3023TIP3   OH230483   1.161   4.897   5.105 -0.0967 -0.3327 -0.0025
 3023TIP3    H130484   1.169   4.879   5.199  0.1774  0.5721  0.1552
 3023TIP3    H230485   1.071   4.873   5.084 -1.5115  3.0910  1.3589
 3024TIP3   OH230486   6.307   3.836  16.801  0.1096 -0.5805  0.1099
 3024TIP3    H130487   6.298   3.912  16.859 -1.3915 -0.2604 -0.5162
 3024TIP3    H230488   6.295   3.871  16.713  1.8875 -1.1506 -0.4037
 3025TIP3   OH230489   3.965   2.194  10.824  0.2121  0.7100 -0.4744
 3025TIP3    H130490   3.919   2.145  10.892  0.6952  0.7492 -0.1072
 3025TIP3    H230491   3.951   2.144  10.744  0.7762 -0.0954 -0.0895
 3026TIP3   OH230492   2.438   5.706   2.644  0.6549 -0.7916 -0.2943
 3026TIP3    H130493   2.472   5.712   2.733  2.7899 -1.1495 -1.0200
 3026TIP3    H230494   2.463   5.788   2.603 -2.3704  0.4080  0.0048
 3027TIP3   OH230495   6.787   3.523  16.664  0.1140 -0.3424  0.0263
 3027TIP3    H130496   6.728   3.592  16.694 -1.1004 -1.0837 -0.5556
 3027TIP3    H230497   6.733   3.444  16.663  0.7524 -0.8124 -1.7326
 3028TIP3   OH230498   2.052   2.672   3.491  0.5096 -0.4648 -0.0522
 3028TIP3    H130499   2.025   2.663   3.399  0.9756  0.2932 -0.2728
 3028TIP3    H230500   2.084   2.585   3.515  0.3971 -0.6692 -0.6187
 3029TIP3   OH230501   4.072   3.200   0.666  0.1040 -0.5303  0.8343
 3029TIP3    H130502   4.097   3.288   0.638 -0.3107 -0.3332  1.0782
 3029TIP3    H230503   4.046   3.156   0.585  0.6832 -0.5567  0.6567
 3030TIP3   OH230504   6.258   4.167  15.093  0.1386  0.2558 -0.5720
 3030TIP3    H130505   6.295   4.233  15.150 -2.0016  1.1858 -0.1756
 3030TIP3    H230506   6.237   4.214  15.012 -0.9823  0.0073 -0.4483
 3031TIP3   OH230507   6.037   2.190  14.083  0.3949  0.4055 -0.7139
 3031TIP3    H130508   5.979   2.193  14.160 -0.8234  0.2812 -1.5880
 3031TIP3    H230509   6.118   2.152  14.115 -1.2656 -3.1318 -0.1819
 3032TIP3   OH230510   2.882   0.880   5.347 -0.1886 -0.5509 -0.0143
 3032TIP3    H130511   2.811   0.835   5.301 -1.0722 -0.1488  0.9038
 3032TIP3    H230512   2.847   0.895   5.435  0.4696  0.9646  0.0174
 3033TIP3   OH230513   4.583   1.701   1.697 -0.5570  0.4273 -0.0403
 3033TIP3    H130514   4.626   1.642   1.759 -0.2581 -0.6568 -1.2420
 3033TIP3    H230515   4.643   1.704   1.622 -1.3744  0.9408 -0.6858
 3034TIP3   OH230516   3.416   3.688   1.852  0.1599 -0.2448 -0.5511
 3034TIP3    H130517   3.381   3.742   1.781 -1.1645  0.5690  0.6513
 3034TIP3    H230518   3.343   3.681   1.914  1.5597 -0.1162  1.1795
 3035TIP3   OH230519   3.507   5.510   3.369  0.5169 -0.4098  0.1574
 3035TIP3    H130520   3.564   5.489   3.442  0.3491 -1.7242 -0.0685
 3035TIP3    H230521   3.559   5.569   3.314  0.5777  0.7525  1.3966
 3036TIP3   OH230522   4.646   6.193   3.310  0.5649 -0.0190  0.2570
 3036TIP3    H130523   4.670   6.147   3.391  0.7229 -2.2445 -0.9857
 3036TIP3    H230524   4.553   6.173   3.298 -0.0283  2.0515  0.9152
 3037TIP3   OH230525   2.327   2.603   1.737  0.4331 -0.5653 -0.2535
 3037TIP3    H130526   2.388   2.530   1.727  0.9714 -0.1776  0.1857
 3037TIP3    H230527   2.358   2.650   1.814  1.5390  1.5202 -1.8970
 3038TIP3   OH230528   2.481   1.871  13.935 -0.4888 -0.0651  0.6239
 3038TIP3    H130529   2.485   1.848  13.842 -1.8401  1.8799  0.0143
 3038TIP3    H230530   2.389   1.887  13.952 -0.1707  0.3770  2.1036
 3039TIP3   OH230531   4.323   4.918   1.221  0.0451  0.2364  0.2340
 3039TIP3    H130532   4.412   4.924   1.187  0.1588 -0.2286  0.4414
 3039TIP3    H230533   4.305   4.824   1.224 -0.4962  0.3303  0.0766
 3040TIP3   OH230534   0.727   2.423  13.242  0.3929  0.2707  0.1319
 3040TIP3    H130535   0.666   2.482  13.288  0.7106  1.3780 -0.8324
 3040TIP3    H230536   0.814   2.459  13.261  0.6322 -0.2435  0.0226
 3041TIP3   OH230537   5.669   1.229   0.175  0.0599  0.1327 -0.3907
 3041TIP3    H130538   5.646   1.259   0.087  0.5548 -0.2078 -0.6358
 3041TIP3    H230539   5.756   1.192   0.166 -0.2493 -0.7277  0.0628
 3042TIP3   OH230540   2.541   2.292   0.295  0.3334  0.0210  0.0438
 3042TIP3    H130541   2.521   2.344   0.217  2.7123  0.7196 -0.1878
 3042TIP3    H230542   2.504   2.342   0.367 -1.6693 -0.4944 -0.5655
 3043TIP3   OH230543   6.331   5.008  15.700 -0.3122  0.1681  0.0647
 3043TIP3    H130544   6.405   4.999  15.640  0.1287  0.5391  0.5458
 3043TIP3    H230545   6.300   4.918  15.713  0.1425 -0.0052 -0.0261
 3044TIP3   OH230546   4.495   1.460  12.600 -0.2173 -0.2584 -0.8881
 3044TIP3    H130547   4.508   1.404  12.676 -2.9822  0.2598  0.1087
 3044TIP3    H230548   4.400   1.459  12.586 -0.0695  1.8677 -2.6192
 3045TIP3   OH230549   0.129   1.903   0.467  0.4321 -0.2077 -0.3140
 3045TIP3    H130550   0.089   1.898   0.380  1.5650  2.3998 -1.0643
 3045TIP3    H230551   0.148   1.811   0.489 -1.2940 -1.0746 -2.0921
 3046TIP3   OH230552   3.357   5.387  15.083 -0.1114 -0.4012 -0.1808
 3046TIP3    H130553   3.338   5.294  15.077  0.6710 -0.7164  1.6562
 3046TIP3    H230554   3.272   5.429  15.090 -0.4207 -1.0988  0.2779
 3047TIP3   OH230555   3.827   0.476   2.100 -0.5043  0.5401 -0.1539
 3047TIP3    H130556   3.784   0.406   2.150  0.9408  0.0831  0.4857
 3047TIP3    H230557   3.886   0.431   2.040  1.3511  1.1781  1.0921
 3048TIP3   OH230558   1.504   2.200   0.597  0.7082  0.1974 -0.7695
 3048TIP3    H130559   1.448   2.144   0.543 -2.4396  0.1861  2.1418
 3048TIP3    H230560   1.500   2.286   0.555 -1.6193  0.1774 -0.7320
 3049TIP3   OH230561   3.969   2.921   2.065  0.2485 -0.3892  0.1884
 3049TIP3    H130562   3.900   2.897   2.004  0.5236  1.9467 -1.1356
 3049TIP3    H230563   4.050   2.892   2.022  0.4540  1.3804 -0.7051
 3050TIP3   OH230564   1.043   3.512   5.200  0.3878  0.1883 -0.1962
 3050TIP3    H130565   1.041   3.458   5.121  0.6352 -0.8269  0.4735
 3050TIP3    H230566   1.135   3.510   5.228  0.0928 -0.4412  0.7723
 3051TIP3   OH230567   1.247   1.950   0.891  0.1230 -0.7973 -0.6406
 3051TIP3    H130568   1.341   1.968   0.896 -0.1359  0.3865  1.1108
 3051TIP3    H230569   1.227   1.902   0.972 -1.1083  0.9570  0.1809
 3052TIP3   OH230570   2.602   4.171   4.684 -0.4718  0.0571  0.3550
 3052TIP3    H130571   2.561   4.233   4.624  0.0233 -0.4584 -0.5486
 3052TIP3    H230572   2.674   4.220   4.724 -0.9602  0.4800  0.7345
 3053TIP3   OH230573   4.208   1.107  13.888  0.3377 -0.0908  0.0086
 3053TIP3    H130574   4.158   1.089  13.967 -0.8813 -0.6017 -0.8465
 3053TIP3    H230575   4.250   1.192  13.904 -1.4348  0.7355  0.4751
 3054TIP3   OH230576   6.673   1.342   0.667 -0.6488  0.2793  0.1909
 3054TIP3    H130577   6.754   1.383   0.698 -1.5141  2.3593 -0.1022
 3054TIP3    H230578   6.633   1.408   0.610 -3.0038 -0.2892  1.0677
 3055TIP3   OH230579   5.200   1.912  15.408  0.3438 -0.4901 -0.2058
 3055TIP3    H130580   5.285   1.938  15.445  1.5653 -0.1676 -2.9470
 3055TIP3    H230581   5.168   1.991  15.364 -1.5715 -0.5355  0.9786
 3056TIP3   OH230582   3.164   4.300  15.385 -0.0302  0.5153 -0.1374
 3056TIP3    H130583   3.193   4.359  15.455  2.3251  0.4976 -1.0400
 3056TIP3    H230584   3.242   4.250  15.361 -1.1977 -0.6794 -1.6437
 3057TIP3   OH230585   0.487   0.433  12.990 -0.1145 -0.4968 -0.0702
 3057TIP3    H130586   0.511   0.521  12.961 -0.2507  0.4045  2.3629
 3057TIP3    H230587   0.566   0.381  12.979  0.2661  0.1753 -0.5652
 3058TIP3   OH230588   3.160   5.667   1.886  0.4974 -0.1264  0.0396
 3058TIP3    H130589   3.236   5.646   1.831  1.8159  1.9507  0.9519
 3058TIP3    H230590   3.129   5.582   1.917  1.8811 -1.0983 -1.0747
 3059TIP3   OH230591   5.925   3.989   5.856 -0.2419 -0.8881  0.3598
 3059TIP3    H130592   5.941   4.082   5.874  1.3562 -1.0566 -0.0681
 3059TIP3    H230593   5.830   3.983   5.843 -0.5428  0.4522  1.6278
 3060TIP3   OH230594   0.024   2.680  12.632  0.6478  0.3401  0.5149
 3060TIP3    H130595  -0.027   2.607  12.596 -1.0885  2.3099 -1.3066
 3060TIP3    H230596   0.113   2.664  12.601  0.2052 -0.7258 -0.2728
 3061TIP3   OH230597   0.827   5.301  10.778 -0.1001 -0.4495  0.8383
 3061TIP3    H130598   0.854   5.307  10.686  0.9614 -2.0486  1.0100
 3061TIP3    H230599   0.854   5.385  10.816 -0.3706  0.1542 -0.2451
 3062TIP3   OH230600   1.401   4.792  13.435 -0.1772  0.2788 -0.4068
 3062TIP3    H130601   1.347   4.836  13.501  0.2794  2.4936 -1.4300
 3062TIP3    H230602   1.407   4.854  13.363  2.4609 -0.4918 -0.9663
 3063TIP3   OH230603   2.496   6.057   5.072 -1.0580  0.5045  0.7460
 3063TIP3    H130604   2.520   6.121   5.139 -1.3755  0.3589  1.0016
 3063TIP3    H230605   2.552   5.981   5.091 -1.1193  0.4781  0.8199
 3064TIP3   OH230606   2.162   1.359  16.571 -0.2421  0.2088 -0.7257
 3064TIP3    H130607   2.195   1.363  16.481 -1.0212 -1.6493 -1.1352
 3064TIP3    H230608   2.173   1.268  16.596 -0.0453  0.6993  1.0931
 3065TIP3   OH230609   3.350   1.077   0.060 -0.1616  0.3088  0.3407
 3065TIP3    H130610   3.274   1.032   0.024  0.7077 -0.6199 -0.4248
 3065TIP3    H230611   3.336   1.078   0.154 -0.9273 -0.2200  0.2414
 3066TIP3   OH230612   2.909   3.771  13.851 -0.2390  0.3900 -0.3785
 3066TIP3    H130613   2.887   3.864  13.848  0.5955  0.5785 -1.0510
 3066TIP3    H230614   2.907   3.750  13.945  0.0426  1.2071 -0.1731
 3067TIP3   OH230615   1.954   4.055  10.935  0.0290 -0.2774  0.1222
 3067TIP3    H130616   1.940   4.150  10.945  0.0224 -0.5215  5.3659
 3067TIP3    H230617   1.869   4.021  10.908 -1.0147  1.0154  1.5483
 3068TIP3   OH230618   1.168   0.102   4.113  0.0509  0.1597  0.1261
 3068TIP3    H130619   1.169   0.187   4.155  0.0853  1.4855 -2.3488
 3068TIP3    H230620   1.089   0.102   4.060 -0.3032 -1.6516  0.5744
 3069TIP3   OH230621   3.084   2.545   1.722 -0.9434  0.1037 -0.1253
 3069TIP3    H130622   3.078   2.455   1.757  0.1360 -0.0343 -0.2628
 3069TIP3    H230623   2.993   2.571   1.707 -1.3979 -0.2165  1.8279
 3070TIP3   OH230624   1.099   2.401  11.528 -0.4592  0.5925 -0.6235
 3070TIP3    H130625   1.075   2.317  11.488 -2.0188  1.2183 -1.0774
 3070TIP3    H230626   1.150   2.377  11.606 -0.9146 -0.7774 -0.7250
 3071TIP3   OH230627   1.528   5.425  15.743  0.0499  0.0179  0.0526
 3071TIP3    H130628   1.435   5.403  15.737  0.4771 -2.5370  1.5482
 3071TIP3    H230629   1.568   5.381  15.668  0.1334  0.9008 -0.4405
 3072TIP3   OH230630   1.409   3.695  16.970  0.0419  0.1262 -0.2435
 3072TIP3    H130631   1.473   3.765  16.983  0.1859 -0.0228 -0.1394
 3072TIP3    H230632   1.449   3.619  17.013 -0.8509  0.3846  1.0908
 3073TIP3   OH230633   6.165   4.480   1.823 -0.1711 -0.1655  0.0261
 3073TIP3    H130634   6.193   4.549   1.883  0.4744 -0.0819 -0.3574
 3073TIP3    H230635   6.147   4.525   1.741  0.7961 -0.5052 -0.3936
 3074TIP3   OH230636   3.431   3.755  17.016 -0.5428 -0.5058  0.1765
 3074TIP3    H130637   3.443   3.763  17.111 -0.8075  0.2541  0.1463
 3074TIP3    H230638   3.491   3.820  16.979  0.8481 -1.9604 -0.2644
 3075TIP3   OH230639   4.449   1.404  16.987  0.2641  0.1286 -0.1169
 3075TIP3    H130640   4.468   1.323  17.034 -1.4091 -0.4547 -0.3586
 3075TIP3    H230641   4.517   1.465  17.015  0.9138 -1.0292  0.9217
 3076TIP3   OH230642   5.530   4.963   3.914 -0.4142  0.5995  1.2682
 3076TIP3    H130643   5.598   4.922   3.861 -1.5716  1.0059 -0.6244
 3076TIP3    H230644   5.483   4.891   3.954 -0.3202  0.2283  0.7128
 3077TIP3   OH230645   4.045   1.045  12.806  0.4127  1.0608 -0.6222
 3077TIP3    H130646   4.048   0.995  12.887 -2.4358  0.3474 -0.8293
 3077TIP3    H230647   3.998   1.126  12.829 -1.4764  0.3451 -1.6868
 3078TIP3   OH230648   2.387   2.218   1.913 -0.2692  0.0257  0.9234
 3078TIP3    H130649   2.297   2.250   1.916 -0.2077  0.1311  2.3458
 3078TIP3    H230650   2.381   2.127   1.940 -0.1391 -0.4877 -0.6910
 3079TIP3   OH230651   1.773   6.112   1.946 -0.7617  0.1399 -0.6584
 3079TIP3    H130652   1.699   6.122   2.006 -0.2348  0.3312 -0.0351
 3079TIP3    H230653   1.849   6.138   1.997  0.0777 -2.3931 -0.4956
 3080TIP3   OH230654   3.150   5.324   1.461  0.2756  0.2603  0.0026
 3080TIP3    H130655   3.086   5.380   1.505 -0.1483 -1.2248  1.3902
 3080TIP3    H230656   3.148   5.242   1.511  1.7377 -0.5692 -1.2163
 3081TIP3   OH230657   4.759   5.485   2.746 -0.3068  0.4027 -0.4775
 3081TIP3    H130658   4.765   5.490   2.651 -0.0778  0.7538 -0.4463
 3081TIP3    H230659   4.760   5.576   2.775  4.3245  0.4225  0.1238
 3082TIP3   OH230660   5.778   1.010   5.469 -0.3849 -0.9016 -0.0647
 3082TIP3    H130661   5.800   0.917   5.469  0.3777 -0.7388 -0.7492
 3082TIP3    H230662   5.796   1.039   5.379 -0.1977 -0.0058  0.2440
 3083TIP3   OH230663   5.887   4.070  11.459 -0.1291 -0.3150 -0.0259
 3083TIP3    H130664   5.857   3.979  11.462 -0.3332 -0.2514 -0.1155
 3083TIP3    H230665   5.841   4.113  11.531 -1.7539  0.2280 -1.3076
 3084TIP3   OH230666   2.747   3.107   2.946  0.6174  0.9082  0.3618
 3084TIP3    H130667   2.809   3.080   2.878  1.1317  1.7860  0.4628
 3084TIP3    H230668   2.708   3.187   2.911 -1.7651 -0.5247 -0.4727
 3085TIP3   OH230669   4.787   5.224   0.514 -0.2490 -0.4901 -0.2736
 3085TIP3    H130670   4.867   5.231   0.566  0.7454  0.4094 -1.8455
 3085TIP3    H230671   4.723   5.277   0.562  0.8590  0.9537 -0.3156
 3086TIP3   OH230672   5.396   6.780   1.220  0.2737  0.7261  0.1567
 3086TIP3    H130673   5.375   6.720   1.149  0.8331  1.4911 -0.6817
 3086TIP3    H230674   5.315   6.827   1.237  0.4042  1.2813 -0.7125
 3087TIP3   OH230675   0.836   4.095   5.077 -0.0143  0.1302 -0.4049
 3087TIP3    H130676   0.886   4.161   5.124  0.7664 -1.0437  0.4604
 3087TIP3    H230677   0.857   4.012   5.120 -2.7389 -0.4536  0.0351
 3088TIP3   OH230678   5.239   5.089  15.892  0.1442  0.4648  0.0161
 3088TIP3    H130679   5.177   5.039  15.839  0.3612  1.5732 -1.3132
 3088TIP3    H230680   5.184   5.152  15.940  0.1597  1.0468 -0.7106
 3089TIP3   OH230681   6.805   2.178  13.732  0.1258 -0.2336 -0.2309
 3089TIP3    H130682   6.847   2.146  13.812  0.8010  2.9642  0.8387
 3089TIP3    H230683   6.712   2.185  13.756  0.2232  0.0910  0.0618
 3090TIP3   OH230684   0.040   3.376  15.294  0.5574 -0.6978 -0.3180
 3090TIP3    H130685   0.081   3.292  15.314 -1.3352 -1.4489  0.7437
 3090TIP3    H230686   0.112   3.438  15.287  1.8783 -2.0004  1.0666
 3091TIP3   OH230687   3.837   5.308  14.409 -0.1943  0.6652 -0.2909
 3091TIP3    H130688   3.759   5.267  14.446 -0.0386 -0.3745 -1.0608
 3091TIP3    H230689   3.876   5.240  14.354  0.3865  1.6717 -1.1721
 3092TIP3   OH230690   3.752   6.592  16.902  0.5621 -0.0773  0.0164
 3092TIP3    H130691   3.833   6.609  16.950 -0.4426  2.3861  0.9931
 3092TIP3    H230692   3.685   6.644  16.947 -1.1099 -0.1999 -2.1371
 3093TIP3   OH230693   3.012   3.424   0.064 -0.2105  0.2689 -0.1438
 3093TIP3    H130694   2.925   3.457   0.042 -0.6157 -1.7749 -2.0259
 3093TIP3    H230695   3.066   3.446  -0.012 -0.2542 -2.2405 -1.0246
 3094TIP3   OH230696   2.333   2.648   5.067  0.0798  0.2539  0.2962
 3094TIP3    H130697   2.340   2.720   5.005  2.6092  1.0381  1.3559
 3094TIP3    H230698   2.384   2.577   5.028  0.2125  0.1410  0.6664
 3095TIP3   OH230699   2.439   4.529  15.288 -0.1147  0.6101  0.3718
 3095TIP3    H130700   2.436   4.555  15.196 -1.8611  1.5584  0.6670
 3095TIP3    H230701   2.506   4.585  15.327  1.2793 -0.4039 -0.4600
 3096TIP3   OH230702   4.877   6.270  13.970  0.2127  0.7131 -0.4376
 3096TIP3    H130703   4.810   6.274  13.902 -0.8443  1.6450  0.6243
 3096TIP3    H230704   4.859   6.188  14.016 -0.8088  1.3867  0.4143
 3097TIP3   OH230705   2.300   4.965  12.392 -0.1864  0.4534 -0.2430
 3097TIP3    H130706   2.393   4.955  12.413 -0.3905 -1.4588 -0.0347
 3097TIP3    H230707   2.294   4.948  12.298 -0.2620  1.1340 -0.3645
 3098TIP3   OH230708   0.878   6.579  15.421  0.2000 -0.1912  0.5154
 3098TIP3    H130709   0.807   6.518  15.401 -1.1542  1.1376  1.0831
 3098TIP3    H230710   0.957   6.530  15.402 -0.8622 -1.4386 -1.0222
 3099TIP3   OH230711   1.219   6.106  16.371  0.5691 -0.5499 -0.0780
 3099TIP3    H130712   1.182   6.019  16.355  1.5304 -0.9711 -0.0710
 3099TIP3    H230713   1.145   6.165  16.361  0.0617 -1.2888 -0.9183
 3100TIP3   OH230714   4.128   5.909   6.682  0.0112  0.3039  0.0995
 3100TIP3    H130715   4.207   5.960   6.665  0.3431 -0.5150 -0.9198
 3100TIP3    H230716   4.066   5.972   6.718  0.7536  1.2050 -0.1615
 3101TIP3   OH230717   3.305   6.576  12.931  0.8044 -0.0551 -0.4667
 3101TIP3    H130718   3.311   6.672  12.933 -0.1962  0.0019  0.1011
 3101TIP3    H230719   3.249   6.557  12.856  1.7289 -0.2535 -1.1288
 3102TIP3   OH230720   5.448   4.150  13.145 -0.5675 -0.0388  0.2928
 3102TIP3    H130721   5.525   4.152  13.202  0.6634 -1.5566 -1.2197
 3102TIP3    H230722   5.376   4.179  13.201  0.6525 -0.9719  2.4684
 3103TIP3   OH230723   4.490   1.338  15.495  0.8057  0.1801 -0.8743
 3103TIP3    H130724   4.465   1.413  15.549  0.9441 -0.5115  0.1661
 3103TIP3    H230725   4.520   1.272  15.557 -0.7900 -1.3304 -1.6291
 3104TIP3   OH230726   1.632   1.021  16.376  0.0999 -0.3053  0.6376
 3104TIP3    H130727   1.573   1.067  16.437  0.9738  1.3612  0.2941
 3104TIP3    H230728   1.718   1.056  16.397  0.3067  1.1123 -2.2135
 3105TIP3   OH230729   6.170   1.982  15.543 -0.1744  0.3467 -1.0036
 3105TIP3    H130730   6.255   2.009  15.508  0.8984 -1.9386 -0.3958
 3105TIP3    H230731   6.118   1.960  15.466  0.3635  0.2363 -1.3400
 3106TIP3   OH230732   6.148   4.030  14.282 -0.9336 -0.0074 -0.3577
 3106TIP3    H130733   6.226   4.045  14.335 -0.9069 -0.0265 -0.3916
 3106TIP3    H230734   6.157   3.940  14.251 -0.9693 -0.0101 -0.3611
 3107TIP3   OH230735   3.438   4.382  14.531  0.5888 -0.0677 -0.0109
 3107TIP3    H130736   3.360   4.386  14.476  0.5668 -0.2521  0.0033
 3107TIP3    H230737   3.459   4.288  14.536  0.6235 -0.0470  0.2461
 3108TIP3   OH230738   2.550   0.796   5.983  0.2835 -0.3343  0.9740
 3108TIP3    H130739   2.515   0.729   5.925  0.6137  0.4688 -0.2015
 3108TIP3    H230740   2.630   0.758   6.019  1.5339  0.0925 -1.1976
 3109TIP3   OH230741   0.391   3.424   0.209 -0.2371 -0.3656  0.1049
 3109TIP3    H130742   0.417   3.504   0.255 -1.7188 -1.2646  2.7279
 3109TIP3    H230743   0.299   3.436   0.189  0.0726 -0.5437 -1.5575
 3110TIP3   OH230744   3.107   3.421  13.922 -0.3336  0.0823  0.0681
 3110TIP3    H130745   3.200   3.438  13.939 -0.3092 -0.7923  0.8816
 3110TIP3    H230746   3.086   3.478  13.848  0.4485  1.4450  0.8487
 3111TIP3   OH230747   0.839   2.873   1.188 -0.6337 -0.1667 -0.0536
 3111TIP3    H130748   0.757   2.836   1.220 -0.8042 -0.2308 -0.5523
 3111TIP3    H230749   0.870   2.811   1.121  0.1302 -0.4481  0.5448
 3112TIP3   OH230750   2.686   6.680   2.280 -0.1185 -0.1684 -0.5946
 3112TIP3    H130751   2.657   6.770   2.262 -0.4535 -0.4256 -1.3741
 3112TIP3    H230752   2.732   6.686   2.364 -1.8526  0.3804  0.3698
 3113TIP3   OH230753   6.550   2.614   4.341  0.6122  0.5759  0.5498
 3113TIP3    H130754   6.502   2.539   4.375  1.4121 -0.3010 -0.1953
 3113TIP3    H230755   6.493   2.689   4.357 -0.1902 -0.1826  1.3291
 3114TIP3   OH230756   2.972   4.480   5.170 -0.2173  0.2238 -0.4530
 3114TIP3    H130757   2.906   4.463   5.103 -2.0210  1.6315  0.8698
 3114TIP3    H230758   2.945   4.427   5.245 -0.5569  1.6909  0.5001
 3115TIP3   OH230759   3.752   1.660   4.444 -0.4378  0.5899  0.6636
 3115TIP3    H130760   3.744   1.711   4.363  0.3524 -0.7275 -0.2922
 3115TIP3    H230761   3.798   1.718   4.505 -0.8126  1.5099  0.0980
 3116TIP3   OH230762   3.587   5.412   2.496 -0.3656  0.8219 -0.0856
 3116TIP3    H130763   3.548   5.331   2.463  1.8755  0.1368 -1.2115
 3116TIP3    H230764   3.536   5.482   2.454 -2.2813  0.0484  0.8522
 3117TIP3   OH230765   4.866   3.693  14.318 -0.6470  0.6482  0.0314
 3117TIP3    H130766   4.829   3.677  14.231  0.8423 -0.6586 -0.4062
 3117TIP3    H230767   4.797   3.663  14.378  0.2241 -3.6631 -0.7519
 3118TIP3   OH230768   0.055   4.022   5.546  0.3009  0.7863 -0.5319
 3118TIP3    H130769   0.145   4.002   5.572  0.3926 -0.6326 -1.7934
 3118TIP3    H230770   0.028   3.946   5.494 -1.1474  1.8115 -1.3335
 3119TIP3   OH230771   2.639   1.799   0.936  0.5276 -0.4160  0.4571
 3119TIP3    H130772   2.566   1.848   0.974  1.1009  0.3121  0.6503
 3119TIP3    H230773   2.711   1.812   0.998  1.2023 -0.0011 -0.3864
 3120TIP3   OH230774   4.584   1.202   3.773 -0.7190 -0.7129 -0.0919
 3120TIP3    H130775   4.535   1.152   3.709  1.5549 -0.6276 -2.0385
 3120TIP3    H230776   4.638   1.137   3.818 -0.3393 -0.4554 -0.1689
 3121TIP3   OH230777   4.540   4.715  11.525 -0.3075  0.1522  0.4759
 3121TIP3    H130778   4.535   4.810  11.525  1.5022  0.2910 -0.1197
 3121TIP3    H230779   4.632   4.696  11.507 -0.7890 -1.7096 -0.2771
 3122TIP3   OH230780   5.824   2.056  15.164 -0.3238  0.2090 -0.3942
 3122TIP3    H130781   5.775   1.974  15.164  0.6648 -0.3897 -0.1345
 3122TIP3    H230782   5.868   2.058  15.249  0.8390  0.2834 -0.9801
 3123TIP3   OH230783   3.541   0.970  12.633  0.2831  0.2036  0.0818
 3123TIP3    H130784   3.519   1.040  12.694  0.7459  0.8356 -0.4568
 3123TIP3    H230785   3.634   0.953  12.648  0.7836  1.3970 -1.4351
 3124TIP3   OH230786   1.134   5.817   3.785  0.3014  0.6544 -0.0313
 3124TIP3    H130787   1.157   5.763   3.709  0.9730  1.4859 -0.4290
 3124TIP3    H230788   1.147   5.758   3.860 -1.7617 -0.6408 -0.6012
 3125TIP3   OH230789   0.589   5.889  14.517  0.2678 -0.5238 -0.2563
 3125TIP3    H130790   0.567   5.861  14.428 -2.6186 -1.6589  0.7141
 3125TIP3    H230791   0.558   5.979  14.522  2.1647  0.2101 -0.9111
 3126TIP3   OH230792   0.600   0.737   2.084  0.4481 -0.0511  0.1048
 3126TIP3    H130793   0.508   0.711   2.086  0.6205 -0.6635  1.9187
 3126TIP3    H230794   0.644   0.663   2.041  0.2495 -0.3495  0.4050
 3127TIP3   OH230795   0.390   1.035   2.281 -0.1173  0.5464  0.5653
 3127TIP3    H130796   0.374   1.059   2.189 -0.7716 -0.5813  0.3597
 3127TIP3    H230797   0.468   1.084   2.305 -0.8611  2.1087 -0.0917
 3128TIP3   OH230798   4.636   2.120   1.044 -0.2982 -0.4187  0.5885
 3128TIP3    H130799   4.710   2.174   1.074  0.2995  0.0970 -1.6598
 3128TIP3    H230800   4.559   2.175   1.060  0.3193  1.3479 -1.9091
 3129TIP3   OH230801   1.579   4.605   4.084  0.2421 -0.0718  0.0731
 3129TIP3    H130802   1.565   4.518   4.123 -0.0373 -0.6203 -1.2164
 3129TIP3    H230803   1.607   4.587   3.995 -2.9457  1.1557 -1.2986
 3130TIP3   OH230804   6.744   6.384  16.781 -0.4262  0.3255 -0.5574
 3130TIP3    H130805   6.739   6.458  16.841  0.5485 -1.2566  1.6379
 3130TIP3    H230806   6.838   6.368  16.771 -0.5421 -2.0721  1.1164
 3131TIP3   OH230807   1.234   1.883  12.667 -0.2504 -0.4245 -0.3925
 3131TIP3    H130808   1.153   1.867  12.619 -1.1569  0.5011  0.7496
 3131TIP3    H230809   1.276   1.956  12.621  0.3683 -1.4170 -1.4569
 3132TIP3   OH230810   4.335   2.624  17.086  0.5571 -0.7586 -0.0682
 3132TIP3    H130811   4.249   2.660  17.105  0.3101 -1.0970 -0.5427
 3132TIP3    H230812   4.360   2.578  17.166  1.6395  1.8811  1.2283
 3133TIP3   OH230813   1.728   0.766  15.945 -0.0401  0.9950 -0.1820
 3133TIP3    H130814   1.653   0.749  15.889  0.3936  2.0472 -1.1205
 3133TIP3    H230815   1.691   0.774  16.033 -0.3401 -4.6475  0.5851
 3134TIP3   OH230816   2.618   5.867   1.914  0.1485 -0.0494 -0.2444
 3134TIP3    H130817   2.703   5.824   1.901 -0.3319 -1.1538  0.2016
 3134TIP3    H230818   2.559   5.822   1.855  0.0147  1.2640 -1.1704
 3135TIP3   OH230819   4.821   2.626   5.592  0.3153 -0.4400  0.5988
 3135TIP3    H130820   4.868   2.550   5.559  0.4189 -0.6382  1.1913
 3135TIP3    H230821   4.794   2.602   5.681 -2.4272 -0.9838 -0.3140
 3136TIP3   OH230822   2.212   0.908  14.739  0.9984 -0.2762 -0.0521
 3136TIP3    H130823   2.225   0.990  14.691  1.0094 -0.2930 -0.0775
 3136TIP3    H230824   2.301   0.877  14.757  0.9934 -0.5309 -0.4575
 3137TIP3   OH230825   2.791   1.580   2.200 -0.0854 -0.2198  0.1454
 3137TIP3    H130826   2.716   1.611   2.251 -0.7646 -2.5886  0.7344
 3137TIP3    H230827   2.752   1.522   2.134  1.1594 -0.7668 -0.1344
 3138TIP3   OH230828   4.157   1.518   6.037 -0.0191 -0.3613 -0.6523
 3138TIP3    H130829   4.123   1.495   6.124 -1.8517  0.1841 -1.1846
 3138TIP3    H230830   4.251   1.503   6.044 -0.3334 -1.9501  0.9085
 3139TIP3   OH230831   1.964   0.826  10.992 -0.1249  0.5810  0.7435
 3139TIP3    H130832   1.908   0.885  10.941 -0.5665 -0.9643 -0.6468
 3139TIP3    H230833   2.053   0.849  10.966 -0.3174  0.3282 -0.1762
 3140TIP3   OH230834   6.184   4.017   1.213  0.2572 -0.1708 -0.5247
 3140TIP3    H130835   6.136   3.959   1.155  0.3358  0.4031 -1.1726
 3140TIP3    H230836   6.131   4.020   1.293  1.1716 -2.5851  0.2563
 3141TIP3   OH230837   3.420   1.131  14.452  0.5709  0.2569 -0.2319
 3141TIP3    H130838   3.397   1.138  14.360  2.0580 -2.9699 -0.9781
 3141TIP3    H230839   3.485   1.200  14.466  0.2535  0.8579 -1.5428
 3142TIP3   OH230840   5.035   4.943   4.088  0.1529  0.1593 -0.4406
 3142TIP3    H130841   4.988   4.880   4.143  0.2345  1.3622  1.0878
 3142TIP3    H230842   4.998   4.931   4.001 -0.9352 -0.9192  0.1300
 3143TIP3   OH230843   0.409   4.621   1.437 -0.3607 -0.1925  0.3694
 3143TIP3    H130844   0.368   4.632   1.522  1.3524 -0.1913  1.2467
 3143TIP3    H230845   0.420   4.526   1.428 -1.3920 -0.2632 -0.3038
 3144TIP3   OH230846   5.326   1.542   3.698 -0.3421 -0.2181 -0.6450
 3144TIP3    H130847   5.374   1.620   3.671  1.1470 -0.0843  2.0144
 3144TIP3    H230848   5.251   1.575   3.748 -1.6692 -0.5044 -2.3283
 3145TIP3   OH230849   5.643   2.784  14.331  0.1486 -0.2274  0.1923
 3145TIP3    H130850   5.689   2.799  14.414  0.1302  0.5649  0.0677
 3145TIP3    H230851   5.559   2.745  14.358 -0.1961  0.7782  0.6146
 3146TIP3   OH230852   6.449   4.649  13.790 -0.0443  0.8971  0.2204
 3146TIP3    H130853   6.406   4.727  13.824  0.4556  0.7251  1.2901
 3146TIP3    H230854   6.379   4.598  13.749 -0.4722  1.6143  0.0457
 3147TIP3   OH230855   2.567   5.103  15.190 -0.2433 -0.1501  0.0453
 3147TIP3    H130856   2.483   5.133  15.224 -0.8659  0.7417 -2.0728
 3147TIP3    H230857   2.556   5.008  15.181 -1.1323 -0.0151 -0.4319
 3148TIP3   OH230858   1.309   6.303   3.517  0.2607  0.3931 -0.0496
 3148TIP3    H130859   1.233   6.261   3.476 -0.8593  1.1983  1.1309
 3148TIP3    H230860   1.383   6.246   3.495 -1.0914 -1.8723  0.9270
 3149TIP3   OH230861   3.640   3.560  12.861 -0.0322 -0.1185 -0.4258
 3149TIP3    H130862   3.620   3.505  12.937  1.9519 -1.1719 -0.6143
 3149TIP3    H230863   3.623   3.649  12.891 -2.1856 -0.6910  0.2587
 3150TIP3   OH230864   4.964   0.874   0.484 -0.1436  0.1153  0.2512
 3150TIP3    H130865   4.894   0.905   0.540 -0.1688  0.4483  0.0413
 3150TIP3    H230866   5.015   0.815   0.539  0.7881  1.6770  1.1417
 3151TIP3   OH230867   6.533   0.920   3.897 -0.4667  0.2208 -0.6005
 3151TIP3    H130868   6.499   0.901   3.984 -0.9016  0.4527 -0.7136
 3151TIP3    H230869   6.557   0.835   3.861 -1.2659  0.0144 -0.6520
 3152TIP3   OH230870   3.671   6.163   3.445 -0.1145 -0.6093  0.1644
 3152TIP3    H130871   3.729   6.209   3.384 -0.4000 -0.5144 -0.0394
 3152TIP3    H230872   3.730   6.117   3.505  0.2011  0.9903  1.1323
 3153TIP3   OH230873   3.046   3.784   4.697 -0.3789  0.4438  0.8434
 3153TIP3    H130874   3.112   3.837   4.741 -0.1339  0.1123  0.8702
 3153TIP3    H230875   3.086   3.761   4.613 -0.9661  1.3501  0.2966
 3154TIP3   OH230876   0.796   2.760  14.760  0.8211 -0.3199 -0.6454
 3154TIP3    H130877   0.714   2.713  14.744  0.7658  0.3475 -2.5326
 3154TIP3    H230878   0.772   2.852  14.757  1.0085 -0.0455  2.6465
 3155TIP3   OH230879   2.604   6.522   4.711  0.2082 -0.0032  0.2655
 3155TIP3    H130880   2.518   6.521   4.754 -0.0925 -3.2106 -0.1438
 3155TIP3    H230881   2.625   6.615   4.700 -2.6277  0.8812  1.4815
 3156TIP3   OH230882   6.515   1.634  10.559 -0.3979 -0.5132 -0.4876
 3156TIP3    H130883   6.584   1.693  10.530 -0.9430 -0.4959 -1.8514
 3156TIP3    H230884   6.446   1.691  10.593  0.7277 -0.5758  2.1342
 3157TIP3   OH230885   4.050   5.314  16.125  0.5410  0.5245 -0.4492
 3157TIP3    H130886   4.003   5.379  16.176 -0.8919 -0.6539 -0.1861
 3157TIP3    H230887   3.983   5.276  16.067  1.6427  0.2680 -1.6044
 3158TIP3   OH230888   0.765   6.482   4.816 -0.5164 -0.0016 -0.3047
 3158TIP3    H130889   0.816   6.553   4.776 -0.9457  0.6769  0.3293
 3158TIP3    H230890   0.818   6.403   4.801  0.4528  0.6017 -0.1545
 3159TIP3   OH230891   0.811   0.851   1.321 -0.1278  0.4332 -0.7922
 3159TIP3    H130892   0.745   0.838   1.388  0.2694  1.9864 -0.0698
 3159TIP3    H230893   0.794   0.781   1.257 -0.6605 -0.9281  0.7702
 3160TIP3   OH230894   0.998   3.649   1.657 -0.0055  0.4134  0.8656
 3160TIP3    H130895   1.063   3.710   1.624  0.5116  0.9444  2.7212
 3160TIP3    H230896   0.920   3.703   1.671 -0.4706  0.0336 -0.1874
 3161TIP3   OH230897   6.512   2.928   0.152  0.1830 -0.0339 -0.1878
 3161TIP3    H130898   6.530   2.983   0.229 -1.4863  0.3608 -0.0396
 3161TIP3    H230899   6.417   2.920   0.150  0.1711  0.0783 -2.2987
 3162TIP3   OH230900   6.656   4.268   1.646  0.0332 -0.2702 -0.7678
 3162TIP3    H130901   6.626   4.177   1.637  1.5592 -0.7738 -1.1273
 3162TIP3    H230902   6.664   4.299   1.555  0.6335 -0.1825 -0.6909
 3163TIP3   OH230903   1.909   0.961  15.921 -0.6488 -0.2744  0.1235
 3163TIP3    H130904   1.838   1.024  15.917 -0.4612 -0.1090 -0.8800
 3163TIP3    H230905   1.871   0.879  15.891 -0.8912 -0.6667  1.4196
 3164TIP3   OH230906   2.054   6.689   2.661  0.5800 -0.3279 -0.2059
 3164TIP3    H130907   2.048   6.626   2.733  0.2022 -0.1041 -0.0339
 3164TIP3    H230908   1.963   6.714   2.645  0.6996 -0.0852 -0.5022
 3165TIP3   OH230909   1.412   4.131  11.945 -0.1561 -0.0275 -0.0704
 3165TIP3    H130910   1.398   4.122  11.851 -1.5406 -0.5359  0.1716
 3165TIP3    H230911   1.468   4.056  11.968  0.5490  0.3433 -0.5480
 3166TIP3   OH230912   1.124   0.001  12.621 -0.1184 -0.1361 -0.1905
 3166TIP3    H130913   1.174   0.058  12.562  0.6363 -0.3816  0.2098
 3166TIP3    H230914   1.185  -0.023  12.690 -0.5177 -1.1933 -0.1871
 3167TIP3   OH230915   2.363   2.561  13.315  0.5807 -0.1244 -0.0548
 3167TIP3    H130916   2.302   2.524  13.379  0.2496  0.6698  0.0882
 3167TIP3    H230917   2.330   2.649  13.297  1.1991  0.0029 -0.6218
 3168TIP3   OH230918   3.509   0.381   4.660 -0.2793 -0.2583  0.2901
 3168TIP3    H130919   3.599   0.413   4.655 -0.2307 -0.2376  1.1355
 3168TIP3    H230920   3.456   0.452   4.623 -0.0293  0.1456  0.6939
 3169TIP3   OH230921   0.708   0.577  10.897  0.4248 -0.1270 -0.0605
 3169TIP3    H130922   0.641   0.513  10.872 -1.6856  1.7394  0.4451
 3169TIP3    H230923   0.781   0.560  10.838 -0.5395 -2.1828 -0.7469
 3170TIP3   OH230924   1.638   4.163  12.490  0.6379 -0.2368  0.3841
 3170TIP3    H130925   1.727   4.129  12.475 -0.1205 -2.1587 -0.0586
 3170TIP3    H230926   1.595   4.095  12.542 -0.9870  0.0173 -0.5758
 3171TIP3   OH230927   0.350   0.960  13.464 -0.2702 -0.2344  0.0516
 3171TIP3    H130928   0.304   1.044  13.465  0.9915  0.4902  0.5156
 3171TIP3    H230929   0.364   0.941  13.372 -1.6968 -0.6012 -0.1086
 3172TIP3   OH230930   4.432   6.158   2.788 -0.3698 -0.1873 -0.4441
 3172TIP3    H130931   4.349   6.195   2.759 -1.2881 -1.3991  0.5208
 3172TIP3    H230932   4.482   6.232   2.821 -0.9777  0.5853 -1.2206
 3173TIP3   OH230933   5.662   3.497   0.845  0.0216 -0.3543  0.0984
 3173TIP3    H130934   5.630   3.482   0.934  0.5464 -0.1598  0.3233
 3173TIP3    H230935   5.631   3.585   0.823  2.2766  0.8115  1.1881
 3174TIP3   OH230936   5.209   5.985   1.448 -0.0350 -0.0285  0.2703
 3174TIP3    H130937   5.289   6.014   1.491  0.9206  0.6931 -1.8549
 3174TIP3    H230938   5.176   6.062   1.402 -0.5804 -0.9097 -0.8899
 3175TIP3   OH230939   3.292   1.681   1.961  0.0489 -0.1317 -0.5993
 3175TIP3    H130940   3.320   1.663   1.871  1.6137 -0.0483 -0.1664
 3175TIP3    H230941   3.337   1.614   2.013  1.9220  1.8310  0.4775
 3176TIP3   OH230942   0.976   1.346   1.800 -0.6225  0.6470  0.1514
 3176TIP3    H130943   0.898   1.397   1.779 -1.2139  0.7089  2.2703
 3176TIP3    H230944   1.040   1.411   1.829  0.5009  0.6643 -2.1099
 3177TIP3   OH230945   2.083   3.892   0.609  0.2201 -0.0325  0.3975
 3177TIP3    H130946   2.103   3.824   0.544 -1.6824 -1.3222  1.0911
 3177TIP3    H230947   2.107   3.852   0.693  1.2407  1.0606  0.6523
 3178TIP3   OH230948   4.808   0.796  14.007  0.2575  0.2130 -0.4401
 3178TIP3    H130949   4.723   0.840  14.000 -0.8126 -1.8592 -1.1231
 3178TIP3    H230950   4.840   0.790  13.917 -0.5083 -1.9835 -0.6247
 3179TIP3   OH230951   3.321   6.333   2.615 -0.5360 -0.5257  0.0562
 3179TIP3    H130952   3.321   6.360   2.523 -0.4407  0.8071  0.4283
 3179TIP3    H230953   3.250   6.385   2.654 -0.2734 -0.7470  0.8259
 3180TIP3   OH230954   1.196   3.043  11.530  0.8234 -0.4449 -0.4261
 3180TIP3    H130955   1.259   2.999  11.473 -1.0308 -2.2685 -1.1491
 3180TIP3    H230956   1.143   3.097  11.471  0.0303 -0.9698 -0.2087
 3181TIP3   OH230957   2.754   2.749   3.879 -0.0475 -0.0579  0.3914
 3181TIP3    H130958   2.787   2.817   3.937 -0.2357 -0.9945  1.6311
 3181TIP3    H230959   2.673   2.719   3.921 -0.1696 -0.7800 -0.3326
 3182TIP3   OH230960   4.824   1.564  15.279  0.0409  0.5311  0.1949
 3182TIP3    H130961   4.918   1.574  15.263  0.3133  1.5449  2.1513
 3182TIP3    H230962   4.782   1.618  15.211  0.9735  1.9771  0.7416
 3183TIP3   OH230963   2.270   3.793  13.909  0.0626 -0.7355  0.3072
 3183TIP3    H130964   2.285   3.700  13.892 -0.0476 -0.9327  1.2027
 3183TIP3    H230965   2.197   3.817  13.851  0.3573 -1.1015 -0.2172
 3184TIP3   OH230966   2.533   1.897   3.694  0.5074  0.4896  0.0948
 3184TIP3    H130967   2.569   1.963   3.636  1.3739 -1.5116 -1.7615
 3184TIP3    H230968   2.446   1.878   3.659  0.0648  0.9290  0.9065
 3185TIP3   OH230969   0.043   2.067   3.179 -0.0334 -0.2513  0.0103
 3185TIP3    H130970   0.109   2.006   3.146  0.4679 -0.0932  0.6882
 3185TIP3    H230971   0.093   2.129   3.232 -0.3322  1.5265 -1.6812
 3186TIP3   OH230972   0.278   6.520   2.582  0.6800  0.0468 -0.1791
 3186TIP3    H130973   0.237   6.461   2.519  0.6819 -0.4384  0.2635
 3186TIP3    H230974   0.314   6.462   2.649 -1.5335  0.5759  1.6180
 3187TIP3   OH230975   2.222   3.159   1.092 -0.1378 -0.0758 -0.2396
 3187TIP3    H130976   2.175   3.180   1.011 -0.8137  0.0798  0.1802
 3187TIP3    H230977   2.160   3.182   1.162  0.6104  0.2340  0.3320
 3188TIP3   OH230978   5.220   1.029  14.485  0.3886 -0.2407 -0.2455
 3188TIP3    H130979   5.141   0.979  14.463 -0.3572 -0.0158  1.7154
 3188TIP3    H230980   5.236   1.083  14.407 -1.1886 -0.5359 -0.8221
 3189TIP3   OH230981   3.559   4.623  16.320 -0.1532 -0.0312 -0.1383
 3189TIP3    H130982   3.560   4.644  16.414  3.6496 -1.0612  0.1988
 3189TIP3    H230983   3.518   4.536  16.316 -0.4703  0.0795  0.5422
 3190TIP3   OH230984   4.712   6.447   0.357  0.0711  0.0881 -0.9194
 3190TIP3    H130985   4.664   6.401   0.287 -1.5182  1.8306 -1.0621
 3190TIP3    H230986   4.735   6.531   0.318 -0.5786  0.9685  0.5232
 3191TIP3   OH230987   4.457   3.904  14.917 -0.3940 -0.2822  0.6539
 3191TIP3    H130988   4.517   3.839  14.951 -0.9814 -0.7272  0.8596
 3191TIP3    H230989   4.370   3.871  14.940 -0.7812 -0.2743 -0.7016
 3192TIP3   OH230990   2.380   4.990  15.614 -0.7278 -0.3703 -0.1449
 3192TIP3    H130991   2.329   4.921  15.571 -1.6379  0.9820 -1.3510
 3192TIP3    H230992   2.469   4.978  15.583 -1.2558  0.1902 -1.9986
 3193TIP3   OH230993   4.115   2.919   3.881 -0.1231  0.3505  0.2293
 3193TIP3    H130994   4.144   2.980   3.949  1.3141 -0.4295  0.3547
 3193TIP3    H230995   4.173   2.938   3.807  0.0991 -0.5999  0.1459
 3194TIP3   OH230996   1.981   0.796   6.139 -0.0163 -0.4012  0.0687
 3194TIP3    H130997   1.928   0.778   6.216  1.5473 -1.7910  0.8757
 3194TIP3    H230998   1.965   0.889   6.120 -1.8656 -0.5080  0.8897
 3195TIP3   OH230999   1.159   5.614  14.031 -0.3140  0.6011  0.2768
 3195TIP3    H131000   1.066   5.591  14.025 -0.4943  0.8407  1.7801
 3195TIP3    H231001   1.202   5.534  14.060  0.2915 -0.0890 -2.2563
 3196TIP3   OH231002   5.309   4.582  15.857  0.2259 -0.0245 -0.2457
 3196TIP3    H131003   5.305   4.517  15.927  0.8748  2.1832  2.0066
 3196TIP3    H231004   5.221   4.584  15.820 -0.0794 -1.4123  0.3570
 3197TIP3   OH231005   3.325   1.732   6.595  0.5039  0.1161  0.2649
 3197TIP3    H131006   3.391   1.756   6.530  2.3857 -0.6313  1.7846
 3197TIP3    H231007   3.241   1.744   6.551  1.7031 -1.3731 -2.6353
 3198TIP3   OH231008   3.091   4.060  12.296 -0.1188 -0.1285  0.7527
 3198TIP3    H131009   3.142   4.086  12.219 -0.4668 -0.3369  0.4475
 3198TIP3    H231010   3.017   4.120  12.296 -1.4339 -1.6610 -0.4918
 3199TIP3   OH231011   4.232   0.765   3.169  0.1281 -0.2519 -0.3507
 3199TIP3    H131012   4.197   0.678   3.186  0.6319 -0.0223  2.3905
 3199TIP3    H231013   4.327   0.755   3.171  0.2015  0.1655 -1.2904
 3200TIP3   OH231014   2.089   2.544  12.705  0.0425  0.7043  0.2714
 3200TIP3    H131015   1.995   2.538  12.685  0.6310  0.3696 -3.0560
 3200TIP3    H231016   2.112   2.634  12.683  0.2839  1.2291  2.5142
 3201TIP3   OH231017   5.408   0.423   1.500 -0.0189  0.4396 -0.3198
 3201TIP3    H131018   5.434   0.479   1.427 -0.6204  1.3391  0.1410
 3201TIP3    H231019   5.451   0.339   1.482 -1.7523 -0.0325 -2.7757
 3202TIP3   OH231020   6.095   5.692  13.791 -0.3840  0.1848  0.1269
 3202TIP3    H131021   6.158   5.740  13.844  0.4754 -2.8138  2.0742
 3202TIP3    H231022   6.146   5.656  13.718  0.1137 -1.6798  1.3335
 3203TIP3   OH231023   6.201   3.129  14.948  0.6281  0.0470 -0.0906
 3203TIP3    H131024   6.221   3.142  14.856 -1.8526 -0.6910 -0.8248
 3203TIP3    H231025   6.174   3.215  14.980  0.1315  0.0295 -0.4558
 3204TIP3   OH231026   4.068   2.683  17.142 -0.6125 -0.1438  0.8179
 3204TIP3    H131027   4.032   2.645  17.222  0.8422  0.2239  1.6799
 3204TIP3    H231028   4.024   2.767  17.133 -1.3350 -0.5162  0.8012
 3205TIP3   OH231029   4.744   2.935   3.547  0.8352  0.2439  0.4189
 3205TIP3    H131030   4.731   2.878   3.623  2.5730 -0.9218 -0.0807
 3205TIP3    H231031   4.753   2.874   3.473  2.2057  1.1749 -0.2190
 3206TIP3   OH231032   3.636   1.001  16.907 -0.3246  0.1252 -0.0497
 3206TIP3    H131033   3.689   0.950  16.968 -1.3165  0.8901  1.5127
 3206TIP3    H231034   3.699   1.053  16.858  0.4899 -0.4652  0.3430
 3207TIP3   OH231035   5.837   2.804   1.388  0.0142 -0.4111  0.3031
 3207TIP3    H131036   5.904   2.847   1.440 -0.0443 -0.1536  0.1696
 3207TIP3    H231037   5.873   2.801   1.299 -1.4803  2.8292 -0.5566
 3208TIP3   OH231038   4.203   5.442   2.335 -0.3210 -0.3822 -0.4554
 3208TIP3    H131039   4.164   5.357   2.314  2.1448 -1.5489 -0.6969
 3208TIP3    H231040   4.204   5.444   2.430 -2.3916  0.4456 -0.3864
 3209TIP3   OH231041   0.914   5.785   2.062  0.7510 -0.0925  0.1521
 3209TIP3    H131042   0.921   5.768   1.968  0.7178 -2.3231  0.4970
 3209TIP3    H231043   1.003   5.810   2.088  0.8084  0.3234 -0.4170
 3210TIP3   OH231044   3.853   5.856  12.169 -0.1218  0.0826 -0.1885
 3210TIP3    H131045   3.942   5.840  12.138  0.3320 -1.6622  1.8104
 3210TIP3    H231046   3.818   5.769  12.187 -2.2324  0.7423 -0.8440
 3211TIP3   OH231047   5.276   4.526   6.236  0.2676  0.1584 -0.0412
 3211TIP3    H131048   5.280   4.518   6.332  0.6042  0.0633 -0.0623
 3211TIP3    H231049   5.245   4.616   6.221 -0.3529 -0.0141  0.1616
 3212TIP3   OH231050   2.274   5.641  16.600  0.3081 -0.5382 -0.2912
 3212TIP3    H131051   2.238   5.552  16.605  1.5665 -0.9900  2.5860
 3212TIP3    H231052   2.264   5.675  16.688  2.1980  1.2342 -0.7006
 3213TIP3   OH231053   2.461   2.503   1.031  0.4827 -0.1204  0.6857
 3213TIP3    H131054   2.456   2.535   1.121 -2.9091  3.1044 -0.3887
 3213TIP3    H231055   2.525   2.561   0.988  1.9197 -1.4994  0.9030
 3214TIP3   OH231056   3.949   2.716  15.182  0.3587  1.2832 -0.4999
 3214TIP3    H131057   3.874   2.772  15.202 -1.2344  0.1612 -2.9056
 3214TIP3    H231058   3.952   2.713  15.087  0.7257 -2.2370 -0.5101
 3215TIP3   OH231059   5.666   2.314  13.159 -0.0864 -0.1640  0.5874
 3215TIP3    H131060   5.619   2.269  13.089  1.0510 -1.4663  0.5911
 3215TIP3    H231061   5.648   2.407  13.146  0.5928 -0.3016 -1.8348
 3216TIP3   OH231062   2.742   4.752  12.617 -0.5293 -0.1065 -1.2918
 3216TIP3    H131063   2.745   4.847  12.622 -0.1056 -0.0844 -1.9239
 3216TIP3    H231064   2.834   4.725  12.612 -0.6396 -0.5551 -1.0189
 3217TIP3   OH231065   6.666   5.420   6.414  0.0058 -0.2736 -0.3815
 3217TIP3    H131066   6.619   5.485   6.466 -0.0683  0.5296 -1.4058
 3217TIP3    H231067   6.758   5.432   6.438 -0.0461 -0.0408 -0.2953
 3218TIP3   OH231068   6.415   3.128  16.853 -0.0958  0.1696  0.8005
 3218TIP3    H131069   6.418   3.169  16.766 -0.6167 -0.5724  0.4098
 3218TIP3    H231070   6.323   3.101  16.862  0.2969 -1.2008  0.8804
 3219TIP3   OH231071   4.466   5.457   3.243  0.6629  0.3954  0.4191
 3219TIP3    H131072   4.442   5.542   3.208 -2.5612 -0.2704  0.6581
 3219TIP3    H231073   4.459   5.397   3.169  0.5929  0.0120  0.7310
 3220TIP3   OH231074   3.673   2.694   4.735 -0.2607 -0.7974 -0.3155
 3220TIP3    H131075   3.694   2.610   4.694 -0.4031 -0.7152 -0.5533
 3220TIP3    H231076   3.605   2.732   4.680  2.6701  1.4184 -2.6741
 3221TIP3   OH231077   2.172   5.994   3.104  0.4082 -0.7157 -0.3834
 3221TIP3    H131078   2.234   6.056   3.064  1.1404 -0.5139  0.9732
 3221TIP3    H231079   2.088   6.040   3.103  1.0190  0.5286  0.9698
 3222TIP3   OH231080   5.640   6.115   0.647 -0.0440 -0.2844 -0.6873
 3222TIP3    H131081   5.690   6.091   0.725 -0.6560  1.5312  0.3294
 3222TIP3    H231082   5.705   6.148   0.586  0.1069  2.4075  0.7635
 3223TIP3   OH231083   3.451   3.319   0.672 -0.5705 -0.0652 -0.1487
 3223TIP3    H131084   3.495   3.340   0.754 -1.1820  0.5691  0.0326
 3223TIP3    H231085   3.362   3.353   0.684 -0.7177 -0.1342 -1.0016
 3224TIP3   OH231086   5.864   4.198   4.131 -0.2553  0.8138  0.3387
 3224TIP3    H131087   5.953   4.195   4.094 -0.0894  0.5683  0.7474
 3224TIP3    H231088   5.813   4.140   4.075  0.3529 -0.8258  1.3987
 3225TIP3   OH231089   2.391   2.995  16.478 -0.7092 -0.1594  0.1228
 3225TIP3    H131090   2.389   3.066  16.413 -0.8370 -0.2097  0.0709
 3225TIP3    H231091   2.305   2.954  16.470 -0.4145 -0.7094 -0.2728
 3226TIP3   OH231092   5.043   4.029   2.496  0.1459  0.6587 -0.3470
 3226TIP3    H131093   5.042   3.938   2.527 -0.9909  0.5165 -0.7711
 3226TIP3    H231094   5.101   4.027   2.420 -0.6327  0.0784 -0.9402
 3227TIP3   OH231095   6.535   1.355  16.531  0.1749  0.3722  0.2685
 3227TIP3    H131096   6.547   1.264  16.560 -0.5693 -0.1469 -0.9811
 3227TIP3    H231097   6.610   1.402  16.569  1.7391 -1.1763 -0.7584
 3228TIP3   OH231098   6.429   3.421   5.617 -0.7447  0.3163 -0.1261
 3228TIP3    H131099   6.419   3.354   5.686 -2.0758 -0.9843 -1.4928
 3228TIP3    H231100   6.383   3.497   5.652 -1.6956 -0.4290  0.3344
 3229TIP3   OH231101   6.359   3.164   0.371  0.1769  0.1592 -0.0052
 3229TIP3    H131102   6.360   3.178   0.276 -2.2788 -0.3339 -0.1893
 3229TIP3    H231103   6.371   3.251   0.408  0.5498  0.4457 -0.7717
 3230TIP3   OH231104   6.084   1.229  15.607 -0.1030  0.1699  0.4647
 3230TIP3    H131105   6.148   1.196  15.671  0.2834 -0.7046 -0.3465
 3230TIP3    H231106   6.104   1.322  15.600  0.2246  0.1643  1.1978
 3231TIP3   OH231107   2.099   1.261  13.984  0.7101 -0.0928 -0.1895
 3231TIP3    H131108   2.158   1.231  14.053  0.6171 -1.2775 -0.5973
 3231TIP3    H231109   2.012   1.250  14.021  0.7094  0.7705  0.0726
 3232TIP3   OH231110   5.799   5.919  13.271 -0.0747  0.3801 -0.6773
 3232TIP3    H131111   5.886   5.897  13.239  0.1588 -0.7197  0.6332
 3232TIP3    H231112   5.804   5.906  13.366 -1.9181 -0.5981 -0.6772
 3233TIP3   OH231113   0.946   2.287  12.533  0.4691 -0.0058 -0.3114
 3233TIP3    H131114   0.886   2.360  12.546 -0.4120 -0.4154 -1.7773
 3233TIP3    H231115   0.996   2.311  12.455  1.2904 -0.2736  0.1205
 3234TIP3   OH231116   4.514   5.391  12.701 -0.3403 -0.2236 -0.1328
 3234TIP3    H131117   4.592   5.337  12.697 -0.9369 -1.3638  1.9952
 3234TIP3    H231118   4.441   5.331  12.684 -0.7997  0.8134 -2.0712
 3235TIP3   OH231119   3.602   6.070  11.751  0.0487  0.0435 -0.0193
 3235TIP3    H131120   3.613   6.163  11.773 -1.2445  0.9227 -2.7090
 3235TIP3    H231121   3.681   6.048  11.702 -0.2105  0.0801 -0.4533
 3236TIP3   OH231122   6.585   3.301  12.731  0.1923 -0.1277 -0.0254
 3236TIP3    H131123   6.521   3.352  12.681 -0.9601 -1.3045  0.1903
 3236TIP3    H231124   6.668   3.347  12.718 -0.6159  1.2127 -0.6522
 3237TIP3   OH231125   5.278   1.215   2.068  0.0214  0.1602 -0.6447
 3237TIP3    H131126   5.373   1.214   2.068  0.0240  0.3424 -0.2146
 3237TIP3    H231127   5.254   1.231   1.976  0.3834 -1.0178 -0.9624
 3238TIP3   OH231128   1.838   6.435  14.726  0.1039  0.8786 -0.0445
 3238TIP3    H131129   1.834   6.339  14.736  1.5969  0.9020  1.1825
 3238TIP3    H231130   1.789   6.469  14.801 -0.3380  1.0922 -0.4236
 3239TIP3   OH231131   4.750   6.800  14.926  0.2359 -1.0226 -0.4353
 3239TIP3    H131132   4.697   6.765  14.854 -0.7784 -0.7366  0.1539
 3239TIP3    H231133   4.784   6.883  14.893  0.3128 -1.2056 -0.8202
 3240TIP3   OH231134   1.020   6.109   2.021  0.2956  0.0224 -0.2307
 3240TIP3    H131135   0.955   6.125   1.953 -0.2258  0.1654  0.2854
 3240TIP3    H231136   0.973   6.128   2.103  1.3135  1.2574  0.1082
 3241TIP3   OH231137   3.429   3.160  15.544 -0.6217  0.0738 -0.2474
 3241TIP3    H131138   3.504   3.212  15.513 -0.0044 -1.6265 -1.7996
 3241TIP3    H231139   3.352   3.212  15.522  0.0403  2.2397  2.1113
 3242TIP3   OH231140   4.335   5.836   0.505  0.5251  0.1136  0.8499
 3242TIP3    H131141   4.324   5.858   0.413 -0.8745 -3.0779  0.1131
 3242TIP3    H231142   4.408   5.774   0.507  0.4998  0.0936  1.8429
 3243TIP3   OH231143   4.811   0.440   1.708 -0.3441 -0.2325 -0.4023
 3243TIP3    H131144   4.882   0.463   1.768 -2.2250 -0.8158  2.2561
 3243TIP3    H231145   4.817   0.344   1.700 -0.8248 -0.2813 -0.1765
 3244TIP3   OH231146   3.193   5.302  11.376  0.2491 -0.4085 -0.3411
 3244TIP3    H131147   3.158   5.237  11.315 -1.4677  0.9013 -0.8368
 3244TIP3    H231148   3.126   5.370  11.379  1.2336  0.5506  1.4398
 3245TIP3   OH231149   6.028   4.269  17.051 -0.3430 -0.7175  0.4064
 3245TIP3    H131150   6.016   4.353  17.006 -0.2347 -0.5404  0.7050
 3245TIP3    H231151   6.070   4.292  17.134 -1.5546 -0.9197  1.0911
 3246TIP3   OH231152   5.703   4.417   3.810 -0.0054 -0.0100  0.8892
 3246TIP3    H131153   5.780   4.365   3.833  0.0902  0.2490  1.1526
 3246TIP3    H231154   5.688   4.474   3.885 -0.8515 -0.5152  1.1275
 3247TIP3   OH231155   4.710   0.962   2.576 -0.7744  0.6330  0.9568
 3247TIP3    H131156   4.790   0.923   2.611 -1.0776 -1.3696 -0.3991
 3247TIP3    H231157   4.656   0.979   2.653 -0.8626 -2.3098  1.6717
 3248TIP3   OH231158   2.705   2.535  16.792  0.1039  0.1716 -0.5550
 3248TIP3    H131159   2.716   2.468  16.860 -1.1265 -0.6643 -1.1419
 3248TIP3    H231160   2.743   2.495  16.714 -0.3752  0.2713 -0.8406
 3249TIP3   OH231161   1.177   0.861  13.208  0.3725 -0.0619  0.1389
 3249TIP3    H131162   1.228   0.870  13.289 -2.4171 -0.1555  2.0624
 3249TIP3    H231163   1.110   0.929  13.214 -1.1586 -1.3696 -1.0681
 3250TIP3   OH231164   0.913   6.372   4.533 -0.4064 -0.1090  0.3678
 3250TIP3    H131165   0.914   6.424   4.453  0.8078  0.8494  0.9609
 3250TIP3    H231166   1.002   6.380   4.568 -0.3505 -2.1103  0.8165
 3251TIP3   OH231167   5.888   0.867   0.210 -0.1450 -0.7770  0.2486
 3251TIP3    H131168   5.844   0.805   0.152 -0.7106 -0.3305  0.1869
 3251TIP3    H231169   5.839   0.861   0.292 -0.5338 -0.0531  0.0818
 3252TIP3   OH231170   2.739   4.455   6.542 -0.1319  0.4786  0.2732
 3252TIP3    H131171   2.772   4.541   6.514  3.2558 -0.8746 -0.3573
 3252TIP3    H231172   2.770   4.445   6.632  1.0156 -0.7157 -0.2201
 3253TIP3   OH231173   5.521   4.411  15.431  0.2044  0.3728 -0.6514
 3253TIP3    H131174   5.470   4.406  15.350  1.1989  0.5498 -1.3066
 3253TIP3    H231175   5.465   4.369  15.496 -0.6458  0.2802 -1.4125
 3254TIP3   OH231176   5.585   4.292  15.947  0.3595 -0.6341 -0.8096
 3254TIP3    H131177   5.629   4.350  15.884  1.0948 -0.8262 -0.4816
 3254TIP3    H231178   5.653   4.231  15.975  0.4473  0.3244  1.2477
 3255TIP3   OH231179   0.940   5.544  12.189  0.1296 -0.6226  0.0043
 3255TIP3    H131180   0.908   5.514  12.274  1.3016 -0.5772  0.4780
 3255TIP3    H231181   0.930   5.639  12.191 -2.3827 -0.7643 -1.0035
 3256TIP3   OH231182   3.397   5.802  15.841 -0.3646 -0.4474  0.2218
 3256TIP3    H131183   3.313   5.837  15.813 -0.1445 -0.3656 -0.3540
 3256TIP3    H231184   3.449   5.797  15.760  1.0430  1.8320  0.9010
 3257TIP3   OH231185   2.415   6.226   0.420  0.0408 -0.0349  0.3313
 3257TIP3    H131186   2.492   6.191   0.373 -0.8729 -1.6136 -0.0792
 3257TIP3    H231187   2.421   6.320   0.408  1.3577 -0.1943 -0.5868
 3258TIP3   OH231188   0.555   3.995   6.340 -0.4549 -0.2192 -0.1946
 3258TIP3    H131189   0.565   4.075   6.391  1.8042  0.2956 -1.3393
 3258TIP3    H231190   0.644   3.964   6.324 -1.1852 -1.7828 -1.5976
 3259TIP3   OH231191   1.072   6.207   0.762 -0.0864 -0.3446 -0.2996
 3259TIP3    H131192   1.162   6.202   0.795  0.3562 -0.7936 -1.5001
 3259TIP3    H231193   1.046   6.298   0.775  0.8720  0.0078 -0.7245
 3260TIP3   OH231194   5.269   5.138   1.341  0.1003 -0.4608 -0.2096
 3260TIP3    H131195   5.247   5.231   1.346  1.7652 -0.1033  2.4097
 3260TIP3    H231196   5.344   5.135   1.282 -0.8931 -0.4207 -1.5378
 3261TIP3   OH231197   0.444   5.524   6.605 -1.1184  0.8670 -0.0648
 3261TIP3    H131198   0.394   5.591   6.652  0.7602  1.5826  1.0115
 3261TIP3    H231199   0.514   5.572   6.562 -0.3062 -0.2867 -0.0652
 3262TIP3   OH231200   4.095   3.675  11.627  0.6546  0.2010 -0.3079
 3262TIP3    H131201   4.047   3.690  11.546  0.3122  0.3943 -0.0730
 3262TIP3    H231202   4.094   3.760  11.672  0.6227  0.0308  0.0146
 3263TIP3   OH231203   2.578   0.518  17.027  0.3801 -0.3706 -0.0153
 3263TIP3    H131204   2.634   0.589  17.059 -0.6999  0.5758 -0.1842
 3263TIP3    H231205   2.516   0.560  16.968 -0.4086 -1.4277  0.0260
 3264TIP3   OH231206   0.845   4.304   6.046  0.2146  0.0083  0.3111
 3264TIP3    H131207   0.877   4.394   6.037  1.7523 -0.5964 -0.8722
 3264TIP3    H231208   0.808   4.300   6.134 -0.5916  1.9852  0.1041
 3265TIP3   OH231209   4.443   2.237   2.150  0.3399  0.0573 -0.1195
 3265TIP3    H131210   4.449   2.188   2.231  1.0184 -0.8533 -0.7111
 3265TIP3    H231211   4.532   2.239   2.116  0.2069  1.1361 -0.4416
 3266TIP3   OH231212   4.485   4.456  16.731 -0.1564 -0.1086 -0.1052
 3266TIP3    H131213   4.466   4.467  16.639  1.7650  0.0094 -0.5425
 3266TIP3    H231214   4.464   4.540  16.771 -0.6021 -0.0295 -0.4999
 3267TIP3   OH231215   0.475   5.873  11.096  0.2020 -0.2285  0.6937
 3267TIP3    H131216   0.495   5.874  11.189  1.0248 -1.3991  0.5520
 3267TIP3    H231217   0.520   5.950  11.060  0.5219 -0.2071  1.1424
 3268TIP3   OH231218   1.255   5.296  15.714  0.3503  0.0445 -0.4364
 3268TIP3    H131219   1.280   5.204  15.725 -1.0801 -0.3009  0.1422
 3268TIP3    H231220   1.199   5.296  15.636 -2.3267 -0.1990  1.3439
 3269TIP3   OH231221   3.440   3.754   0.387  0.4896  0.3903  0.5844
 3269TIP3    H131222   3.360   3.773   0.340 -0.3271  1.8540  2.4536
 3269TIP3    H231223   3.436   3.660   0.404  0.3930 -0.0057 -1.3985
 3270TIP3   OH231224   2.032   6.598   3.953  0.4132 -0.3897 -0.2837
 3270TIP3    H131225   2.090   6.593   3.877  1.5919 -2.0543  0.6609
 3270TIP3    H231226   1.955   6.546   3.928  0.9348 -1.1941 -0.2352
 3271TIP3   OH231227   1.587   1.114   0.767 -0.1803 -0.0354  0.0276
 3271TIP3    H131228   1.573   1.178   0.697  1.1226 -0.0653 -0.2760
 3271TIP3    H231229   1.513   1.054   0.759 -0.5957  0.5473 -0.6681
 3272TIP3   OH231230   3.766   4.153  14.732 -0.1628  0.0408 -0.0394
 3272TIP3    H131231   3.770   4.217  14.661  1.7676  1.5561  1.3210
 3272TIP3    H231232   3.693   4.182  14.787  1.6337  2.1517  1.4078
 3273TIP3   OH231233   6.751   6.701  13.358  0.0303 -0.0457 -0.3597
 3273TIP3    H131234   6.842   6.728  13.361  0.6060 -1.8695  2.3825
 3273TIP3    H231235   6.718   6.717  13.447 -2.0193 -0.4104 -0.9944
 3274TIP3   OH231236   2.082   3.035  15.465  0.0917  0.3561 -0.0281
 3274TIP3    H131237   2.163   3.083  15.479 -1.2251  2.6788  0.1414
 3274TIP3    H231238   2.071   2.983  15.545  0.7411  1.0527  0.5295
 3275TIP3   OH231239   6.693   2.507   2.607  0.3289 -0.3784 -0.2402
 3275TIP3    H131240   6.779   2.547   2.619  1.0881 -1.7370 -0.9076
 3275TIP3    H231241   6.684   2.499   2.512 -0.4825 -0.3682 -0.1690
 3276TIP3   OH231242   0.340   4.194  16.827 -0.3808  0.0293  0.0426
 3276TIP3    H131243   0.354   4.104  16.797  0.6369 -0.1182  0.8972
 3276TIP3    H231244   0.397   4.247  16.773 -0.0574  0.0031  0.3508
 3277TIP3   OH231245   5.534   2.588   1.402 -0.0041  0.1531 -0.8031
 3277TIP3    H131246   5.470   2.568   1.470  1.3368  0.0782  0.5020
 3277TIP3    H231247   5.617   2.595   1.450  0.7172  1.8020 -2.2060
 3278TIP3   OH231248   5.636   3.216  14.573  0.3410 -0.1574 -0.4233
 3278TIP3    H131249   5.575   3.266  14.518 -0.5142  0.8834  1.3587
 3278TIP3    H231250   5.720   3.220  14.527 -0.0362  1.7987 -1.0161
 3279TIP3   OH231251   2.641   0.772   2.307  0.0880  0.0198  0.5106
 3279TIP3    H131252   2.704   0.731   2.367 -0.7149  1.6715  2.6452
 3279TIP3    H231253   2.633   0.862   2.339 -3.4352 -0.1305  0.5247
 3280TIP3   OH231254   4.926   0.161  13.736  0.0702 -0.5567 -0.3210
 3280TIP3    H131255   4.927   0.221  13.661  2.4596  0.4992  0.4399
 3280TIP3    H231256   5.006   0.110  13.727  0.1710 -0.7316  1.2360
 3281TIP3   OH231257   4.289   2.541  16.811  0.5794 -0.0864  0.1812
 3281TIP3    H131258   4.368   2.556  16.759  0.9414  0.7544  0.9650
 3281TIP3    H231259   4.314   2.560  16.901 -0.5848  0.4503  0.4114
 3282TIP3   OH231260   1.529   2.567  15.131 -0.0785  0.4080 -0.5087
 3282TIP3    H131261   1.586   2.492  15.112 -1.8891 -0.9579 -0.8713
 3282TIP3    H231262   1.480   2.541  15.209 -0.9514  1.0655 -0.8209
 3283TIP3   OH231263   0.202   2.572   1.951 -0.6786  0.2305 -0.2122
 3283TIP3    H131264   0.215   2.498   2.010  0.9869  1.6275  1.2726
 3283TIP3    H231265   0.229   2.539   1.865  0.3667 -0.7991  0.4864
 3284TIP3   OH231266   6.218   4.904   1.619  0.1402 -0.5835 -0.1874
 3284TIP3    H131267   6.196   4.993   1.592  0.9995  0.0663  1.1795
 3284TIP3    H231268   6.307   4.891   1.587  1.4267  0.4254  2.6490
 3285TIP3   OH231269   4.005   5.453  11.762 -0.2348  0.1187 -0.5638
 3285TIP3    H131270   4.011   5.389  11.691  1.0265 -1.5799  0.9713
 3285TIP3    H231271   3.920   5.437  11.802 -0.1443 -0.2471 -0.5156
 3286TIP3   OH231272   6.365   4.770  12.490  0.2747 -0.4632  0.0425
 3286TIP3    H131273   6.403   4.775  12.402  0.0012  1.9981  0.0102
 3286TIP3    H231274   6.277   4.734  12.475  0.6640 -1.2225 -0.5102
 3287TIP3   OH231275   0.164   4.568  14.495  0.0706 -0.1711 -0.3109
 3287TIP3    H131276   0.210   4.648  14.468  0.9805 -0.9843 -1.2475
 3287TIP3    H231277   0.072   4.594  14.500  0.3553  0.9373 -0.5868
 3288TIP3   OH231278   2.297   4.083   6.379  0.5780  0.3175 -0.0458
 3288TIP3    H131279   2.207   4.074   6.408 -0.0821 -1.7411 -2.3968
 3288TIP3    H231280   2.342   4.006   6.415  1.4895  1.3420  1.1417
 3289TIP3   OH231281   1.822   0.931   6.452  0.0739  0.2026 -0.3571
 3289TIP3    H131282   1.866   0.848   6.432  3.7445  2.0373 -0.6689
 3289TIP3    H231283   1.753   0.907   6.514 -0.0221 -3.2391 -1.5846
 3290TIP3   OH231284   3.332   2.034  17.019 -0.5842 -0.5709 -0.5985
 3290TIP3    H131285   3.336   1.983  17.100  1.0021  0.6994  0.2011
 3290TIP3    H231286   3.352   1.972  16.950  0.0163 -1.2969  0.2042
 3291TIP3   OH231287   3.389   5.530  12.611  0.0648 -0.5610 -0.2976
 3291TIP3    H131288   3.326   5.467  12.577 -0.1260  0.0473 -1.0933
 3291TIP3    H231289   3.340   5.612  12.618  0.2233 -0.5524  1.0226
 3292TIP3   OH231290   1.560   1.314  14.240 -0.1451  0.2187  0.4467
 3292TIP3    H131291   1.466   1.315  14.259 -0.0166 -1.8836  1.5210
 3292TIP3    H231292   1.566   1.281  14.151 -0.4394  1.6121 -0.1147
 3293TIP3   OH231293   5.354   4.409  12.331  0.5301 -0.2591  0.0805
 3293TIP3    H131294   5.330   4.498  12.358 -0.4543 -0.5186  0.0973
 3293TIP3    H231295   5.361   4.361  12.413 -0.6247 -0.5958  0.0034
 3294TIP3   OH231296   3.038   4.143   2.206 -0.3558 -0.3622 -0.2184
 3294TIP3    H131297   2.959   4.168   2.255  0.7126  1.0327  0.8608
 3294TIP3    H231298   3.052   4.216   2.145  2.8833  2.1620  3.0657
 3295TIP3   OH231299   2.769   5.788   2.518 -0.1290  0.6538  0.0741
 3295TIP3    H131300   2.703   5.740   2.467 -0.9992  1.7669  0.1120
 3295TIP3    H231301   2.726   5.870   2.541  0.7243  0.7247  1.4926
 3296TIP3   OH231302   6.775   3.276   1.820 -0.4464  0.4787 -0.4464
 3296TIP3    H131303   6.699   3.332   1.806  0.1386  1.5340  0.4575
 3296TIP3    H231304   6.831   3.293   1.744  0.8754  3.1149  0.9726
 3297TIP3   OH231305   4.335   5.154  13.969  0.1125  0.4298  0.7042
 3297TIP3    H131306   4.336   5.225  13.905 -0.0199 -1.2428 -1.2580
 3297TIP3    H231307   4.320   5.198  14.053 -1.0951  2.5943 -0.5435
 3298TIP3   OH231308   3.291   0.794  14.745  0.0097  0.4739  0.6195
 3298TIP3    H131309   3.305   0.886  14.725  0.5318  0.1349 -0.7156
 3298TIP3    H231310   3.377   0.762  14.775 -0.0561  0.3250  0.6536
 3299TIP3   OH231311   6.384   5.239  12.019  0.2362 -0.3273 -0.1506
 3299TIP3    H131312   6.455   5.271  11.964 -0.7161 -0.3009 -1.4138
 3299TIP3    H231313   6.305   5.250  11.966 -0.5492 -1.5907  0.6840
 3300TIP3   OH231314   2.873   3.138  11.995  0.7189  0.2323 -0.3521
 3300TIP3    H131315   2.868   3.226  11.959 -0.6773  0.3692  0.0892
 3300TIP3    H231316   2.868   3.150  12.090 -2.7808 -0.3708 -0.3107
 3301TIP3   OH231317   2.576   5.452  10.679 -0.1726 -0.3200  0.2278
 3301TIP3    H131318   2.544   5.541  10.666 -0.1781  0.0575  2.5015
 3301TIP3    H231319   2.528   5.400  10.614 -0.4663  1.2334 -0.8742
 3302TIP3   OH231320   4.617   0.507  12.204  0.0884  0.2606 -0.6787
 3302TIP3    H131321   4.558   0.457  12.148  0.7788  0.6726 -1.8144
 3302TIP3    H231322   4.676   0.551  12.143 -0.9987  3.1539  0.1993
 3303TIP3   OH231323   5.817   1.722  17.138  0.5278 -0.1667 -0.2088
 3303TIP3    H131324   5.824   1.748  17.230 -1.1402  0.3700 -0.1949
 3303TIP3    H231325   5.846   1.800  17.089 -1.7524  0.7946 -0.1341
 3304TIP3   OH231326   1.227   1.576   5.402  0.2532 -0.2244  0.1087
 3304TIP3    H131327   1.188   1.508   5.348  0.3886 -1.1565  1.1680
 3304TIP3    H231328   1.163   1.593   5.471 -1.1064  2.8081 -1.6846
 3305TIP3   OH231329   5.722   5.615   0.664 -0.9436  0.0401  0.4454
 3305TIP3    H131330   5.785   5.658   0.723  0.4585 -2.4303  0.9169
 3305TIP3    H231331   5.768   5.610   0.580 -0.3743 -1.8645  0.8168
 3306TIP3   OH231332   5.452   6.376  13.395  0.5435  0.3598  0.6349
 3306TIP3    H131333   5.476   6.331  13.314 -0.6333  1.3025 -0.2883
 3306TIP3    H231334   5.359   6.357  13.406 -0.3590  3.4997 -0.5161
 3307TIP3   OH231335   5.198   6.675   5.357 -0.4664 -0.6109 -0.6314
 3307TIP3    H131336   5.204   6.706   5.267  0.1848  2.0582  0.2366
 3307TIP3    H231337   5.288   6.682   5.391 -1.0932  0.8422  0.8846
 3308TIP3   OH231338   5.210   1.644   5.719  0.4845 -0.1811  0.3420
 3308TIP3    H131339   5.206   1.644   5.815 -0.5987  0.2225  0.3117
 3308TIP3    H231340   5.250   1.729   5.697 -0.8978  0.5148  0.4092
 3309TIP3   OH231341   4.838   1.669  16.200  0.1857 -0.4847 -0.5562
 3309TIP3    H131342   4.810   1.712  16.280 -0.0717 -0.7125 -0.5187
 3309TIP3    H231343   4.756   1.646  16.156  0.3252 -0.3493 -0.8868
 3310TIP3   OH231344   5.385   2.843  15.319 -0.7009 -0.1713  0.1311
 3310TIP3    H131345   5.390   2.763  15.266  1.2665  0.1597 -0.2540
 3310TIP3    H231346   5.381   2.914  15.254  0.7012  0.1802  0.3908
 3311TIP3   OH231347   5.566   5.188  16.905 -0.0035 -0.1517  0.5501
 3311TIP3    H131348   5.583   5.104  16.948  0.1940 -0.7424 -0.6259
 3311TIP3    H231349   5.590   5.172  16.813 -1.0835  0.8423  0.0796
 3312TIP3   OH231350   0.722   1.143   1.668 -0.1880 -0.1402 -0.6015
 3312TIP3    H131351   0.734   1.053   1.637 -1.3703  0.3273 -2.6556
 3312TIP3    H231352   0.791   1.193   1.623  0.4042  0.0294  0.4572
 3313TIP3   OH231353   4.610   5.970   6.880 -0.1266 -0.2109 -0.5576
 3313TIP3    H131354   4.540   5.946   6.940  1.9972  0.3593  2.3362
 3313TIP3    H231355   4.623   6.064   6.894  2.1216 -0.5592  0.1143
 3314TIP3   OH231356   0.016   5.544   4.342 -0.0808  0.6983 -0.4762
 3314TIP3    H131357   0.018   5.475   4.409 -1.6472  0.6052 -0.4993
 3314TIP3    H231358   0.058   5.619   4.384 -1.6556  0.8730  0.9008
 3315TIP3   OH231359   1.352   1.572  13.351 -0.0303 -0.6200  0.5359
 3315TIP3    H131360   1.433   1.528  13.378  1.0570 -0.3379 -1.9651
 3315TIP3    H231361   1.285   1.535  13.409  1.7809 -1.1600  2.4403
 3316TIP3   OH231362   1.820   3.689  10.242 -0.3544 -0.3189  0.2074
 3316TIP3    H131363   1.897   3.679  10.298  0.8825  2.0997 -0.9390
 3316TIP3    H231364   1.848   3.656  10.157 -1.2143 -1.0765  0.2003
 3317TIP3   OH231365   5.786   1.510   2.416 -0.2310  0.4465  0.0165
 3317TIP3    H131366   5.760   1.434   2.364 -0.5359  1.3931 -1.2774
 3317TIP3    H231367   5.705   1.558   2.430 -0.1335  0.2748  1.3170
 3318TIP3   OH231368   6.081   4.699  14.980  0.0840  0.1238 -0.9328
 3318TIP3    H131369   6.091   4.711  15.075 -0.1415  1.4747 -1.0653
 3318TIP3    H231370   5.998   4.652  14.971 -0.6536  1.2889 -0.5101
 3319TIP3   OH231371   6.600   0.548   4.077 -0.0699 -0.0716  0.7970
 3319TIP3    H131372   6.683   0.568   4.122  0.9404 -2.5282  0.2191
 3319TIP3    H231373   6.544   0.510   4.145  0.3199 -0.9172  0.6656
 3320TIP3   OH231374   0.262   2.383  13.003  0.2676  0.0328 -0.3764
 3320TIP3    H131375   0.280   2.438  12.927  0.3252 -0.2314 -0.5525
 3320TIP3    H231376   0.173   2.351  12.989 -0.9266  2.3309  1.0826
 3321TIP3   OH231377   4.612   6.439  14.918 -0.2067 -0.0383  0.3183
 3321TIP3    H131378   4.633   6.349  14.894 -1.2223 -0.1722 -0.1080
 3321TIP3    H231379   4.620   6.488  14.837 -0.8744  0.0259  0.2871
 3322TIP3   OH231380   2.045   6.037  15.241  0.1841  0.1907 -0.0163
 3322TIP3    H131381   2.125   6.076  15.205 -0.9668  1.9479 -0.8747
 3322TIP3    H231382   2.021   6.094  15.314  0.6655 -1.4063  1.4571
 3323TIP3   OH231383   0.561   6.541  12.198 -0.3288 -0.1585  0.4249
 3323TIP3    H131384   0.577   6.623  12.245 -1.2876  0.8357 -0.8963
 3323TIP3    H231385   0.635   6.485  12.221  0.9253  1.4685  0.5086
 3324TIP3   OH231386   0.107   6.167  15.176  0.2715 -0.0555  0.6727
 3324TIP3    H131387   0.173   6.234  15.191 -0.3495  0.4026  1.4497
 3324TIP3    H231388   0.123   6.101  15.243 -0.1325  0.1220  0.9491
 3325TIP3   OH231389   0.592   2.631   4.323  0.1063  0.6360 -0.1212
 3325TIP3    H131390   0.658   2.577   4.280  1.1393  0.1569  1.9719
 3325TIP3    H231391   0.596   2.715   4.276  2.9914  0.9923  0.5700
 3326TIP3   OH231392   1.129   6.657   3.406 -0.5882  0.2264  0.5030
 3326TIP3    H131393   1.058   6.654   3.342 -1.2085 -0.7936  1.2210
 3326TIP3    H231394   1.208   6.668   3.353 -0.8765 -2.4118 -0.6312
 3327TIP3   OH231395   0.236   4.589  11.557 -0.5059 -0.0558  0.6139
 3327TIP3    H131396   0.291   4.595  11.636  0.3677  1.5485 -0.0567
 3327TIP3    H231397   0.282   4.527  11.501  0.2147  0.6472  0.4002
 3328TIP3   OH231398   4.256   5.864   5.632 -0.0478  0.1453 -0.0159
 3328TIP3    H131399   4.215   5.857   5.545  1.3150 -1.0657 -0.6099
 3328TIP3    H231400   4.225   5.787   5.679 -1.1290  1.0238  0.7723
 3329TIP3   OH231401   1.519   6.468   6.425 -0.3291  0.7075 -0.1283
 3329TIP3    H131402   1.605   6.510   6.426 -0.2507  0.5746 -0.7540
 3329TIP3    H231403   1.538   6.374   6.426 -0.4596  0.6752 -0.5418
 3330TIP3   OH231404   6.189   1.791   3.726 -0.3630 -0.2787  0.3397
 3330TIP3    H131405   6.211   1.842   3.804 -0.9532 -0.5528  0.6923
 3330TIP3    H231406   6.094   1.801   3.717  0.0051  2.4796 -2.2546
 3331TIP3   OH231407   5.852   0.605   0.426  0.0314 -0.1319  0.3095
 3331TIP3    H131408   5.876   0.693   0.397  1.8570 -1.1038 -1.3068
 3331TIP3    H231409   5.892   0.597   0.513  2.5248 -0.3682 -0.7783
 3332TIP3   OH231410   3.758   3.080  15.748 -0.1832 -0.3944 -0.2227
 3332TIP3    H131411   3.773   3.075  15.842 -1.3332 -0.9907 -0.0599
 3332TIP3    H231412   3.665   3.061  15.737 -0.2441  0.4538 -1.4145
 3333TIP3   OH231413   6.011   3.279   3.789 -0.3793  0.0267  0.0351
 3333TIP3    H131414   6.104   3.289   3.805 -0.5012 -1.4920  2.1837
 3333TIP3    H231415   5.968   3.338   3.851 -0.8813  0.9538 -1.1510
 3334TIP3   OH231416   5.907   1.116  16.481  0.2604 -0.1060  0.3820
 3334TIP3    H131417   5.821   1.137  16.445 -0.0896 -0.3070  1.0920
 3334TIP3    H231418   5.933   1.036  16.435  0.0903 -0.0193  0.1311
 3335TIP3   OH231419   0.763   0.210  12.297 -0.8385 -0.1379  0.3229
 3335TIP3    H131420   0.677   0.251  12.305  0.1512  1.9775  0.6734
 3335TIP3    H231421   0.794   0.235  12.210 -0.4428 -0.6449  0.3104
 3336TIP3   OH231422   6.517   1.280  10.931  0.4749 -0.4047  0.4742
 3336TIP3    H131423   6.525   1.290  11.026 -0.0475  0.3000  0.4505
 3336TIP3    H231424   6.475   1.360  10.901 -0.3005 -1.0418 -0.2228
 3337TIP3   OH231425   0.465   4.739  13.331 -0.3888 -0.7386  0.2966
 3337TIP3    H131426   0.511   4.822  13.318  0.0657 -1.1160 -0.6133
 3337TIP3    H231427   0.525   4.685  13.382  0.6220 -1.5397 -1.6115
 3338TIP3   OH231428   4.859   6.148  14.608 -0.2629  0.1030 -0.4117
 3338TIP3    H131429   4.837   6.238  14.584  0.4193  0.0196 -1.4425
 3338TIP3    H231430   4.932   6.126  14.550 -0.5433 -1.1796 -0.2999
 3339TIP3   OH231431   4.117   2.326  17.223 -0.4328 -0.0520 -0.1064
 3339TIP3    H131432   4.107   2.294  17.133  2.7036 -0.6847 -0.3523
 3339TIP3    H231433   4.165   2.409  17.214  0.4890 -0.4367  0.9654
 3340TIP3   OH231434   6.118   1.506  15.581 -0.0698  0.2623  0.1658
 3340TIP3    H131435   6.030   1.528  15.551  0.2691  1.6866  0.1399
 3340TIP3    H231436   6.177   1.552  15.521  0.6576  0.8813  1.3100
 3341TIP3   OH231437   4.254   0.914  11.537  0.0324  0.4543 -0.1988
 3341TIP3    H131438   4.203   0.967  11.597  0.7279 -1.4466  2.2483
 3341TIP3    H231439   4.203   0.913  11.456 -0.8809  3.2234  0.2599
 3342TIP3   OH231440   0.636   1.144  14.656  0.3095 -0.5511  0.0274
 3342TIP3    H131441   0.603   1.193  14.581  1.0073  0.8465  0.5988
 3342TIP3    H231442   0.721   1.110  14.627  0.8178  0.4199  0.3149
 3343TIP3   OH231443   0.780   1.615   5.293 -0.3756 -0.7491 -0.1166
 3343TIP3    H131444   0.793   1.580   5.381  1.8420 -1.3058 -0.6064
 3343TIP3    H231445   0.865   1.653   5.270 -1.5760  1.4750 -1.1435
 3344TIP3   OH231446   1.216   3.171   2.427  0.7333  0.1592  0.5413
 3344TIP3    H131447   1.246   3.082   2.444 -0.8536 -0.8641 -1.5923
 3344TIP3    H231448   1.259   3.196   2.346  0.6701  1.1232  0.7882
 3345TIP3   OH231449   0.654   5.464  16.860  0.5084 -0.5489 -0.1469
 3345TIP3    H131450   0.704   5.415  16.926 -0.5972 -0.3947  0.8517
 3345TIP3    H231451   0.622   5.541  16.908 -1.0702 -0.8918 -0.6184
 3346TIP3   OH231452   4.324   1.907   6.036  0.0891  0.4056 -0.0298
 3346TIP3    H131453   4.271   1.851   6.093  2.9491 -3.3407 -0.6432
 3346TIP3    H231454   4.411   1.904   6.074  2.0836 -2.0149 -4.0862
 3347TIP3   OH231455   0.817   5.857   4.443  0.3301  0.5978 -0.1901
 3347TIP3    H131456   0.805   5.818   4.529  2.4203 -1.2531 -0.6429
 3347TIP3    H231457   0.863   5.939   4.460 -0.5328  0.9479  0.5234
 3348TIP3   OH231458   0.589   3.977  13.367  0.0769  0.1449  0.5192
 3348TIP3    H131459   0.607   3.889  13.334  0.7873  0.8420 -1.0361
 3348TIP3    H231460   0.556   3.962  13.456 -1.9146 -1.8189 -0.4349
 3349TIP3   OH231461   0.701   6.120   4.640  0.0908 -0.1767 -0.1810
 3349TIP3    H131462   0.663   6.130   4.727 -0.2739 -0.8479 -0.2603
 3349TIP3    H231463   0.674   6.199   4.593  2.1653  1.3432  0.9739
 3350TIP3   OH231464   2.185   3.760   6.115  0.0931  0.4610  0.6459
 3350TIP3    H131465   2.109   3.800   6.158 -1.7807 -2.6753  0.5911
 3350TIP3    H231466   2.187   3.671   6.150  0.8427 -1.0393 -2.8103
 3351TIP3   OH231467   5.408   6.567  11.429 -0.1174  0.0065  0.1781
 3351TIP3    H131468   5.439   6.577  11.519  0.1488  1.0672 -0.0217
 3351TIP3    H231469   5.313   6.567  11.437 -0.0944 -0.1644  0.4858
 3352TIP3   OH231470   4.837   5.008  15.227  0.2882  0.2345  0.1816
 3352TIP3    H131471   4.855   5.083  15.284 -0.5402 -0.0082  0.7785
 3352TIP3    H231472   4.816   5.046  15.142  0.5487  0.6419  0.2992
 3353TIP3   OH231473   6.652   5.182  13.380 -0.2591 -0.1804 -0.3218
 3353TIP3    H131474   6.732   5.232  13.393  0.7707 -1.2015 -2.2323
 3353TIP3    H231475   6.649   5.121  13.454  1.0207 -0.4570 -0.4697
 3354TIP3   OH231476   2.633   6.002   1.537  0.3915 -0.2603  0.4480
 3354TIP3    H131477   2.668   6.066   1.476 -0.9448 -0.3879 -0.5103
 3354TIP3    H231478   2.579   6.053   1.597 -0.5929 -0.4376 -0.2553
 3355TIP3   OH231479   2.409   6.076   3.286  0.0066  0.0850 -0.7775
 3355TIP3    H131480   2.486   6.129   3.308  0.5910 -0.5262 -1.2977
 3355TIP3    H231481   2.377   6.113   3.203 -0.0596  0.1209 -0.7363
 3356TIP3   OH231482   3.993   3.120  14.463 -0.0476 -0.3094  0.1753
 3356TIP3    H131483   3.919   3.165  14.423 -0.1784 -2.2829 -2.0768
 3356TIP3    H231484   3.956   3.074  14.539 -0.8119 -0.0870 -0.0603
 3357TIP3   OH231485   0.844   4.515  12.567 -0.1957 -0.2086 -0.0745
 3357TIP3    H131486   0.874   4.440  12.515 -1.1812  0.3204 -1.4530
 3357TIP3    H231487   0.827   4.479  12.654 -0.0904 -1.4567 -0.5572
 3358TIP3   OH231488   2.527   1.654  14.121  0.0861  0.1435 -0.1693
 3358TIP3    H131489   2.472   1.704  14.061  0.3181  0.1295 -0.3932
 3358TIP3    H231490   2.490   1.566  14.120  0.1374  0.1238 -0.3519
 3359TIP3   OH231491   5.895   5.871   4.513 -0.0963 -0.1506  0.4275
 3359TIP3    H131492   5.922   5.785   4.479  0.8973  0.1268  0.4779
 3359TIP3    H231493   5.800   5.871   4.506  0.0211 -0.3196 -1.8561
 3360TIP3   OH231494   6.592   4.590   5.338  0.6425  0.1394 -0.1319
 3360TIP3    H131495   6.655   4.621   5.273 -3.5365  2.5337 -3.6343
 3360TIP3    H231496   6.580   4.497   5.318  0.9829  0.3522 -1.4549
 3361TIP3   OH231497   1.550   4.755  14.512  0.4478  0.2029 -0.0847
 3361TIP3    H131498   1.515   4.693  14.576  2.0481 -0.6086  0.0556
 3361TIP3    H231499   1.479   4.766  14.448 -1.4458  1.5203  2.0783
 3362TIP3   OH231500   2.526   0.734   6.901  0.0597  0.4373 -0.4619
 3362TIP3    H131501   2.607   0.740   6.951 -0.5409  0.7297  0.4935
 3362TIP3    H231502   2.555   0.723   6.810  1.1674  0.9043 -0.1834
 3363TIP3   OH231503   5.250   6.493   6.188  0.1986  0.4664 -0.6581
 3363TIP3    H131504   5.167   6.539   6.196  0.1578  0.3520 -0.4171
 3363TIP3    H231505   5.251   6.432   6.262  0.4172  0.3427 -0.7621
 3364TIP3   OH231506   3.185   4.789   5.616 -0.5319  0.1139  0.7471
 3364TIP3    H131507   3.189   4.854   5.546  0.7861 -0.9608 -0.2320
 3364TIP3    H231508   3.257   4.813   5.675 -0.7240  0.1713  0.9577
 3365TIP3   OH231509   0.170   0.698   3.928 -0.0097  0.3946 -0.1958
 3365TIP3    H131510   0.243   0.758   3.911  0.2835 -0.2272 -1.1596
 3365TIP3    H231511   0.092   0.755   3.927  0.0521  0.5537 -2.9235
 3366TIP3   OH231512   5.345   2.205  11.499  0.4736  0.0399 -0.3137
 3366TIP3    H131513   5.426   2.225  11.547  0.3897 -0.9067  0.2476
 3366TIP3    H231514   5.287   2.167  11.565 -0.5938  1.0681 -0.6248
 3367TIP3   OH231515   0.079   6.282   1.742  0.4452 -0.3834  0.2057
 3367TIP3    H131516   0.167   6.309   1.771  0.9161 -2.2030  0.5807
 3367TIP3    H231517   0.095   6.222   1.670 -0.5937  0.6177 -0.8920
 3368TIP3   OH231518   6.709   2.937  15.168 -0.6528  0.2967  0.3653
 3368TIP3    H131519   6.659   2.861  15.195 -0.6772  0.0207 -0.4416
 3368TIP3    H231520   6.661   2.973  15.094  1.3547 -1.1409 -1.7645
 3369TIP3   OH231521   2.017   6.101   0.630 -0.1359 -0.2308  0.0174
 3369TIP3    H131522   2.072   6.109   0.551 -1.6772 -3.0986 -1.5389
 3369TIP3    H231523   2.056   6.162   0.693  1.5863  1.7357 -2.7140
 3370TIP3   OH231524   3.686   5.810   5.072 -0.2199  0.2564 -0.6329
 3370TIP3    H131525   3.613   5.801   5.134 -0.1135 -1.9740 -0.7385
 3370TIP3    H231526   3.759   5.842   5.125 -0.1244 -1.6287  0.4672
 3371TIP3   OH231527   1.792   2.171  12.075  0.2259 -0.4083  0.1861
 3371TIP3    H131528   1.806   2.235  12.144 -0.7625 -0.5435  0.5387
 3371TIP3    H231529   1.818   2.215  11.995 -2.0501  1.0982  0.1938
 3372TIP3   OH231530   3.927   4.041   0.053 -0.0036 -0.5591  0.2901
 3372TIP3    H131531   3.867   3.978   0.012 -0.5330 -0.2968  0.6396
 3372TIP3    H231532   4.014   4.014   0.026 -0.0665 -2.5195  1.8638
 3373TIP3   OH231533   0.054   0.432   2.944 -0.8878 -0.2802  0.1235
 3373TIP3    H131534   0.098   0.384   2.875 -1.1128 -0.4914  0.1250
 3373TIP3    H231535   0.110   0.508   2.961 -2.4213  1.6071 -2.5521
 3374TIP3   OH231536   5.398   1.117  10.374 -0.1887  0.2189 -0.5449
 3374TIP3    H131537   5.440   1.116  10.288 -2.6837 -2.2810 -1.8803
 3374TIP3    H231538   5.329   1.183  10.367 -0.4609 -0.0595 -0.5124
 3375TIP3   OH231539   1.585   6.111   4.121  0.0720 -0.1028  0.3098
 3375TIP3    H131540   1.672   6.146   4.141 -0.5416  1.5936  0.2188
 3375TIP3    H231541   1.601   6.030   4.074  1.6254  0.6685 -0.5522
 3376TIP3   OH231542   3.723   1.051   3.186  0.5328  0.0267 -0.3966
 3376TIP3    H131543   3.686   1.133   3.155  0.4242  0.0552 -0.1923
 3376TIP3    H231544   3.698   1.046   3.279 -2.5243 -1.8520 -1.1422
 3377TIP3   OH231545   5.537   4.226   3.207 -0.1225  0.5478 -0.6386
 3377TIP3    H131546   5.451   4.191   3.185  0.9775 -1.4093 -2.0923
 3377TIP3    H231547   5.556   4.191   3.295  0.2839 -1.3015 -1.4204
 3378TIP3   OH231548   3.921   1.176  11.193 -0.4798  0.4797  0.4790
 3378TIP3    H131549   3.876   1.121  11.130 -1.2031  0.3250  1.1123
 3378TIP3    H231550   3.941   1.257  11.146 -1.5685  0.6105  0.2250
 3379TIP3   OH231551   0.234   4.613   2.250  0.2702  0.0958  0.7226
 3379TIP3    H131552   0.285   4.675   2.199  0.8542 -0.7657  0.2328
 3379TIP3    H231553   0.144   4.628   2.222  0.6295 -0.7249 -0.9966
 3380TIP3   OH231554   4.121   0.890  15.267 -0.7044 -0.4730 -0.1993
 3380TIP3    H131555   4.108   0.964  15.327 -1.0425 -1.2759  0.7565
 3380TIP3    H231556   4.192   0.918  15.209 -0.1616  0.2243  0.7693
 3381TIP3   OH231557   4.074   6.038  12.768  0.3347 -0.1755 -0.4382
 3381TIP3    H131558   4.074   6.113  12.709 -1.5150  0.3873  0.1877
 3381TIP3    H231559   4.027   5.969  12.719 -0.4250  0.0090  0.0029
 3382TIP3   OH231560   6.212   4.126   5.676  0.1395 -0.4013  0.3672
 3382TIP3    H131561   6.192   4.113   5.769  0.5572  0.0775  0.5241
 3382TIP3    H231562   6.306   4.110   5.669  0.1251 -0.3452  0.0419
 3383TIP3   OH231563   2.377   4.693  12.196  0.2143  0.5164 -0.3712
 3383TIP3    H131564   2.398   4.654  12.111  0.7349 -0.3187  0.1206
 3383TIP3    H231565   2.461   4.727  12.228  0.5295 -1.2066  0.7964
 3384TIP3   OH231566   0.400   3.208   5.913  0.4384 -0.3111 -0.1922
 3384TIP3    H131567   0.426   3.142   5.848  0.5940 -0.2405 -0.2027
 3384TIP3    H231568   0.482   3.239   5.949  0.5468  1.6766 -1.9671
 3385TIP3   OH231569   5.283   1.830  16.040 -0.0447 -0.2585  0.5662
 3385TIP3    H131570   5.263   1.748  15.995  2.0031 -0.5824  0.1078
 3385TIP3    H231571   5.232   1.827  16.121  0.5851 -2.3852  0.9388
 3386TIP3   OH231572   0.851   5.294   1.253 -0.4295 -0.0820  0.2533
 3386TIP3    H131573   0.807   5.322   1.333 -1.3467  0.7502 -0.5169
 3386TIP3    H231574   0.856   5.198   1.260 -0.1957 -0.0000  1.4376
 3387TIP3   OH231575   3.068   4.731   2.852 -0.7541  0.0023 -0.1468
 3387TIP3    H131576   3.013   4.665   2.809  1.1584 -1.1349 -1.0189
 3387TIP3    H231577   3.007   4.797   2.884 -2.5393 -0.7679 -1.7787
 3388TIP3   OH231578   1.241   3.954   4.832 -0.0488  0.3730 -0.1029
 3388TIP3    H131579   1.315   3.928   4.777 -1.1931  0.7150 -1.8859
 3388TIP3    H231580   1.220   3.874   4.881  0.5164 -0.1865 -0.7387
 3389TIP3   OH231581   2.322   6.394   2.715 -0.3090 -0.4144  0.4787
 3389TIP3    H131582   2.410   6.356   2.725 -0.3303 -1.3328 -2.0019
 3389TIP3    H231583   2.336   6.488   2.723  0.9693 -0.5307 -0.0543
 3390TIP3   OH231584   3.695   6.811  14.489 -0.1588  0.2774 -0.0165
 3390TIP3    H131585   3.780   6.780  14.458 -0.1726 -0.3694  0.5729
 3390TIP3    H231586   3.675   6.887  14.434  0.1490 -0.4109 -1.0969
 3391TIP3   OH231587   5.630   4.050   2.981  0.3989 -0.0653  0.4285
 3391TIP3    H131588   5.608   4.105   3.056 -0.7913  0.2263 -0.1043
 3391TIP3    H231589   5.611   4.104   2.905  2.3225 -0.0861 -0.1197
 3392TIP3   OH231590   4.256   3.065  13.049 -0.6935  0.1738  0.0571
 3392TIP3    H131591   4.349   3.070  13.023 -0.6540 -0.8772 -0.0659
 3392TIP3    H231592   4.252   2.988  13.106 -1.3882  0.5763  0.5589
 3393TIP3   OH231593   2.473   0.797  14.658 -0.4397 -0.8365 -0.2702
 3393TIP3    H131594   2.416   0.723  14.675 -1.8779  0.5035  1.1292
 3393TIP3    H231595   2.483   0.798  14.562 -1.6652 -1.9132 -0.4387
 3394TIP3   OH231596   5.380   5.260   6.563  0.7891  0.3042  0.0913
 3394TIP3    H131597   5.287   5.256   6.586  0.6814  0.9807 -0.2050
 3394TIP3    H231598   5.425   5.231   6.643  0.3515  0.6197  0.4600
 3395TIP3   OH231599   3.860   5.712   0.209  0.0694 -0.3086 -0.2940
 3395TIP3    H131600   3.924   5.641   0.204  1.3083  0.8333 -1.6097
 3395TIP3    H231601   3.833   5.727   0.118 -0.1815  0.8710 -0.0489
 3396TIP3   OH231602   6.522   1.127   5.847 -0.5281  0.0223 -0.1296
 3396TIP3    H131603   6.581   1.103   5.918  0.6718 -2.0617 -1.7037
 3396TIP3    H231604   6.450   1.064   5.853 -1.9312  1.6262  0.8847
 3397TIP3   OH231605   4.712   3.837  14.696 -0.4239 -0.2645 -0.0116
 3397TIP3    H131606   4.625   3.871  14.677  0.6232  1.5371 -2.0304
 3397TIP3    H231607   4.704   3.742  14.684 -2.2501 -0.2170  0.5879
 3398TIP3   OH231608   4.026   5.279   4.550  0.0561  0.7183  0.1030
 3398TIP3    H131609   4.105   5.288   4.604  0.4100  3.5642 -0.7251
 3398TIP3    H231610   4.059   5.255   4.464 -0.3145 -1.1937  0.4337
 3399TIP3   OH231611   2.380   5.089   2.810  0.5088  0.4507 -1.0611
 3399TIP3    H131612   2.395   5.089   2.716 -1.3684 -0.0527 -1.4094
 3399TIP3    H231613   2.407   5.002   2.839  0.7828  0.4934 -1.1828
 3400TIP3   OH231614   3.891   0.607   5.485 -0.7023  0.2515  0.0273
 3400TIP3    H131615   3.889   0.511   5.488 -1.0953  0.2812  0.8939
 3400TIP3    H231616   3.802   0.632   5.463 -0.9530  0.4426  1.1688
 3401TIP3   OH231617   0.737   1.540  14.176 -0.4652 -0.4511 -0.1005
 3401TIP3    H131618   0.688   1.458  14.178  0.5389 -1.0910 -1.1424
 3401TIP3    H231619   0.764   1.551  14.085  1.0838  0.0241  0.3841
 3402TIP3   OH231620   1.426   3.901   2.521  0.7832 -0.3244  0.5609
 3402TIP3    H131621   1.476   3.819   2.520 -2.6305 -2.6263  1.6565
 3402TIP3    H231622   1.452   3.944   2.602  1.0745 -1.4249  1.0658
 3403TIP3   OH231623   4.870   0.063   5.192  0.2876 -0.6955  0.1480
 3403TIP3    H131624   4.843   0.139   5.141 -0.5287 -0.8467  0.3352
 3403TIP3    H231625   4.852  -0.012   5.134  0.2379 -0.8041  0.3024
 3404TIP3   OH231626   0.972   2.634   3.896 -0.3523 -0.7128 -0.0382
 3404TIP3    H131627   0.983   2.646   3.801  1.3266 -0.7233  0.1316
 3404TIP3    H231628   1.026   2.703   3.935  0.4889 -1.8707  0.9127
 3405TIP3   OH231629   3.982   0.386  11.965  0.0166  0.4432 -0.1590
 3405TIP3    H131630   3.998   0.476  11.937  1.1095  0.7126  1.2150
 3405TIP3    H231631   4.050   0.335  11.921 -1.5014  0.0020 -2.1278
 3406TIP3   OH231632   0.659   0.492  17.245 -0.5618 -0.0901 -0.2643
 3406TIP3    H131633   0.622   0.542  17.172 -1.0011 -2.5485 -1.8485
 3406TIP3    H231634   0.621   0.404  17.236  0.9740 -1.0414  1.7197
 3407TIP3   OH231635   4.854   3.708  17.233 -0.7613  0.2391  0.5310
 3407TIP3    H131636   4.869   3.640  17.168  0.7435  0.5425  0.5249
 3407TIP3    H231637   4.812   3.779  17.184 -1.9054 -0.4610  0.4449
 3408TIP3   OH231638   6.153   3.043  13.053  0.8959  0.2758 -1.0439
 3408TIP3    H131639   6.244   3.023  13.030  0.8237 -0.2807 -0.8614
 3408TIP3    H231640   6.156   3.058  13.147  0.7088 -0.2887 -0.9453
 3409TIP3   OH231641   4.124   2.880   5.716  0.5606 -0.1471  0.5362
 3409TIP3    H131642   4.195   2.874   5.652  1.1853 -0.5295  1.2494
 3409TIP3    H231643   4.073   2.956   5.688  1.8618  0.7972  0.6057
 3410TIP3   OH231644   2.826   1.168  12.922 -0.0382  0.0170  0.2677
 3410TIP3    H131645   2.732   1.164  12.901 -0.1632 -0.4377  0.8861
 3410TIP3    H231646   2.857   1.248  12.878 -0.7078  0.1550  0.0326
 3411TIP3   OH231647   6.783   1.454   3.421  0.0336 -0.5191  0.4314
 3411TIP3    H131648   6.715   1.473   3.356 -0.8147  2.4801  2.0539
 3411TIP3    H231649   6.736   1.413   3.494  0.3449 -0.3737  0.7145
 3412TIP3   OH231650   5.416   3.932  10.821  0.0847 -0.2498  0.6387
 3412TIP3    H131651   5.499   3.904  10.784 -0.6421 -0.1316 -1.1431
 3412TIP3    H231652   5.437   4.013  10.868  0.6389  1.0090 -1.6287
 3413TIP3   OH231653   6.182   0.584   1.782  0.3676 -1.1015  0.5777
 3413TIP3    H131654   6.253   0.526   1.754  0.5792 -0.1052 -1.1090
 3413TIP3    H231655   6.183   0.655   1.718 -1.6822 -0.6776  0.9573
 3414TIP3   OH231656   0.273   4.021   4.723 -0.7187 -0.0713  0.2414
 3414TIP3    H131657   0.358   3.977   4.718 -1.1926 -1.1314  0.9696
 3414TIP3    H231658   0.231   3.982   4.800 -1.5907  0.9298  0.2898
 3415TIP3   OH231659   1.298   5.494   1.736 -0.1745 -0.0116  0.4330
 3415TIP3    H131660   1.315   5.494   1.642 -0.9445  1.4583  0.2656
 3415TIP3    H231661   1.292   5.586   1.760 -0.7349 -0.3692  1.7900
 3416TIP3   OH231662   1.202   4.664  15.379  0.5392  0.2431 -0.1861
 3416TIP3    H131663   1.159   4.586  15.414  1.9295 -0.5928 -0.2587
 3416TIP3    H231664   1.294   4.656  15.407  0.5523  2.3080  0.5516
 3417TIP3   OH231665   5.056   0.387  13.909  0.0501 -0.0907  0.3111
 3417TIP3    H131666   4.997   0.323  13.870  1.7751 -2.6817  1.7055
 3417TIP3    H231667   5.003   0.432  13.975 -0.8506 -1.0615  0.2668
 3418TIP3   OH231668   4.088   5.943   4.505 -0.2120 -0.8286 -0.0583
 3418TIP3    H131669   4.014   5.884   4.493  0.0124 -1.0249 -0.5030
 3418TIP3    H231670   4.133   5.944   4.421 -0.5411  0.4336 -0.2428
 3419TIP3   OH231671   5.164   6.730   4.155 -0.3163  0.3098  0.7565
 3419TIP3    H131672   5.191   6.812   4.113  0.0928  0.3881  1.1790
 3419TIP3    H231673   5.077   6.712   4.117  0.1741  0.2152 -0.3603
 3420TIP3   OH231674   1.609   3.098   2.223 -0.6529 -0.5569  0.2244
 3420TIP3    H131675   1.621   3.184   2.264 -1.2061 -0.7324  0.7784
 3420TIP3    H231676   1.639   3.035   2.289 -2.6360 -0.9005  0.8618
 3421TIP3   OH231677   5.603   0.276  12.608 -0.0585 -0.1867 -0.9559
 3421TIP3    H131678   5.569   0.358  12.573 -1.6286 -1.1577 -1.8551
 3421TIP3    H231679   5.650   0.237  12.534  1.1923  0.1432 -0.3578
 3422TIP3   OH231680   0.510   2.650  13.727 -0.2798  0.2643  0.4910
 3422TIP3    H131681   0.575   2.712  13.759  1.5249 -0.7232 -1.0840
 3422TIP3    H231682   0.435   2.705  13.701  0.6963  1.6260  0.4591
 3423TIP3   OH231683   1.388   0.709   1.218  0.2823  0.2095  0.5862
 3423TIP3    H131684   1.436   0.685   1.138  1.6264  1.1596  1.0757
 3423TIP3    H231685   1.300   0.731   1.187  0.9507  1.1864 -0.7500
 3424TIP3   OH231686   2.555   5.154   3.804 -0.0098  0.1864 -0.2634
 3424TIP3    H131687   2.646   5.183   3.798  0.6376 -1.3922  1.0970
 3424TIP3    H231688   2.560   5.058   3.805 -1.6583  0.0707  0.1338
 3425TIP3   OH231689   5.244   4.449  16.741  0.0925 -0.1081  0.0717
 3425TIP3    H131690   5.243   4.467  16.647 -0.3958 -0.1761  0.0592
 3425TIP3    H231691   5.336   4.432  16.762  0.4878  1.7675 -0.0324
 3426TIP3   OH231692   0.393   0.427   4.500 -0.7129  0.0542  0.0896
 3426TIP3    H131693   0.350   0.484   4.564 -2.1444 -2.6613  1.7365
 3426TIP3    H231694   0.348   0.343   4.509  0.4902 -1.0599 -3.0443
 3427TIP3   OH231695   6.469   1.966  10.488 -0.4786  0.4218  0.2252
 3427TIP3    H131696   6.476   2.060  10.470  1.7036  0.0827 -1.1335
 3427TIP3    H231697   6.502   1.957  10.577  1.5543  0.7572 -0.4338
 3428TIP3   OH231698   0.716   1.522  11.573 -0.1491 -0.4438 -0.1082
 3428TIP3    H131699   0.806   1.554  11.567 -0.0768 -0.8487 -1.4532
 3428TIP3    H231700   0.723   1.427  11.563 -0.8562 -0.3304 -2.3375
 3429TIP3   OH231701   3.344   0.569  13.083  0.0585  0.5915 -0.3306
 3429TIP3    H131702   3.255   0.558  13.049  0.8310  0.5191 -2.4451
 3429TIP3    H231703   3.359   0.491  13.137 -0.2798 -0.7030 -2.0233
 3430TIP3   OH231704   3.802   2.199  11.612  0.2116 -0.2992 -0.4535
 3430TIP3    H131705   3.848   2.202  11.696 -1.3853  0.0355  0.4558
 3430TIP3    H231706   3.743   2.274  11.615  0.0427 -0.3562 -1.8393
 3431TIP3   OH231707   5.360   4.000   2.865  0.1670 -0.4799  0.2586
 3431TIP3    H131708   5.424   3.949   2.815 -1.0898 -0.4698 -1.4405
 3431TIP3    H231709   5.387   4.091   2.854 -0.0745 -0.4833 -0.3716
 3432TIP3   OH231710   3.161   6.236   1.313 -0.2271 -0.2185  0.5521
 3432TIP3    H131711   3.097   6.306   1.327 -0.4108 -0.1059 -0.7389
 3432TIP3    H231712   3.124   6.182   1.243  1.4247  0.2923 -0.7899
 3433TIP3   OH231713   4.627   6.334   4.582  0.1094  0.1240 -0.2011
 3433TIP3    H131714   4.672   6.251   4.599  2.2777  1.4501  1.0841
 3433TIP3    H231715   4.650   6.389   4.658 -1.8527  1.6752 -0.6488
 3434TIP3   OH231716   1.303   0.929  13.422  0.1360 -0.6363 -0.1374
 3434TIP3    H131717   1.330   0.861  13.483  0.4664  1.2943  2.0115
 3434TIP3    H231718   1.249   0.988  13.474 -0.2526  0.6859 -1.9348
 3435TIP3   OH231719   4.616   4.257   0.021  0.3753 -0.2186  0.5509
 3435TIP3    H131720   4.522   4.257   0.003  0.2968  1.7075  0.6805
 3435TIP3    H231721   4.623   4.229   0.112 -0.0838 -0.2572  0.5761
 3436TIP3   OH231722   2.230   3.014  12.844 -0.1198 -0.4572 -0.4342
 3436TIP3    H131723   2.146   3.056  12.822 -0.5412 -1.5720 -1.0606
 3436TIP3    H231724   2.296   3.079  12.821 -0.8412  0.8444  1.0591
 3437TIP3   OH231725   6.564   1.837  16.833  0.0449 -0.1422 -0.7620
 3437TIP3    H131726   6.640   1.895  16.820 -0.2892  0.4291 -0.2334
 3437TIP3    H231727   6.544   1.804  16.745 -0.4474  1.4341 -1.2802
 3438TIP3   OH231728   0.780   6.008  15.908  0.4004  0.1622 -0.6891
 3438TIP3    H131729   0.798   6.056  15.827  0.1216  0.1626 -0.7521
 3438TIP3    H231730   0.714   6.060  15.953 -0.0367 -0.2543 -0.8464
 3439TIP3   OH231731   6.675   1.481  15.157  0.4780  0.1571  0.3003
 3439TIP3    H131732   6.590   1.519  15.180 -0.0411 -1.1153  0.5801
 3439TIP3    H231733   6.665   1.388  15.176  1.7620 -0.0971 -0.1965
 3440TIP3   OH231734   5.446   4.751   6.041  0.3030  0.5852 -0.4793
 3440TIP3    H131735   5.376   4.767   6.105 -0.2172 -0.9654 -0.6416
 3440TIP3    H231736   5.526   4.775   6.088 -0.0105 -1.0496  0.9889
 3441TIP3   OH231737   4.831   2.886   2.852  0.2324 -0.0521  0.6097
 3441TIP3    H131738   4.852   2.798   2.883  0.4657 -0.0923  0.3405
 3441TIP3    H231739   4.785   2.927   2.926 -0.9176 -0.7924  0.3426
 3442TIP3   OH231740   6.309   5.837  16.291  0.1236 -0.1844  0.3871
 3442TIP3    H131741   6.351   5.895  16.355  0.7039 -1.3458  1.0972
 3442TIP3    H231742   6.383   5.798  16.242 -0.1427 -1.4804  0.9640
 3443TIP3   OH231743   6.632   3.940  15.684 -0.1211 -0.1211 -0.3340
 3443TIP3    H131744   6.663   3.899  15.765 -0.3008 -0.1484 -0.2784
 3443TIP3    H231745   6.592   3.868  15.635 -2.9071  0.4312  0.9431
 3444TIP3   OH231746   5.697   5.137  15.172  0.2420  0.0236 -0.0593
 3444TIP3    H131747   5.725   5.215  15.219 -0.7642  1.4910 -1.7809
 3444TIP3    H231748   5.775   5.106  15.126 -0.1467  2.4691 -2.6136
 3445TIP3   OH231749   6.190   0.694   3.633 -0.0873 -0.5143 -0.0603
 3445TIP3    H131750   6.153   0.764   3.688 -0.8027 -0.7265 -0.2703
 3445TIP3    H231751   6.119   0.669   3.575  0.8032  0.0485 -1.4469
 3446TIP3   OH231752   2.340   3.322  16.807 -0.1495 -0.1346 -0.3714
 3446TIP3    H131753   2.358   3.413  16.827  0.4181 -0.0522 -1.2060
 3446TIP3    H231754   2.245   3.317  16.796 -0.3381  0.0615  1.0317
 3447TIP3   OH231755   3.441   5.466  16.508 -0.1207  0.0595 -0.4911
 3447TIP3    H131756   3.411   5.547  16.465 -0.0006  0.4431  0.1277
 3447TIP3    H231757   3.449   5.490  16.601 -0.5586 -0.8033 -0.2218
 3448TIP3   OH231758   2.124   6.623   5.854  0.1477  0.2425 -0.2442
 3448TIP3    H131759   2.130   6.582   5.940 -0.4186  0.3391 -0.1573
 3448TIP3    H231760   2.213   6.618   5.819  0.4178  0.3674  0.4203
 3449TIP3   OH231761   6.258   0.253  12.534 -0.1810  0.1454 -0.1163
 3449TIP3    H131762   6.222   0.329  12.580 -0.9327 -0.1547 -0.1950
 3449TIP3    H231763   6.199   0.181  12.557  0.6481 -0.4795  0.1500
 3450TIP3   OH231764   5.439   6.202  13.859 -0.0889  0.5441  0.6736
 3450TIP3    H131765   5.479   6.128  13.816 -3.0181 -1.0745  0.4695
 3450TIP3    H231766   5.497   6.221  13.933  1.8498 -0.5076 -0.4990
 3451TIP3   OH231767   1.529   4.647  16.767 -0.2062 -0.3232 -0.4312
 3451TIP3    H131768   1.605   4.598  16.737 -0.1230  0.0632 -0.8611
 3451TIP3    H231769   1.458   4.617  16.710 -0.0107  0.5394 -1.1452
 3452TIP3   OH231770   5.348   4.355   2.319  0.0371  0.1981 -0.5980
 3452TIP3    H131771   5.315   4.326   2.233 -0.7974  1.0805 -0.5872
 3452TIP3    H231772   5.407   4.427   2.299  0.1721  0.1298 -0.4496
 3453TIP3   OH231773   4.642   6.385  11.838 -0.5854  0.3136  0.2374
 3453TIP3    H131774   4.594   6.464  11.864 -2.0882  0.3657 -2.3087
 3453TIP3    H231775   4.643   6.389  11.742 -1.1250 -2.9604 -0.0048
 3454TIP3   OH231776   0.168   0.576  11.503  0.1564 -0.5068 -0.5260
 3454TIP3    H131777   0.108   0.618  11.441 -0.7227 -1.1012 -0.0946
 3454TIP3    H231778   0.209   0.506  11.452 -1.3662 -1.6963 -0.1835
 3455TIP3   OH231779   4.428   5.261   6.213  0.2727  0.1481  0.1515
 3455TIP3    H131780   4.412   5.181   6.164  0.7059  0.1649 -0.0177
 3455TIP3    H231781   4.400   5.240   6.303  0.0866 -0.0847  0.0402
 3456TIP3   OH231782   0.464   1.618   1.128 -0.0383  0.2227 -0.3361
 3456TIP3    H131783   0.381   1.653   1.158 -0.5430 -0.2945 -1.0892
 3456TIP3    H231784   0.504   1.580   1.206 -0.7248  0.0604 -0.0606
 3457TIP3   OH231785   0.260   4.282   5.406  0.4333 -0.2443  0.4277
 3457TIP3    H131786   0.267   4.206   5.348 -0.7818  0.5183 -0.7894
 3457TIP3    H231787   0.326   4.343   5.372 -0.6152  0.4015 -0.5281
 3458TIP3   OH231788   4.097   3.034  16.108 -0.5403  0.3121  0.4627
 3458TIP3    H131789   4.180   3.000  16.141 -0.9981 -1.0411  0.2533
 3458TIP3    H231790   4.085   2.990  16.024 -1.6122  0.2694  0.6274
 3459TIP3   OH231791   4.503   4.240  14.653 -0.4210  0.6057 -0.2481
 3459TIP3    H131792   4.551   4.323  14.654  1.6197 -0.5101 -0.9711
 3459TIP3    H231793   4.506   4.210  14.744 -0.6329  1.0161 -0.1018
 3460TIP3   OH231794   6.236   2.128   5.382  0.0398 -0.3362  0.1938
 3460TIP3    H131795   6.206   2.176   5.459  2.8473  2.2927 -0.1350
 3460TIP3    H231796   6.287   2.055   5.417 -1.5587 -1.2331  0.7321
 3461TIP3   OH231797   4.192   2.649   1.350 -0.0221  0.8000  0.0184
 3461TIP3    H131798   4.100   2.625   1.338  0.1272  0.5591 -0.6728
 3461TIP3    H231799   4.189   2.729   1.403 -0.5186 -0.6508  2.3255
 3462TIP3   OH231800   4.711   3.619   3.692  0.2950  0.6438 -0.3623
 3462TIP3    H131801   4.805   3.628   3.711  1.1470 -1.5462 -2.9522
 3462TIP3    H231802   4.701   3.651   3.603 -1.4442  0.8116 -0.1386
 3463TIP3   OH231803   0.905   5.182   1.546  0.1785 -0.0078  0.0770
 3463TIP3    H131804   0.899   5.196   1.640  0.9319 -2.8223  0.6155
 3463TIP3    H231805   0.830   5.125   1.525  1.0720 -0.9540 -0.6549
 3464TIP3   OH231806   2.402   1.025   4.324  0.0305 -0.2283  0.7502
 3464TIP3    H131807   2.333   0.998   4.263  0.5416  1.7389 -0.7757
 3464TIP3    H231808   2.479   1.040   4.269  1.0516 -0.1752  2.1424
 3465TIP3   OH231809   4.058   0.986  14.465  0.0720 -0.3440 -0.2335
 3465TIP3    H131810   4.109   0.959  14.541  1.7768 -0.0450 -1.2269
 3465TIP3    H231811   4.033   0.904  14.423  0.5893 -0.4802 -0.2805
 3466TIP3   OH231812   3.447   5.899  13.203 -0.1872 -0.3590 -0.1470
 3466TIP3    H131813   3.454   5.807  13.175 -0.5749 -0.2721 -0.5275
 3466TIP3    H231814   3.511   5.906  13.275  0.9330 -0.5447 -1.0956
 3467TIP3   OH231815   0.693   0.149  11.996 -0.1233 -0.6803  0.2351
 3467TIP3    H131816   0.721   0.116  11.911  1.0225  1.4276 -0.2720
 3467TIP3    H231817   0.607   0.108  12.010 -1.1572  0.1759 -2.7314
 3468TIP3   OH231818   4.811   0.751   1.936 -0.5532  0.7368  0.3148
 3468TIP3    H131819   4.898   0.741   1.897 -1.6496 -1.3847 -1.8020
 3468TIP3    H231820   4.817   0.704   2.019 -0.5661 -2.6386 -1.4388
 3469TIP3   OH231821   0.777   0.150  13.701  0.7777 -0.2525  0.2800
 3469TIP3    H131822   0.798   0.238  13.730  1.8706 -0.6242  0.6805
 3469TIP3    H231823   0.723   0.114  13.771 -0.1387  0.2784 -0.1459
 3470TIP3   OH231824   0.731   1.768   0.025  0.1206  0.4089 -0.1117
 3470TIP3    H131825   0.667   1.697   0.019  0.0110  0.5646 -0.8785
 3470TIP3    H231826   0.743   1.781   0.119 -1.8876  1.2014  0.0833
 3471TIP3   OH231827   2.351   5.469   5.253  0.6279  0.2317 -0.7130
 3471TIP3    H131828   2.269   5.442   5.212 -0.6518  0.2088  1.7232
 3471TIP3    H231829   2.408   5.490   5.179 -1.8645  1.2024 -2.5115
 3472TIP3   OH231830   3.646   2.907   1.735 -0.1816 -0.0671  0.6911
 3472TIP3    H131831   3.601   2.847   1.676 -1.0953  0.3781  0.9077
 3472TIP3    H231832   3.704   2.852   1.787  0.4886 -0.4913 -0.4761
 3473TIP3   OH231833   2.141   2.052  11.422 -0.4865  0.2572  0.0293
 3473TIP3    H131834   2.189   2.067  11.503 -0.9880 -0.5113  0.4676
 3473TIP3    H231835   2.204   2.009  11.364 -0.8028 -1.3281  0.8194
 3474TIP3   OH231836   5.219   5.418   1.376  0.5023 -0.0886  0.1782
 3474TIP3    H131837   5.182   5.484   1.435 -1.1571 -1.1544  0.4343
 3474TIP3    H231838   5.219   5.459   1.290  2.4154  1.2908  0.7972
 3475TIP3   OH231839   3.460   5.695  11.538  0.8242  0.0373  0.1608
 3475TIP3    H131840   3.546   5.655  11.527  0.0724 -1.6219 -0.0840
 3475TIP3    H231841   3.399   5.621  11.532 -0.7890  1.4072 -2.1049
 3476TIP3   OH231842   0.889   3.050   5.588  0.5209 -0.0249  0.1295
 3476TIP3    H131843   0.860   3.141   5.596 -0.1062 -0.2235  0.1461
 3476TIP3    H231844   0.922   3.044   5.498 -3.9579 -0.9999 -1.6875
 3477TIP3   OH231845   6.641   1.435  14.855  0.2907 -0.3201  0.5348
 3477TIP3    H131846   6.652   1.491  14.932  0.4188 -1.3682  1.2966
 3477TIP3    H231847   6.631   1.497  14.782  1.4069  0.6928  1.1990
 3478TIP3   OH231848   4.595   6.122   1.185  0.2894 -0.2134  0.0683
 3478TIP3    H131849   4.537   6.132   1.110  0.7178  0.1486 -0.2195
 3478TIP3    H231850   4.584   6.203   1.234  0.3903 -0.2376  0.1311
 3479TIP3   OH231851   3.711   2.268  11.939 -0.2122 -0.2537  0.7888
 3479TIP3    H131852   3.719   2.181  11.978  0.3556 -1.0241 -0.9560
 3479TIP3    H231853   3.801   2.290  11.913 -0.5047  0.4547  0.3680
 3480TIP3   OH231854   0.185   0.546  13.612 -0.1769 -0.1869 -0.1657
 3480TIP3    H131855   0.270   0.565  13.573  0.1252  0.2945  0.7057
 3480TIP3    H231856   0.178   0.451  13.610 -0.6250 -0.1721 -2.3152
 3481TIP3   OH231857   0.833   2.349  11.140  0.1309 -0.0436 -0.3087
 3481TIP3    H131858   0.875   2.263  11.139  2.9577  1.2186  0.4095
 3481TIP3    H231859   0.812   2.364  11.232 -1.9727 -0.6212 -0.6484
 3482TIP3   OH231860   3.201   1.636   5.613 -0.1240 -0.6195 -0.2733
 3482TIP3    H131861   3.286   1.606   5.646  1.2154  0.8666 -2.1732
 3482TIP3    H231862   3.170   1.697   5.681  1.1494  0.1112 -0.3109
 3483TIP3   OH231863   6.370   0.067  13.466  0.0098 -0.5854  0.6807
 3483TIP3    H131864   6.399   0.137  13.525 -0.9090 -0.1603  0.6436
 3483TIP3    H231865   6.361  -0.010  13.522  0.1680 -0.4555  0.8883
 3484TIP3   OH231866   2.677   3.974   5.913 -0.6530  0.0388  0.4423
 3484TIP3    H131867   2.762   3.956   5.953 -0.2164  1.1690  0.0765
 3484TIP3    H231868   2.696   3.977   5.819 -0.8968  1.1762  0.4103
 3485TIP3   OH231869   5.491   4.932   0.810 -0.1888  0.1078 -0.3262
 3485TIP3    H131870   5.576   4.887   0.809 -0.0750  0.3156 -0.0584
 3485TIP3    H231871   5.498   4.996   0.738 -0.4086 -0.4003 -0.8070
 3486TIP3   OH231872   3.327   0.117   3.065 -0.1685  0.1868 -0.0999
 3486TIP3    H131873   3.314   0.182   2.996 -1.1071  2.3769  1.9926
 3486TIP3    H231874   3.421   0.120   3.082  0.0374 -0.2163 -1.1015
 3487TIP3   OH231875   0.327   2.811  16.366  0.6816 -0.2345  0.4913
 3487TIP3    H131876   0.337   2.829  16.272  0.8441  0.7586  0.6914
 3487TIP3    H231877   0.240   2.844  16.388  0.3288 -1.1633  0.5406
 3488TIP3   OH231878   5.888   4.949   3.086  0.0770 -0.3868 -0.2608
 3488TIP3    H131879   5.818   4.982   3.029 -0.4970 -0.9513  0.0985
 3488TIP3    H231880   5.924   5.027   3.127 -0.8081 -0.1329  0.0640
 3489TIP3   OH231881   0.807   6.717   3.044  0.1817  0.1642 -0.1094
 3489TIP3    H131882   0.718   6.697   3.016  0.5517 -0.8816 -0.6177
 3489TIP3    H231883   0.800   6.733   3.138 -0.1671 -2.7540  0.4609
 3490TIP3   OH231884   2.907   5.570  14.696 -0.4050 -0.3105 -0.1826
 3490TIP3    H131885   2.943   5.634  14.757 -0.7225 -0.1553 -0.1583
 3490TIP3    H231886   2.881   5.496  14.750 -1.9120  0.3578  0.0389
 3491TIP3   OH231887   5.342   5.384  11.896  0.3574  0.5578  0.3155
 3491TIP3    H131888   5.406   5.436  11.944  0.9402  0.3148 -0.2011
 3491TIP3    H231889   5.345   5.418  11.807  1.1607 -0.7265 -0.1718
 3492TIP3   OH231890   0.776   0.063   1.350 -0.1291 -0.1269 -0.4533
 3492TIP3    H131891   0.811  -0.008   1.404  0.7557  0.5495 -0.1048
 3492TIP3    H231892   0.737   0.020   1.274 -0.2215 -1.0181  0.0960
 3493TIP3   OH231893   5.832   6.413  12.817 -0.4411 -0.1867  0.2333
 3493TIP3    H131894   5.920   6.406  12.855 -0.4040  1.6300  0.5546
 3493TIP3    H231895   5.802   6.500  12.842 -1.6338 -0.0982 -1.3891
 3494TIP3   OH231896   5.651   1.839   4.439 -0.2709 -0.7101  0.4335
 3494TIP3    H131897   5.708   1.823   4.364 -0.2648 -0.4920  0.3897
 3494TIP3    H231898   5.578   1.890   4.403  2.2256  4.2501  1.3847
 3495TIP3   OH231899   5.791   3.795   0.742 -0.2017  0.2574 -0.2868
 3495TIP3    H131900   5.843   3.726   0.702 -1.8598 -1.0886 -0.1881
 3495TIP3    H231901   5.778   3.859   0.672 -0.1006 -0.3522 -0.8693
 3496TIP3   OH231902   2.047   2.586  15.393 -0.1225  0.2414  0.2001
 3496TIP3    H131903   2.035   2.532  15.315  0.8814 -1.1104  0.9478
 3496TIP3    H231904   2.029   2.675  15.363 -2.8783 -0.5418 -0.8322
 3497TIP3   OH231905   6.667   5.993   5.484 -0.5955 -0.2783  0.1227
 3497TIP3    H131906   6.759   5.976   5.507 -1.4627 -3.8291  1.5048
 3497TIP3    H231907   6.632   6.040   5.559 -0.0133  0.9590 -0.3442
 3498TIP3   OH231908   3.005   0.366  13.353  0.5575 -0.2343 -0.5227
 3498TIP3    H131909   2.948   0.435  13.385  0.0487 -1.0182  0.3354
 3498TIP3    H231910   3.057   0.342  13.430  2.4745  0.8374 -1.4053
 3499TIP3   OH231911   1.287   4.842   1.863  0.3103 -0.3376  0.1988
 3499TIP3    H131912   1.246   4.913   1.911 -0.4887 -0.3507 -0.4302
 3499TIP3    H231913   1.301   4.773   1.928 -0.0656 -0.0782  0.5545
 3500TIP3   OH231914   3.809   5.352  11.306  0.5158 -0.0535  0.1118
 3500TIP3    H131915   3.850   5.360  11.220 -2.3979 -0.7538 -1.4630
 3500TIP3    H231916   3.769   5.265  11.306 -0.1896  0.2160  1.8869
 3501TIP3   OH231917   2.998   5.319   2.977 -0.1616  0.1713  0.4991
 3501TIP3    H131918   3.092   5.333   2.983 -0.2059  0.7628 -0.0416
 3501TIP3    H231919   2.970   5.300   3.066  0.4671 -0.0022  0.6629
 3502TIP3   OH231920   3.740   1.961   3.510  0.1386 -0.6604 -0.1664
 3502TIP3    H131921   3.746   1.875   3.467  0.4961 -1.3928  1.3053
 3502TIP3    H231922   3.715   1.941   3.600  0.1657  0.7962  0.1828
 3503TIP3   OH231923   3.083   4.340   4.184  0.1725 -0.2150  0.4189
 3503TIP3    H131924   3.142   4.328   4.258  1.1361  1.8857  0.0571
 3503TIP3    H231925   3.026   4.412   4.210  1.9602  2.1076 -1.6103
 3504TIP3   OH231926   5.593   6.514  12.548  0.2806 -0.0006 -0.3092
 3504TIP3    H131927   5.529   6.515  12.620  0.0203 -1.7398 -0.4782
 3504TIP3    H231928   5.549   6.561  12.477 -0.7070 -0.8525 -0.3007
 3505TIP3   OH231929   5.927   5.830   5.660  0.0324 -0.3397 -0.2273
 3505TIP3    H131930   5.973   5.898   5.610  0.4316 -1.2968 -1.2118
 3505TIP3    H231931   5.974   5.824   5.742  1.4233 -0.9789 -1.0387
 3506TIP3   OH231932   2.186   4.161   0.039  0.7349  0.6539 -0.1446
 3506TIP3    H131933   2.132   4.136  -0.036  0.1038  0.9824  0.1910
 3506TIP3    H231934   2.153   4.107   0.111  0.8445  0.8611  0.0612
 3507TIP3   OH231935   1.301   0.437   2.200 -0.2023 -1.3087 -0.1204
 3507TIP3    H131936   1.346   0.451   2.116 -4.4934  2.5087 -2.2036
 3507TIP3    H231937   1.350   0.491   2.262  1.6795 -2.3420 -0.6159
 3508TIP3   OH231938   6.668   2.783   6.262  0.3480  0.4775  0.2388
 3508TIP3    H131939   6.702   2.865   6.297  0.4630  0.3061  0.5329
 3508TIP3    H231940   6.621   2.808   6.182 -0.4685  0.9591  0.8584
 3509TIP3   OH231941   5.204   0.523   2.314  0.1237 -0.2774  0.0855
 3509TIP3    H131942   5.293   0.537   2.346  0.2230 -2.2412  0.8524
 3509TIP3    H231943   5.211   0.446   2.257 -0.4455  1.8509 -3.0582
 3510TIP3   OH231944   6.469   3.933   4.122  0.1762 -0.2954  0.0330
 3510TIP3    H131945   6.471   3.939   4.027 -0.7139 -1.0205 -0.0446
 3510TIP3    H231946   6.527   4.003   4.152 -0.9303  1.1053 -1.0008
 3511TIP3   OH231947   6.743   4.759   4.355 -0.1954 -0.0074  0.2778
 3511TIP3    H131948   6.675   4.819   4.388  1.1779  1.3414  0.7657
 3511TIP3    H231949   6.741   4.685   4.415  0.0558  0.9228  1.4747
 3512TIP3   OH231950   5.945   4.500  13.566 -0.3673  0.1402 -0.0388
 3512TIP3    H131951   6.021   4.558  13.565 -0.7101  0.6373 -2.6786
 3512TIP3    H231952   5.888   4.536  13.634  0.2106  1.8670 -0.4190
 3513TIP3   OH231953   2.556   0.307  14.573 -0.2323 -0.0095 -0.2023
 3513TIP3    H131954   2.597   0.340  14.493  1.0240  2.4313  1.3381
 3513TIP3    H231955   2.473   0.355  14.579 -0.4737 -0.4198 -0.1759
 3514TIP3   OH231956   4.207   5.969   2.961 -0.1817  0.3711  0.1975
 3514TIP3    H131957   4.147   5.895   2.969  0.9530 -0.4924  1.2299
 3514TIP3    H231958   4.210   5.987   2.867  0.3228 -1.6232 -0.2297
 3515TIP3   OH231959   3.525   0.278  14.146  0.4667  0.2419 -0.2246
 3515TIP3    H131960   3.453   0.340  14.160  1.0187  0.7065  0.7264
 3515TIP3    H231961   3.598   0.333  14.114  1.5656  0.4956  2.4306
 3516TIP3   OH231962   3.745   4.871  14.276 -0.4208  0.1843  0.1326
 3516TIP3    H131963   3.796   4.947  14.304  0.8789 -0.8797  0.7664
 3516TIP3    H231964   3.680   4.906  14.216  0.4603  1.7281  0.0409
 3517TIP3   OH231965   1.719   0.126   4.120  0.2648 -0.2539 -0.9753
 3517TIP3    H131966   1.744   0.037   4.146 -0.7150  0.0966  1.4343
 3517TIP3    H231967   1.626   0.131   4.142  0.3133  1.3688 -1.0574
 3518TIP3   OH231968   1.528   4.699  11.402  1.0319 -0.3289 -0.3627
 3518TIP3    H131969   1.442   4.673  11.369  1.2766  0.4145 -1.6918
 3518TIP3    H231970   1.587   4.629  11.373  0.9236 -0.6952  0.2977
 3519TIP3   OH231971   3.959   1.183  14.300 -0.8066 -0.0081 -0.1042
 3519TIP3    H131972   3.997   1.125  14.366 -1.4311 -2.5844 -1.8500
 3519TIP3    H231973   3.891   1.231  14.347  0.0726 -0.2760  1.5425
 3520TIP3   OH231974   3.628   1.278   0.268  0.6642  0.1545  0.4310
 3520TIP3    H131975   3.645   1.367   0.236 -0.3223  0.0617 -0.4103
 3520TIP3    H231976   3.676   1.221   0.208  0.0004  0.0560 -0.0240
 3521TIP3   OH231977   3.315   1.713   3.007 -0.4272 -0.0392 -0.5343
 3521TIP3    H131978   3.304   1.753   3.094  1.1611  1.6419 -1.0281
 3521TIP3    H231979   3.406   1.683   3.007 -0.6570 -0.7510 -1.3471
 3522TIP3   OH231980   2.773   6.686   5.099 -0.2920 -0.4235  0.7533
 3522TIP3    H131981   2.802   6.745   5.168  0.1955  0.7970 -0.4566
 3522TIP3    H231982   2.679   6.674   5.116 -0.2111  0.0038  1.5235
 3523TIP3   OH231983   1.496   0.291  12.352 -0.4144  0.1719  0.7399
 3523TIP3    H131984   1.466   0.375  12.387 -0.8609  0.2480  0.1815
 3523TIP3    H231985   1.564   0.313  12.289 -0.6672  0.1316  0.4491
 3524TIP3   OH231986   1.267   1.126  16.624  0.2561  0.0325 -0.7705
 3524TIP3    H131987   1.272   1.165  16.711 -0.4435 -0.1158 -0.6595
 3524TIP3    H231988   1.358   1.124  16.594  0.3561  1.4015 -0.6365
 3525TIP3   OH231989   4.051   4.171   5.036  0.0170 -0.0196 -0.2607
 3525TIP3    H131990   3.988   4.107   5.003 -0.6318  0.2518  0.4194
 3525TIP3    H231991   4.132   4.151   4.989 -0.3320 -0.9524 -0.4957
 3526TIP3   OH231992   5.996   0.929   2.084  0.1978 -0.3771  0.3267
 3526TIP3    H131993   6.041   0.911   2.001 -0.2952  0.4864 -0.1420
 3526TIP3    H231994   5.903   0.935   2.060  0.1704  1.1414  0.7030
 3527TIP3   OH231995   6.238   4.772  13.376  0.3901 -0.3065 -0.5505
 3527TIP3    H131996   6.178   4.749  13.447  0.6079 -2.5064 -1.0115
 3527TIP3    H231997   6.325   4.769  13.416  0.5116 -1.5265 -0.8603
 3528TIP3   OH231998   2.737   4.049   5.024  0.4473  0.2121 -0.1044
 3528TIP3    H131999   2.762   3.987   4.955  1.4802 -1.5764  1.7702
 3528TIP3    H232000   2.751   4.135   4.984  1.9717 -0.7493 -1.8212
 3529TIP3   OH232001   2.065   2.728   2.206 -0.3381  0.3256 -0.2456
 3529TIP3    H132002   2.057   2.791   2.135  0.4812  0.4761 -0.2192
 3529TIP3    H232003   2.018   2.769   2.279 -1.7093 -0.1074 -0.8614
 3530TIP3   OH232004   4.537   5.781   3.873 -0.7657 -0.4924  0.6251
 3530TIP3    H132005   4.456   5.755   3.918 -2.3051  2.3443 -0.2795
 3530TIP3    H232006   4.516   5.773   3.780  0.3732 -0.7027  0.3750
 3531TIP3   OH232007   1.500   3.645   2.236  0.4350  0.2014 -0.0784
 3531TIP3    H132008   1.414   3.605   2.251  0.4615  0.7502  1.6835
 3531TIP3    H232009   1.481   3.730   2.197  0.2994 -0.5469 -1.7463
 3532TIP3   OH232010   1.259   5.114   2.527  0.1230 -0.3160  0.0258
 3532TIP3    H132011   1.192   5.047   2.517  0.3033 -0.4451 -0.3303
 3532TIP3    H232012   1.261   5.133   2.621  2.7832 -3.6578  0.8492
 3533TIP3   OH232013   3.066   2.210  13.196  0.0819 -0.2008 -0.7664
 3533TIP3    H132014   3.058   2.305  13.206 -1.1770 -0.3523 -0.1970
 3533TIP3    H232015   2.981   2.176  13.223  1.1271 -1.6424  0.9577
 3534TIP3   OH232016   6.142   6.203   2.574  0.2758 -0.2009  0.0235
 3534TIP3    H132017   6.124   6.261   2.500  2.0453  1.5301  0.8678
 3534TIP3    H232018   6.067   6.213   2.632  0.4075  1.0540  0.0098
 3535TIP3   OH232019   2.684   6.738   1.798  0.1780  0.5296 -0.2080
 3535TIP3    H132020   2.731   6.665   1.838  0.3110  1.2602  1.0279
 3535TIP3    H232021   2.602   6.699   1.767  0.2773 -0.1674  0.3672
 3536TIP3   OH232022   1.854   3.965   4.647  0.5155 -0.3252  0.2459
 3536TIP3    H132023   1.910   3.896   4.609  0.4942  0.6458 -1.6989
 3536TIP3    H232024   1.915   4.037   4.665  0.1386  0.1601 -0.3914
 3537TIP3   OH232025   5.847   5.698   0.407  0.2018 -0.2168  0.2876
 3537TIP3    H132026   5.886   5.676   0.322  0.8729  0.4937  0.3978
 3537TIP3    H232027   5.838   5.793   0.405  0.3065 -0.1879  1.0466
 3538TIP3   OH232028   3.066   6.666  10.676  0.3316  0.1630  0.1040
 3538TIP3    H132029   3.000   6.657  10.745  1.8469  1.9956  1.9208
 3538TIP3    H232030   3.044   6.749  10.634  0.8733  0.2851  0.0562
 3539TIP3   OH232031   1.170   4.249  14.609 -0.3760 -0.1754  0.0917
 3539TIP3    H132032   1.081   4.259  14.644  0.6096  0.0140  2.7906
 3539TIP3    H232033   1.201   4.339  14.596  0.2997 -0.1220  1.7709
 3540TIP3   OH232034   2.425   3.222   4.361 -0.5695  0.0491 -0.2279
 3540TIP3    H132035   2.513   3.257   4.347 -0.6744  0.2395 -0.4257
 3540TIP3    H232036   2.437   3.128   4.371 -0.5537 -0.2088 -2.2702
 3541TIP3   OH232037   0.300   3.423   3.611  0.2517  0.1492  0.4930
 3541TIP3    H132038   0.356   3.347   3.628  1.0253  0.7123  0.5353
 3541TIP3    H232039   0.236   3.392   3.548  0.7768 -0.4511  0.2403
 3542TIP3   OH232040   5.818   0.781   0.845  0.4400  0.0971 -0.5039
 3542TIP3    H132041   5.880   0.711   0.828 -0.2344 -0.4602 -0.7205
 3542TIP3    H232042   5.767   0.750   0.920 -1.0534 -0.4832 -1.7007
 3543TIP3   OH232043   4.173   2.912   1.467 -0.0961  0.0201  0.4108
 3543TIP3    H132044   4.264   2.924   1.494  0.1094  1.3371 -0.7359
 3543TIP3    H232045   4.154   2.988   1.411 -2.0763  0.0814  1.0606
 3544TIP3   OH232046   1.490   3.059  13.465  0.3601 -0.4108  0.9491
 3544TIP3    H132047   1.451   3.130  13.516  1.0350  1.2703 -0.7548
 3544TIP3    H232048   1.541   3.103  13.397 -0.0568 -2.5147 -0.8494
 3545TIP3   OH232049   2.526   1.848   1.198 -0.2287 -0.2384  0.1857
 3545TIP3    H132050   2.465   1.916   1.228 -0.8070 -1.4273  1.8253
 3545TIP3    H232051   2.470   1.779   1.162  0.3106 -0.1919 -0.7814
 3546TIP3   OH232052   4.943   6.707  11.645  0.2711  0.1467  0.2214
 3546TIP3    H132053   4.850   6.692  11.627  0.0960  1.8792 -0.6145
 3546TIP3    H232054   4.975   6.625  11.682 -1.0553 -1.2732 -1.6003
 3547TIP3   OH232055   2.994   1.980  16.061 -0.3022  0.9762 -0.5023
 3547TIP3    H132056   2.901   1.961  16.044 -0.8576  2.4188  0.7076
 3547TIP3    H232057   2.992   2.052  16.125  1.6635  1.3185 -0.7891
 3548TIP3   OH232058   3.458   4.762   4.383 -0.4727 -0.3764 -0.2506
 3548TIP3    H132059   3.511   4.742   4.460  0.0722 -0.2406 -0.5908
 3548TIP3    H232060   3.385   4.700   4.388 -1.7292  1.1026  1.6365
 3549TIP3   OH232061   5.730   4.206  16.775  0.1269  0.4155 -0.1476
 3549TIP3    H132062   5.734   4.164  16.861  2.8918  0.0628 -0.3500
 3549TIP3    H232063   5.644   4.183  16.742 -0.4268 -0.7650  1.8828
 3550TIP3   OH232064   2.422   0.433   1.806 -0.2872  0.0587 -0.6122
 3550TIP3    H132065   2.370   0.396   1.876  1.3920 -0.0333  0.6548
 3550TIP3    H232066   2.436   0.361   1.745  0.1376 -0.5134  0.1405
 3551TIP3   OH232067   5.457   1.130  12.038 -0.2906  0.3108 -0.6684
 3551TIP3    H132068   5.411   1.186  12.101 -0.6907 -1.3004  0.5399
 3551TIP3    H232069   5.414   1.045  12.046 -1.3706  0.3654 -4.2356
 3552TIP3   OH232070   3.208   5.406   2.249 -0.5257 -0.6585  0.0547
 3552TIP3    H132071   3.249   5.391   2.334  1.3158 -1.1946 -0.8741
 3552TIP3    H232072   3.214   5.500   2.236  0.0179 -0.6767  0.1379
 3553TIP3   OH232073   4.876   1.511  14.739  0.3651  0.0685  0.0022
 3553TIP3    H132074   4.936   1.515  14.664  0.4105  0.0584  0.0381
 3553TIP3    H232075   4.839   1.599  14.744  0.2680  0.0357 -0.1092
 3554TIP3   OH232076   1.166   5.812  14.213 -0.3620  0.5267  0.8289
 3554TIP3    H132077   1.158   5.752  14.139 -3.0464  0.5834  0.9733
 3554TIP3    H232078   1.255   5.847  14.206  1.7661 -3.9678  1.1897
 3555TIP3   OH232079   4.537   4.907  16.533  0.2668  0.6187  0.4203
 3555TIP3    H132080   4.526   4.991  16.577 -1.8940  0.7849 -0.3052
 3555TIP3    H232081   4.532   4.842  16.603 -2.0466  0.9325  0.6116
 3556TIP3   OH232082   0.667   1.481   6.486 -0.5785  0.2286  0.3665
 3556TIP3    H132083   0.591   1.440   6.529 -0.5269  2.0820  2.4270
 3556TIP3    H232084   0.740   1.425   6.510 -0.8058  0.3400  1.3746
 3557TIP3   OH232085   4.368   4.861   1.750 -0.0221  0.5330  0.1520
 3557TIP3    H132086   4.328   4.875   1.664  0.0140  0.4607  0.1236
 3557TIP3    H232087   4.302   4.892   1.812 -0.5637 -0.5671  0.1533
 3558TIP3   OH232088   3.527   1.806   2.666  0.5838  0.3445  0.1856
 3558TIP3    H132089   3.452   1.746   2.664 -0.2527  1.3614 -0.3563
 3558TIP3    H232090   3.593   1.765   2.610  0.1895 -0.2710  0.1655
 3559TIP3   OH232091   5.484   5.507   0.719  0.1891 -0.3696  0.6032
 3559TIP3    H132092   5.574   5.537   0.709  0.4845 -0.8000  1.8592
 3559TIP3    H232093   5.430   5.586   0.712  0.8633  0.3168  2.6101
 3560TIP3   OH232094   5.199   4.610  11.689  0.2632  0.0643  0.0036
 3560TIP3    H132095   5.223   4.624  11.780 -0.0111  0.0968  0.0723
 3560TIP3    H232096   5.275   4.566  11.650  0.7466  0.8707  0.0189
 3561TIP3   OH232097   0.848   3.623   5.423  0.0649  0.3764 -0.1535
 3561TIP3    H132098   0.756   3.642   5.442  0.2585  0.5086  0.7044
 3561TIP3    H232099   0.872   3.685   5.354 -0.1423  1.2409  0.5299
 3562TIP3   OH232100   4.898   5.864  11.444  0.2093  0.0806  0.7133
 3562TIP3    H132101   4.828   5.798  11.450 -0.2812  0.5425  0.1749
 3562TIP3    H232102   4.905   5.899  11.533 -1.3757  1.1706  0.4389
 3563TIP3   OH232103   0.989   1.846  13.695 -0.0428  0.6359 -0.1011
 3563TIP3    H132104   0.904   1.889  13.699 -1.2240 -1.5906  0.9960
 3563TIP3    H232105   0.985   1.794  13.614 -0.1390 -0.1880  0.4203
 3564TIP3   OH232106   4.373   3.043   5.159  0.2347  0.6233 -0.1322
 3564TIP3    H132107   4.347   2.961   5.116 -0.2998  0.5363  0.3427
 3564TIP3    H232108   4.468   3.040   5.161  0.2709  0.5898 -1.2323
 3565TIP3   OH232109   6.487   3.399   2.744 -0.4959 -0.2635 -0.1658
 3565TIP3    H132110   6.565   3.392   2.689 -0.8014 -2.1634 -0.3973
 3565TIP3    H232111   6.413   3.394   2.684 -0.8258  0.3337  0.1740
 3566TIP3   OH232112   3.953   1.323   2.830  0.7844  0.1533 -1.2176
 3566TIP3    H132113   3.919   1.341   2.918  0.1662  1.5768 -1.7109
 3566TIP3    H232114   4.023   1.387   2.818  0.1898  0.6591 -2.1158
 3567TIP3   OH232115   2.262   1.954  12.354 -0.2176  0.6375  0.2612
 3567TIP3    H132116   2.169   1.939  12.334 -0.3107 -0.5156  1.4460
 3567TIP3    H232117   2.263   1.979  12.446  0.8038 -1.8645  1.0224
 3568TIP3   OH232118   2.177   1.917  10.303 -0.0047  0.3465 -0.0947
 3568TIP3    H132119   2.143   1.849  10.361  0.5863 -0.3285 -0.5220
 3568TIP3    H232120   2.103   1.939  10.246 -0.4948  0.7901  0.6883
 3569TIP3   OH232121   6.001   3.821  17.083 -0.5401  0.1943 -0.6126
 3569TIP3    H132122   5.975   3.848  17.171  3.0335  0.4175  0.5329
 3569TIP3    H232123   5.966   3.732  17.074 -2.6624  0.9055  0.1806
 3570TIP3   OH232124   3.467   1.805   4.930 -0.3377 -0.5669 -0.0199
 3570TIP3    H132125   3.460   1.724   4.980 -2.0445 -0.0488  0.6424
 3570TIP3    H232126   3.502   1.779   4.845  2.1523 -1.5565  1.1963
 3571TIP3   OH232127   6.355   6.646   6.406  0.0981  0.0840  0.2730
 3571TIP3    H132128   6.376   6.733   6.372  0.5836  0.2525  0.9924
 3571TIP3    H232129   6.260   6.649   6.422 -0.3529 -0.3596 -2.0541
 3572TIP3   OH232130   6.751   2.289   4.469 -0.5082  0.5273  0.3549
 3572TIP3    H132131   6.805   2.334   4.534  0.3897 -0.1001  0.0492
 3572TIP3    H232132   6.747   2.350   4.395 -0.5837  0.7543  0.5417
 3573TIP3   OH232133   5.510   2.435  12.614 -0.2261 -0.6116 -0.2793
 3573TIP3    H132134   5.554   2.494  12.676 -2.0958  0.3174  0.2176
 3573TIP3    H232135   5.423   2.420  12.652 -0.5850 -1.9241 -1.5246
 3574TIP3   OH232136   5.359   4.378   6.050 -0.4970  0.3197  0.0835
 3574TIP3    H132137   5.376   4.294   6.093 -2.1268  0.0909  0.3534
 3574TIP3    H232138   5.325   4.433   6.121 -2.7268  0.1033 -0.7635
 3575TIP3   OH232139   6.608   1.939  14.349  0.4860  0.3993 -0.2583
 3575TIP3    H132140   6.581   1.987  14.270 -0.0260 -1.1108 -1.0371
 3575TIP3    H232141   6.541   1.872  14.361  1.9140 -1.0504 -0.0602
 3576TIP3   OH232142   2.763   2.866  11.975 -0.3136  0.0125  0.4388
 3576TIP3    H132143   2.807   2.952  11.974  0.6328 -0.4586 -0.5275
 3576TIP3    H232144   2.677   2.883  11.938 -0.4721  0.7151  1.1032
 3577TIP3   OH232145   3.498   2.564  12.836 -0.7332  0.3870 -0.4235
 3577TIP3    H132146   3.522   2.492  12.895 -0.8271 -0.6213 -1.5779
 3577TIP3    H232147   3.520   2.532  12.749 -3.2014  0.6999 -1.2431
 3578TIP3   OH232148   5.210   0.930  10.517  0.5559  0.9305  0.2835
 3578TIP3    H132149   5.226   0.839  10.491 -0.7439  0.6018  0.5587
 3578TIP3    H232150   5.254   0.982  10.449  0.9541  0.0989 -0.1166
 3579TIP3   OH232151   4.943   5.212   4.142 -0.4923 -0.0236  0.1087
 3579TIP3    H132152   4.969   5.123   4.116 -0.4290 -0.4085  1.3931
 3579TIP3    H232153   4.905   5.201   4.229  1.0491  1.4133  1.0329
 3580TIP3   OH232154   3.553   3.052   4.937  0.1663 -0.2790  0.2062
 3580TIP3    H132155   3.632   3.106   4.928 -0.5119  0.4691 -1.6804
 3580TIP3    H232156   3.499   3.098   5.001  0.7938 -0.2352  0.7155
 3581TIP3   OH232157   0.453   4.755  12.823 -0.3784 -0.2392 -0.0286
 3581TIP3    H132158   0.472   4.701  12.900  2.8359  0.2753 -0.3155
 3581TIP3    H232159   0.500   4.713  12.752 -0.2694  1.2789 -0.9009
 3582TIP3   OH232160   4.739   4.029  11.295 -0.4759 -0.2927 -0.4137
 3582TIP3    H132161   4.671   4.077  11.341 -1.6264 -0.9093 -1.3897
 3582TIP3    H232162   4.791   3.987  11.364 -1.6477 -0.5351  0.3453
 3583TIP3   OH232163   0.808   2.319  14.529  1.3286 -0.1829 -0.3843
 3583TIP3    H132164   0.900   2.340  14.550  0.6715  1.3063  1.2798
 3583TIP3    H232165   0.765   2.405  14.524 -0.4750 -0.8851  1.5032
 3584TIP3   OH232166   4.000   0.396  13.116 -0.0033 -0.0458  0.8663
 3584TIP3    H132167   3.937   0.382  13.045  0.6293  0.0177  0.2750
 3584TIP3    H232168   3.948   0.395  13.196 -0.5137 -1.9217  0.5607
 3585TIP3   OH232169   3.285   5.496  17.204  0.5558 -0.0085  0.0645
 3585TIP3    H132170   3.228   5.566  17.236 -3.3559 -3.3018  1.1598
 3585TIP3    H232171   3.276   5.498  17.109  1.0327  1.2775  0.0266
 3586TIP3   OH232172   4.166   0.738  16.841 -0.1124  0.2280  0.5766
 3586TIP3    H132173   4.154   0.770  16.931  1.7238  2.0000  0.2609
 3586TIP3    H232174   4.235   0.794  16.804 -0.1859 -1.0312 -1.6642
 3587TIP3   OH232175   4.336   2.275  12.842  0.1930 -0.3249  0.3963
 3587TIP3    H132176   4.365   2.198  12.893  0.5872 -1.0571 -0.8928
 3587TIP3    H232177   4.376   2.263  12.756 -0.3698  0.9500 -0.0599
 3588TIP3   OH232178   5.254   4.005   3.926  0.1567  0.0017 -0.0379
 3588TIP3    H132179   5.264   3.973   4.015  1.4560 -0.9968 -0.5108
 3588TIP3    H232180   5.160   4.024   3.918 -0.1728 -0.9744  1.1758
 3589TIP3   OH232181   0.170   1.334  12.237  0.2628 -0.3371  0.5010
 3589TIP3    H132182   0.201   1.374  12.156 -2.5689  2.3785  0.5860
 3589TIP3    H232183   0.111   1.264  12.208 -0.3889  0.3287  0.1986
 3590TIP3   OH232184   1.767   1.985  15.110 -0.4942  0.3555  0.1724
 3590TIP3    H132185   1.674   1.984  15.133 -0.8840  0.8134 -1.3158
 3590TIP3    H232186   1.811   1.955  15.190 -2.0072 -1.4535  0.3882
 3591TIP3   OH232187   5.642   1.421  13.386  0.5447 -0.3167  0.8192
 3591TIP3    H132188   5.689   1.339  13.373 -1.4410 -1.3305 -0.5175
 3591TIP3    H232189   5.617   1.448  13.297  0.0699  1.0737  1.3461
 3592TIP3   OH232190   0.367   2.842   4.849  0.5379 -0.1809  0.1450
 3592TIP3    H132191   0.451   2.866   4.808  0.1427  1.1481  0.0518
 3592TIP3    H232192   0.329   2.777   4.791  1.9437 -1.5789  0.7096
 3593TIP3   OH232193   4.169   5.533  12.322  0.1162 -0.3496  0.1306
 3593TIP3    H132194   4.083   5.574  12.318  0.0794 -0.4683 -0.4472
 3593TIP3    H232195   4.159   5.452  12.273  0.6137 -0.2480 -0.1533
 3594TIP3   OH232196   2.539   4.663   0.464 -0.3093 -0.1157 -0.4910
 3594TIP3    H132197   2.553   4.740   0.409  0.3036  0.5529  0.5684
 3594TIP3    H232198   2.445   4.664   0.484 -1.3233 -2.2732 -4.2083
 3595TIP3   OH232199   6.466   5.401  11.815  0.7778  0.2059  0.8580
 3595TIP3    H132200   6.412   5.477  11.834 -0.3507  0.1064 -1.6305
 3595TIP3    H232201   6.498   5.416  11.726  1.4925 -1.6892  0.7578
 3596TIP3   OH232202   3.703   0.132  16.347 -0.3415  0.3852  0.1542
 3596TIP3    H132203   3.686   0.041  16.371  0.7339  0.5335  1.6118
 3596TIP3    H232204   3.623   0.160  16.303 -1.8623 -0.4304  2.2103
 3597TIP3   OH232205   6.450   5.670  15.881 -0.4339  0.0776  0.2648
 3597TIP3    H132206   6.411   5.755  15.863  0.5213  0.5858  0.5301
 3597TIP3    H232207   6.376   5.609  15.881 -1.2672  1.0519  1.0848
 3598TIP3   OH232208   6.228   1.296   3.096 -0.2405 -0.6878  0.0025
 3598TIP3    H132209   6.291   1.262   3.160 -0.6274  1.3751  1.5562
 3598TIP3    H232210   6.279   1.357   3.043 -0.4309 -0.7631 -0.2701
 3599TIP3   OH232211   3.532   5.646  11.995  0.2119 -0.1235 -0.1226
 3599TIP3    H132212   3.467   5.582  11.966  1.0743  0.0268 -2.6168
 3599TIP3    H232213   3.537   5.709  11.923  0.0617  2.3100  1.8404
 3600TIP3   OH232214   3.122   1.562  11.555  0.3727 -0.3962  0.8943
 3600TIP3    H132215   3.048   1.511  11.521  1.0973 -1.0560  0.2635
 3600TIP3    H232216   3.134   1.530  11.644  0.2753 -0.7176  0.7940
 3601TIP3   OH232217   4.545   4.171   1.204  0.7606 -0.5633 -0.0954
 3601TIP3    H132218   4.552   4.204   1.294  1.6789 -1.4711  0.1877
 3601TIP3    H232219   4.618   4.210   1.158  1.4127 -1.5772  0.0520
 3602TIP3   OH232220   2.652   5.859   0.095 -0.0150 -0.0861 -0.4844
 3602TIP3    H132221   2.596   5.924   0.052  0.8348  1.9965  1.3530
 3602TIP3    H232222   2.616   5.850   0.183  1.3311 -0.2387  0.0774
 3603TIP3   OH232223   0.387   2.213   2.226  0.3771 -0.0273 -0.3211
 3603TIP3    H132224   0.462   2.170   2.185  0.4839  0.7225 -0.9435
 3603TIP3    H232225   0.352   2.148   2.288  2.1690 -0.0254  0.7542
 3604TIP3   OH232226   1.259   2.746   4.614  0.3787 -0.8315  0.1045
 3604TIP3    H132227   1.242   2.836   4.586 -0.4508 -1.1851 -0.5946
 3604TIP3    H232228   1.354   2.740   4.621  0.4394  0.0904  0.1314
 3605TIP3   OH232229   0.566   6.775   5.069 -0.5403 -0.1662 -0.0342
 3605TIP3    H132230   0.503   6.760   5.140 -0.3165 -1.6818 -0.1221
 3605TIP3    H232231   0.645   6.804   5.114 -0.9203  0.5675  0.1786
 3606TIP3   OH232232   4.507   5.857   1.194  0.2643  0.7072  0.3736
 3606TIP3    H132233   4.562   5.835   1.270  0.9513  0.8068 -0.0867
 3606TIP3    H232234   4.511   5.953   1.189  0.7338  0.6664 -0.1547
 3607TIP3   OH232235   4.505   1.554   0.036 -0.2842 -0.0616  0.2215
 3607TIP3    H132236   4.532   1.607  -0.039 -0.2360  1.1309  1.0602
 3607TIP3    H232237   4.414   1.577   0.051  0.3794  1.6759  2.0737
 3608TIP3   OH232238   3.602   0.455   1.342  0.1026 -0.2580  0.0276
 3608TIP3    H132239   3.697   0.463   1.335  0.3060 -0.7098  1.7705
 3608TIP3    H232240   3.571   0.455   1.252  1.5903  1.5954 -0.5443
 3609TIP3   OH232241   1.495   4.753  12.073 -0.1150 -0.1404 -0.4470
 3609TIP3    H132242   1.559   4.811  12.114 -0.1652 -0.6070  0.3180
 3609TIP3    H232243   1.473   4.689  12.141 -1.2200 -0.1364 -0.7688
 3610TIP3   OH232244   3.246   3.657  15.099 -0.1658 -0.3695 -0.3800
 3610TIP3    H132245   3.278   3.578  15.056 -1.2918 -1.5120  0.7906
 3610TIP3    H232246   3.164   3.677  15.053 -0.1550 -0.2077 -0.3265
 3611TIP3   OH232247   3.329   0.493  12.337  0.2106  0.0916 -0.5881
 3611TIP3    H132248   3.364   0.535  12.258 -0.8278  1.8091 -0.2060
 3611TIP3    H232249   3.238   0.471  12.314  0.6777 -1.8756 -0.7089
 3612TIP3   OH232250   6.790   3.789   2.932  1.3598  0.2534  0.0495
 3612TIP3    H132251   6.744   3.828   2.858  1.7897  1.4080  0.3538
 3612TIP3    H232252   6.830   3.709   2.898  0.1456 -0.1308 -0.5154
 3613TIP3   OH232253   0.843   1.417   4.876  0.5843  0.3924 -0.0184
 3613TIP3    H132254   0.825   1.407   4.783  0.2653 -0.7149  0.1488
 3613TIP3    H232255   0.937   1.400   4.883  0.6459  0.6709 -0.1649
 3614TIP3   OH232256   6.512   6.523   5.552  0.3637 -0.1496  0.2012
 3614TIP3    H132257   6.476   6.438   5.577  2.2352 -1.1780 -0.3505
 3614TIP3    H232258   6.545   6.510   5.463  2.3859  0.5269  0.7853
 3615TIP3   OH232259   0.294   0.213  14.793 -0.0686 -0.6109 -0.4358
 3615TIP3    H132260   0.356   0.142  14.804 -1.0178 -1.3948  0.0116
 3615TIP3    H232261   0.287   0.224  14.698  0.6081 -0.6243 -0.4920
 3616TIP3   OH232262   0.365   5.894   4.986 -0.0463  0.2923  0.3484
 3616TIP3    H132263   0.414   5.857   5.060  2.4136 -0.4513 -1.5173
 3616TIP3    H232264   0.409   5.977   4.967 -0.8632  0.6377 -0.0676
 3617TIP3   OH232265   0.966   6.241  16.274 -0.1880  0.4056  0.2248
 3617TIP3    H132266   0.952   6.334  16.255 -0.4819  0.6272  1.4657
 3617TIP3    H232267   0.878   6.203  16.275  0.0333 -0.4067 -2.6005
 3618TIP3   OH232268   2.424   0.254   0.556 -0.2135  0.3584 -0.2356
 3618TIP3    H132269   2.405   0.291   0.642  0.2614 -1.2515  0.6113
 3618TIP3    H232270   2.371   0.305   0.495 -1.7033  0.5895  1.1851
 3619TIP3   OH232271   0.580   3.652   3.767  0.1147 -0.2113  0.0731
 3619TIP3    H132272   0.617   3.723   3.714 -0.4772  1.5311  1.8769
 3619TIP3    H232273   0.501   3.625   3.720 -0.4920  1.4018  0.1185
 3620TIP3   OH232274   3.793   1.528  15.341  0.8171  0.1160 -0.0570
 3620TIP3    H132275   3.724   1.532  15.407  0.5538  0.3204 -0.3404
 3620TIP3    H232276   3.853   1.461  15.372  1.6464  1.4257  1.3113
 3621TIP3   OH232277   4.965   1.443   6.207  0.3062 -0.6321 -0.1001
 3621TIP3    H132278   4.958   1.524   6.155  0.8141 -0.9352 -0.6589
 3621TIP3    H232279   4.985   1.376   6.142 -0.5505 -1.2897  0.3049
 3622TIP3   OH232280   3.089   4.228   3.952  0.8789 -0.4391  0.1141
 3622TIP3    H132281   3.180   4.212   3.929  0.9167  1.8057 -1.8074
 3622TIP3    H232282   3.092   4.270   4.038  1.7339  0.1128 -0.1767
 3623TIP3   OH232283   0.565   5.387   0.789  0.2143  0.7056 -0.0234
 3623TIP3    H132284   0.657   5.402   0.767  0.8213 -1.6636  0.6633
 3623TIP3    H232285   0.554   5.428   0.875  1.2399 -0.7519  0.8490
 3624TIP3   OH232286   5.702   4.128  12.890 -0.4130 -0.2627 -0.1161
 3624TIP3    H132287   5.772   4.145  12.826 -0.1301  1.4533  0.5898
 3624TIP3    H232288   5.693   4.210  12.937 -2.2707 -0.7676  0.4683
 3625TIP3   OH232289   6.799   3.733   2.010 -0.2879 -0.1866  0.1994
 3625TIP3    H132290   6.755   3.702   1.931 -0.5739  3.3708 -1.2628
 3625TIP3    H232291   6.735   3.789   2.053  1.2708  1.5030  0.4731
 3626TIP3   OH232292   2.851   6.806  15.790 -0.1525 -0.0640 -0.5952
 3626TIP3    H132293   2.775   6.858  15.763  0.4647  0.0080 -2.3617
 3626TIP3    H232294   2.921   6.836  15.733  1.0932 -0.4733  0.6831
 3627TIP3   OH232295   6.785   5.296   2.199  0.3362 -0.0694  0.0134
 3627TIP3    H132296   6.738   5.216   2.175 -0.0341  0.6184 -1.6991
 3627TIP3    H232297   6.876   5.277   2.176  0.3325 -0.1631  0.0742
 3628TIP3   OH232298   5.258   6.399   3.360  0.5807  0.2536  0.3906
 3628TIP3    H132299   5.189   6.464   3.369  0.2632  0.4499 -2.4259
 3628TIP3    H232300   5.326   6.426   3.422 -0.4724  1.9751  0.8418
 3629TIP3   OH232301   1.597   4.635   0.866 -0.1267 -0.8633 -0.3534
 3629TIP3    H132302   1.598   4.724   0.832  1.0681 -0.4295  0.7604
 3629TIP3    H232303   1.679   4.596   0.836  0.6813 -0.6621  1.4470
 3630TIP3   OH232304   0.159   5.272   1.811  0.3084 -0.4689 -0.0799
 3630TIP3    H132305   0.075   5.315   1.794 -1.2042 -3.0369  0.3470
 3630TIP3    H232306   0.151   5.187   1.769  3.3780 -0.2285 -1.3600
 3631TIP3   OH232307   1.851   3.791   3.568 -0.0490 -0.4689  0.3598
 3631TIP3    H132308   1.824   3.712   3.522 -0.5178  0.0323 -0.2495
 3631TIP3    H232309   1.780   3.853   3.554  1.3351  0.8690 -1.2403
 3632TIP3   OH232310   0.210   0.640  12.365 -0.2003  0.7022  0.4945
 3632TIP3    H132311   0.158   0.705  12.318 -2.2313 -0.3963  1.0786
 3632TIP3    H232312   0.301   0.661  12.343 -0.6975  4.0098  1.0857
 3633TIP3   OH232313   0.985   0.631   6.180 -0.0950  0.8163  0.1792
 3633TIP3    H132314   0.982   0.568   6.252  0.7688  0.0855 -0.3883
 3633TIP3    H232315   0.955   0.713   6.218 -1.0541  0.1142  0.9955
 3634TIP3   OH232316   2.111   6.448  14.641 -0.6793 -0.1400  0.1581
 3634TIP3    H132317   2.107   6.463  14.546  0.2461 -1.0093 -0.0374
 3634TIP3    H232318   2.019   6.448  14.668 -0.9948 -0.4140 -0.8362
 3635TIP3   OH232319   0.209   0.868  14.346  0.5343 -0.1499 -0.0339
 3635TIP3    H132320   0.161   0.792  14.380  0.1027  0.2551  0.2805
 3635TIP3    H232321   0.260   0.833  14.273 -0.3988 -0.5612 -0.5164
 3636TIP3   OH232322   3.503   4.397   5.595  0.2907  0.4644 -0.8540
 3636TIP3    H132323   3.503   4.365   5.505  0.5598  1.3386 -1.1778
 3636TIP3    H232324   3.412   4.388   5.623  0.2022  0.2009 -1.2163
 3637TIP3   OH232325   4.024   4.657   3.114  0.2229  0.1280 -0.3401
 3637TIP3    H132326   4.040   4.748   3.140  2.8050 -0.4535  0.4438
 3637TIP3    H232327   4.007   4.611   3.197  1.9804 -0.5740 -0.3128
 3638TIP3   OH232328   6.291   1.945   5.017 -1.1310  0.3218 -0.3782
 3638TIP3    H132329   6.348   1.878   5.054 -0.5713  2.0726  2.1857
 3638TIP3    H232330   6.334   1.969   4.934  0.8608  0.2686  0.5855
 3639TIP3   OH232331   3.022   4.727  17.157 -0.2044 -0.0373 -0.0897
 3639TIP3    H132332   3.101   4.688  17.121  0.4236  0.3596  0.8216
 3639TIP3    H232333   2.969   4.652  17.185  0.0235 -0.2908 -0.3368
 3640TIP3   OH232334   6.786   1.196   5.780  0.7223 -0.1299 -0.4219
 3640TIP3    H132335   6.699   1.225   5.752  0.5017  0.0887  0.4415
 3640TIP3    H232336   6.775   1.175   5.873  1.7534  0.6177 -0.1042
 3641TIP3   OH232337   1.399   6.530   6.163  0.0473 -0.2935 -0.5456
 3641TIP3    H132338   1.440   6.547   6.248 -0.7968 -0.2944 -0.1219
 3641TIP3    H232339   1.421   6.606   6.109 -1.2105  0.7730  0.3799
 3642TIP3   OH232340   3.745   5.585  13.914 -0.8635  0.7625  0.1915
 3642TIP3    H132341   3.810   5.633  13.864 -0.4033  0.0971  0.1408
 3642TIP3    H232342   3.793   5.512  13.953 -1.6107  0.1463 -0.0031
 3643TIP3   OH232343   0.074   5.395   0.006 -0.0810 -0.4919 -0.3726
 3643TIP3    H132344   0.110   5.458  -0.056  0.6663 -0.4521  0.0891
 3643TIP3    H232345   0.009   5.347  -0.044  0.8125 -0.7553 -1.3288
 3644TIP3   OH232346   5.926   0.343   5.266  0.1663  0.0268  0.0410
 3644TIP3    H132347   5.987   0.387   5.207 -0.7370  0.5956 -0.4945
 3644TIP3    H232348   5.851   0.402   5.272 -1.3952 -1.6940 -1.2510
 3645TIP3   OH232349   5.154   1.788  13.516  0.3867  0.2783  0.0494
 3645TIP3    H132350   5.147   1.830  13.431 -0.5605 -1.5396 -0.8245
 3645TIP3    H232351   5.248   1.783  13.534  0.5937  0.6093 -0.9221
 3646TIP3   OH232352   5.442   6.717  14.451 -0.4171 -0.4893 -0.5276
 3646TIP3    H132353   5.348   6.702  14.444 -0.4493 -0.5527  0.0237
 3646TIP3    H232354   5.464   6.692  14.540 -0.2633  1.5747  0.0815
 3647TIP3   OH232355   1.240   2.492  14.704 -0.2596 -0.4732 -0.5200
 3647TIP3    H132356   1.326   2.486  14.745 -1.0189 -0.0120  1.2190
 3647TIP3    H232357   1.217   2.585  14.709 -1.4289 -0.7824  0.3240
 3648TIP3   OH232358   2.363   3.723  15.023  0.2578  0.3198  0.3969
 3648TIP3    H132359   2.347   3.810  14.988 -2.3009  0.1225  0.9015
 3648TIP3    H232360   2.420   3.682  14.958  1.4166  2.2905  0.0893
 3649TIP3   OH232361   4.971   2.805   0.339  0.4104 -0.1655  0.0817
 3649TIP3    H132362   5.009   2.725   0.303 -0.8138 -1.3261  1.2448
 3649TIP3    H232363   4.976   2.794   0.434 -3.2230 -0.7169  0.3655
 3650TIP3   OH232364   1.775   2.336  13.949  0.4793 -0.4389 -0.2833
 3650TIP3    H132365   1.840   2.405  13.932 -1.3527  1.3085 -0.5515
 3650TIP3    H232366   1.763   2.337  14.044 -1.9950  2.1245 -0.4858
 3651TIP3   OH232367   4.110   0.746   2.221 -0.7632 -0.1110  0.1240
 3651TIP3    H132368   4.028   0.788   2.196 -1.5278 -0.8230  1.3072
 3651TIP3    H232369   4.152   0.722   2.139 -1.2708  1.1185 -0.5211
 3652TIP3   OH232370   0.083   0.976  15.635  0.0680 -0.0941 -0.0667
 3652TIP3    H132371   0.046   0.889  15.627 -1.8631  0.7083 -0.3672
 3652TIP3    H232372   0.137   0.972  15.714 -0.1793 -1.4807  0.0533
 3653TIP3   OH232373   0.529   3.537  12.349 -0.7787 -0.6041 -0.7284
 3653TIP3    H132374   0.526   3.587  12.268  0.4270 -0.0778 -0.4816
 3653TIP3    H232375   0.623   3.534  12.372 -1.1237 -0.2698  0.9038
 3654TIP3   OH232376   2.036   2.112   3.698  0.6376 -0.3117 -0.2107
 3654TIP3    H132377   2.091   2.179   3.739  0.4985  0.1257 -0.7263
 3654TIP3    H232378   2.077   2.029   3.722  0.1675 -0.1075  1.3764
 3655TIP3   OH232379   6.264   5.770   1.018  0.8592 -0.0342 -0.0430
 3655TIP3    H132380   6.326   5.759   1.090  0.4344 -1.6019  0.1296
 3655TIP3    H232381   6.269   5.687   0.970 -0.5836  0.0777 -0.4285
 3656TIP3   OH232382   2.899   5.600  11.956 -0.1103  0.1049  0.6964
 3656TIP3    H132383   2.830   5.547  11.917 -1.4861 -0.1549  3.2660
 3656TIP3    H232384   2.981   5.561  11.923 -1.1239 -0.3695 -1.4149
 3657TIP3   OH232385   6.795   1.974  15.685  0.2346  0.0705 -0.1030
 3657TIP3    H132386   6.730   1.978  15.756  1.0415  0.7062  0.6260
 3657TIP3    H232387   6.746   1.942  15.609 -0.9756  0.7144  0.3783
 3658TIP3   OH232388   5.700   4.696   5.026 -0.1931  0.3849 -0.2437
 3658TIP3    H132389   5.632   4.629   5.023 -0.4198  0.6327 -0.6508
 3658TIP3    H232390   5.755   4.679   4.950  0.6665 -0.2901  0.4993
 3659TIP3   OH232391   3.660   2.462   4.138  1.0178  0.0842 -0.7764
 3659TIP3    H132392   3.670   2.371   4.110 -0.9815 -0.1189 -1.0137
 3659TIP3    H232393   3.604   2.501   4.071  1.1524  1.2549 -0.2302
 3660TIP3   OH232394   0.696   4.127   0.903  0.1194  0.2515 -0.7234
 3660TIP3    H132395   0.666   4.048   0.948  0.7461 -0.7279 -1.9878
 3660TIP3    H232396   0.777   4.151   0.948  0.9880 -0.9842 -1.5671
 3661TIP3   OH232397   2.114   6.190   0.392  0.1732  0.1022 -0.1430
 3661TIP3    H132398   2.200   6.223   0.367 -0.2543  0.9295 -0.5572
 3661TIP3    H232399   2.100   6.113   0.336  0.4876  0.1800 -0.3283
 3662TIP3   OH232400   4.203   4.203   6.966  0.6322 -0.0597  0.5901
 3662TIP3    H132401   4.282   4.255   6.974 -0.3185  1.5432  0.1478
 3662TIP3    H232402   4.132   4.267   6.974 -0.5736 -0.8769 -2.2013
 3663TIP3   OH232403   6.075   3.807   1.072 -0.3042 -0.3739 -0.3409
 3663TIP3    H132404   6.158   3.759   1.082  0.7623  1.5394  0.7414
 3663TIP3    H232405   6.009   3.739   1.062  1.3981 -1.9801 -1.3574
 3664TIP3   OH232406   6.690   3.577  17.041  0.0718  0.3310  0.1185
 3664TIP3    H132407   6.680   3.482  17.039  0.6883  0.2423  0.8300
 3664TIP3    H232408   6.781   3.591  17.066  0.3669  1.1137 -1.2851
 3665TIP3   OH232409   2.676   5.877  16.424 -0.1475  0.0322 -0.0005
 3665TIP3    H132410   2.718   5.819  16.361 -0.5190 -1.9410  1.4474
 3665TIP3    H232411   2.714   5.963  16.407  2.2013 -1.0594 -0.7327
 3666TIP3   OH232412   2.835   3.780  14.712 -0.0795 -0.4190 -0.0040
 3666TIP3    H132413   2.745   3.781  14.679 -0.1390  0.3984  0.1719
 3666TIP3    H232414   2.845   3.863  14.758  0.6876 -0.6160  0.2013
 3667TIP3   OH232415   5.053   6.629   4.511 -0.1866  0.1985  0.0780
 3667TIP3    H132416   5.136   6.628   4.463 -0.2164  0.4073  0.0185
 3667TIP3    H232417   4.986   6.628   4.443 -0.3039 -2.6330  0.1153
 3668TIP3   OH232418   5.680   3.689   2.484 -0.3460  0.1917  0.1012
 3668TIP3    H132419   5.765   3.690   2.527  0.7182 -0.0071 -1.8914
 3668TIP3    H232420   5.624   3.638   2.543  0.7843  0.6161  1.6138
 3669TIP3   OH232421   4.395   5.184  12.925 -0.4603 -0.0839 -0.6153
 3669TIP3    H132422   4.490   5.187  12.924 -0.3548 -0.8967  1.6000
 3669TIP3    H232423   4.374   5.092  12.943 -1.6568  0.1547 -0.7198
 3670TIP3   OH232424   2.187   5.477  14.385  0.2952 -0.6423 -0.2620
 3670TIP3    H132425   2.232   5.498  14.304 -0.6050 -0.1459 -0.6498
 3670TIP3    H232426   2.224   5.538  14.449 -1.5516  1.5715 -1.1457
 3671TIP3   OH232427   3.584   5.613  16.700  0.2296 -0.0059  0.3012
 3671TIP3    H132428   3.638   5.548  16.745 -1.5823 -0.9616  1.2160
 3671TIP3    H232429   3.624   5.621  16.613  2.6594  0.4347  1.3558
 3672TIP3   OH232430   5.189   1.493  16.887 -0.2288  0.7819 -0.2248
 3672TIP3    H132431   5.274   1.451  16.872 -0.2042  0.8420 -0.2560
 3672TIP3    H232432   5.160   1.519  16.799 -0.2489  0.8214 -0.2063
 3673TIP3   OH232433   2.014   4.536   0.713 -0.1964  0.4540 -0.6645
 3673TIP3    H132434   2.009   4.611   0.772 -0.3398 -0.8302  1.0007
 3673TIP3    H232435   1.925   4.504   0.706 -0.0754  0.1944 -1.0749
 3674TIP3   OH232436   2.019   5.937  14.460  0.4631 -0.1786  0.2225
 3674TIP3    H132437   2.106   5.902  14.444  0.9300  0.5065  1.1535
 3674TIP3    H232438   1.992   5.898  14.543  0.5423  0.8074  0.7264
 3675TIP3   OH232439   5.404   4.187  12.162 -0.0761  0.1811  0.3244
 3675TIP3    H132440   5.368   4.112  12.211 -0.2011  0.7943  1.2036
 3675TIP3    H232441   5.391   4.261  12.221 -0.3629  0.9762 -0.7271
 3676TIP3   OH232442   6.573   0.570  14.116 -0.0149 -0.7211  0.1687
 3676TIP3    H132443   6.564   0.602  14.206  0.1153 -0.2562  0.0187
 3676TIP3    H232444   6.650   0.512  14.119  2.0450  1.7862 -0.2871
 3677TIP3   OH232445   2.532   2.989  16.703 -0.7146  0.2461  0.0365
 3677TIP3    H132446   2.476   2.973  16.627 -1.0133  1.4086 -0.0176
 3677TIP3    H232447   2.471   3.012  16.773 -0.3619  0.6506  0.2168
 3678TIP3   OH232448   4.065   6.032  15.500 -0.1120  0.2902 -0.0399
 3678TIP3    H132449   4.063   5.954  15.445 -2.1328  0.3308 -0.1185
 3678TIP3    H232450   4.153   6.068  15.488  0.2846 -1.0148 -1.3488
 3679TIP3   OH232451   3.605   1.271   5.782  0.1417 -0.2120 -0.1473
 3679TIP3    H132452   3.562   1.245   5.864 -0.7597  1.8468  0.0903
 3679TIP3    H232453   3.617   1.365   5.790  0.0816  0.0350 -2.3577
 3680TIP3   OH232454   0.371   3.701  11.826  0.7738  0.0135  0.0177
 3680TIP3    H132455   0.446   3.658  11.783 -0.6678 -1.2422 -1.3821
 3680TIP3    H232456   0.297   3.643  11.807 -0.9307  2.1798 -0.2811
 3681TIP3   OH232457   3.761   2.401  17.106  0.0935  0.2434  0.0101
 3681TIP3    H132458   3.751   2.307  17.117 -0.5241  0.3574  0.4789
 3681TIP3    H232459   3.743   2.437  17.193 -0.1089  0.8258 -0.2724
 3682TIP3   OH232460   4.841   3.429   5.796 -0.1237 -0.5864  0.2910
 3682TIP3    H132461   4.904   3.496   5.770 -1.6608  0.4700 -0.8709
 3682TIP3    H232462   4.814   3.454   5.884  0.4608 -0.5795  0.4724
 3683TIP3   OH232463   0.011   2.024   1.726 -0.1179  0.6542  0.0241
 3683TIP3    H132464   0.005   1.935   1.761  0.2494  0.5736 -0.1101
 3683TIP3    H232465   0.079   2.065   1.778  0.3549  0.5686 -0.5176
 3684TIP3   OH232466   1.021   3.611  13.363 -0.2925 -0.2191 -0.0071
 3684TIP3    H132467   1.081   3.542  13.393  0.9046  1.0106  0.5365
 3684TIP3    H232468   0.940   3.594  13.411  0.3778 -0.5541  1.0560
 3685TIP3   OH232469   4.006   3.178   2.942  0.3049  0.0485 -0.3354
 3685TIP3    H132470   4.092   3.175   2.985  0.9115 -1.4271 -1.5367
 3685TIP3    H232471   3.950   3.123   2.997 -0.0757  1.5055  0.7881
 3686TIP3   OH232472   1.326   1.026   2.051 -0.0019 -0.0860  0.0395
 3686TIP3    H132473   1.294   1.054   1.965 -0.9530  0.0065  0.4099
 3686TIP3    H232474   1.357   0.936   2.036 -0.4820 -0.1987 -0.3359
 3687TIP3   OH232475   3.394   2.170  15.752 -0.0090 -0.3146 -0.3304
 3687TIP3    H132476   3.347   2.100  15.797  0.5095 -0.9925 -0.8124
 3687TIP3    H232477   3.463   2.196  15.812 -0.9328  0.6378  0.3532
 3688TIP3   OH232478   5.173   3.415   2.517  0.0306 -0.0840  0.0010
 3688TIP3    H132479   5.098   3.379   2.564 -0.5978 -1.4927 -1.9591
 3688TIP3    H232480   5.138   3.492   2.471 -0.1103 -0.4867 -0.5684
 3689TIP3   OH232481   4.103   6.220  16.465 -0.0139  0.1900  0.0759
 3689TIP3    H132482   4.117   6.133  16.428  0.5568  0.7344 -1.0506
 3689TIP3    H232483   4.123   6.280  16.393  0.1981  1.2738  1.0091
 3690TIP3   OH232484   1.890   0.447  15.778 -0.6273  0.4634  0.0031
 3690TIP3    H132485   1.949   0.519  15.757  0.7556 -0.4252  0.6996
 3690TIP3    H232486   1.948   0.375  15.802 -1.9952 -0.6469  0.0735
 3691TIP3   OH232487   3.440   0.353   6.742 -0.1878 -0.5869 -0.1002
 3691TIP3    H132488   3.435   0.258   6.753  0.7036 -0.5976  0.3421
 3691TIP3    H232489   3.419   0.368   6.650  1.2506 -1.3724 -0.6004
 3692TIP3   OH232490   3.777   1.172  11.438 -0.3442  0.3385 -0.4428
 3692TIP3    H132491   3.830   1.149  11.362  0.3116 -2.4567  0.7062
 3692TIP3    H232492   3.690   1.190  11.402  0.3015  0.5601 -1.9627
 3693TIP3   OH232493   4.716   3.708  14.062 -0.5613 -0.3357  0.3434
 3693TIP3    H132494   4.680   3.790  14.094 -1.2039 -0.4561 -0.0601
 3693TIP3    H232495   4.788   3.735  14.004 -1.0985 -0.0347 -0.1941
 3694TIP3   OH232496   4.435   1.772  11.328  0.0612 -0.3191  0.7628
 3694TIP3    H132497   4.498   1.700  11.331  0.1261 -0.3612 -0.7735
 3694TIP3    H232498   4.370   1.744  11.264  0.0725  0.9764  0.1639
 3695TIP3   OH232499   0.833   5.195  13.587  0.7363 -0.7630 -0.6612
 3695TIP3    H132500   0.855   5.241  13.667  0.3892 -1.9263  0.1319
 3695TIP3    H232501   0.771   5.253  13.542  2.5469  0.8645 -1.1577
 3696TIP3   OH232502   5.537   5.980  16.946 -0.5531  0.4468  0.1259
 3696TIP3    H132503   5.470   5.930  16.901 -1.0413  2.0675 -1.0777
 3696TIP3    H232504   5.618   5.960  16.899 -0.7712  0.8804 -0.4426
 3697TIP3   OH232505   0.119   4.479   0.284  0.0399  0.6940 -0.0075
 3697TIP3    H132506   0.161   4.400   0.251  0.4402  0.4145  1.1245
 3697TIP3    H232507   0.069   4.449   0.361  1.6754  1.7971  1.5712
 3698TIP3   OH232508   2.512   1.378   4.462  0.1688  0.2145  0.2395
 3698TIP3    H132509   2.601   1.341   4.458  0.5362  1.1172 -0.5065
 3698TIP3    H232510   2.498   1.398   4.554  1.4452  1.6383  0.1702
 3699TIP3   OH232511   6.496   3.401   3.306 -0.0799 -0.3710  0.2749
 3699TIP3    H132512   6.503   3.365   3.218  0.4381 -0.2072  0.2462
 3699TIP3    H232513   6.454   3.332   3.357 -0.1248 -0.5731 -0.0356
 3700TIP3   OH232514   6.155   6.256  14.082  0.3872  0.1313  0.1383
 3700TIP3    H132515   6.187   6.341  14.110  0.2791  0.5131 -0.8622
 3700TIP3    H232516   6.121   6.215  14.162 -0.3282  1.3521  0.4804
 3701TIP3   OH232517   2.063   2.989  14.556  0.2365  0.3406  0.1164
 3701TIP3    H132518   2.111   2.924  14.607 -1.0501 -1.2952 -0.6464
 3701TIP3    H232519   2.053   2.949  14.470 -0.7513  1.4802 -0.3218
 3702TIP3   OH232520   2.371   5.258  16.645 -0.1385  0.3599  0.1109
 3702TIP3    H132521   2.327   5.179  16.612 -0.6775  1.3215 -1.6510
 3702TIP3    H232522   2.299   5.315  16.672  0.2872 -0.4970  3.4962
 3703TIP3   OH232523   6.155   4.646   2.262  0.1873  0.3663 -0.1662
 3703TIP3    H132524   6.072   4.615   2.225  1.1340 -0.7782 -1.4410
 3703TIP3    H232525   6.134   4.732   2.299 -1.1357  1.0422 -2.2893
 3704TIP3   OH232526   4.729   3.758   3.436  0.6960  0.0907  0.6609
 3704TIP3    H132527   4.732   3.703   3.357 -1.0580 -1.0572  1.3109
 3704TIP3    H232528   4.717   3.847   3.403 -0.9875 -0.4801 -0.3929
 3705TIP3   OH232529   3.137   3.050  14.486 -0.1527  0.0001 -0.4059
 3705TIP3    H132530   3.103   3.140  14.493  0.8774  0.3854 -0.2873
 3705TIP3    H232531   3.098   3.005  14.562  0.4975  0.7415  0.3937
 3706TIP3   OH232532   5.364   4.459   4.074  0.1377  0.0818  0.0627
 3706TIP3    H132533   5.339   4.450   4.166  1.3491 -0.3496  0.3665
 3706TIP3    H232534   5.446   4.410   4.066  0.3166  0.5354 -1.1314
 3707TIP3   OH232535   1.229   0.075   4.876  0.1758  0.2221 -0.6072
 3707TIP3    H132536   1.136   0.085   4.855  0.0244  2.3212  0.7575
 3707TIP3    H232537   1.230   0.023   4.957  0.2733 -0.5239 -1.0731
 3708TIP3   OH232538   5.394   5.286   3.749 -0.0537  0.1596  0.1103
 3708TIP3    H132539   5.358   5.236   3.822 -0.3798 -2.2360 -1.5703
 3708TIP3    H232540   5.488   5.267   3.751 -0.2253 -0.9012 -0.7336
 3709TIP3   OH232541   5.539   4.604  13.522  0.1547 -0.4194  0.5781
 3709TIP3    H132542   5.587   4.598  13.605 -0.7369  0.4518  1.1702
 3709TIP3    H232543   5.472   4.536  13.530  0.4863 -0.7871  0.2778
 3710TIP3   OH232544   2.210   0.602  16.076  0.3487  0.0170  0.1162
 3710TIP3    H132545   2.195   0.518  16.119 -1.1060  0.2806  0.1881
 3710TIP3    H232546   2.247   0.657  16.145 -2.4294  0.5886  1.3082
 3711TIP3   OH232547   0.173   2.253  15.409  0.0428 -0.5333  0.0295
 3711TIP3    H132548   0.224   2.190  15.359 -0.9346 -0.6772 -0.8247
 3711TIP3    H232549   0.142   2.316  15.344  3.1633  2.4798  1.1426
 3712TIP3   OH232550   6.564   2.713   2.713  0.0093 -0.0517 -0.3999
 3712TIP3    H132551   6.569   2.777   2.643 -0.1112 -0.4358 -0.7623
 3712TIP3    H232552   6.590   2.631   2.673 -0.0288 -0.2696  0.0120
 3713TIP3   OH232553   2.374   1.678  16.111  0.1875  0.4798 -0.4971
 3713TIP3    H132554   2.345   1.767  16.095  1.0810  0.4981 -2.2685
 3713TIP3    H232555   2.460   1.673  16.069  0.5076 -0.9789  0.2759
 3714TIP3   OH232556   2.977   3.263   1.205 -0.0848  0.2085 -0.9105
 3714TIP3    H132557   2.948   3.262   1.296  0.4562  0.6628 -0.7226
 3714TIP3    H232558   2.984   3.171   1.180  2.0898 -0.0220  0.2897
 3715TIP3   OH232559   3.614   3.945  15.060 -0.4878  0.7352 -0.0033
 3715TIP3    H132560   3.667   4.016  15.024 -2.1789  1.7032 -0.7001
 3715TIP3    H232561   3.662   3.865  15.036  0.5295  1.5510 -0.8073
 3716TIP3   OH232562   3.497   1.158   4.391  0.4715  0.0771  0.2107
 3716TIP3    H132563   3.429   1.175   4.325 -0.3788  0.0384  1.0534
 3716TIP3    H232564   3.450   1.116   4.463  1.4331 -0.1114  0.7345
 3717TIP3   OH232565   1.494   3.942   1.986  0.3832  0.0164 -0.0739
 3717TIP3    H132566   1.491   3.962   2.080 -0.2028 -1.0823  0.1501
 3717TIP3    H232567   1.512   4.027   1.945 -0.7848  0.7777  0.9251
 3718TIP3   OH232568   5.260   1.293   1.817  0.4011 -0.2647  0.2890
 3718TIP3    H132569   5.264   1.225   1.750  1.8164 -0.6527  0.7185
 3718TIP3    H232570   5.197   1.356   1.784  0.4417 -0.8694 -1.0025
 3719TIP3   OH232571   0.913   4.678  10.593  0.1611  0.0243  0.4561
 3719TIP3    H132572   0.926   4.753  10.650 -0.0547  1.5394 -1.3945
 3719TIP3    H232573   0.999   4.661  10.554  0.0706 -0.3046  0.3902
 3720TIP3   OH232574   4.813   3.425   3.887 -0.2625  0.0885 -0.0348
 3720TIP3    H132575   4.771   3.504   3.854 -1.1811 -0.5102 -0.3319
 3720TIP3    H232576   4.803   3.361   3.817 -0.6073 -0.6481  0.6641
 3721TIP3   OH232577   6.319   6.413   5.894  0.3656  0.2941  0.2129
 3721TIP3    H132578   6.411   6.425   5.870 -0.1605  0.6048 -1.8886
 3721TIP3    H232579   6.316   6.328   5.937  1.4561 -0.3497 -0.9127
 3722TIP3   OH232580   3.863   3.771   2.582  0.1774 -0.2406  0.7542
 3722TIP3    H132581   3.774   3.805   2.569  0.0334  0.3435  2.9362
 3722TIP3    H232582   3.885   3.795   2.672  3.4276  1.6803 -0.3619
 3723TIP3   OH232583   3.242   1.440   6.050  0.3228 -0.2247  0.8883
 3723TIP3    H132584   3.277   1.440   6.139  0.5776  0.0904  0.7888
 3723TIP3    H232585   3.147   1.441   6.063  0.3564  0.1809  1.1644
 3724TIP3   OH232586   6.759   4.489   0.723  0.2215 -0.0414  0.1449
 3724TIP3    H132587   6.843   4.510   0.762 -1.0148  3.3112  1.3022
 3724TIP3    H232588   6.760   4.534   0.638  0.2827 -1.6296 -0.7373
 3725TIP3   OH232589   0.837   6.088  15.361  0.3381  0.5289 -0.1037
 3725TIP3    H132590   0.893   6.021  15.323 -0.8157  0.0028 -0.9550
 3725TIP3    H232591   0.818   6.147  15.287  0.9817  1.5694  0.5297
 3726TIP3   OH232592   5.314   6.081  15.963 -0.7939  0.1106  0.1185
 3726TIP3    H132593   5.391   6.037  15.928 -1.1986  1.3742 -2.6259
 3726TIP3    H232594   5.293   6.148  15.898 -3.6721  0.4280  1.2241
 3727TIP3   OH232595   2.591   4.815  12.313 -0.7201  0.6639 -0.2031
 3727TIP3    H132596   2.559   4.898  12.347 -0.2167  0.2034  1.4847
 3727TIP3    H232597   2.684   4.814  12.334 -1.0340 -1.0326  1.4211
 3728TIP3   OH232598   4.976   6.698  12.058 -0.1026 -0.0920  0.0456
 3728TIP3    H132599   4.977   6.602  12.053 -0.0308 -0.0597 -0.6595
 3728TIP3    H232600   5.020   6.718  12.140 -1.7016 -0.7155  1.1175
 3729TIP3   OH232601   1.816   2.555  12.688  0.0881  0.2214 -0.1699
 3729TIP3    H132602   1.757   2.482  12.705 -1.7868  1.8952  1.1117
 3729TIP3    H232603   1.812   2.608  12.768  1.6257  1.5653 -0.9153
 3730TIP3   OH232604   3.295   5.530   4.583 -0.2023 -0.2691 -0.0441
 3730TIP3    H132605   3.325   5.511   4.671 -0.4997  1.0955  0.3780
 3730TIP3    H232606   3.237   5.606   4.593 -0.2679 -0.1073 -1.4039
 3731TIP3   OH232607   4.333   4.052   5.189  0.5623  0.0021  0.4335
 3731TIP3    H132608   4.275   3.992   5.142 -1.8613  2.0646  0.5770
 3731TIP3    H232609   4.333   4.132   5.135  0.7351  1.1116  2.0101
 3732TIP3   OH232610   1.675   0.198   1.316  0.1778 -0.2621 -0.1029
 3732TIP3    H132611   1.676   0.216   1.222 -1.6040  1.6315  0.1630
 3732TIP3    H232612   1.707   0.278   1.356 -1.5438 -0.0535  0.9524
 3733TIP3   OH232613   0.764   3.774  12.286 -0.3960  0.0435 -0.0114
 3733TIP3    H132614   0.805   3.763  12.200 -0.3486  2.3942 -0.3617
 3733TIP3    H232615   0.836   3.793  12.345 -0.5536 -0.3418  0.3074
 3734TIP3   OH232616   2.860   5.504   2.780 -0.1460 -0.9274 -0.1261
 3734TIP3    H132617   2.890   5.435   2.840 -0.9421 -3.3890 -2.3593
 3734TIP3    H232618   2.818   5.568   2.837  1.0643 -1.9970  2.1323
 3735TIP3   OH232619   4.248   6.578   5.024  0.0123 -0.0174 -0.4194
 3735TIP3    H132620   4.307   6.592   5.097  0.8402 -1.1521 -0.8336
 3735TIP3    H232621   4.279   6.637   4.955 -0.3273  0.5339 -0.1025
 3736TIP3   OH232622   1.662   3.981   3.550 -0.1517 -0.5515 -0.0723
 3736TIP3    H132623   1.613   3.985   3.632  0.9905 -1.2390  0.6722
 3736TIP3    H232624   1.700   4.068   3.539 -0.8600 -0.2602 -0.2325
 3737TIP3   OH232625   2.904   1.797  15.519 -0.1855 -0.6813 -0.5859
 3737TIP3    H132626   2.953   1.752  15.451  0.3965  0.5051 -0.9779
 3737TIP3    H232627   2.879   1.728  15.581  1.1851 -1.4471 -0.8502
 3738TIP3   OH232628   3.725   6.039   5.492  0.1728 -0.0951 -0.2327
 3738TIP3    H132629   3.654   6.069   5.548 -0.5188  1.3727 -1.7992
 3738TIP3    H232630   3.756   5.959   5.534 -2.0131 -0.4799  0.8117
 3739TIP3   OH232631   5.686   5.376   4.640  0.4976 -0.1076 -0.3148
 3739TIP3    H132632   5.701   5.286   4.609  1.6567  0.1147 -0.4406
 3739TIP3    H232633   5.759   5.426   4.604 -0.5183  1.0386 -0.8263
 3740TIP3   OH232634   0.054   2.737   3.524 -0.1517 -0.7668 -0.0811
 3740TIP3    H132635   0.143   2.705   3.533  0.4445  0.1943 -2.0027
 3740TIP3    H232636   0.033   2.725   3.432 -1.2754  0.8116 -0.0815
 3741TIP3   OH232637   6.581   3.967   3.633 -0.1884  0.4945  0.0326
 3741TIP3    H132638   6.635   3.919   3.570 -0.8371 -0.8687  0.4705
 3741TIP3    H232639   6.525   4.023   3.580 -1.8640 -1.8103 -0.7758
 3742TIP3   OH232640   3.391   5.710   5.607  0.8577 -0.1868 -0.2439
 3742TIP3    H132641   3.400   5.622   5.643 -0.7073 -0.5564 -0.6445
 3742TIP3    H232642   3.476   5.731   5.569  1.5743 -1.0647  0.8564
 3743TIP3   OH232643   6.484   0.368  11.081 -0.2081 -0.1318  0.4348
 3743TIP3    H132644   6.511   0.458  11.102  0.1315  0.1342 -1.0644
 3743TIP3    H232645   6.502   0.358  10.988 -1.0338 -1.4913  0.3915
 3744TIP3   OH232646   6.305   0.674   2.011 -0.9921 -0.3908  0.1949
 3744TIP3    H132647   6.246   0.662   2.085  0.5056 -1.6782  1.2581
 3744TIP3    H232648   6.264   0.627   1.939  0.0287 -3.9648  1.7127
 3745TIP3   OH232649   6.808   6.386  13.365 -0.3856 -0.3603 -0.7976
 3745TIP3    H132650   6.715   6.363  13.355 -0.8432  1.6389 -1.5723
 3745TIP3    H232651   6.819   6.464  13.311  2.0591 -1.2304 -1.6903
 3746TIP3   OH232652   5.780   6.390   3.846  0.7340 -0.9935 -0.1097
 3746TIP3    H132653   5.842   6.360   3.912  0.5502  1.5249  1.3256
 3746TIP3    H232654   5.696   6.351   3.871  1.0660 -1.7078 -0.0964
 3747TIP3   OH232655   4.655   6.734  15.163 -0.0805 -0.4045 -0.3826
 3747TIP3    H132656   4.574   6.694  15.132  0.3528 -1.3267 -0.3592
 3747TIP3    H232657   4.702   6.757  15.082  0.1343 -0.9275 -0.4146
 3748TIP3   OH232658   1.533   2.365  13.375  0.0743  0.3386 -0.6576
 3748TIP3    H132659   1.545   2.456  13.403  0.1410 -0.0618  0.7037
 3748TIP3    H232660   1.606   2.349  13.315  0.1115  1.1498 -0.8451
 3749TIP3   OH232661   4.765   5.462   0.882 -0.2421  0.1975  0.2044
 3749TIP3    H132662   4.800   5.386   0.929 -0.2073  0.6622  0.9391
 3749TIP3    H232663   4.693   5.493   0.937 -0.6866  0.3004 -0.4259
 3750TIP3   OH232664   4.304   5.373   3.824  0.0025 -0.3509  0.4678
 3750TIP3    H132665   4.376   5.322   3.788 -1.4233 -3.2867  1.4239
 3750TIP3    H232666   4.259   5.409   3.748  1.1733 -0.3808 -0.2507
 3751TIP3   OH232667   5.316   4.466  11.472  0.8042  0.2933 -0.0319
 3751TIP3    H132668   5.275   4.502  11.393 -1.2657 -0.3663  0.6898
 3751TIP3    H232669   5.261   4.392  11.496  3.0054 -1.2817  0.4732
 3752TIP3   OH232670   6.742   1.530  11.324 -0.6769 -0.2625  0.3963
 3752TIP3    H132671   6.730   1.484  11.241 -1.2263  0.9110 -0.2022
 3752TIP3    H232672   6.655   1.529  11.364 -0.5078 -0.4601  0.7578
 3753TIP3   OH232673   4.046   2.159   1.188 -0.2893 -0.3715  0.1677
 3753TIP3    H132674   4.117   2.152   1.124  0.6047  1.3525  0.9137
 3753TIP3    H232675   4.056   2.082   1.244  0.1333 -0.8601 -0.5629
 3754TIP3   OH232676   3.779   2.604   5.587  0.1089 -0.4880 -0.6553
 3754TIP3    H132677   3.714   2.592   5.518  0.8285 -0.9774 -1.2669
 3754TIP3    H232678   3.818   2.689   5.569  0.2414 -0.5803 -0.8017
 3755TIP3   OH232679   3.184   3.978  17.091 -0.0807 -0.1561 -0.2313
 3755TIP3    H132680   3.262   4.032  17.099 -1.2454  1.5342  0.2490
 3755TIP3    H232681   3.189   3.916  17.164 -0.1479  1.2332  0.9880
 3756TIP3   OH232682   4.801   2.735  11.949  0.5678  0.2765  0.1202
 3756TIP3    H132683   4.722   2.784  11.925  1.3784  2.0824  0.9352
 3756TIP3    H232684   4.768   2.656  11.992 -0.8025  0.9552  0.3930
 3757TIP3   OH232685   6.630   1.235   4.671 -0.4879 -0.8607  0.0061
 3757TIP3    H132686   6.624   1.141   4.651  0.1337 -0.9374  0.1748
 3757TIP3    H232687   6.674   1.239   4.756  2.8605 -0.2999 -1.6091
 3758TIP3   OH232688   2.402   0.593  11.777 -0.0838 -0.2697 -0.0899
 3758TIP3    H132689   2.439   0.680  11.760 -1.4774  0.1151 -1.4217
 3758TIP3    H232690   2.308   0.609  11.786 -0.1417 -1.3794  1.8558
 3759TIP3   OH232691   2.386   3.434  12.985  0.1065  0.2830 -0.8481
 3759TIP3    H132692   2.410   3.506  12.927  2.0812 -0.0589 -0.5220
 3759TIP3    H232693   2.321   3.471  13.044 -0.3209  1.2417 -1.8828
 3760TIP3   OH232694   4.138   6.280  11.500  0.3096  0.5353  0.3411
 3760TIP3    H132695   4.090   6.359  11.473  0.1580  0.3369  0.0289
 3760TIP3    H232696   4.128   6.278  11.595  0.3676  0.9274  0.3601
 3761TIP3   OH232697   4.968   5.864   0.781  0.0588  0.2727  0.3489
 3761TIP3    H132698   4.939   5.905   0.699  3.8805  1.4404 -0.6211
 3761TIP3    H232699   4.955   5.932   0.847  2.6828  1.7808 -0.5458
 3762TIP3   OH232700   6.006   0.056  15.642 -0.1015  0.0389  0.2079
 3762TIP3    H132701   6.072   0.125  15.637 -1.9674  1.9288  0.1170
 3762TIP3    H232702   5.922   0.103  15.641 -1.4972 -2.2952 -0.8362
 3763TIP3   OH232703   3.156   6.127   5.473 -0.2435 -0.2326  0.5512
 3763TIP3    H132704   3.200   6.080   5.543 -0.6246 -1.0488  0.2606
 3763TIP3    H232705   3.221   6.189   5.440  0.4338 -0.8790  0.6395
 3764TIP3   OH232706   1.333   2.352  13.641  0.2546  0.2553  0.4288
 3764TIP3    H132707   1.351   2.289  13.571  0.7877 -0.1858  0.9501
 3764TIP3    H232708   1.414   2.355  13.691 -0.9240 -1.4519  2.6078
 3765TIP3   OH232709   5.621   1.298   1.687  0.4098 -0.2081 -0.1334
 3765TIP3    H132710   5.567   1.224   1.660 -0.9982  1.1061 -1.0609
 3765TIP3    H232711   5.621   1.357   1.612 -0.0666  1.5860  1.2053
 3766TIP3   OH232712   0.964   4.830   3.834 -0.7232 -0.7421 -0.1054
 3766TIP3    H132713   1.004   4.911   3.864 -1.5438 -0.2900 -0.2081
 3766TIP3    H232714   1.020   4.761   3.869 -0.8636 -0.1821  1.2638
 3767TIP3   OH232715   6.631   3.411   1.503 -0.7424  0.4592  1.0376
 3767TIP3    H132716   6.581   3.427   1.583 -1.4807 -1.1363  0.9230
 3767TIP3    H232717   6.683   3.333   1.522  1.1778  1.6252  0.8812
 3768TIP3   OH232718   2.416   3.332   1.765  0.1891  0.2154 -0.0548
 3768TIP3    H132719   2.474   3.272   1.719 -0.0628  1.1278 -1.6410
 3768TIP3    H232720   2.328   3.308   1.736  0.0567  1.0898 -0.4147
 3769TIP3   OH232721   0.683   2.523  10.973 -0.3193  0.1250  0.2606
 3769TIP3    H132722   0.729   2.449  11.013  0.1146 -0.9601 -2.0925
 3769TIP3    H232723   0.592   2.494  10.968 -0.4708  0.4722  0.8830
 3770TIP3   OH232724   4.698   3.923  17.113  0.7331  0.3305  0.7809
 3770TIP3    H132725   4.658   4.004  17.082 -0.6669 -0.2068  1.1228
 3770TIP3    H232726   4.625   3.864  17.128  1.7866 -2.1598 -2.5461
 3771TIP3   OH232727   3.042   0.745   4.111 -0.1735 -0.0278  1.2174
 3771TIP3    H132728   2.981   0.814   4.085 -0.5484  0.0974  2.3879
 3771TIP3    H232729   2.991   0.665   4.107 -0.0479 -0.0964  0.9447
 3772TIP3   OH232730   0.697   6.154  12.005  0.2516  0.3734  0.1581
 3772TIP3    H132731   0.671   6.197  11.924  0.2044 -0.3587 -0.2252
 3772TIP3    H232732   0.757   6.216  12.047  0.5159  0.6284 -0.5844
 3773TIP3   OH232733   0.494   5.243  17.127 -0.6964  0.3369  0.3037
 3773TIP3    H132734   0.499   5.171  17.189  2.4489  0.3572  0.2362
 3773TIP3    H232735   0.502   5.202  17.041  2.4400  0.6933  0.3071
 3774TIP3   OH232736   1.656   2.649   1.122 -0.4250  0.0455 -0.3718
 3774TIP3    H132737   1.608   2.653   1.205  1.1081 -2.0065  0.6897
 3774TIP3    H232738   1.640   2.561   1.089  0.5365  0.1985 -1.2935
 3775TIP3   OH232739   2.724   1.464   1.713  0.2077 -0.0256  0.1976
 3775TIP3    H132740   2.713   1.393   1.777  1.3931  1.3571  2.0653
 3775TIP3    H232741   2.641   1.512   1.716  0.6913  0.8194  1.8293
 3776TIP3   OH232742   1.109   0.773   4.526  0.1578  0.0826  0.5133
 3776TIP3    H132743   1.171   0.837   4.492  1.4716 -1.8218 -0.8452
 3776TIP3    H232744   1.149   0.742   4.607 -0.2040  0.5147  0.8695
 3777TIP3   OH232745   3.804   6.233   2.719 -0.7052 -0.0566 -0.2478
 3777TIP3    H132746   3.737   6.240   2.787 -0.4488 -0.0186  0.0080
 3777TIP3    H232747   3.780   6.298   2.654  0.2417  1.4731  0.8656
 3778TIP3   OH232748   0.532   4.090  14.836 -0.2682  0.2272  0.1830
 3778TIP3    H132749   0.604   4.037  14.869 -0.2249  0.5834  0.6760
 3778TIP3    H232750   0.457   4.030  14.831  0.5481 -0.6917 -2.3637
 3779TIP3   OH232751   6.317   6.663  14.157 -0.1570  0.2962  0.3051
 3779TIP3    H132752   6.338   6.574  14.129 -1.3261  0.0496  0.1885
 3779TIP3    H232753   6.290   6.654  14.249 -2.3646  0.1741 -0.2920
 3780TIP3   OH232754   6.236   0.690   3.957  0.1225  0.2384 -0.2540
 3780TIP3    H132755   6.292   0.675   3.880  0.3649  0.6942 -0.1680
 3780TIP3    H232756   6.184   0.610   3.964 -0.6832  0.6205 -1.5395
 3781TIP3   OH232757   3.889   5.578  14.372  0.0020 -0.4792  0.7931
 3781TIP3    H132758   3.859   5.487  14.367 -1.2284 -0.0797  0.5319
 3781TIP3    H232759   3.813   5.630  14.346  0.8150  0.6166  0.5191
 3782TIP3   OH232760   3.655   4.460   2.984 -0.3768 -0.1987  0.0141
 3782TIP3    H132761   3.731   4.441   2.930  0.2410 -0.9452  1.1189
 3782TIP3    H232762   3.667   4.551   3.012  0.5738 -0.5769  0.8885
 3783TIP3   OH232763   1.111   1.141  15.796  0.1952 -0.2336 -0.1635
 3783TIP3    H132764   1.033   1.161  15.847 -0.1709 -1.2443 -0.2912
 3783TIP3    H232765   1.163   1.221  15.797 -0.3232  0.1010  0.8643
 3784TIP3   OH232766   4.402   4.228   5.479 -0.4326 -0.7181 -0.3109
 3784TIP3    H132767   4.439   4.316   5.488  0.3504 -0.9324 -1.2418
 3784TIP3    H232768   4.474   4.169   5.502 -0.4056 -1.1313 -1.3726
 3785TIP3   OH232769   3.639   4.271  13.043  0.0089  0.0741  0.0340
 3785TIP3    H132770   3.729   4.239  13.056  0.5925  1.0944 -1.2396
 3785TIP3    H232771   3.629   4.340  13.109  0.5992  0.7486 -0.5612
 3786TIP3   OH232772   4.618   0.535  15.784 -0.6048  0.2286 -0.1837
 3786TIP3    H132773   4.633   0.628  15.767  0.5152  0.1063  0.0614
 3786TIP3    H232774   4.603   0.530  15.878  0.1541  0.0715 -0.0648
 3787TIP3   OH232775   6.351   6.051  17.198 -0.0105  0.1147  0.5777
 3787TIP3    H132776   6.341   5.994  17.121 -0.1423  0.7819  0.0958
 3787TIP3    H232777   6.287   6.018  17.260 -0.5409  0.1472  0.0561
 3788TIP3   OH232778   0.250   1.199   3.997  0.5848  0.0310  0.1552
 3788TIP3    H132779   0.180   1.214   3.932  1.8679  0.8870 -1.0909
 3788TIP3    H232780   0.233   1.263   4.066 -0.3700 -0.3842  0.3239
 3789TIP3   OH232781   6.760   6.400  15.175 -0.2484 -0.6661  0.0090
 3789TIP3    H132782   6.834   6.460  15.174  0.1536 -1.0796  1.8328
 3789TIP3    H232783   6.799   6.313  15.171 -0.5366 -0.9195  1.8429
 3790TIP3   OH232784   0.125   6.575   3.224 -0.9647 -0.1855 -0.4717
 3790TIP3    H132785   0.050   6.518   3.211  0.3549 -1.6725 -2.1170
 3790TIP3    H232786   0.153   6.599   3.136  1.6815 -1.3570 -0.0509
 3791TIP3   OH232787   4.721   3.950  11.753  0.0623  0.0047  0.2740
 3791TIP3    H132788   4.654   3.953  11.821 -1.7960  1.7691 -1.4945
 3791TIP3    H232789   4.794   4.000  11.788 -1.0091  1.2014  0.8530
 3792TIP3   OH232790   5.894   0.172  15.328 -0.0395  0.5409  0.5002
 3792TIP3    H132791   5.978   0.169  15.374  0.4607  1.8633 -0.2741
 3792TIP3    H232792   5.829   0.181  15.398  0.6780  2.1268  1.0028
 3793TIP3   OH232793   3.175   5.267  14.159 -0.6107 -0.1587  0.7972
 3793TIP3    H132794   3.091   5.239  14.124  0.0253 -0.4441 -0.6112
 3793TIP3    H232795   3.163   5.360  14.180 -1.2928 -0.2115  0.6514
 3794TIP3   OH232796   4.948   6.201  14.956  0.2976  0.1754  0.1590
 3794TIP3    H132797   4.997   6.235  14.881 -3.0388 -1.5474 -3.1331
 3794TIP3    H232798   4.921   6.280  15.003  2.2669  1.3519 -0.5086
 3795TIP3   OH232799   1.865   4.203  15.018  0.5608 -0.1089  0.1528
 3795TIP3    H132800   1.887   4.268  14.951  0.9851  0.2387  0.6172
 3795TIP3    H232801   1.950   4.170  15.047  0.3384 -1.2931 -0.4684
 3796TIP3   OH232802   6.747   6.295  13.751 -0.2201  0.2745  0.1685
 3796TIP3    H132803   6.685   6.256  13.812 -0.3822 -0.7903 -0.6578
 3796TIP3    H232804   6.706   6.377  13.724 -1.3783 -0.5202 -0.5365
 3797TIP3   OH232805   0.443   5.613   2.300  0.0773  0.2600  0.0578
 3797TIP3    H132806   0.459   5.660   2.218 -1.6689  0.3136 -0.2808
 3797TIP3    H232807   0.395   5.676   2.354  1.7270  0.4481  1.4057
 3798TIP3   OH232808   6.461   1.219   2.871 -0.6879 -0.6844 -0.8311
 3798TIP3    H132809   6.491   1.166   2.797  0.9370 -0.8823 -0.0625
 3798TIP3    H232810   6.486   1.308   2.848 -0.9389 -0.6295 -0.8922
 3799TIP3   OH232811   5.853   1.257  14.305  0.2045  0.0823 -0.6049
 3799TIP3    H132812   5.931   1.263  14.250  0.7270 -0.2493  0.0804
 3799TIP3    H232813   5.868   1.323  14.373 -0.3537  0.3692 -0.7545
 3800TIP3   OH232814   3.254   0.545   2.597 -0.3824 -0.6367 -0.2222
 3800TIP3    H132815   3.223   0.497   2.521 -1.3324  1.4136 -1.2212
 3800TIP3    H232816   3.349   0.551   2.586 -0.4787 -0.6543 -1.0840
 3801TIP3   OH232817   6.083   5.071   4.856 -0.4251 -0.0822 -0.6906
 3801TIP3    H132818   6.081   5.055   4.762 -0.0472  0.0780 -0.7275
 3801TIP3    H232819   6.155   5.017   4.888  0.6025  1.2140 -0.7561
 3802TIP3   OH232820   0.877   4.134   2.297  0.2539 -0.2762 -0.2934
 3802TIP3    H132821   0.915   4.209   2.252  1.0896 -1.0438 -0.9144
 3802TIP3    H232822   0.904   4.145   2.389  0.3421  0.1907 -0.3713
 3803TIP3   OH232823   6.082   2.317  11.582  0.5400 -0.2736  0.2097
 3803TIP3    H132824   6.122   2.247  11.634 -0.4690 -0.5793  0.6167
 3803TIP3    H232825   5.992   2.321  11.614 -0.8256 -1.9528 -2.9291
 3804TIP3   OH232826   1.350   2.693  12.506 -0.4359  0.8002  0.5724
 3804TIP3    H132827   1.415   2.625  12.521  0.5023  2.2195  3.7530
 3804TIP3    H232828   1.266   2.648  12.517  0.1703  0.2044  3.3642
 3805TIP3   OH232829   2.145   6.613  11.508 -0.1267 -0.4827 -0.1380
 3805TIP3    H132830   2.150   6.558  11.586 -0.3363 -1.4431 -0.7890
 3805TIP3    H232831   2.186   6.696  11.535 -1.4405 -0.2848  1.4037
 3806TIP3   OH232832   4.848   1.047  13.588  0.3197 -0.4641 -0.0006
 3806TIP3    H132833   4.900   1.061  13.509 -1.2847  0.9476 -0.8661
 3806TIP3    H232834   4.881   1.111  13.650  0.8434 -0.8422  0.1251
 3807TIP3   OH232835   4.170   5.007   0.836 -0.2112  0.0614  0.6445
 3807TIP3    H132836   4.082   5.017   0.799 -0.4483  2.4728  1.6949
 3807TIP3    H232837   4.194   5.094   0.866  2.9197 -0.3418 -0.3106
 3808TIP3   OH232838   4.485   0.329  12.005  0.8923 -0.2064 -0.9165
 3808TIP3    H132839   4.569   0.348  11.963  1.0217 -0.0973 -0.6099
 3808TIP3    H232840   4.485   0.234  12.018  0.5586 -0.3389 -1.7818
 3809TIP3   OH232841   1.682   1.601   4.557 -0.8189  0.2888  0.0064
 3809TIP3    H132842   1.643   1.563   4.478 -0.4595 -1.3372  0.5657
 3809TIP3    H232843   1.760   1.547   4.573 -0.2782  1.2945  0.8502
 3810TIP3   OH232844   2.078   5.012  16.922  0.4033  0.2642 -0.4671
 3810TIP3    H132845   2.173   5.004  16.922  0.3335 -0.7809  0.2777
 3810TIP3    H232846   2.046   4.928  16.890 -0.2884 -0.1619  1.2358
 3811TIP3   OH232847   2.924   5.249  12.174 -0.3092 -0.0909 -0.8614
 3811TIP3    H132848   3.003   5.198  12.192 -1.3258 -1.3544  0.2465
 3811TIP3    H232849   2.855   5.204  12.222 -2.0296  0.0771 -2.9978
 3812TIP3   OH232850   0.062   4.186  13.490  0.0324 -0.1014  0.1637
 3812TIP3    H132851  -0.031   4.174  13.507  0.2501 -0.2067  1.3491
 3812TIP3    H232852   0.083   4.118  13.425 -0.1105 -2.1128  2.1081
 3813TIP3   OH232853   6.689   6.334   0.627 -0.8065 -0.0949  0.1611
 3813TIP3    H132854   6.609   6.352   0.578 -1.2249 -0.0912  0.8335
 3813TIP3    H232855   6.660   6.326   0.718 -0.4421 -2.5554  0.1261
 3814TIP3   OH232856   4.892   2.050  15.153 -0.3206 -0.2643 -1.2268
 3814TIP3    H132857   4.961   2.008  15.101  0.2855 -0.0593 -0.6110
 3814TIP3    H232858   4.844   2.104  15.091 -1.0598 -1.7660 -2.0249
 3815TIP3   OH232859   3.609   2.585  14.506  0.4329 -0.1358 -0.0680
 3815TIP3    H132860   3.611   2.529  14.583  1.0183 -1.2670 -0.8868
 3815TIP3    H232861   3.549   2.541  14.445 -0.3862  0.9816 -0.1049
 3816TIP3   OH232862   6.595   4.935  10.524  0.1417 -0.4766  0.2854
 3816TIP3    H132863   6.509   4.920  10.485  0.9940 -0.7003 -1.6487
 3816TIP3    H232864   6.609   5.029  10.518  0.0189 -0.4359  0.6310
 3817TIP3   OH232865   1.564   1.297  11.759 -0.5057 -0.9657  0.3498
 3817TIP3    H132866   1.603   1.288  11.672 -1.0080  0.2574 -0.0167
 3817TIP3    H232867   1.548   1.390  11.769 -1.3697 -1.2016  1.3583
 3818TIP3   OH232868   3.020   1.661   5.410 -0.2974  0.5362 -0.1151
 3818TIP3    H132869   3.031   1.590   5.346 -0.4723  1.2972 -1.0125
 3818TIP3    H232870   3.098   1.658   5.464  1.8882  2.4030 -2.9027
 3819TIP3   OH232871   6.536   6.600   3.718  0.0274  0.5528 -0.9602
 3819TIP3    H132872   6.497   6.513   3.708 -0.5020  0.7176 -0.3977
 3819TIP3    H232873   6.628   6.588   3.696  0.0009 -0.1891 -0.6864
 3820TIP3   OH232874   3.929   1.565  12.098 -0.1932 -0.2133 -0.0904
 3820TIP3    H132875   3.885   1.551  12.014  1.1194  2.4302 -1.3560
 3820TIP3    H232876   3.946   1.660  12.100  1.3055 -0.4599  2.4022
 3821TIP3   OH232877   3.087   4.586  12.307  0.3095  0.0612 -0.1922
 3821TIP3    H132878   3.066   4.496  12.281 -1.4677  0.0915  0.9633
 3821TIP3    H232879   3.102   4.632  12.224  0.1457 -1.0464 -0.8546
 3822TIP3   OH232880   6.261   4.514   1.219  0.2927 -0.2525  0.2432
 3822TIP3    H132881   6.245   4.463   1.299  0.6985 -0.4517  0.1975
 3822TIP3    H232882   6.271   4.448   1.151 -0.0626 -0.0816  0.0223
 3823TIP3   OH232883   3.872   0.178   0.302 -0.4394  0.2556 -0.1825
 3823TIP3    H132884   3.873   0.101   0.359  0.5172  0.6161  0.3158
 3823TIP3    H232885   3.876   0.252   0.362  0.2139  0.6508 -0.6997
 3824TIP3   OH232886   4.194   6.557   2.047 -0.2259 -0.2431 -0.1066
 3824TIP3    H132887   4.170   6.465   2.057 -0.8797 -0.1861 -1.0375
 3824TIP3    H232888   4.208   6.569   1.953 -0.1115  0.5998  0.0067
 3825TIP3   OH232889   1.059   0.421   1.322 -0.1736 -0.7527  0.0911
 3825TIP3    H132890   1.041   0.505   1.364 -1.5039 -0.0553 -1.7412
 3825TIP3    H232891   0.972   0.385   1.305  0.3601 -1.5651 -0.9597
 3826TIP3   OH232892   2.056   6.346   2.670 -0.1945  0.2254 -1.2395
 3826TIP3    H132893   2.044   6.378   2.580 -0.3362 -1.0333 -1.6941
 3826TIP3    H232894   2.151   6.344   2.682 -0.1639  0.0534 -1.5002
 3827TIP3   OH232895   2.693   6.237   1.389 -0.4601  0.0543 -0.2242
 3827TIP3    H132896   2.676   6.222   1.296  1.0006 -2.6806 -0.1363
 3827TIP3    H232897   2.781   6.204   1.403 -0.7184  0.2294  2.1891
 3828TIP3   OH232898   2.998   5.530  17.023  0.0789 -0.1650 -0.1103
 3828TIP3    H132899   3.037   5.608  16.985  0.7980  0.3311  1.5613
 3828TIP3    H232900   2.907   5.531  16.992  0.8476 -0.3049 -2.5072
 3829TIP3   OH232901   0.585   2.754   1.617  0.2094  0.4214  0.3474
 3829TIP3    H132902   0.625   2.826   1.568 -0.9031  0.4770 -0.5244
 3829TIP3    H232903   0.648   2.734   1.686  2.0249  0.1179 -1.2862
 3830TIP3   OH232904   3.620   1.289  17.049  0.1614  0.1746 -0.3134
 3830TIP3    H132905   3.562   1.352  17.093  1.3795  0.4565  0.9547
 3830TIP3    H232906   3.641   1.224  17.116 -0.2141 -0.9996 -1.3090
 3831TIP3   OH232907   3.029   6.704   2.831 -0.2250  0.0922  0.1164
 3831TIP3    H132908   3.026   6.764   2.906 -6.6707  0.1025  0.4088
 3831TIP3    H232909   3.020   6.617   2.869 -1.9847 -0.0109 -0.4103
 3832TIP3   OH232910   6.567   0.847   6.125  0.1514 -0.3952 -0.6751
 3832TIP3    H132911   6.587   0.939   6.141  0.4180 -0.7212  1.0463
 3832TIP3    H232912   6.483   0.833   6.168  0.2670 -1.0371 -0.6504
 3833TIP3   OH232913   0.288   0.988  14.582  0.2179  0.1691 -0.3700
 3833TIP3    H132914   0.298   0.914  14.522 -3.3897  0.0387 -1.0542
 3833TIP3    H232915   0.252   1.058  14.528 -1.5789  0.5830  1.2578
 3834TIP3   OH232916   3.133   5.430   6.200 -0.2518  0.4680 -0.1023
 3834TIP3    H132917   3.122   5.355   6.141 -0.4197  0.4917 -0.1039
 3834TIP3    H232918   3.085   5.405   6.279 -1.3844  1.0784 -0.5663
 3835TIP3   OH232919   1.827   0.550   5.915  0.0533  0.8329 -0.2788
 3835TIP3    H132920   1.794   0.554   6.004 -0.0696 -1.4899 -0.1550
 3835TIP3    H232921   1.806   0.635   5.877 -2.1289  0.9938  1.1386
 3836TIP3   OH232922   4.307   4.582  14.386 -0.1371 -0.1792  0.2101
 3836TIP3    H132923   4.366   4.652  14.414  0.8480 -1.1075  0.5503
 3836TIP3    H232924   4.320   4.576  14.292 -1.1313  0.8819 -0.0141
 3837TIP3   OH232925   3.074   6.730   4.759 -0.1095  0.0729 -0.2221
 3837TIP3    H132926   3.128   6.807   4.743 -1.6998  0.9477 -1.7409
 3837TIP3    H232927   3.091   6.672   4.685 -0.2133 -0.2797  0.0236
 3838TIP3   OH232928   1.082   4.960   0.349 -0.5585 -0.7922 -0.2276
 3838TIP3    H132929   1.089   4.950   0.444 -1.9637  1.2236  0.1831
 3838TIP3    H232930   1.170   4.945   0.316 -0.0584 -1.6210  1.3843
 3839TIP3   OH232931   3.914   2.350   5.476  0.3980 -0.1219  0.3858
 3839TIP3    H132932   4.007   2.329   5.486  0.4593  0.4544  1.1743
 3839TIP3    H232933   3.912   2.446   5.471 -0.1073 -0.1617 -0.1736
 3840TIP3   OH232934   5.564   4.391   5.077 -0.0496 -0.6846  0.4329
 3840TIP3    H132935   5.473   4.378   5.103 -0.9727  0.0029 -2.1277
 3840TIP3    H232936   5.580   4.323   5.011  0.8859 -0.0552 -0.0137
 3841TIP3   OH232937   6.304   4.372   2.766 -0.0350 -0.2275  0.4429
 3841TIP3    H132938   6.285   4.464   2.750 -0.1692 -0.3480 -0.1159
 3841TIP3    H232939   6.341   4.340   2.683  2.5580 -0.0215  1.4471
 3842TIP3   OH232940   0.487   1.193   2.712 -0.3244 -0.2774 -0.1126
 3842TIP3    H132941   0.450   1.255   2.649 -2.4982 -0.4480  0.9225
 3842TIP3    H232942   0.431   1.116   2.706  2.9858 -2.8249 -2.2351
 3843TIP3   OH232943   6.079   5.183  16.341 -0.0302 -0.9515 -0.1732
 3843TIP3    H132944   6.011   5.117  16.328 -0.9299  0.2605 -2.3137
 3843TIP3    H232945   6.055   5.227  16.422  0.3541 -2.9198  1.0644
 3844TIP3   OH232946   5.702   3.450  11.908  0.3283  0.1916  0.1491
 3844TIP3    H132947   5.626   3.463  11.966 -0.3044  0.5678 -0.7422
 3844TIP3    H232948   5.695   3.521  11.844  2.6693  1.5704  1.3151
 3845TIP3   OH232949   2.703   4.056   3.874 -0.0345 -0.1693 -0.0963
 3845TIP3    H132950   2.768   4.008   3.822  0.4871 -0.6162  0.9548
 3845TIP3    H232951   2.666   3.991   3.933 -0.7491  0.2995 -0.0125
 3846TIP3   OH232952   0.377   3.564   5.031 -0.3015 -0.3932 -0.2314
 3846TIP3    H132953   0.315   3.620   5.078  0.7313  0.5698  0.0055
 3846TIP3    H232954   0.348   3.567   4.940  2.4888  4.6589 -1.3073
 3847TIP3   OH232955   3.453   4.812   3.511 -0.1599  0.1803  0.0714
 3847TIP3    H132956   3.419   4.724   3.494  1.6278 -0.2374 -1.6347
 3847TIP3    H232957   3.427   4.862   3.434 -1.5898  1.3505  1.2458
 3848TIP3   OH232958   3.453   4.544  15.004 -0.0146 -0.0614  0.0896
 3848TIP3    H132959   3.549   4.542  15.012  0.0934  0.5155 -0.8172
 3848TIP3    H232960   3.438   4.546  14.909 -0.9609 -1.0973  0.2098
 3849TIP3   OH232961   1.802   0.982   1.746 -0.9336 -0.6395 -0.2567
 3849TIP3    H132962   1.856   1.031   1.807 -3.0730  0.3160  0.9936
 3849TIP3    H232963   1.804   1.033   1.665  0.0837 -0.6905 -0.2772
 3850TIP3   OH232964   3.872   3.550   5.016  0.4695  0.2028 -0.2551
 3850TIP3    H132965   3.947   3.526   5.070  0.2762 -1.5920 -0.7157
 3850TIP3    H232966   3.797   3.509   5.059 -0.2778  1.9289  0.1747
 3851TIP3   OH232967   0.078   4.675  14.163  0.0673 -0.0774  0.2465
 3851TIP3    H132968   0.052   4.705  14.076  1.3905  0.2209 -0.0633
 3851TIP3    H232969   0.171   4.655  14.155  0.3571  0.5216  1.7413
 3852TIP3   OH232970   4.517   5.922   5.229 -0.1450 -0.2463 -0.2664
 3852TIP3    H132971   4.548   5.920   5.320 -2.0454 -0.1245  0.4336
 3852TIP3    H232972   4.530   5.833   5.197  0.4897 -0.3028  0.1390
 3853TIP3   OH232973   0.368   2.225  17.002  0.5373  0.1536 -0.3548
 3853TIP3    H132974   0.378   2.185  16.915 -0.7915  0.5977 -0.7395
 3853TIP3    H232975   0.325   2.309  16.984  0.5316  0.3846  0.7140
 3854TIP3   OH232976   4.938   4.164   1.474  0.5091 -0.0240 -0.3686
 3854TIP3    H132977   4.925   4.208   1.390  0.0526 -1.6600 -1.2111
 3854TIP3    H232978   4.850   4.156   1.511  0.4129 -1.2243 -0.7946
 3855TIP3   OH232979   2.194   4.028  16.220 -0.3240 -0.4489 -0.1560
 3855TIP3    H132980   2.112   4.045  16.172 -1.6310 -2.3713  1.2233
 3855TIP3    H232981   2.253   3.991  16.154 -0.7353  0.4769 -1.0687
 3856TIP3   OH232982   3.934   5.072  14.612  0.1959 -0.4551 -0.2210
 3856TIP3    H132983   3.997   5.085  14.541 -1.4107 -2.0421 -2.0668
 3856TIP3    H232984   3.970   4.998  14.662  1.9556  1.4246  1.5010
 3857TIP3   OH232985   5.212   0.401   5.809  0.2865  0.3523 -0.1652
 3857TIP3    H132986   5.186   0.442   5.892 -1.3863  0.0091 -0.4785
 3857TIP3    H232987   5.131   0.397   5.759  0.7727 -1.6654 -0.8588
 3858TIP3   OH232988   1.083   3.622   4.570 -0.1671 -0.2318 -0.1944
 3858TIP3    H132989   1.045   3.708   4.589  1.3852  0.6738 -0.9863
 3858TIP3    H232990   1.082   3.616   4.475  1.0872 -0.4440 -0.2033
 3859TIP3   OH232991   2.205   4.457  17.119 -0.0515 -0.0503  0.0583
 3859TIP3    H132992   2.219   4.501  17.203  2.3094 -1.5237  0.5385
 3859TIP3    H232993   2.241   4.517  17.054 -1.1636  0.7387  0.1314
 3860TIP3   OH232994   5.336   4.460   4.360  0.5135  0.1059 -0.0806
 3860TIP3    H132995   5.316   4.491   4.448 -1.0602 -0.3477 -0.2576
 3860TIP3    H232996   5.353   4.366   4.372  2.9926  0.5085  0.1077
 3861TIP3   OH232997   3.881   5.027  11.624  0.3884  0.2535  0.7375
 3861TIP3    H132998   3.826   4.979  11.562  1.3764 -0.5025  0.4315
 3861TIP3    H232999   3.823   5.095  11.658 -0.4855  0.0257 -0.2212
 3862TIP3   OH233000   1.363   4.811   4.718  0.0786  0.6937  0.1861
 3862TIP3    H133001   1.277   4.798   4.678 -0.3438 -0.1093  1.2989
 3862TIP3    H233002   1.405   4.725   4.715  0.9371  1.1239 -0.5310
 3863TIP3   OH233003   5.936   2.478   1.742  0.0861 -0.0364  0.4218
 3863TIP3    H133004   6.002   2.421   1.703 -0.0494  0.5428 -0.7084
 3863TIP3    H233005   5.984   2.527   1.809  0.2113 -1.4143  1.3571
 3864TIP3   OH233006   2.217   4.735   2.891 -0.2533  0.1798 -0.0521
 3864TIP3    H133007   2.296   4.787   2.904 -0.5909  0.2751  1.7784
 3864TIP3    H233008   2.175   4.774   2.814  0.3854  1.5046  0.2524
 3865TIP3   OH233009   2.633   1.570   3.063 -0.1215 -0.3834  0.2412
 3865TIP3    H133010   2.715   1.612   3.037 -1.6144  1.6332 -1.5637
 3865TIP3    H233011   2.599   1.625   3.134  0.0605 -1.2318  1.0065
 3866TIP3   OH233012   3.964   2.900  16.300  0.8267 -0.3166  0.1799
 3866TIP3    H133013   3.931   2.980  16.341  1.5243 -0.2391  0.6060
 3866TIP3    H233014   4.003   2.930  16.218 -1.2432 -0.5658 -0.9567
 3867TIP3   OH233015   1.511   3.684   5.241 -0.0984  0.2045  0.3233
 3867TIP3    H133016   1.531   3.775   5.222 -1.5099  0.5623  0.4507
 3867TIP3    H233017   1.496   3.682   5.336 -2.4127  0.3490  0.0036
 3868TIP3   OH233018   6.350   5.413  12.232  0.0405  0.2108  0.4510
 3868TIP3    H133019   6.391   5.364  12.304  0.4025 -0.1577 -0.0049
 3868TIP3    H233020   6.355   5.354  12.157 -0.3451  0.5933  0.1204
 3869TIP3   OH233021   4.175   1.894  12.827  0.9830  0.6233  0.4744
 3869TIP3    H133022   4.161   1.801  12.810 -2.5397  1.0559  0.2082
 3869TIP3    H233023   4.202   1.930  12.743  1.7903 -0.0591  0.4332
 3870TIP3   OH233024   2.411   1.773  15.499  0.3746 -0.6170 -0.0808
 3870TIP3    H133025   2.485   1.760  15.439  1.2064 -1.1239  1.0088
 3870TIP3    H233026   2.334   1.751  15.447  1.2110 -3.1241 -0.3869
 3871TIP3   OH233027   1.208   3.996  14.846 -0.2341  0.1660 -0.2652
 3871TIP3    H133028   1.304   3.997  14.837 -0.1263 -0.7179  0.6613
 3871TIP3    H233029   1.178   3.938  14.776 -0.3150  2.2758 -2.0943
 3872TIP3   OH233030   4.093   3.017  15.643  0.2032  0.2010  0.1378
 3872TIP3    H133031   4.048   2.970  15.573  1.3485 -0.1726 -0.3572
 3872TIP3    H233032   4.148   3.081  15.598  0.9988 -0.0874  0.6862
 3873TIP3   OH233033   3.240   5.617  14.380 -0.4170  0.6377 -0.0764
 3873TIP3    H133034   3.159   5.579  14.414 -0.4693  1.6083  0.9445
 3873TIP3    H233035   3.289   5.642  14.458  1.8599 -1.8347 -0.5735
 3874TIP3   OH233036   3.112   4.984   1.521  0.3007 -0.4036  0.1502
 3874TIP3    H133037   3.066   4.983   1.605 -0.4477 -2.9176 -0.2076
 3874TIP3    H233038   3.196   4.942   1.539  1.0223  0.9458  0.0433
 3875TIP3   OH233039   0.413   1.306   6.346  0.0640  0.5455 -0.5337
 3875TIP3    H133040   0.355   1.363   6.295 -1.4476  0.4046  0.9378
 3875TIP3    H233041   0.450   1.246   6.281 -0.7985  1.1747 -1.6555
 3876TIP3   OH233042   3.742   0.285  11.979 -0.1329 -0.2416  0.1910
 3876TIP3    H133043   3.836   0.306  11.979  0.1908 -1.5680  0.8787
 3876TIP3    H233044   3.739   0.190  11.968 -1.4538 -0.1127 -0.8481
 3877TIP3   OH233045   1.688   1.801   4.735  0.4295  0.4269  0.6720
 3877TIP3    H133046   1.669   1.724   4.682  1.9108  0.3694  0.1880
 3877TIP3    H233047   1.719   1.766   4.819  1.3714  0.4773  0.3539
 3878TIP3   OH233048   2.761   5.952   6.254  0.4928 -0.3351  0.4439
 3878TIP3    H133049   2.780   6.039   6.218  1.0029 -0.9053 -0.7134
 3878TIP3    H233050   2.693   5.968   6.320  0.0149  0.8427 -0.2938
 3879TIP3   OH233051   3.461   2.113   0.677  0.0336 -0.4851 -0.2195
 3879TIP3    H133052   3.458   2.101   0.582  2.7321  0.2751 -0.5075
 3879TIP3    H233053   3.462   2.208   0.689 -1.3786 -0.5611  0.6686
 3880TIP3   OH233054   0.106   3.743  15.272 -0.1617  0.0969 -0.5186
 3880TIP3    H133055   0.125   3.726  15.364 -0.4971  0.3941 -0.3916
 3880TIP3    H233056   0.011   3.754  15.269 -0.2633 -0.8534 -1.0580
 3881TIP3   OH233057   4.715   3.502   6.038  0.3039  0.3362 -0.4361
 3881TIP3    H133058   4.740   3.544   6.120 -0.2078  1.3272 -0.7664
 3881TIP3    H233059   4.665   3.425   6.064  0.7734  0.2345  0.1844
 3882TIP3   OH233060   4.800   0.428  13.124 -0.2871  0.1367 -0.2562
 3882TIP3    H133061   4.835   0.341  13.144 -1.8511 -0.4630 -0.0332
 3882TIP3    H233062   4.706   0.420  13.136 -0.6574  1.3975 -1.9069
 3883TIP3   OH233063   0.400   5.838   6.062  0.1749 -0.0377 -0.7642
 3883TIP3    H133064   0.456   5.771   6.102  0.0250 -0.4419 -1.2250
 3883TIP3    H233065   0.315   5.826   6.105  0.6278  1.0903  0.5047
 3884TIP3   OH233066   0.192   6.640   1.621  0.7214 -0.0392 -0.0730
 3884TIP3    H133067   0.268   6.631   1.679  0.8520  2.1317  0.1503
 3884TIP3    H233068   0.127   6.685   1.674  0.7819  1.8443 -1.5060
 3885TIP3   OH233069   5.061   2.795   3.419  0.0428  0.2320 -0.2855
 3885TIP3    H133070   5.093   2.720   3.368  0.6647  1.4190 -1.7200
 3885TIP3    H233071   4.982   2.823   3.373 -1.3557 -0.7518  1.4257
 3886TIP3   OH233072   6.609   6.135  11.028 -0.2937  0.1389 -0.0095
 3886TIP3    H133073   6.579   6.104  10.942  0.1471 -3.0742  0.8660
 3886TIP3    H233074   6.677   6.199  11.008  0.6236 -1.3809 -2.1088
 3887TIP3   OH233075   5.312   5.108  12.299  0.1237 -0.3580 -0.4042
 3887TIP3    H133076   5.232   5.074  12.338 -0.5110  2.4954  1.0363
 3887TIP3    H233077   5.287   5.135  12.211 -0.0469 -0.9402 -0.5413
 3888TIP3   OH233078   1.784   5.217   2.989  0.6116  0.1914  0.8834
 3888TIP3    H133079   1.766   5.170   3.070  2.4683  1.9004  2.3882
 3888TIP3    H233080   1.829   5.154   2.933 -0.8299 -1.0473  1.0786
 3889TIP3   OH233081   5.712   3.158  12.783  0.2020 -0.2637  0.1750
 3889TIP3    H133082   5.701   3.160  12.688 -0.7532  3.3018  0.2099
 3889TIP3    H233083   5.806   3.157  12.796  0.3474 -0.4888 -0.7959
 3890TIP3   OH233084   5.578   4.520  11.463  0.2963 -0.3454 -0.0984
 3890TIP3    H133085   5.489   4.487  11.475  0.0741 -0.6499 -2.1300
 3890TIP3    H233086   5.627   4.445  11.431  1.2119 -0.0785  0.6363
 3891TIP3   OH233087   5.464   1.463   0.955 -0.1144  0.5781 -0.3953
 3891TIP3    H133088   5.547   1.509   0.962 -0.6094  1.6070 -1.0808
 3891TIP3    H233089   5.444   1.464   0.861 -1.3965  1.2783 -0.1400
 3892TIP3   OH233090   1.049   6.375  11.909  0.1309 -0.2442  0.0578
 3892TIP3    H133091   1.128   6.429  11.910  0.3305 -0.4768 -1.6256
 3892TIP3    H233092   1.080   6.285  11.910 -0.0081 -0.3679 -2.4251
 3893TIP3   OH233093   0.276   2.043  11.994  0.2057  0.1547  0.0513
 3893TIP3    H133094   0.265   2.027  11.900  1.7562  0.5756 -0.2349
 3893TIP3    H233095   0.188   2.035  12.030 -0.4080 -0.1204 -1.4190
 3894TIP3   OH233096   0.805   1.607   3.529  0.2264  0.3865 -0.0400
 3894TIP3    H133097   0.887   1.604   3.577  0.2417  0.6482 -0.0479
 3894TIP3    H233098   0.738   1.613   3.598  0.2614  0.9986 -0.0541
 3895TIP3   OH233099   2.047   5.220   3.729 -0.1433 -1.0522  0.3523
 3895TIP3    H133100   2.142   5.226   3.725 -0.2043 -0.3855 -0.1410
 3895TIP3    H233101   2.023   5.263   3.811  0.0360 -1.9746  0.9013
 3896TIP3   OH233102   5.281   3.630   4.982  0.6469 -0.3481  0.3493
 3896TIP3    H133103   5.302   3.591   4.897 -1.8542  1.5210 -1.2402
 3896TIP3    H233104   5.231   3.562   5.027 -2.7772  0.3551 -1.9797
 3897TIP3   OH233105   5.685   4.961  14.378 -0.1315 -0.2944 -0.3644
 3897TIP3    H133106   5.719   4.893  14.319 -1.4304 -0.1701 -1.2948
 3897TIP3    H233107   5.605   4.992  14.336  0.1542  1.4680  0.2975
 3898TIP3   OH233108   6.308   5.196   1.623  0.3645  0.3834  0.1257
 3898TIP3    H133109   6.324   5.152   1.706  0.1184  0.6374  0.3107
 3898TIP3    H233110   6.379   5.260   1.615  0.7908 -0.1318 -0.2024
 3899TIP3   OH233111   0.786   5.960   5.786 -0.0527 -0.1640 -0.0934
 3899TIP3    H133112   0.810   6.035   5.731  0.5594 -0.9189 -0.8722
 3899TIP3    H233113   0.748   6.000   5.864 -0.8410  0.9317 -1.0009
 3900TIP3   OH233114   1.675   0.635   2.352  0.0346 -0.4237 -0.9066
 3900TIP3    H133115   1.734   0.580   2.301  0.4556  0.2285 -1.1279
 3900TIP3    H233116   1.604   0.656   2.292 -0.0535 -0.5917 -0.8649
 3901TIP3   OH233117   3.586   4.986  13.345 -0.5088 -0.2385 -0.2599
 3901TIP3    H133118   3.614   5.004  13.256  0.8244 -1.1738 -0.0536
 3901TIP3    H233119   3.662   5.006  13.399 -0.6030 -1.6660  0.4439
 3902TIP3   OH233120   5.098   4.657  16.503  0.5837  0.0059  0.5230
 3902TIP3    H133121   5.107   4.682  16.595 -1.1836  0.1540  0.6859
 3902TIP3    H233122   5.004   4.659  16.487  0.7067 -1.9585 -0.7622
 3903TIP3   OH233123   4.392   6.375   3.547  0.2614 -0.5396  0.0381
 3903TIP3    H133124   4.400   6.280   3.554 -0.6564 -0.5788  0.7207
 3903TIP3    H233125   4.458   6.408   3.608 -2.6664 -0.8375  3.7423
 3904TIP3   OH233126   6.069   6.169  12.013 -0.5080 -0.3984 -0.0379
 3904TIP3    H133127   6.057   6.117  11.933 -2.9944 -2.0706  1.2803
 3904TIP3    H233128   6.007   6.241  12.005  0.1071  0.1325 -0.1181
 3905TIP3   OH233129   6.768   3.579   3.659  0.5641 -0.2736 -0.0975
 3905TIP3    H133130   6.847   3.599   3.609  2.2768 -1.3982  1.9657
 3905TIP3    H233131   6.771   3.639   3.733 -1.3000  0.5772 -0.6591
 3906TIP3   OH233132   1.110   3.164  13.562 -0.2203 -0.1739 -0.6584
 3906TIP3    H133133   1.022   3.167  13.598 -0.0389 -0.0511 -0.2306
 3906TIP3    H233134   1.124   3.071  13.542 -0.2439 -0.2702 -0.2307
 3907TIP3   OH233135   4.392   5.564  14.144 -0.0412 -0.1692  0.4483
 3907TIP3    H133136   4.438   5.625  14.087 -2.3200 -1.3352 -2.9293
 3907TIP3    H233137   4.326   5.617  14.189  0.8285  0.5268  0.9187
 3908TIP3   OH233138   1.291   6.628   2.990 -0.0610  1.0700 -0.0463
 3908TIP3    H133139   1.201   6.596   2.988  0.4187 -0.3219 -1.1277
 3908TIP3    H233140   1.300   6.683   2.912  0.6143 -0.6448 -1.2451
 3909TIP3   OH233141   3.547   4.077   6.609  0.0892  0.5256 -0.3764
 3909TIP3    H133142   3.474   4.023   6.639  0.1322  0.6174 -0.1111
 3909TIP3    H233143   3.506   4.156   6.575 -0.1193 -0.3888 -2.3940
 3910TIP3   OH233144   5.991   2.368  15.801 -0.3793  0.2215  0.2128
 3910TIP3    H133145   5.987   2.274  15.817  1.7680  0.1066  0.3611
 3910TIP3    H233146   5.963   2.408  15.883 -0.5760 -0.2876  0.3946
 3911TIP3   OH233147   4.910   6.557   0.735 -0.1097 -0.1557  0.1472
 3911TIP3    H133148   4.935   6.642   0.699 -0.2877 -0.0471  0.2796
 3911TIP3    H233149   4.964   6.548   0.814 -0.4588  0.0630  0.4142
 3912TIP3   OH233150   1.862   4.806  16.774  0.0047 -0.3458 -0.1528
 3912TIP3    H133151   1.940   4.765  16.812  0.9068  1.5294  0.1608
 3912TIP3    H233152   1.788   4.763  16.817  0.8600 -2.0017 -0.2767
 3913TIP3   OH233153   3.963   4.256   3.168 -0.0638  0.4491 -0.1808
 3913TIP3    H133154   3.958   4.341   3.124 -3.2389  0.5041  0.0650
 3913TIP3    H233155   3.990   4.195   3.099  0.8974  1.3987 -0.6823
 3914TIP3   OH233156   1.523   1.527  17.196 -0.0921  0.3717  0.1005
 3914TIP3    H133157   1.518   1.545  17.290 -0.9721 -1.7678  0.5172
 3914TIP3    H233158   1.615   1.536  17.174  0.0387  1.5174  1.0129
 3915TIP3   OH233159   6.438   5.563   6.178  0.6994 -0.1927 -0.2522
 3915TIP3    H133160   6.370   5.558   6.245  0.0685  0.9285 -0.7898
 3915TIP3    H233161   6.401   5.618   6.109  1.9437 -0.0048 -0.8058
 3916TIP3   OH233162   0.546   6.127  16.021 -0.4354 -0.2552  0.0204
 3916TIP3    H133163   0.462   6.103  15.982 -0.7044  0.4706  0.1217
 3916TIP3    H233164   0.548   6.223  16.015  0.6533 -0.2966 -0.5398
 3917TIP3   OH233165   4.393   5.200   4.340  0.0447  0.8043  0.1191
 3917TIP3    H133166   4.418   5.144   4.267 -1.4607 -0.7716  0.7122
 3917TIP3    H233167   4.427   5.155   4.417 -2.2004 -0.0505  0.7097
 3918TIP3   OH233168   4.030   4.173   5.675 -0.0441  0.2500  0.0810
 3918TIP3    H133169   4.077   4.208   5.600  0.5974 -0.7953 -0.0231
 3918TIP3    H233170   4.095   4.170   5.745 -0.1011 -0.6070  0.1164
 3919TIP3   OH233171   1.411   6.289   2.203  0.2207 -0.3416  0.4229
 3919TIP3    H133172   1.321   6.270   2.228  0.6208 -2.9662  0.0925
 3919TIP3    H233173   1.438   6.361   2.260 -1.7442 -0.1632  1.1804
 3920TIP3   OH233174   4.676   6.382   5.528 -0.8197  0.7033 -0.3643
 3920TIP3    H133175   4.613   6.310   5.522  1.7751 -1.8834  1.2213
 3920TIP3    H233176   4.696   6.404   5.437  0.8354 -3.0717 -1.0852
 3921TIP3   OH233177   1.062   3.093  16.233 -0.3014 -0.1770  0.3376
 3921TIP3    H133178   1.076   3.009  16.278 -0.8408  0.3074  1.4528
 3921TIP3    H233179   1.099   3.158  16.293  0.3336  0.3780 -0.6302
 3922TIP3   OH233180   2.609   4.180   3.060  0.5285  0.7113 -0.5305
 3922TIP3    H133181   2.566   4.137   2.987 -1.0682 -1.2352  1.4401
 3922TIP3    H233182   2.703   4.170   3.042  0.2521  1.8576 -3.1015
 3923TIP3   OH233183   2.865   2.758   0.277 -0.2689 -0.2470 -0.1800
 3923TIP3    H133184   2.914   2.775   0.358 -0.5009 -0.5861  0.0366
 3923TIP3    H233185   2.783   2.807   0.289  0.2305  0.7494 -0.7691
 3924TIP3   OH233186   4.745   0.122  11.469  0.1018  0.4923  0.1184
 3924TIP3    H133187   4.808   0.122  11.398 -1.7462 -0.7018 -1.6145
 3924TIP3    H233188   4.725   0.215  11.484 -0.2600  0.7308 -1.6847
 3925TIP3   OH233189   5.913   4.886  15.507  0.1409 -0.3030  0.4754
 3925TIP3    H133190   5.868   4.919  15.585 -1.8089 -2.7847  0.5643
 3925TIP3    H233191   5.862   4.921  15.434 -0.0579 -0.6183  0.4599
 3926TIP3   OH233192   6.726   1.488   4.949  0.0781  0.1227 -0.1396
 3926TIP3    H133193   6.740   1.408   5.000  1.4858  0.7232  0.4678
 3926TIP3    H233194   6.631   1.498   4.945 -0.0789 -0.3517  1.7118
 3927TIP3   OH233195   4.336   0.806  11.945 -0.5362  0.0907 -0.0777
 3927TIP3    H133196   4.355   0.714  11.962 -0.1807  0.2858  0.6190
 3927TIP3    H233197   4.422   0.847  11.938 -0.6637  0.6472  1.2252
 3928TIP3   OH233198   6.061   5.787  17.181 -0.2488 -0.0724  0.0778
 3928TIP3    H133199   6.136   5.741  17.142  0.7516 -0.0373  1.8663
 3928TIP3    H233200   5.993   5.782  17.114  1.2876 -0.2264 -1.5704
 3929TIP3   OH233201   1.534   0.996   0.142  0.2369 -0.5952 -0.2111
 3929TIP3    H133202   1.526   1.074   0.198  2.5868  0.4760 -1.2470
 3929TIP3    H233203   1.454   0.947   0.159 -1.6959  2.3552  0.0181
 3930TIP3   OH233204   2.361   1.798  15.770 -0.3175  0.1471 -0.2151
 3930TIP3    H133205   2.358   1.792  15.674  0.3988  0.2741 -0.2520
 3930TIP3    H233206   2.270   1.788  15.797 -0.5687  0.3968 -0.9285
 3931TIP3   OH233207   2.427   0.972   1.121  0.3843  0.9072  0.0154
 3931TIP3    H133208   2.433   1.018   1.205  0.3405  0.6618  0.1514
 3931TIP3    H233209   2.339   0.936   1.119  0.1769  1.4169 -0.3986
 3932TIP3   OH233210   3.356   4.899  12.845  0.2129 -0.0432  0.3945
 3932TIP3    H133211   3.353   4.976  12.901 -0.0370  1.1265 -1.1782
 3932TIP3    H233212   3.448   4.888  12.823 -0.0331  2.0427 -2.2502
 3933TIP3   OH233213   0.456   1.093  10.868  0.2298 -0.1254  0.5761
 3933TIP3    H133214   0.379   1.115  10.920 -0.3408  1.1263 -0.7268
 3933TIP3    H233215   0.421   1.040  10.796  0.5865  0.3542  0.0405
 3934TIP3   OH233216   1.963   0.822  13.371  0.1640  0.1452 -0.1252
 3934TIP3    H133217   1.914   0.742  13.388 -0.1286  0.4444  0.4728
 3934TIP3    H233218   2.041   0.816  13.425 -0.6705  1.0058  1.2339
 3935TIP3   OH233219   1.070   5.062  15.713  0.3820  0.0418  0.0242
 3935TIP3    H133220   1.067   4.967  15.730  0.8951  0.0021 -0.0850
 3935TIP3    H233221   1.079   5.101  15.800  3.4953 -0.1866 -0.0597
 3936TIP3   OH233222   3.797   2.044  15.047 -0.1080 -0.6359 -0.6511
 3936TIP3    H133223   3.766   1.986  15.116  0.0191 -0.5010 -0.4787
 3936TIP3    H233224   3.890   2.024  15.038  0.0255 -0.1936 -0.3202
 3937TIP3   OH233225   1.219   5.261   0.660 -0.4807 -0.3845  0.1529
 3937TIP3    H133226   1.217   5.271   0.565 -0.3529 -0.9172  0.0904
 3937TIP3    H233227   1.141   5.307   0.691 -1.8926 -2.2873 -0.4244
 3938TIP3   OH233228   0.170   6.307   3.488  0.1896 -0.2886  0.2030
 3938TIP3    H133229   0.111   6.350   3.427  0.1815  0.9042  1.0128
 3938TIP3    H233230   0.240   6.370   3.504  0.2586 -0.6081  1.3210
 3939TIP3   OH233231   1.636   4.528   5.918 -0.4526  0.1064  0.1877
 3939TIP3    H133232   1.561   4.484   5.880  0.4818 -1.2063 -0.2212
 3939TIP3    H233233   1.705   4.462   5.918  0.3818  0.9220  1.5952
 3940TIP3   OH233234   5.738   1.942  13.536 -0.0658  1.0039 -0.6009
 3940TIP3    H133235   5.811   2.000  13.559  1.0392  0.0327 -1.5453
 3940TIP3    H233236   5.688   1.992  13.471 -0.4552  1.7949  0.2680
 3941TIP3   OH233237   3.092   5.588  16.660  0.1650 -0.0074  0.1526
 3941TIP3    H133238   3.056   5.617  16.576 -0.9044 -0.5112  0.4221
 3941TIP3    H233239   3.182   5.622  16.661  0.4416 -0.6442 -1.5113
 3942TIP3   OH233240   3.611   6.501  12.744 -0.5629  0.4189  0.5232
 3942TIP3    H133241   3.617   6.447  12.823  2.0057 -1.8911 -1.0643
 3942TIP3    H233242   3.656   6.582  12.767 -0.5472  0.1102  1.6440
 3943TIP3   OH233243   6.151   6.417  14.731 -0.4039  0.2917 -0.0303
 3943TIP3    H133244   6.077   6.453  14.682 -0.1814 -0.7298 -1.1550
 3943TIP3    H233245   6.134   6.323  14.734 -0.6124  0.3477  2.2477
 3944TIP3   OH233246   4.748   5.807  13.034  0.4800 -0.3531  0.2543
 3944TIP3    H133247   4.724   5.839  13.121  0.1290  1.0260 -0.3313
 3944TIP3    H233248   4.811   5.871  13.001 -2.4136  1.5294 -2.1250
 3945TIP3   OH233249   0.683   6.251   5.835 -0.3177  0.4033 -0.1895
 3945TIP3    H133250   0.762   6.299   5.810 -0.5623  0.9842  0.1215
 3945TIP3    H233251   0.675   6.265   5.929  0.6546 -1.8530  0.2933
 3946TIP3   OH233252   5.092   5.514   2.403  0.7059  0.1567 -0.0982
 3946TIP3    H133253   5.186   5.517   2.384  1.1434 -3.0904  1.0210
 3946TIP3    H233254   5.085   5.462   2.483 -2.0433  0.9004  0.2553
 3947TIP3   OH233255   0.530   3.528   4.019 -0.2305 -0.0078  0.0110
 3947TIP3    H133256   0.550   3.549   3.928  0.8379 -2.8384 -0.5067
 3947TIP3    H233257   0.447   3.573   4.036 -0.3571  0.7595 -2.2827
 3948TIP3   OH233258   3.971   4.027   1.845 -0.0331 -0.1798 -0.8266
 3948TIP3    H133259   4.000   4.003   1.934  0.0354  1.0299 -0.5078
 3948TIP3    H233260   4.053   4.049   1.800 -0.2289  1.2055 -0.5533
 3949TIP3   OH233261   0.224   1.324   0.680 -0.0704  0.4549 -0.2451
 3949TIP3    H133262   0.249   1.407   0.720 -2.8595  0.4570  1.8163
 3949TIP3    H233263   0.238   1.259   0.748  1.1282 -0.6643 -1.4963
 3950TIP3   OH233264   6.248   1.499   6.000 -0.2931  0.1537  0.6723
 3950TIP3    H133265   6.322   1.477   6.057 -0.0618 -0.7837  0.0399
 3950TIP3    H233266   6.172   1.463   6.045 -0.1352 -0.4180  0.5009
 3951TIP3   OH233267   6.693   2.788   0.009 -0.1645 -0.6188  0.2629
 3951TIP3    H133268   6.613   2.827   0.045 -0.2619 -1.2781  0.7694
 3951TIP3    H233269   6.721   2.724   0.075  1.2214  0.1526  0.4725
 3952TIP3   OH233270   3.418   2.233  12.482  0.1273  0.5809  0.7086
 3952TIP3    H133271   3.391   2.182  12.559  0.5415  0.6144  0.8775
 3952TIP3    H233272   3.340   2.235  12.426 -1.5879  3.8572  2.8318
 3953TIP3   OH233273   5.301   3.368  13.174  0.0088 -0.2172 -0.2163
 3953TIP3    H133274   5.343   3.303  13.117 -0.3287 -0.4072 -0.2470
 3953TIP3    H233275   5.354   3.447  13.163 -0.1049 -0.2225 -0.8621
 3954TIP3   OH233276   4.010   3.036  11.276 -0.3728 -0.2129 -0.4397
 3954TIP3    H133277   4.023   3.043  11.181 -0.8951 -1.5453 -0.6315
 3954TIP3    H233278   3.924   2.994  11.285 -1.1207  1.4407  0.6598
 3955TIP3   OH233279   6.332   5.810   0.210 -0.1158 -0.4079 -0.2971
 3955TIP3    H133280   6.305   5.719   0.199 -1.0639 -0.3531  1.2752
 3955TIP3    H233281   6.421   5.805   0.246  0.8505 -0.6330 -2.5535
 3956TIP3   OH233282   1.258   1.906   4.120 -0.1509 -0.3361 -0.1293
 3956TIP3    H133283   1.284   1.904   4.212 -1.2978  0.5656  0.2433
 3956TIP3    H233284   1.340   1.923   4.072  0.0598  2.2133  0.9788
 3957TIP3   OH233285   0.501   2.830  16.597 -0.3352  0.1036  0.2468
 3957TIP3    H133286   0.457   2.802  16.516 -0.7611 -2.4413  1.2651
 3957TIP3    H233287   0.537   2.749  16.633  3.2842  1.7137  0.6449
 3958TIP3   OH233288   4.843   5.692   1.624 -0.2386 -0.0321 -0.3930
 3958TIP3    H133289   4.834   5.729   1.536  1.4212  0.4908 -0.3852
 3958TIP3    H233290   4.933   5.662   1.628 -1.0783 -2.6870  0.1922
 3959TIP3   OH233291   1.092   5.123   5.965  0.7003 -0.1366 -0.1381
 3959TIP3    H133292   1.113   5.168   5.884  0.5790 -0.8917 -0.5997
 3959TIP3    H233293   1.033   5.183   6.011 -0.0041 -0.1075 -1.0437
 3960TIP3   OH233294   4.880   5.210  15.399 -0.0044 -0.1915  0.4897
 3960TIP3    H133295   4.817   5.240  15.465 -3.2759  0.4498 -2.5858
 3960TIP3    H233296   4.909   5.289  15.355  2.2944 -0.5852  1.1862
 3961TIP3   OH233297   2.699   4.873  11.645  0.3865  0.7052 -0.8237
 3961TIP3    H133298   2.640   4.949  11.640  2.3912  2.9707  3.4514
 3961TIP3    H233299   2.698   4.849  11.738  3.0318 -1.8529 -1.3204
 3962TIP3   OH233300   0.306   6.101   4.497 -0.2461 -0.1537 -0.3993
 3962TIP3    H133301   0.394   6.107   4.459 -0.2203 -0.5267 -0.4001
 3962TIP3    H233302   0.298   6.181   4.549  0.5963 -0.7394  0.6672
 3963TIP3   OH233303   1.351   3.756  12.935  0.3415 -0.3624 -0.4641
 3963TIP3    H133304   1.389   3.820  12.995  0.0767 -0.4339 -0.2193
 3963TIP3    H233305   1.262   3.742  12.968  0.1893 -0.3845 -0.8888
 3964TIP3   OH233306   6.470   2.554  14.079  0.0222 -0.2788  0.3407
 3964TIP3    H133307   6.405   2.530  14.146 -0.6454  0.2000 -0.1216
 3964TIP3    H233308   6.478   2.475  14.025  1.2336 -0.9831  1.4792
 3965TIP3   OH233309   3.720   2.116   2.955  0.0667 -0.2691  0.0583
 3965TIP3    H133310   3.626   2.119   2.972  0.4206 -1.1451  2.4590
 3965TIP3    H233311   3.756   2.190   3.003  0.8164 -1.1607  0.9144
 3966TIP3   OH233312   4.325   2.943   3.712 -0.7138 -0.0701 -0.4047
 3966TIP3    H133313   4.366   2.861   3.684 -0.5759 -0.9106  2.0174
 3966TIP3    H233314   4.393   2.987   3.763 -1.7136  0.1633  0.7469
 3967TIP3   OH233315   1.772   3.182   0.118 -0.1698  0.9642  0.3945
 3967TIP3    H133316   1.723   3.110   0.156 -0.4465  1.2511  0.5811
 3967TIP3    H233317   1.788   3.155   0.027  2.0228 -0.5150  1.1353
 3968TIP3   OH233318   4.814   1.456   2.391  0.8141  0.0730  0.2858
 3968TIP3    H133319   4.810   1.361   2.404  0.3416  0.4711  3.8730
 3968TIP3    H233320   4.728   1.479   2.354  0.0015 -0.6528  1.6561
 3969TIP3   OH233321   5.329   2.552  13.972 -0.7414 -0.0934  0.3984
 3969TIP3    H133322   5.316   2.557  14.067 -1.7059  0.3634  0.2558
 3969TIP3    H233323   5.364   2.464  13.956  0.9392  0.3543  1.3284
 3970TIP3   OH233324   0.814   3.968   4.344  0.1925 -0.1799  0.7809
 3970TIP3    H133325   0.826   3.898   4.279 -2.9009 -0.2709  0.1730
 3970TIP3    H233326   0.727   3.953   4.380 -0.3697  3.0484  1.0474
 3971TIP3   OH233327   0.405   2.384  13.777  1.0711 -0.1593  0.0870
 3971TIP3    H133328   0.320   2.408  13.741  1.0747 -0.3088 -0.0231
 3971TIP3    H233329   0.463   2.457  13.753  1.1714 -0.4464 -0.5805
 3972TIP3   OH233330   2.593   3.095  12.293 -0.2256  0.3859  0.7524
 3972TIP3    H133331   2.682   3.131  12.294  0.4443 -1.1940  0.9364
 3972TIP3    H233332   2.568   3.092  12.385 -0.2668  0.3660  0.7402
 3973TIP3   OH233333   4.148   1.409  16.679  0.1546 -0.2496  0.3255
 3973TIP3    H133334   4.228   1.374  16.640 -0.8046 -0.9579 -1.1420
 3973TIP3    H233335   4.135   1.492  16.634 -0.4228 -0.5930 -0.1652
 3974TIP3   OH233336   1.050   4.191  16.353 -0.3041 -0.0462  0.2915
 3974TIP3    H133337   1.005   4.107  16.364 -0.2767 -0.0913  0.0606
 3974TIP3    H233338   1.132   4.181  16.401 -0.7949  0.2373  1.2029
 3975TIP3   OH233339   3.977   3.964   3.736 -0.2463  0.1718 -0.4126
 3975TIP3    H133340   4.022   3.948   3.818 -1.8992 -1.9631  0.1780
 3975TIP3    H233341   3.998   3.888   3.681 -0.3688  0.8369 -1.4190
 3976TIP3   OH233342   5.196   4.278   0.112 -0.2039 -0.5423  0.3994
 3976TIP3    H133343   5.140   4.203   0.092 -0.5341 -0.7540  1.9884
 3976TIP3    H233344   5.272   4.239   0.155 -1.6272  0.1496  3.8413
 3977TIP3   OH233345   4.363   3.483  14.626  0.0753  0.6323 -0.5626
 3977TIP3    H133346   4.351   3.392  14.598  1.4485  0.1926  0.1574
 3977TIP3    H233347   4.451   3.505  14.595  0.4179  1.1418  0.7081
 3978TIP3   OH233348   0.796   3.717  15.313  0.1642 -0.1666  0.1660
 3978TIP3    H133349   0.863   3.658  15.346  0.6292 -0.4779 -1.2790
 3978TIP3    H233350   0.715   3.687  15.354  0.6695 -0.7216  0.7756
 3979TIP3   OH233351   4.909   6.158   6.781  0.5651 -0.2221 -0.1440
 3979TIP3    H133352   4.942   6.199   6.700 -0.8756  0.3637 -0.4702
 3979TIP3    H233353   4.829   6.206   6.800  1.4821  0.4622  2.3290
 3980TIP3   OH233354   3.606   0.769  15.637 -0.2502  0.4030 -0.1599
 3980TIP3    H133355   3.598   0.850  15.587 -1.1167 -0.8340 -2.1319
 3980TIP3    H233356   3.695   0.739  15.620  0.8484  1.9363  2.3098
 3981TIP3   OH233357   4.234   3.813  13.817 -0.0792  1.0441 -0.2180
 3981TIP3    H133358   4.321   3.807  13.777 -0.4396 -0.7104 -0.8033
 3981TIP3    H233359   4.218   3.726  13.853 -1.1756  1.6421  0.8286
 3982TIP3   OH233360   5.683   5.321   5.125  0.5562 -0.4402  0.0138
 3982TIP3    H133361   5.709   5.296   5.036  1.5689  1.5931 -0.3403
 3982TIP3    H233362   5.715   5.250   5.180  0.6520 -1.3487 -1.1698
 3983TIP3   OH233363   6.748   1.805  13.849  0.1008 -0.1779  0.5863
 3983TIP3    H133364   6.693   1.767  13.918 -0.5155 -0.3257  0.0281
 3983TIP3    H233365   6.686   1.831  13.781  0.5995  0.9748  0.5534
 3984TIP3   OH233366   2.951   2.308   4.010 -0.0877 -0.3640  0.1085
 3984TIP3    H133367   3.045   2.313   3.997  0.1696 -1.4794  1.3456
 3984TIP3    H233368   2.918   2.272   3.928  0.2988  1.7664 -1.0520
 3985TIP3   OH233369   6.403   1.482  10.817  0.6045  0.5147 -0.0985
 3985TIP3    H133370   6.394   1.531  10.735 -1.3058 -1.8011 -1.3757
 3985TIP3    H233371   6.317   1.486  10.857  0.7527 -0.7796  0.3715
 3986TIP3   OH233372   1.625   5.700   4.696 -0.9429 -0.3700 -0.7299
 3986TIP3    H133373   1.623   5.741   4.609 -0.1689 -0.8553 -0.9828
 3986TIP3    H233374   1.686   5.628   4.687  0.0191  0.2604  0.5198
 3987TIP3   OH233375   6.277   5.271  11.519 -0.3657 -0.5533  0.3702
 3987TIP3    H133376   6.253   5.296  11.608  1.1872  0.4741  0.5255
 3987TIP3    H233377   6.236   5.337  11.464 -0.9855 -0.9573  0.3319
 3988TIP3   OH233378   3.617   5.497   5.652 -0.2412  0.4813 -0.1227
 3988TIP3    H133379   3.660   5.561   5.596  1.7011  0.9601  1.8113
 3988TIP3    H233380   3.590   5.427   5.592  3.7256 -0.0865 -1.4953
 3989TIP3   OH233381   4.078   6.279  14.001  0.3703 -0.1033 -0.3140
 3989TIP3    H133382   4.039   6.333  13.932 -1.9770 -0.2634  0.8109
 3989TIP3    H233383   4.075   6.190  13.966 -1.9005 -0.3511  0.3607
 3990TIP3   OH233384   5.232   1.585   2.520  0.2383  0.0899  0.5261
 3990TIP3    H133385   5.311   1.561   2.569  1.2040  1.3886 -0.3284
 3990TIP3    H233386   5.233   1.681   2.518 -1.0048  0.1121 -0.0865
 3991TIP3   OH233387   2.614   0.491  14.939 -0.2697  0.3305 -0.0584
 3991TIP3    H133388   2.692   0.481  14.885  0.4498  1.0168  0.8238
 3991TIP3    H233389   2.562   0.558  14.895 -0.2672  0.0225 -0.5344
 3992TIP3   OH233390   4.980   4.900   6.885  0.2480  0.0760  0.1626
 3992TIP3    H133391   5.065   4.907   6.929  0.0063  1.5736  0.4233
 3992TIP3    H233392   4.998   4.920   6.794  0.1514  0.5286  0.2430
 3993TIP3   OH233393   0.164   3.334   0.386  0.6357 -0.1794  0.0609
 3993TIP3    H133394   0.105   3.271   0.344 -0.8297  0.8915  0.4399
 3993TIP3    H233395   0.169   3.406   0.323 -1.6472  1.4828  1.6417
 3994TIP3   OH233396   0.902   1.209   1.049 -0.0474  0.5234 -0.5170
 3994TIP3    H133397   0.973   1.258   1.092 -0.1996  0.2245  0.0740
 3994TIP3    H233398   0.830   1.271   1.044  0.1425  0.7264 -0.8303
 3995TIP3   OH233399   6.102   4.266  13.268  0.9250  0.1682  0.1960
 3995TIP3    H133400   6.050   4.265  13.188 -0.7870  2.7880  1.1238
 3995TIP3    H233401   6.162   4.340  13.256  2.2446 -0.8236  0.4674
 3996TIP3   OH233402   1.266   1.807   1.915 -0.3656  0.3968  0.4108
 3996TIP3    H133403   1.321   1.732   1.938 -1.5435 -0.3440  0.9462
 3996TIP3    H233404   1.210   1.820   1.992 -1.8197  0.2714 -0.5752
 3997TIP3   OH233405   4.492   4.792  14.858  0.3283 -0.1731 -0.4174
 3997TIP3    H133406   4.486   4.706  14.900  1.7174  0.6359  1.5899
 3997TIP3    H233407   4.419   4.841  14.895  0.2178 -0.1316 -0.6884
 3998TIP3   OH233408   0.364   6.118   2.015 -0.3039  0.4886  0.2140
 3998TIP3    H133409   0.313   6.044   1.981 -0.8135  0.7091  0.4986
 3998TIP3    H233410   0.325   6.138   2.100  0.1376  0.7818  0.3537
 3999TIP3   OH233411   2.756   4.020   5.667  0.3192  0.3210 -0.0697
 3999TIP3    H133412   2.829   4.067   5.626 -0.3812  1.0676 -0.4775
 3999TIP3    H233413   2.708   3.981   5.594 -1.1450  1.9579 -0.0543
 4000TIP3   OH233414   0.392   5.736  14.349 -0.1680 -0.0932  0.4784
 4000TIP3    H133415   0.451   5.758  14.277  0.2076  0.5902  0.9834
 4000TIP3    H233416   0.430   5.658  14.388  1.2738  1.1738  1.7254
 4001TIP3   OH233417   4.951   3.494   2.672 -0.7117  0.5528 -0.1924
 4001TIP3    H133418   4.864   3.510   2.636 -0.9630  3.1588  1.3522
 4001TIP3    H233419   4.934   3.462   2.761 -0.2296  3.1982  0.9583
 4002TIP3   OH233420   4.106   3.164  17.193  0.0232  0.2127  0.2019
 4002TIP3    H133421   4.200   3.145  17.203  0.4196  1.5089 -0.6845
 4002TIP3    H233422   4.102   3.219  17.115 -1.4442  0.4815  0.4503
 4003TIP3   OH233423   2.687   1.651  12.653  0.0021 -0.1493  0.3513
 4003TIP3    H133424   2.630   1.716  12.613 -1.2875 -1.6036 -0.2903
 4003TIP3    H233425   2.750   1.628  12.584  0.8176  0.7814  0.7589
 4004TIP3   OH233426   2.947   3.263  14.536 -0.4266 -0.3219  0.6249
 4004TIP3    H133427   2.869   3.211  14.556 -0.9423 -0.0633 -0.5936
 4004TIP3    H233428   2.930   3.349  14.574 -1.0036 -0.0969 -0.1110
 4005TIP3   OH233429   0.211   1.321   4.718  0.1100  0.1252 -0.6417
 4005TIP3    H133430   0.301   1.299   4.743 -0.2843  2.0206  3.0967
 4005TIP3    H233431   0.209   1.305   4.623  3.9993 -1.0725 -0.7376
 4006TIP3   OH233432   2.733   2.230  12.606  0.0905  0.0197  0.3078
 4006TIP3    H133433   2.744   2.324  12.615 -0.9034  0.2402 -0.6283
 4006TIP3    H233434   2.663   2.208  12.667 -2.0935  0.4832 -1.8625
 4007TIP3   OH233435   6.054   2.377  14.890 -0.1124  0.3371  0.4612
 4007TIP3    H133436   6.005   2.459  14.890  0.8316  1.0182  3.1490
 4007TIP3    H233437   6.007   2.320  14.951  0.3628 -0.3709  0.1816
 4008TIP3   OH233438   2.748   3.546  13.020 -0.0525 -0.2017 -0.5908
 4008TIP3    H133439   2.696   3.476  13.059  0.7708 -0.2002  0.5499
 4008TIP3    H233440   2.837   3.511  13.019  0.3311  0.7476 -0.1891
 4009TIP3   OH233441   0.159   1.290  15.377  0.2066  0.5926 -0.0287
 4009TIP3    H133442   0.201   1.281  15.462  0.4123 -0.5157 -0.2226
 4009TIP3    H233443   0.219   1.345  15.326  3.0132 -3.0672 -1.1814
 4010TIP3   OH233444   5.067   4.526  13.383 -0.7454  0.0172  0.2423
 4010TIP3    H133445   5.041   4.497  13.470  0.8568 -1.7031  0.2024
 4010TIP3    H233446   5.090   4.446  13.336  2.7781  1.1257 -0.2780
 4011TIP3   OH233447   0.105   6.425  15.696 -0.3974  0.1433  0.4739
 4011TIP3    H133448   0.121   6.382  15.612 -1.3358 -1.1961  0.9427
 4011TIP3    H233449   0.141   6.365  15.761 -0.6131  0.6698  1.0905
 4012TIP3   OH233450   6.244   1.555   4.081  0.1481  0.1686  0.3251
 4012TIP3    H133451   6.173   1.555   4.018  0.3553  0.8906  0.0902
 4012TIP3    H233452   6.220   1.486   4.144  0.6528 -1.5722 -1.3118
 4013TIP3   OH233453   4.878   3.310  16.474  0.0258 -0.5677  0.4404
 4013TIP3    H133454   4.783   3.300  16.461 -0.1432  0.2902  0.9611
 4013TIP3    H233455   4.917   3.268  16.397 -0.8533  1.5616 -1.2700
 4014TIP3   OH233456   3.717   3.643  11.318 -0.1748 -0.1469  0.2057
 4014TIP3    H133457   3.644   3.691  11.279 -0.3473  0.3411  1.1016
 4014TIP3    H233458   3.697   3.640  11.411  0.5079 -0.7974  0.3430
 4015TIP3   OH233459   6.553   0.981  11.130  0.6816  0.2428 -0.2409
 4015TIP3    H133460   6.488   0.919  11.099  0.8543  0.5777 -1.3025
 4015TIP3    H233461   6.628   0.968  11.072  1.3273  0.3043  0.5618
 4016TIP3   OH233462   0.051   0.273  17.204  0.1163  0.2737  0.4439
 4016TIP3    H133463   0.001   0.309  17.131 -1.3093 -0.3436  1.0814
 4016TIP3    H233464   0.039   0.337  17.275  0.3078  0.1702  0.5711
 4017TIP3   OH233465   1.359   3.388   2.260 -0.4121 -0.2904  0.0030
 4017TIP3    H133466   1.403   3.388   2.345  0.6922  0.5971 -0.5540
 4017TIP3    H233467   1.430   3.378   2.196 -1.3271 -2.2476 -0.7924
 4018TIP3   OH233468   5.506   5.374   2.129  0.0947  0.4241  0.2402
 4018TIP3    H133469   5.451   5.394   2.206  0.6433 -0.1079  0.7835
 4018TIP3    H233470   5.462   5.418   2.056 -0.4316  0.9541  0.8611
 4019TIP3   OH233471   4.445   6.798   1.030  0.4812 -0.5103  0.4553
 4019TIP3    H133472   4.416   6.714   0.994 -0.6044  0.3394 -0.7180
 4019TIP3    H233473   4.500   6.836   0.962 -0.0599  0.2898  0.4563
 4020TIP3   OH233474   5.675   1.410  15.953 -0.0558 -0.1422 -0.5694
 4020TIP3    H133475   5.608   1.344  15.938  0.2686 -0.6818  0.3311
 4020TIP3    H233476   5.719   1.419  15.868 -1.3182  0.3039 -1.2112
 4021TIP3   OH233477   0.098   1.019   1.308  0.5597  0.0305  0.2023
 4021TIP3    H133478   0.091   1.012   1.213  0.2682  2.5187 -0.0273
 4021TIP3    H233479   0.188   1.049   1.323 -0.1678  2.2492  0.4503
 4022TIP3   OH233480   0.925   3.727  12.074  0.3113 -0.1250 -0.0750
 4022TIP3    H133481   0.925   3.632  12.060 -0.7120 -0.0287 -0.8352
 4022TIP3    H233482   0.926   3.764  11.986  0.2894  0.5644  0.2108
 4023TIP3   OH233483   3.727   6.290   4.032  0.3931  0.2600  0.5398
 4023TIP3    H133484   3.673   6.288   3.953 -0.9467  0.5619  1.4124
 4023TIP3    H233485   3.757   6.200   4.043 -0.2276  0.0073  0.2190
 4024TIP3   OH233486   3.336   5.706  12.872  0.7011 -0.0601 -0.7539
 4024TIP3    H133487   3.370   5.627  12.830  0.7217  0.4031 -1.6394
 4024TIP3    H233488   3.389   5.715  12.952  0.5609 -1.0412 -0.5375
 4025TIP3   OH233489   5.193   1.087  13.969  0.0047 -0.1665 -0.5563
 4025TIP3    H133490   5.204   1.107  13.876 -0.8938 -1.0315 -0.8646
 4025TIP3    H233491   5.213   0.993  13.975 -0.2666 -0.1841  0.0680
 4026TIP3   OH233492   4.572   0.601   5.738  0.3512 -0.1896  0.3597
 4026TIP3    H133493   4.508   0.650   5.790 -0.0192 -1.7835  1.4864
 4026TIP3    H233494   4.521   0.537   5.690  0.9010  0.0173 -0.5363
 4027TIP3   OH233495   0.695   6.397  12.741 -0.3685 -0.0955 -0.1663
 4027TIP3    H133496   0.715   6.459  12.671 -0.3423 -0.6927 -0.6876
 4027TIP3    H233497   0.645   6.449  12.805  0.7343  0.7954  0.0140
 4028TIP3   OH233498   3.483   2.577   3.975 -0.0396 -0.3950  0.1353
 4028TIP3    H133499   3.413   2.636   4.003  0.1033 -0.0388 -0.2416
 4028TIP3    H233500   3.529   2.625   3.906 -0.2448 -1.1582 -0.5521
 4029TIP3   OH233501   6.317   4.241   1.704  0.1749 -0.0073 -0.5125
 4029TIP3    H133502   6.405   4.276   1.693  0.7689 -0.9086  1.1583
 4029TIP3    H233503   6.261   4.319   1.713  1.1096  0.5664  0.5528
 4030TIP3   OH233504   0.560   1.304  14.433 -0.0319 -0.4207  0.4665
 4030TIP3    H133505   0.516   1.388  14.417  0.6958  0.7381  3.8042
 4030TIP3    H233506   0.504   1.239  14.390 -2.2827  1.4714  0.3393
 4031TIP3   OH233507   6.242   6.459   0.982  0.3217 -0.5463 -0.0358
 4031TIP3    H133508   6.316   6.517   0.969 -0.0830 -0.1675 -0.7072
 4031TIP3    H233509   6.222   6.466   1.076 -0.0336  0.8048 -0.1893
 4032TIP3   OH233510   6.029   6.426  11.532  0.1245 -0.0307  0.5302
 4032TIP3    H133511   6.084   6.373  11.590  0.5952 -0.2614 -0.1170
 4032TIP3    H233512   6.064   6.515  11.541 -0.8867  0.2552  1.8793
 4033TIP3   OH233513   1.573   1.357   1.286  0.1748 -0.3143  0.2165
 4033TIP3    H133514   1.629   1.408   1.345 -0.8118  1.4452 -0.3227
 4033TIP3    H233515   1.634   1.319   1.223  0.9341  0.2391  0.5921
 4034TIP3   OH233516   2.639   0.144   2.931 -0.4483  0.7286 -0.4754
 4034TIP3    H133517   2.662   0.219   2.985 -0.2970  0.2270  0.1773
 4034TIP3    H233518   2.586   0.089   2.988 -0.4715  0.2912 -0.9101
 4035TIP3   OH233519   6.051   0.361   4.342 -0.1416  0.4027  0.5845
 4035TIP3    H133520   6.034   0.279   4.297  0.7739  0.8386 -0.6191
 4035TIP3    H233521   5.981   0.369   4.406 -0.5818 -1.0115  0.3022
 4036TIP3   OH233522   1.719   5.830  16.480  0.0578 -0.1469  0.5275
 4036TIP3    H133523   1.643   5.875  16.516 -0.6349 -1.4128  0.7004
 4036TIP3    H233524   1.684   5.774  16.411  1.2051  1.3168 -1.3627
 4037TIP3   OH233525   3.455   3.455   1.217  0.3613 -0.3002  0.1198
 4037TIP3    H133526   3.424   3.545   1.223  0.6128 -0.2474  0.6532
 4037TIP3    H233527   3.530   3.459   1.158  0.4317 -0.1441  0.2208
 4038TIP3   OH233528   0.545   4.854   2.749 -0.5748 -0.0454  0.1963
 4038TIP3    H133529   0.459   4.821   2.723 -0.4843 -0.0312 -0.1277
 4038TIP3    H233530   0.568   4.804   2.827 -1.4686  0.8731  1.0872
 4039TIP3   OH233531   3.467   3.994   2.772  0.0152 -0.1431 -0.0435
 4039TIP3    H133532   3.468   3.938   2.695  0.2771  0.1549 -0.2593
 4039TIP3    H233533   3.468   3.932   2.846  0.1763 -0.4270 -0.2776
 4040TIP3   OH233534   2.170   4.925   4.539 -0.3802 -0.2852  0.4175
 4040TIP3    H133535   2.193   4.859   4.604 -1.4066 -0.6337  0.4524
 4040TIP3    H233536   2.095   4.887   4.492  0.8229 -0.3984 -1.5140
 4041TIP3   OH233537   1.727   5.689  12.330 -0.2053 -0.2015  0.1628
 4041TIP3    H133538   1.649   5.640  12.304 -1.0176  1.3822 -0.5268
 4041TIP3    H233539   1.729   5.765  12.272  0.9740  0.6228  1.2023
 4042TIP3   OH233540   3.481   4.686  14.313  0.4339 -0.2754  0.4729
 4042TIP3    H133541   3.484   4.695  14.409 -0.3627 -0.7157  0.5473
 4042TIP3    H233542   3.511   4.771  14.280  0.7067 -0.1174  1.1149
 4043TIP3   OH233543   4.630   6.441  15.248 -0.3908  0.2227 -0.4125
 4043TIP3    H133544   4.644   6.505  15.178 -4.0841  0.8060 -0.8289
 4043TIP3    H233545   4.621   6.357  15.203 -3.1847  0.6567 -0.8607
 4044TIP3   OH233546   4.715   6.085   4.615  0.6287  0.1219  0.2631
 4044TIP3    H133547   4.683   6.058   4.529  0.5899  1.8646 -0.3127
 4044TIP3    H233548   4.661   6.036   4.678  0.8157 -1.3499 -0.6757
 4045TIP3   OH233549   2.168   4.162   1.818  0.1515 -0.6071 -0.3795
 4045TIP3    H133550   2.083   4.127   1.845  0.4343 -1.0189 -0.0024
 4045TIP3    H233551   2.187   4.231   1.882  0.4278 -1.0039 -0.0267
 4046TIP3   OH233552   0.942   0.570   2.220 -0.0839  0.1320  0.1143
 4046TIP3    H133553   0.874   0.635   2.205  1.0686  1.1621 -0.7867
 4046TIP3    H233554   0.952   0.525   2.136  0.1096 -0.2706  0.3474
 4047TIP3   OH233555   1.130   1.912   5.779 -0.0254 -0.0091 -0.3167
 4047TIP3    H133556   1.073   1.874   5.846  1.4208  2.0510  2.2691
 4047TIP3    H233557   1.087   1.993   5.753  0.0659 -0.1567 -0.9574
 4048TIP3   OH233558   1.744   0.371   5.234 -0.4579 -0.3802  0.2966
 4048TIP3    H133559   1.692   0.427   5.177 -1.0925 -0.2638  0.9867
 4048TIP3    H233560   1.765   0.295   5.179 -0.7364 -0.0935 -0.2133
 4049TIP3   OH233561   2.343   6.762   0.882  0.2576  0.2729 -0.3040
 4049TIP3    H133562   2.429   6.756   0.842  0.2308  0.6650 -0.4242
 4049TIP3    H233563   2.286   6.794   0.812 -0.1749 -0.8337 -0.4860
 4050TIP3   OH233564   4.005   5.372  12.168  0.3905 -0.1092  0.2796
 4050TIP3    H133565   3.988   5.318  12.091 -0.9310  1.2615 -0.4305
 4050TIP3    H233566   3.939   5.346  12.232 -0.3303  0.7229 -0.1096
 4051TIP3   OH233567   0.533   3.995   3.319 -0.3231 -0.1301 -0.0960
 4051TIP3    H133568   0.470   3.992   3.246  1.1999 -0.4747 -1.4464
 4051TIP3    H233569   0.580   3.912   3.313  0.5015  0.2710  0.6695
 4052TIP3   OH233570   3.415   5.017  10.927  0.3516  0.2773 -0.4898
 4052TIP3    H133571   3.327   4.982  10.936  0.1571  0.5148 -1.3708
 4052TIP3    H233572   3.417   5.093  10.985 -0.4891  1.1146 -1.5314
 4053TIP3   OH233573   6.777   1.866   4.898 -0.4523 -0.5935  0.2685
 4053TIP3    H133574   6.852   1.814   4.926 -0.5191 -0.8300  0.0152
 4053TIP3    H233575   6.736   1.814   4.829 -1.1238 -0.6944  0.7252
 4054TIP3   OH233576   2.470   0.611  14.170  0.4029  0.2178  0.1188
 4054TIP3    H133577   2.382   0.627  14.204  0.1667  0.8875 -0.7470
 4054TIP3    H233578   2.524   0.679  14.211  0.3152  0.4080 -0.0739
 4055TIP3   OH233579   4.702   6.135  11.868  0.7063 -0.0249 -0.5518
 4055TIP3    H133580   4.652   6.088  11.935  1.3446  0.5121  0.3298
 4055TIP3    H233581   4.666   6.223  11.868 -0.3291 -0.4139 -2.0364
 4056TIP3   OH233582   1.026   2.100   0.820 -0.3956  0.0682  0.1465
 4056TIP3    H133583   0.941   2.058   0.824 -0.7381  0.8830  1.9701
 4056TIP3    H233584   1.088   2.034   0.851 -0.4164 -0.3306 -0.6370
 4057TIP3   OH233585   3.266   3.989  12.554 -0.8130  0.3960 -0.2516
 4057TIP3    H133586   3.316   4.069  12.571 -0.3762  0.2035 -0.6123
 4057TIP3    H233587   3.211   4.011  12.479 -2.0601  0.9464  0.7916
 4058TIP3   OH233588   2.781   4.306  11.849 -0.2475  0.3061  0.3436
 4058TIP3    H133589   2.754   4.338  11.935  1.2515  1.2487  0.5038
 4058TIP3    H233590   2.863   4.260  11.865 -1.1822 -1.6899 -0.2522
 4059TIP3   OH233591   4.544   3.312   1.049 -0.2356 -0.6305  0.0881
 4059TIP3    H133592   4.534   3.253   0.974 -0.2978 -1.7963  0.9736
 4059TIP3    H233593   4.624   3.281   1.093 -0.8627 -0.7787  1.1741
 4060TIP3   OH233594   5.397   5.460  15.631 -1.0330  0.5182 -0.1618
 4060TIP3    H133595   5.416   5.548  15.663 -1.6353 -0.1408  2.1777
 4060TIP3    H233596   5.323   5.472  15.570 -0.2628  1.7453 -0.8980
 4061TIP3   OH233597   2.369   3.454   5.983  0.5361 -0.0443  0.1277
 4061TIP3    H133598   2.292   3.505   5.960  1.2880  1.2413  0.3500
 4061TIP3    H233599   2.432   3.519   6.015  1.9763 -0.9407 -0.7568
 4062TIP3   OH233600   2.323   0.148   5.597  0.3973 -0.0371  0.0666
 4062TIP3    H133601   2.362   0.225   5.638  0.2255 -0.2503  0.6511
 4062TIP3    H233602   2.384   0.077   5.617 -2.2169 -1.3736  4.9335
 4063TIP3   OH233603   1.071   4.033   3.399 -0.2521  0.1439 -0.1810
 4063TIP3    H133604   1.131   3.958   3.393 -2.6366 -1.9908  1.0355
 4063TIP3    H233605   1.012   4.022   3.325 -2.2222 -0.7722  1.4310
 4064TIP3   OH233606   4.677   2.517  12.063 -0.1846 -0.1946 -0.5010
 4064TIP3    H133607   4.604   2.564  12.023 -0.1118 -0.6877 -1.2549
 4064TIP3    H233608   4.669   2.534  12.156  0.1533  1.7555 -0.7777
 4065TIP3   OH233609   3.131   3.508  11.620 -0.2711 -0.4552  0.3958
 4065TIP3    H133610   3.215   3.548  11.639 -0.6991  0.8582 -0.3368
 4065TIP3    H233611   3.078   3.523  11.698 -0.4765  0.5918  0.0715
 4066TIP3   OH233612   2.159   6.447   1.968 -0.5114 -0.2007  0.0326
 4066TIP3    H133613   2.245   6.411   1.991 -0.2151  0.5535  0.1502
 4066TIP3    H233614   2.179   6.526   1.918 -1.1384  0.0519  0.1701
 4067TIP3   OH233615   3.893   1.156   0.124 -0.1722  0.6097  0.9414
 4067TIP3    H133616   3.831   1.122   0.060 -0.0865  1.6796  0.2634
 4067TIP3    H233617   3.972   1.175   0.073 -0.3572  2.1913  1.1972
 4068TIP3   OH233618   6.516   5.075  15.495 -0.6223 -0.2348  0.0365
 4068TIP3    H133619   6.592   5.129  15.474 -0.6377 -0.3064 -0.2028
 4068TIP3    H233620   6.465   5.071  15.414  0.1314 -1.8133 -0.4007
 4069TIP3   OH233621   5.741   3.122   5.557 -0.1401  0.1465 -0.1874
 4069TIP3    H133622   5.686   3.174   5.616  0.2844  0.0536  0.3047
 4069TIP3    H233623   5.800   3.074   5.616 -0.3147 -0.6472 -0.6555
 4070TIP3   OH233624   4.820   1.568  16.655 -0.2498 -0.4428 -0.4547
 4070TIP3    H133625   4.737   1.567  16.704 -0.0981  1.9726 -0.0087
 4070TIP3    H233626   4.881   1.519  16.711 -0.6010  0.5185  0.8385
 4071TIP3   OH233627   6.104   0.852   5.274  0.3680  0.4452 -0.1652
 4071TIP3    H133628   6.017   0.821   5.247 -0.4640  1.7723  0.8403
 4071TIP3    H233629   6.088   0.898   5.357  2.0832  0.4829  0.1757
 4072TIP3   OH233630   3.335   4.787  13.103 -0.5302  0.1730 -0.3438
 4072TIP3    H133631   3.428   4.778  13.118 -0.2535  2.8636  0.1161
 4072TIP3    H233632   3.321   4.748  13.016  0.9091 -0.6583 -0.2322
 4073TIP3   OH233633   6.035   0.059  14.180  0.5194  0.0601  0.2641
 4073TIP3    H133634   5.982   0.132  14.148  1.0281  0.2463 -0.1626
 4073TIP3    H233635   5.976   0.010  14.238  0.0109  0.4987  0.1222
 4074TIP3   OH233636   6.219   2.354   4.052 -0.4729 -0.2901  0.3448
 4074TIP3    H133637   6.231   2.424   4.116  1.7086  0.2426 -0.5448
 4074TIP3    H233638   6.230   2.397   3.967  0.4447 -1.5896 -0.2421
 4075TIP3   OH233639   5.833   5.360  14.926  0.1498  0.0733 -0.3473
 4075TIP3    H133640   5.802   5.434  14.979  0.9067 -1.3084  2.1987
 4075TIP3    H233641   5.928   5.360  14.938  0.3043 -0.4851 -1.4667
 4076TIP3   OH233642   5.216   2.043  12.798 -0.0627 -0.3390 -0.3075
 4076TIP3    H133643   5.216   1.968  12.739 -0.1667 -0.0726 -0.6467
 4076TIP3    H233644   5.149   2.102  12.764 -0.7382 -0.5712  0.5831
 4077TIP3   OH233645   2.872   3.699   3.229  0.7235  0.2108 -0.4301
 4077TIP3    H133646   2.899   3.712   3.138  0.8945 -1.6957 -0.6961
 4077TIP3    H233647   2.930   3.631   3.262 -1.4577 -1.5166  0.0694
 4078TIP3   OH233648   6.037   2.759  16.182 -0.2553 -0.6145 -0.6251
 4078TIP3    H133649   6.072   2.688  16.237  0.0030 -0.1058 -0.1209
 4078TIP3    H233650   6.007   2.825  16.245 -0.7216 -0.3785 -1.0875
 4079TIP3   OH233651   1.020   3.317  14.088 -0.0390  0.4360 -0.1017
 4079TIP3    H133652   1.072   3.361  14.021 -1.1902 -0.4170 -1.6040
 4079TIP3    H233653   1.064   3.232  14.100  0.5952  0.8743  0.8009
 4080TIP3   OH233654   6.208   0.217   5.702 -0.5168 -0.2034  0.2348
 4080TIP3    H133655   6.272   0.145   5.692 -0.3564 -0.0939  0.4554
 4080TIP3    H233656   6.262   0.296   5.699 -0.6670 -0.1029  0.2369
 4081TIP3   OH233657   4.836   1.243   4.199  0.4141 -0.1667 -0.3980
 4081TIP3    H133658   4.784   1.162   4.202  0.3755 -0.1418  2.2678
 4081TIP3    H233659   4.902   1.231   4.268  3.2214  0.3287 -2.8059
 4082TIP3   OH233660   0.280   1.014   3.531  0.1994  0.1239  0.4461
 4082TIP3    H133661   0.246   0.940   3.482 -0.3918  0.2396  0.6681
 4082TIP3    H233662   0.346   1.053   3.474  2.2937 -1.9884  1.2928
 4083TIP3   OH233663   4.360   1.014   1.201  0.1850  0.2857  0.3833
 4083TIP3    H133664   4.364   1.105   1.230  1.6055 -0.6690  3.7753
 4083TIP3    H233665   4.267   0.994   1.197 -0.1315  1.3403  1.7468
 4084TIP3   OH233666   1.192   3.408  13.424 -0.1542 -0.3289  0.4109
 4084TIP3    H133667   1.208   3.394  13.331  1.3126 -1.1281  0.7512
 4084TIP3    H233668   1.165   3.322  13.457  0.2205 -0.2684  0.8870
 4085TIP3   OH233669   2.720   5.101  16.372 -0.3368  0.2976 -0.2243
 4085TIP3    H133670   2.677   5.017  16.391  0.9347 -0.7739 -1.7905
 4085TIP3    H233671   2.733   5.141  16.458  0.2110 -1.7426  0.7132
 4086TIP3   OH233672   5.653   5.665  11.330 -0.1437 -0.3562 -0.1916
 4086TIP3    H133673   5.607   5.740  11.292  1.6213  0.6243 -0.5305
 4086TIP3    H233674   5.656   5.600  11.260  0.3293  0.1980 -0.7004
 4087TIP3   OH233675   5.036   4.961   6.630  0.7547  0.1994  0.3964
 4087TIP3    H133676   5.091   4.954   6.552  0.1913 -1.2248  0.0893
 4087TIP3    H233677   4.972   5.028   6.607 -0.6847 -1.6144 -1.2311
 4088TIP3   OH233678   6.761   4.742  13.506  0.8520  0.1961 -0.2873
 4088TIP3    H133679   6.742   4.717  13.415  0.8239  0.4850 -0.3609
 4088TIP3    H233680   6.796   4.831  13.499 -0.8288  0.9369  0.1426
 4089TIP3   OH233681   5.251   2.348  12.830  0.5621  0.0064 -0.1445
 4089TIP3    H133682   5.167   2.311  12.802  0.2256  1.4987 -1.2610
 4089TIP3    H233683   5.226   2.423  12.884  1.2029 -0.3490  0.6566
 4090TIP3   OH233684   0.508   2.168  15.936 -0.2944 -0.9266  0.4035
 4090TIP3    H133685   0.423   2.130  15.913 -0.6862 -0.3259  0.8254
 4090TIP3    H233686   0.489   2.228  16.008  0.5036 -0.8415  0.5552
 4091TIP3   OH233687   0.104   2.664   6.239 -0.4549  0.5074  0.1756
 4091TIP3    H133688   0.094   2.663   6.144 -0.5213  0.3272  0.1839
 4091TIP3    H233689   0.017   2.686   6.272 -1.1958 -2.2498  0.2918
 4092TIP3   OH233690   3.724   3.461   0.272  0.4960  0.2322 -0.6648
 4092TIP3    H133691   3.638   3.454   0.312  0.3908 -0.1858 -0.9571
 4092TIP3    H233692   3.710   3.442   0.180  0.9677 -0.3275 -0.6323
 4093TIP3   OH233693   2.732   0.870   3.097  0.5268 -0.3569 -0.5005
 4093TIP3    H133694   2.677   0.931   3.144  0.9728 -0.6256  0.3822
 4093TIP3    H233695   2.812   0.863   3.149  0.9538 -0.8091 -1.1862
 4094TIP3   OH233696   3.556   4.519  16.715 -0.4068  0.0814 -0.0035
 4094TIP3    H133697   3.542   4.555  16.802 -0.6469 -0.4648  0.1865
 4094TIP3    H233698   3.529   4.590  16.656 -0.6027  0.3181  0.3660
 4095TIP3   OH233699   6.680   3.204  15.976  0.5563 -0.3259  0.1117
 4095TIP3    H133700   6.759   3.152  15.963  1.9295  1.9162 -1.3985
 4095TIP3    H233701   6.645   3.217  15.888  1.0302  2.2729  0.2115
 4096TIP3   OH233702   1.832   2.849   1.416 -0.1329  0.0714  0.9186
 4096TIP3    H133703   1.756   2.822   1.365 -0.4557 -0.6123  1.7337
 4096TIP3    H233704   1.882   2.768   1.429 -0.3953  0.0876  2.2170
 4097TIP3   OH233705   0.053   1.032  13.720  0.0519  0.3755  0.2050
 4097TIP3    H133706   0.072   0.938  13.710 -0.1322  0.3097  0.4644
 4097TIP3    H233707   0.137   1.071  13.742  0.1197  0.2646  0.1463
 4098TIP3   OH233708   5.306   4.122   0.843 -0.6812 -0.0267  0.6438
 4098TIP3    H133709   5.305   4.216   0.860 -2.4190  0.2479 -0.6480
 4098TIP3    H233710   5.330   4.115   0.751  1.9045 -1.0406  1.3356
 4099TIP3   OH233711   2.180   1.910   3.762 -0.6031  0.9292  0.0217
 4099TIP3    H133712   2.223   1.904   3.676  1.5608 -0.2717  1.1156
 4099TIP3    H233713   2.251   1.902   3.825 -2.2388  0.9485  1.9686
 4100TIP3   OH233714   1.983   5.012   1.123 -0.3779 -0.2051 -0.0184
 4100TIP3    H133715   2.060   4.968   1.087 -0.5717  0.2977 -1.1083
 4100TIP3    H233716   1.963   4.965   1.203  2.1869  0.8134  1.3410
 4101TIP3   OH233717   5.865   1.515  11.688  0.5175  0.0243 -0.5379
 4101TIP3    H133718   5.955   1.545  11.677  0.8898 -1.0235 -0.4989
 4101TIP3    H233719   5.812   1.578  11.639  1.2897  0.5047 -0.7756
 4102TIP3   OH233720   5.328   2.428  15.352  0.4427  0.3572 -0.7475
 4102TIP3    H133721   5.411   2.382  15.366 -0.8080 -1.8288 -0.0585
 4102TIP3    H233722   5.294   2.393  15.270 -1.1090 -0.9442  0.3896
 4103TIP3   OH233723   1.917   4.725  16.103 -0.5191 -0.1134  0.0802
 4103TIP3    H133724   1.908   4.635  16.137 -3.4476 -0.2404 -0.8141
 4103TIP3    H233725   2.006   4.727  16.068  0.1099 -2.2242  1.2919
 4104TIP3   OH233726   0.643   6.661  10.676 -0.1399 -0.0545 -0.2655
 4104TIP3    H133727   0.706   6.648  10.605 -0.3149 -0.6268 -0.3206
 4104TIP3    H233728   0.613   6.573  10.698 -0.6194  0.1798  0.0362
 4105TIP3   OH233729   2.844   1.472  13.109  0.0333 -0.2784 -0.5863
 4105TIP3    H133730   2.796   1.453  13.189  0.9739 -0.7354 -0.1105
 4105TIP3    H233731   2.844   1.568  13.104  1.7912 -0.1198  1.1537
 4106TIP3   OH233732   2.150   5.660  14.978 -0.3520 -0.0484 -0.4734
 4106TIP3    H133733   2.080   5.618  14.929  0.2427 -0.9374 -0.5922
 4106TIP3    H233734   2.108   5.692  15.058 -1.0495  0.1801 -0.9243
 4107TIP3   OH233735   1.137   2.997  15.962  0.3235  0.1624  0.3657
 4107TIP3    H133736   1.123   2.990  16.057  1.5926 -0.9875  0.4930
 4107TIP3    H233737   1.082   3.071  15.936 -0.3806  0.2450  1.9233
 4108TIP3   OH233738   6.115   1.538  14.839  0.0841 -0.0489  0.8002
 4108TIP3    H133739   6.078   1.450  14.841  0.6257 -0.3010  0.2116
 4108TIP3    H233740   6.044   1.594  14.810 -0.4772 -0.1678  1.8831
 4109TIP3   OH233741   0.362   4.153   2.400 -0.3770 -0.1931  0.6654
 4109TIP3    H133742   0.453   4.172   2.379  0.3561 -1.4612  2.4608
 4109TIP3    H233743   0.363   4.063   2.433 -2.5049 -0.7222 -0.4816
 4110TIP3   OH233744   3.389   1.871   6.009  0.2281  0.0752 -0.3905
 4110TIP3    H133745   3.350   1.841   6.091  1.0265 -2.0502 -0.7117
 4110TIP3    H233746   3.453   1.937   6.035  1.8038 -1.8479  0.9953
 4111TIP3   OH233747   2.170   5.053   6.325  0.3039 -0.3157  0.3676
 4111TIP3    H133748   2.180   5.137   6.280  0.1742  0.9729  2.5560
 4111TIP3    H233749   2.233   4.995   6.283  0.8297  1.0533 -0.8238
 4112TIP3   OH233750   4.085   1.827  16.052 -0.4087  0.1210  0.2889
 4112TIP3    H133751   4.047   1.757  15.998  0.3087  0.2057 -0.3405
 4112TIP3    H233752   4.010   1.864  16.099 -1.0787  0.1345 -0.7536
 4113TIP3   OH233753   0.301   0.498  15.772  0.0784  0.1228 -0.6049
 4113TIP3    H133754   0.345   0.498  15.857 -0.5269 -0.1426 -0.2830
 4113TIP3    H233755   0.208   0.502  15.793 -0.0488  1.1154 -1.2849
 4114TIP3   OH233756   6.035   6.078  10.794 -0.3692 -0.6209  0.3097
 4114TIP3    H133757   6.060   6.030  10.873 -1.5119 -0.9048  0.5190
 4114TIP3    H233758   5.952   6.119  10.817 -0.7125 -0.7058 -0.7451
 4115TIP3   OH233759   1.461   6.796   5.752  0.3780  0.4437 -0.7171
 4115TIP3    H133760   1.442   6.709   5.716  0.2282 -0.1050  0.6278
 4115TIP3    H233761   1.435   6.790   5.844  0.2997  1.9407 -0.6128
 4116TIP3   OH233762   6.107   4.795  13.886  0.1044  0.5549 -0.2786
 4116TIP3    H133763   6.026   4.846  13.891 -0.1162  0.4208 -1.7989
 4116TIP3    H233764   6.176   4.861  13.876  0.3754  0.7360  2.2188
 4117TIP3   OH233765   3.983   4.608  11.049  0.2870  0.5242 -0.2222
 4117TIP3    H133766   4.037   4.686  11.050 -2.2600  2.4346  1.2931
 4117TIP3    H233767   4.037   4.540  11.089  2.3051  1.6791 -0.8826
 4118TIP3   OH233768   4.236   0.147  17.209  0.0235 -0.0811 -0.4555
 4118TIP3    H133769   4.261   0.092  17.283  0.0266 -1.4196 -1.4143
 4118TIP3    H233770   4.267   0.100  17.132  0.5004  1.5435 -1.3036
 4119TIP3   OH233771   1.956   5.261  16.479 -0.0146  0.1804 -0.7318
 4119TIP3    H133772   1.861   5.252  16.480 -0.0794  0.7799 -0.8175
 4119TIP3    H233773   1.974   5.320  16.406  0.3878  0.3941 -0.4677
 4120TIP3   OH233774   0.941   0.746  10.892  0.2431  0.1182  0.3769
 4120TIP3    H133775   0.970   0.701  10.813  0.8069 -0.9087  1.1634
 4120TIP3    H233776   1.021   0.776  10.934 -0.0638  0.8091  0.4872
 4121TIP3   OH233777   1.993   5.451  15.203  0.0114 -0.0736  0.5818
 4121TIP3    H133778   1.933   5.526  15.203  0.1672  0.0714 -0.3665
 4121TIP3    H233779   1.944   5.382  15.159  0.5833  0.1027 -0.3670
 4122TIP3   OH233780   5.783   1.908   0.764  0.3245 -0.2285  0.6140
 4122TIP3    H133781   5.813   1.851   0.694  1.3219  0.6302  0.3212
 4122TIP3    H233782   5.801   1.997   0.732 -2.0308  0.3279  0.6555
 4123TIP3   OH233783   5.300   5.715  12.802  0.8884 -0.0015 -0.0067
 4123TIP3    H133784   5.344   5.646  12.752  1.4471  0.4755 -0.1865
 4123TIP3    H233785   5.362   5.788  12.802  1.1393 -0.1623  1.8277
 4124TIP3   OH233786   1.114   5.665   1.429 -0.3494 -0.4202 -0.0777
 4124TIP3    H133787   1.160   5.718   1.494  4.1569 -2.1994 -1.3937
 4124TIP3    H233788   1.103   5.722   1.353 -1.4754  0.3599  0.6455
 4125TIP3   OH233789   6.383   1.809   3.978 -0.2793  0.6447 -0.7279
 4125TIP3    H133790   6.438   1.804   3.900  0.9375 -0.8646  0.1627
 4125TIP3    H233791   6.363   1.718   3.999 -3.5495  1.1291 -1.2220
 4126TIP3   OH233792   5.843   3.799   1.254  0.1426 -0.7063 -0.1470
 4126TIP3    H133793   5.889   3.882   1.241  1.6902 -1.5046 -0.1362
 4126TIP3    H233794   5.785   3.791   1.179 -1.2082  1.0963  0.6639
 4127TIP3   OH233795   4.933   4.582   2.314  0.1832  0.1139  0.5876
 4127TIP3    H133796   4.886   4.519   2.369  0.1467  0.1655  0.6156
 4127TIP3    H233797   4.890   4.666   2.331  0.6204  0.2572  1.0086
 4128TIP3   OH233798   2.429   2.614  11.756 -0.1584 -0.1062 -0.3780
 4128TIP3    H133799   2.474   2.561  11.822  0.5724  0.5624 -0.3304
 4128TIP3    H233800   2.405   2.695  11.801 -0.8023 -0.1695 -0.5927
 4129TIP3   OH233801   0.755   5.018   5.478 -0.5217  0.0245  0.0167
 4129TIP3    H133802   0.696   5.083   5.440  1.4397  0.4556 -2.5648
 4129TIP3    H233803   0.743   5.028   5.573 -3.2699  1.2280 -0.3479
 4130TIP3   OH233804   0.471   5.024  12.892  0.1034  0.0771 -0.1877
 4130TIP3    H133805   0.449   4.933  12.873 -0.2223  0.4537 -1.7800
 4130TIP3    H233806   0.500   5.060  12.808 -0.3339  1.5999  0.2684
 4131TIP3   OH233807   1.434   1.696  12.700  0.6947  0.4881 -0.5253
 4131TIP3    H133808   1.489   1.734  12.769  0.3814  0.7790 -0.4293
 4131TIP3    H233809   1.354   1.749  12.702 -0.2741 -0.9193  0.4242
 4132TIP3   OH233810   0.279   2.599   0.294  0.3627  0.1810  0.1524
 4132TIP3    H133811   0.272   2.674   0.354 -0.7773 -0.8579  1.3793
 4132TIP3    H233812   0.294   2.639   0.208  3.5214  1.6980  1.2448
 4133TIP3   OH233813   3.002   2.928   5.363  0.0076 -0.0560  0.4259
 4133TIP3    H133814   3.053   2.994   5.410  0.7030  0.6245 -1.2018
 4133TIP3    H233815   2.971   2.868   5.432  1.5071  0.5067  1.6682
 4134TIP3   OH233816   3.335   0.755  12.714 -0.1432 -0.3263  0.4724
 4134TIP3    H133817   3.301   0.839  12.685 -0.7579 -0.1245  1.6967
 4134TIP3    H233818   3.261   0.694  12.704  0.0276 -0.5254  0.4079
 4135TIP3   OH233819   2.972   5.206  15.138  0.4785  0.1276 -0.2488
 4135TIP3    H133820   2.906   5.238  15.076 -0.5803 -0.4382  0.5616
 4135TIP3    H233821   2.937   5.227  15.224  1.1442 -0.5905  0.2082
 4136TIP3   OH233822   1.606   2.141   5.771  0.2689  0.5445 -0.3268
 4136TIP3    H133823   1.672   2.160   5.839  0.0859  0.7846 -0.2135
 4136TIP3    H233824   1.560   2.064   5.804  1.6799 -0.7312 -1.2680
 4137TIP3   OH233825   3.731   1.601  10.837 -0.0549  0.3048 -0.3283
 4137TIP3    H133826   3.752   1.690  10.863 -0.7167  0.0874  1.0521
 4137TIP3    H233827   3.695   1.561  10.917  1.9341 -1.7553 -0.3788
 4138TIP3   OH233828   6.276   0.366   4.636 -0.2077 -0.3941  0.1414
 4138TIP3    H133829   6.216   0.307   4.682  0.5104 -1.8202 -0.6707
 4138TIP3    H233830   6.345   0.385   4.701  0.3042 -1.6319 -0.0000
 4139TIP3   OH233831   6.452   4.775   2.569  0.4066 -0.7650  0.6439
 4139TIP3    H133832   6.485   4.865   2.580 -1.2678 -0.1577  0.9724
 4139TIP3    H233833   6.486   4.728   2.645  0.6742 -0.2106  0.8778
 4140TIP3   OH233834   2.643   5.839   3.451 -0.3655  0.2946 -0.5595
 4140TIP3    H133835   2.566   5.789   3.424 -0.1730 -0.4382  0.2179
 4140TIP3    H233836   2.680   5.872   3.369 -1.5584  0.7476 -0.9462
 4141TIP3   OH233837   2.070   1.409   3.607 -0.0702  0.0683 -0.6307
 4141TIP3    H133838   2.039   1.374   3.691 -1.1015  0.6005 -0.7730
 4141TIP3    H233839   2.039   1.499   3.606  1.9000  0.7873 -0.6038
 4142TIP3   OH233840   6.064   5.853  11.582  0.4013  0.1400 -0.7274
 4142TIP3    H133841   6.002   5.854  11.509  0.9486  0.5597 -1.1930
 4142TIP3    H233842   6.107   5.768  11.576 -0.8689 -0.6119  0.2464
 4143TIP3   OH233843   2.690   4.258   3.654  0.2938  0.3479 -0.3246
 4143TIP3    H133844   2.603   4.279   3.622  0.5871  3.2753  0.5180
 4143TIP3    H233845   2.676   4.199   3.728 -0.8625 -0.2572 -1.0137
 4144TIP3   OH233846   5.656   6.661   3.163 -0.4117 -0.1487 -0.4484
 4144TIP3    H133847   5.688   6.664   3.254  0.0516 -1.0267 -0.5738
 4144TIP3    H233848   5.731   6.632   3.112 -1.2259 -1.7366 -0.8217
 4145TIP3   OH233849   2.325   5.456   2.693  0.1612  0.2275  0.0017
 4145TIP3    H133850   2.327   5.551   2.691 -0.2528  0.3339  2.2554
 4145TIP3    H233851   2.409   5.429   2.656  0.9714  1.5232  0.8450
 4146TIP3   OH233852   5.997   5.276   1.034 -0.1920 -0.0112  0.1295
 4146TIP3    H133853   6.066   5.250   1.095 -0.1072 -0.1263 -0.0150
 4146TIP3    H233854   5.941   5.334   1.085  0.5915  0.9362 -0.0555
 4147TIP3   OH233855   1.617   0.678  16.651 -0.0198  0.2926 -0.3060
 4147TIP3    H133856   1.677   0.624  16.600 -1.4959 -0.9765 -0.7632
 4147TIP3    H233857   1.537   0.626  16.658 -1.1770  2.0210  0.0775
 4148TIP3   OH233858   6.102   6.062  15.892  0.0594 -0.4585  0.3012
 4148TIP3    H133859   6.102   6.086  15.985  0.9019  1.1417 -0.0647
 4148TIP3    H233860   6.015   6.025  15.877 -0.5869  0.5218  1.4316
 4149TIP3   OH233861   3.539   1.582  14.619  0.2007  0.0398 -0.4514
 4149TIP3    H133862   3.600   1.623  14.681 -1.6651  0.4083  1.2544
 4149TIP3    H233863   3.541   1.638  14.542  2.9756 -0.7144 -1.0203
 4150TIP3   OH233864   1.946   5.656   5.405  0.2756  0.8992 -0.3000
 4150TIP3    H133865   1.872   5.692   5.356 -1.5280  1.3960  2.5707
 4150TIP3    H233866   1.947   5.706   5.487  0.9665 -2.0510  1.6326
 4151TIP3   OH233867   4.158   6.707  14.338  0.6663 -0.2361  0.0911
 4151TIP3    H133868   4.193   6.789  14.303  0.0499  0.3489  0.8058
 4151TIP3    H233869   4.201   6.698  14.423  1.0273 -0.8654 -0.1549
 4152TIP3   OH233870   4.793   1.737  15.067  0.5676 -0.0527 -0.1121
 4152TIP3    H133871   4.872   1.791  15.058 -0.7225  1.7321 -1.2321
 4152TIP3    H233872   4.764   1.722  14.978  1.0553 -3.0129  0.1183
 4153TIP3   OH233873   2.363   6.689   2.254 -0.7314  0.4111 -0.1546
 4153TIP3    H133874   2.356   6.685   2.349  0.6514  0.9672  0.0035
 4153TIP3    H233875   2.414   6.611   2.231  0.0881  0.9701 -0.2797
 4154TIP3   OH233876   1.190   5.100  11.286 -0.3024 -0.0884 -0.1434
 4154TIP3    H133877   1.164   5.170  11.226 -1.0864 -0.3767 -0.1458
 4154TIP3    H233878   1.110   5.050  11.302  0.2669 -1.0751 -0.2589
 4155TIP3   OH233879   4.380   2.915   3.409 -0.2329 -0.0504 -0.3113
 4155TIP3    H133880   4.431   2.836   3.388  0.1943  0.3381 -0.7450
 4155TIP3    H233881   4.370   2.912   3.504  2.6556  1.0825  0.1234
 4156TIP3   OH233882   2.689   1.830   5.783 -0.8710  0.5970 -0.3826
 4156TIP3    H133883   2.730   1.756   5.738  0.0490  0.7144  0.2216
 4156TIP3    H233884   2.682   1.898   5.717 -0.9741  0.2479 -0.7362
 4157TIP3   OH233885   5.324   3.632   5.502 -0.4204 -0.5953  0.0173
 4157TIP3    H133886   5.358   3.648   5.413  0.4701  0.1015  0.4634
 4157TIP3    H233887   5.240   3.679   5.503 -0.1387 -0.0675 -0.2643
 4158TIP3   OH233888   5.195   2.758  11.052 -0.5935 -0.3564 -0.1768
 4158TIP3    H133889   5.252   2.835  11.042  1.1809 -1.6684 -0.4918
 4158TIP3    H233890   5.151   2.750  10.967 -1.8644  1.0562  0.2842
 4159TIP3   OH233891   5.125   0.917  17.162  0.6201  0.1570  0.5214
 4159TIP3    H133892   5.097   0.852  17.098  0.6762  0.4239  0.2252
 4159TIP3    H233893   5.150   0.993  17.110  0.2569  0.5292  0.8778
 4160TIP3   OH233894   1.374   4.777   3.914  0.2666 -0.4667 -0.4793
 4160TIP3    H133895   1.346   4.686   3.926 -2.4233  0.3366 -0.1810
 4160TIP3    H233896   1.357   4.795   3.821 -1.7855  0.4656  0.0184
 4161TIP3   OH233897   0.364   3.717   4.446  0.3868  0.0238  0.0906
 4161TIP3    H133898   0.304   3.656   4.402 -1.5615  1.1365  1.1012
 4161TIP3    H233899   0.324   3.803   4.435  3.2338  1.3113 -1.6011
 4162TIP3   OH233900   5.865   0.701  14.884  0.2533 -0.2444 -0.3127
 4162TIP3    H133901   5.770   0.705  14.877  0.2877 -0.4450 -0.8946
 4162TIP3    H233902   5.897   0.757  14.813  0.5682  0.0441  0.0504
 4163TIP3   OH233903   1.365   5.872   0.458 -0.7850 -0.8599  0.0464
 4163TIP3    H133904   1.400   5.942   0.403  0.6567 -0.5758  1.2717
 4163TIP3    H233905   1.285   5.910   0.496 -1.2559 -0.7154 -1.0496
 4164TIP3   OH233906   2.337   0.664  13.772  0.0460 -0.0879  0.6955
 4164TIP3    H133907   2.342   0.749  13.729 -0.0320  0.4626  1.7297
 4164TIP3    H233908   2.243   0.645  13.778  0.0875 -0.6351 -0.2480
 4165TIP3   OH233909   3.568   2.090  16.619  0.3268  0.2706  0.0979
 4165TIP3    H133910   3.518   2.170  16.600  1.3816  1.1410  0.8298
 4165TIP3    H233911   3.621   2.076  16.540  1.4302  1.3296  0.6167
 4166TIP3   OH233912   5.472   2.075   3.784  0.3112  0.2339  0.7708
 4166TIP3    H133913   5.551   2.068   3.837  1.6291  0.4833 -1.0443
 4166TIP3    H233914   5.419   2.141   3.828  1.6754  0.9580  1.4038
 4167TIP3   OH233915   4.574   1.850   6.144 -0.1242  0.1227  0.5539
 4167TIP3    H133916   4.622   1.786   6.092  0.6685  0.5380  0.7611
 4167TIP3    H233917   4.611   1.935   6.119 -0.8383  0.4713  0.6267
 4168TIP3   OH233918   5.960   4.546  15.845  0.2106  0.0582 -0.0678
 4168TIP3    H133919   5.903   4.470  15.836 -0.4787  0.5143  0.2969
 4168TIP3    H233920   5.907   4.610  15.892  1.3861  0.1140  1.2759
 4169TIP3   OH233921   3.169   2.505  13.187  0.3938  0.3110  0.3253
 4169TIP3    H133922   3.132   2.559  13.256 -0.2583  0.2686  0.0161
 4169TIP3    H233923   3.194   2.566  13.118 -1.5309  0.1635 -0.5800
 4170TIP3   OH233924   0.418   0.469  13.951 -0.1422  0.5035 -0.1546
 4170TIP3    H133925   0.446   0.507  14.034  0.8394  0.4286 -0.4398
 4170TIP3    H233926   0.416   0.543  13.890  1.9725  0.1319 -0.7629
 4171TIP3   OH233927   3.404   4.910   5.727 -0.4173  0.1149 -0.5364
 4171TIP3    H133928   3.449   4.945   5.650  1.4070 -0.4021  0.2270
 4171TIP3    H233929   3.447   4.826   5.744  0.0430  0.7287  1.7094
 4172TIP3   OH233930   1.393   2.572  16.018  0.1420 -1.0820  0.1854
 4172TIP3    H133931   1.466   2.621  15.982 -0.4668 -0.8655 -0.7902
 4172TIP3    H233932   1.428   2.531  16.097  1.6613 -1.9947 -0.9126
 4173TIP3   OH233933   6.097   0.698   0.923  0.1905 -0.4438  0.3104
 4173TIP3    H133934   6.174   0.649   0.949  1.6223  1.4172 -0.1971
 4173TIP3    H233935   6.103   0.780   0.973  0.0313  0.8620 -1.6824
 4174TIP3   OH233936   0.362   6.105   3.145  0.0171  0.0666 -0.0480
 4174TIP3    H133937   0.448   6.091   3.185  0.2247 -2.4385 -1.2092
 4174TIP3    H233938   0.358   6.042   3.073 -2.0097  1.5312 -1.3132
 4175TIP3   OH233939   6.584   4.616  11.504  0.3731  0.1623  0.4975
 4175TIP3    H133940   6.659   4.557  11.511 -0.0763 -0.5377 -0.3161
 4175TIP3    H233941   6.511   4.559  11.480  0.1919  1.2064 -1.6889
 4176TIP3   OH233942   1.262   0.566   4.110  0.2036 -0.5891  0.1250
 4176TIP3    H133943   1.195   0.509   4.147 -0.1484 -0.1189  0.2148
 4176TIP3    H233944   1.241   0.653   4.143  0.8199 -0.4241  0.1022
 4177TIP3   OH233945   0.318   1.866   4.146  0.9550  0.1896  0.2871
 4177TIP3    H133946   0.260   1.790   4.155 -1.0850  1.5540 -0.5792
 4177TIP3    H233947   0.333   1.895   4.236 -0.6316  0.4561  0.4801
 4178TIP3   OH233948   2.234   0.289  14.019 -0.2009 -0.6295  0.1607
 4178TIP3    H133949   2.160   0.230  14.030 -0.1033 -0.8331 -0.2497
 4178TIP3    H233950   2.195   0.370  13.984 -0.0717 -1.2198 -1.4285
 4179TIP3   OH233951   5.105   1.411  11.146  0.4695 -0.8746  0.4719
 4179TIP3    H133952   5.017   1.426  11.180 -0.1553 -1.5645 -0.7743
 4179TIP3    H233953   5.122   1.484  11.087  1.1235 -0.2488  1.4079
 4180TIP3   OH233954   2.264   6.169  16.246 -0.2013 -0.0743  0.3886
 4180TIP3    H133955   2.357   6.187  16.231 -0.7596  3.7700  0.3264
 4180TIP3    H233956   2.252   6.185  16.339 -0.8442 -0.2066  0.3306
 4181TIP3   OH233957   4.263   4.293  13.851  0.1018  0.1593  0.0252
 4181TIP3    H133958   4.261   4.369  13.793  1.7992  0.9417  0.8916
 4181TIP3    H233959   4.326   4.233  13.810  0.3579  0.1628  0.4056
 4182TIP3   OH233960   1.326   2.540   2.839  0.0343  0.5667  0.3336
 4182TIP3    H133961   1.247   2.541   2.785 -0.5768  0.1868  1.1965
 4182TIP3    H233962   1.341   2.631   2.861  0.7310  0.8201 -1.0789
 4183TIP3   OH233963   4.881   1.991  12.852 -0.4791  0.4046  0.7436
 4183TIP3    H133964   4.847   1.914  12.808 -0.8362  1.3908 -0.7602
 4183TIP3    H233965   4.849   1.983  12.942  1.3239 -2.2949  1.2657
 4184TIP3   OH233966   3.002   1.200   5.618  0.0236  0.4249 -0.1581
 4184TIP3    H133967   3.029   1.115   5.652  2.3456  0.9713 -0.4948
 4184TIP3    H233968   2.971   1.248   5.694 -0.4057 -0.3889  0.1856
 4185TIP3   OH233969   6.309   4.387   3.323 -0.2137 -0.2726 -0.3078
 4185TIP3    H133970   6.298   4.346   3.237  1.0083  0.0846 -0.6671
 4185TIP3    H233971   6.286   4.479   3.308 -0.1153 -0.2349 -0.2296
 4186TIP3   OH233972   5.525   0.512   0.482 -0.1916 -0.1152 -0.0703
 4186TIP3    H133973   5.576   0.590   0.461  0.8330 -0.7691 -0.0747
 4186TIP3    H233974   5.534   0.455   0.406  0.6049 -0.9958  0.6430
 4187TIP3   OH233975   3.976   2.644   4.741  0.4341 -0.2150 -0.3232
 4187TIP3    H133976   4.057   2.687   4.767  0.1370  0.2656 -0.1774
 4187TIP3    H233977   3.907   2.705   4.766  0.0284 -0.5961 -0.4911
 4188TIP3   OH233978   5.486   4.160  16.651  0.6609  0.2807  0.2623
 4188TIP3    H133979   5.411   4.190  16.702  0.2849  0.7888 -0.5785
 4188TIP3    H233980   5.451   4.145  16.563  1.0892 -1.4924  0.3471
 4189TIP3   OH233981   6.804   4.511  10.481  0.3372  0.0778  0.4955
 4189TIP3    H133982   6.875   4.559  10.523 -1.4629  3.6811 -0.2367
 4189TIP3    H233983   6.725   4.542  10.525 -1.2063  0.4267 -2.2939
 4190TIP3   OH233984   5.882   1.333   5.594 -0.5981 -0.2212 -0.1530
 4190TIP3    H133985   5.916   1.252   5.633 -1.1603 -0.3633  0.0450
 4190TIP3    H233986   5.808   1.357   5.649 -0.4309  0.4389 -0.2094
 4191TIP3   OH233987   4.847   0.889   2.806 -0.2759 -0.6668  0.1985
 4191TIP3    H133988   4.845   0.968   2.859 -1.6900  0.2733 -1.1835
 4191TIP3    H233989   4.931   0.848   2.828  0.1256  0.7640  1.5371
 4192TIP3   OH233990   5.041   6.760  12.668 -0.3383  0.0753  0.0901
 4192TIP3    H133991   5.121   6.709  12.682 -1.3974 -1.1883  1.7813
 4192TIP3    H233992   5.061   6.846  12.705 -0.5149 -0.9482  2.7553
 4193TIP3   OH233993   3.181   2.532   3.455 -0.5601 -0.3636  0.1905
 4193TIP3    H133994   3.257   2.552   3.400  0.3799  2.1385  2.1948
 4193TIP3    H233995   3.206   2.453   3.502  1.9440  1.5486  2.4262
 4194TIP3   OH233996   3.208   4.157  14.290 -0.6352 -0.4173 -0.3647
 4194TIP3    H133997   3.186   4.249  14.279 -1.2796 -0.6673 -1.4662
 4194TIP3    H233998   3.277   4.155  14.356 -0.2078  0.8959 -0.7495
 4195TIP3   OH233999   2.727   6.639   2.550 -0.3673  0.1407  0.0948
 4195TIP3    H134000   2.716   6.728   2.586 -0.6059  0.7954 -1.4869
 4195TIP3    H234001   2.683   6.582   2.613 -0.3485  1.1678  1.0654
 4196TIP3   OH234002   6.245   3.449   2.954 -0.1086 -0.3303  0.5698
 4196TIP3    H134003   6.306   3.393   2.907  0.0105  0.0915  0.2090
 4196TIP3    H234004   6.175   3.466   2.892 -0.2409 -0.2418  0.7412
 4197TIP3   OH234005   0.735   2.145  14.754  0.7273 -0.1970 -0.4338
 4197TIP3    H134006   0.700   2.234  14.743  0.8643 -0.1025 -0.0988
 4197TIP3    H234007   0.806   2.155  14.817 -0.6612 -0.8838  1.3235
 4198TIP3   OH234008   0.021   6.027  15.938  0.1370 -0.1006 -0.4204
 4198TIP3    H134009   0.067   6.056  15.860  0.0619  0.4867 -0.2500
 4198TIP3    H234010  -0.018   5.943  15.913 -0.8351  0.6185 -1.3838
 4199TIP3   OH234011   3.682   6.160   0.332 -0.3313 -0.4128 -0.0029
 4199TIP3    H134012   3.769   6.193   0.311  0.1944 -1.9381 -0.3321
 4199TIP3    H234013   3.683   6.144   0.426  0.1644 -1.5410 -0.1841
 4200TIP3   OH234014   6.391   2.414  15.561  0.2176 -0.1265 -0.5013
 4200TIP3    H134015   6.387   2.476  15.633  0.7634  0.7219 -1.1783
 4200TIP3    H234016   6.300   2.405  15.531 -0.2104 -1.4662  1.0712
 4201TIP3   OH234017   1.340   1.773   6.562  0.0907  0.4000 -0.2277
 4201TIP3    H134018   1.372   1.851   6.517  0.0554  0.5325 -0.0221
 4201TIP3    H234019   1.401   1.704   6.535  2.2740  1.1782  2.2963
 4202TIP3   OH234020   1.002   0.695  17.229 -0.2891  0.0305  0.0893
 4202TIP3    H134021   1.039   0.672  17.314  2.1923 -2.8709 -1.5562
 4202TIP3    H234022   0.941   0.624  17.210  1.0126 -0.7499 -1.4634
 4203TIP3   OH234023   0.116   6.410   5.110  0.0133  0.7092 -0.0706
 4203TIP3    H134024   0.129   6.321   5.145 -0.8017  0.5149 -0.2420
 4203TIP3    H234025   0.131   6.467   5.184 -0.5513  0.3610  0.3183
 4204TIP3   OH234026   5.643   2.676   2.862 -0.4468  0.0163  0.0128
 4204TIP3    H134027   5.581   2.722   2.919 -1.2022 -2.0163  0.9264
 4204TIP3    H234028   5.729   2.698   2.899 -0.8784 -0.5303  1.4273
 4205TIP3   OH234029   0.397   1.760  14.136 -0.1224  0.3712 -0.2219
 4205TIP3    H134030   0.369   1.813  14.062 -1.6913  1.1047  0.8528
 4205TIP3    H234031   0.334   1.779  14.206  2.4716  1.3173  2.0426
 4206TIP3   OH234032   4.590   1.769  15.859  0.0239  0.0754 -0.1345
 4206TIP3    H134033   4.542   1.851  15.866 -0.3638 -0.1098 -0.5543
 4206TIP3    H234034   4.678   1.795  15.832 -0.2312  0.3263 -0.7486
 4207TIP3   OH234035   4.366   0.821  13.508  0.6471 -0.3370  0.5766
 4207TIP3    H134036   4.377   0.735  13.548 -1.3634 -0.2223  1.5094
 4207TIP3    H234037   4.406   0.882  13.570  1.3517 -0.5184  0.3070
 4208TIP3   OH234038   6.577   6.137  14.502 -0.0460  0.2025 -0.3168
 4208TIP3    H134039   6.653   6.160  14.555 -0.6307  1.9037 -0.1331
 4208TIP3    H234040   6.589   6.187  14.421  1.0082 -2.6011 -2.0048
 4209TIP3   OH234041   2.930   5.748  11.617 -0.5214  0.4536 -0.1571
 4209TIP3    H134042   2.966   5.674  11.667 -1.9580  0.6368  1.1811
 4209TIP3    H234043   3.000   5.813  11.618  0.5505 -0.6330 -0.8621
 4210TIP3   OH234044   4.777   0.607   2.624 -0.1554  0.0847 -0.8080
 4210TIP3    H134045   4.847   0.588   2.561  1.5038 -0.8149  1.1816
 4210TIP3    H234046   4.696   0.582   2.579  0.8905  0.0558 -2.7667
 4211TIP3   OH234047   2.157   3.762  11.272 -0.1965  0.2974  0.1681
 4211TIP3    H134048   2.186   3.707  11.200 -2.6356 -0.2444 -0.4752
 4211TIP3    H234049   2.110   3.834  11.231 -1.4924  0.0644  1.1863
 4212TIP3   OH234050   5.085   0.008   4.923  0.4016 -0.8982 -0.2369
 4212TIP3    H134051   5.161  -0.011   4.977 -0.7018 -0.5770  1.5444
 4212TIP3    H234052   5.120   0.023   4.835  2.4294 -0.2712  0.6200
 4213TIP3   OH234053   1.082   5.216  12.282  0.2986  0.2349  0.2399
 4213TIP3    H134054   1.041   5.147  12.334  1.5702  0.1053  1.1271
 4213TIP3    H234055   1.082   5.183  12.192  2.5758 -1.8041  0.9069
 4214TIP3   OH234056   4.640   0.519  12.480  0.3548  0.4228  0.1298
 4214TIP3    H134057   4.618   0.494  12.391  0.4604  0.8872 -0.0259
 4214TIP3    H234058   4.608   0.609  12.489  1.0934  0.6748  0.2942
 4215TIP3   OH234059   0.405   0.350   5.270  0.1590  0.3608 -0.2473
 4215TIP3    H134060   0.393   0.284   5.339  1.5641 -1.6191 -1.7826
 4215TIP3    H234061   0.392   0.434   5.314 -0.3569 -0.8821  2.1035
 4216TIP3   OH234062   4.112   6.514   0.773  0.0180 -0.1862 -0.3412
 4216TIP3    H134063   4.074   6.479   0.693 -0.2347  0.4676 -0.5176
 4216TIP3    H234064   4.038   6.548   0.823  0.0254 -1.7568  0.7885
 4217TIP3   OH234065   3.757   3.524   1.103  0.0486  0.0862 -0.0816
 4217TIP3    H134066   3.776   3.562   1.189  0.5682 -2.3241  0.9732
 4217TIP3    H234067   3.843   3.518   1.060  0.5669 -2.7425  1.1154
 4218TIP3   OH234068   3.089   6.127  14.205 -0.4529 -0.3793 -0.0055
 4218TIP3    H134069   3.002   6.098  14.231 -0.4744  0.9162  1.4345
 4218TIP3    H234070   3.139   6.132  14.286  1.9782 -4.0061 -0.9865
 4219TIP3   OH234071   0.878   0.685   5.843 -0.6868 -0.1658 -0.1954
 4219TIP3    H134072   0.973   0.683   5.836 -0.5407 -1.0974  1.4305
 4219TIP3    H234073   0.861   0.737   5.921 -1.5779  0.7805 -0.9885
 4220TIP3   OH234074   4.988   4.664  15.391 -0.5553 -0.1474  0.0240
 4220TIP3    H134075   5.078   4.657  15.361 -0.2251 -1.4657  1.1966
 4220TIP3    H234076   4.935   4.641  15.315  0.1584 -0.6960 -0.3094
 4221TIP3   OH234077   2.363   2.503  16.999 -0.3599  0.6891  0.4908
 4221TIP3    H134078   2.395   2.438  16.935 -2.1064  1.0896 -0.9004
 4221TIP3    H234079   2.400   2.586  16.969 -1.7914  0.9990 -0.5383
 4222TIP3   OH234080   2.770   0.338   2.571 -0.0015  0.0005 -0.5553
 4222TIP3    H134081   2.806   0.423   2.547  1.4377 -0.6426 -0.7887
 4222TIP3    H234082   2.743   0.298   2.489 -2.1206  0.8150 -0.3079
 4223TIP3   OH234083   1.001   1.854  15.579  0.1703 -0.3561  0.2457
 4223TIP3    H134084   0.976   1.772  15.535  0.7932 -0.4660  0.0819
 4223TIP3    H234085   0.943   1.859  15.655  0.6107 -1.3312  0.6690
 4224TIP3   OH234086   2.770   4.628  11.070  0.3740  0.1866  0.5122
 4224TIP3    H134087   2.727   4.575  11.002  0.0471 -1.3630  1.8596
 4224TIP3    H234088   2.773   4.716  11.033 -1.1545 -0.2937 -0.9061
 4225TIP3   OH234089   5.278   2.647   0.047  0.2221 -0.1652 -0.6548
 4225TIP3    H134090   5.247   2.737   0.044 -0.4238 -0.3819 -0.6238
 4225TIP3    H234091   5.246   2.614   0.131  0.3163 -0.4732 -0.7399
 4226TIP3   OH234092   0.224   0.296   2.759 -0.5217  0.2004 -0.4985
 4226TIP3    H134093   0.216   0.248   2.676  1.3056  0.7655 -1.0564
 4226TIP3    H234094   0.311   0.272   2.791 -0.2722  1.7779  0.0847
 4227TIP3   OH234095   3.382   6.530  15.340  0.2992 -0.0213 -0.0177
 4227TIP3    H134096   3.315   6.567  15.397 -0.8796  2.6427 -2.8411
 4227TIP3    H234097   3.336   6.467  15.285  0.9703 -0.9586  0.4529
 4228TIP3   OH234098   2.760   4.496  13.163 -0.5069 -0.4301  0.6956
 4228TIP3    H134099   2.792   4.409  13.185  2.2797  0.9970  2.9349
 4228TIP3    H234100   2.709   4.523  13.240  0.5544  0.7049  1.0369
 4229TIP3   OH234101   6.560   5.203   5.111 -0.0869 -0.4766 -0.8981
 4229TIP3    H134102   6.529   5.115   5.133 -0.3443 -0.5394 -1.4664
 4229TIP3    H234103   6.519   5.260   5.176  0.5174 -0.8336 -0.1921
 4230TIP3   OH234104   5.973   5.896  14.694 -0.7021 -0.6886 -0.2482
 4230TIP3    H134105   5.886   5.925  14.666 -0.3747 -0.8102 -1.4956
 4230TIP3    H234106   5.974   5.908  14.788 -2.1138 -0.7923 -0.1996
 4231TIP3   OH234107   3.549   6.649  13.174 -0.0920 -0.0991  0.1783
 4231TIP3    H134108   3.468   6.599  13.163 -0.9079  0.8551  1.5933
 4231TIP3    H234109   3.526   6.738  13.148  0.0204  0.5226  2.0625
 4232TIP3   OH234110   1.486   3.797   0.651  0.0267 -0.0318  0.1753
 4232TIP3    H134111   1.459   3.830   0.737 -1.7323 -1.4827  0.2368
 4232TIP3    H234112   1.447   3.710   0.646  1.6273 -0.7079 -1.3788
 4233TIP3   OH234113   0.038   3.360   5.373 -0.6349 -0.1442 -1.0157
 4233TIP3    H134114  -0.002   3.411   5.443 -0.2837  0.3985 -1.2011
 4233TIP3    H234115  -0.000   3.272   5.382  0.8972 -0.6737  1.1207
 4234TIP3   OH234116   3.340   0.996  16.256  0.4602 -0.2203 -0.3696
 4234TIP3    H134117   3.314   1.088  16.265  2.0775  0.4094 -1.6394
 4234TIP3    H234118   3.308   0.954  16.336 -3.2548  0.6562 -1.1776
 4235TIP3   OH234119   6.776   5.637   4.714 -0.1603 -0.2407 -0.0783
 4235TIP3    H134120   6.826   5.641   4.795  0.6879 -0.1815 -0.5963
 4235TIP3    H234121   6.699   5.692   4.730  0.1760  0.0460  0.5661
 4236TIP3   OH234122   3.661   5.129  10.730 -0.3580 -0.0226  0.0469
 4236TIP3    H134123   3.715   5.196  10.687  0.5734 -0.9464 -0.2538
 4236TIP3    H234124   3.667   5.149  10.823  0.8532 -0.3574  0.0503
 4237TIP3   OH234125   2.981   5.831  16.766  0.6408  0.2022  0.1098
 4237TIP3    H134126   3.040   5.868  16.700 -0.7122  1.4363 -0.4655
 4237TIP3    H234127   2.925   5.770  16.716  0.9470 -0.4291  0.5215
 4238TIP3   OH234128   6.066   0.039  12.502  0.4962  0.5443 -0.5717
 4238TIP3    H134129   6.049   0.078  12.416 -0.9735  0.9904 -0.1017
 4238TIP3    H234130   6.000   0.078  12.560  0.2673 -1.1431  0.3556
 4239TIP3   OH234131   0.990   5.521   4.104 -0.1419  0.6956  0.2826
 4239TIP3    H134132   1.013   5.432   4.079 -0.9361  0.8703 -1.2296
 4239TIP3    H234133   0.983   5.519   4.199 -0.0090 -0.8132  0.2790
 4240TIP3   OH234134   1.849   0.675  15.484 -0.1032 -0.4563  0.2836
 4240TIP3    H134135   1.930   0.630  15.509 -0.9303 -1.1136  1.8904
 4240TIP3    H234136   1.784   0.646  15.547 -0.9876  2.1066  0.6927
 4241TIP3   OH234137   1.384   3.921   3.621  0.0927 -0.2588 -0.0326
 4241TIP3    H134138   1.445   3.856   3.589  0.2703 -1.0042  1.6931
 4241TIP3    H234139   1.297   3.883   3.605  0.0427  0.7001 -2.2729
 4242TIP3   OH234140   0.454   6.435   3.720 -0.3812  0.4622  0.2186
 4242TIP3    H134141   0.487   6.469   3.803 -0.6512 -0.0397  0.5380
 4242TIP3    H234142   0.479   6.500   3.655 -0.6449  1.1290  0.7763
 4243TIP3   OH234143   0.485   0.238   2.797 -0.1170  0.1652  0.0163
 4243TIP3    H134144   0.558   0.177   2.797 -0.0753  0.2140 -0.3269
 4243TIP3    H234145   0.523   0.322   2.772 -0.5702 -0.1644 -1.9083
 4244TIP3   OH234146   6.291   3.012  15.600 -0.1330 -0.0604  0.3650
 4244TIP3    H134147   6.238   2.951  15.650 -0.7110 -0.4683 -0.7085
 4244TIP3    H234148   6.308   2.967  15.517 -0.8291  1.3340 -0.5839
 4245TIP3   OH234149   6.089   4.514   0.308 -0.2713 -0.1230 -0.5177
 4245TIP3    H134150   6.146   4.456   0.358 -1.7822 -0.9217  0.3695
 4245TIP3    H234151   6.148   4.568   0.255  1.2413 -1.2616 -0.0325
 4246TIP3   OH234152   1.493   1.238   3.740  0.2654  0.2732  0.3388
 4246TIP3    H134153   1.501   1.162   3.799  0.6347  0.9583  1.2008
 4246TIP3    H234154   1.575   1.286   3.752 -0.0028  0.8577 -0.1353
 4247TIP3   OH234155   2.624   4.282   5.885  0.1570  0.1538 -0.4670
 4247TIP3    H134156   2.688   4.211   5.875  0.1405  0.0990 -0.1877
 4247TIP3    H234157   2.671   4.351   5.931 -0.2987 -0.3182  0.7458
 4248TIP3   OH234158   6.459   0.174   9.968  0.6647 -0.0623  0.1839
 4248TIP3    H134159   6.417   0.206  10.048  1.5663  1.5290  0.0550
 4248TIP3    H234160   6.553   0.180   9.986  0.8899  0.9632 -1.2235
 4249TIP3   OH234161   2.820   1.269   2.797  0.2197 -0.4466 -0.2517
 4249TIP3    H134162   2.849   1.360   2.789 -0.5888  0.0201  1.7003
 4249TIP3    H234163   2.894   1.218   2.762  1.8645  0.8431  1.1389
 4250TIP3   OH234164   0.511   2.682   0.884  0.2303  0.3899 -1.1537
 4250TIP3    H134165   0.542   2.596   0.854 -0.0617  0.5350 -1.9018
 4250TIP3    H234166   0.429   2.664   0.928  1.4166 -0.0255  1.0278
 4251TIP3   OH234167   6.391   3.046   5.137  0.4342  0.0347  0.1302
 4251TIP3    H134168   6.397   3.025   5.230  0.5325 -2.0071 -0.2870
 4251TIP3    H234169   6.315   2.997   5.106  0.8735  0.0417 -1.0176
 4252TIP3   OH234170   5.119   3.296  14.509 -0.4358  0.4177 -0.3441
 4252TIP3    H134171   5.124   3.266  14.418  1.5705 -2.5705  0.6019
 4252TIP3    H234172   5.191   3.358  14.517 -1.1212  1.3152 -0.9616
 4253TIP3   OH234173   1.895   4.323   2.652  0.2878 -0.4049  0.5178
 4253TIP3    H134174   1.871   4.385   2.721  0.4670  1.2133 -0.8080
 4253TIP3    H234175   1.971   4.277   2.686  1.0070  1.0954  1.0163
 4254TIP3   OH234176   0.128   3.665   5.889 -0.2760 -0.1371 -0.2718
 4254TIP3    H134177   0.137   3.693   5.798 -2.7628  2.0775  0.0345
 4254TIP3    H234178   0.202   3.705   5.934 -0.3270  0.7596 -0.9527
 4255TIP3   OH234179   0.826   3.621   1.276  0.7982  0.3273  0.0201
 4255TIP3    H134180   0.824   3.549   1.338  0.9684  0.8834  0.6880
 4255TIP3    H234181   0.819   3.700   1.330 -0.3351  0.7913 -0.7647
 4256TIP3   OH234182   1.815   4.613  10.303  0.1383  0.2365  0.0081
 4256TIP3    H134183   1.803   4.518  10.307  1.2076  0.0393 -0.8687
 4256TIP3    H234184   1.834   4.630  10.211 -0.9509  1.4364 -0.0303
 4257TIP3   OH234185   1.556   6.738  13.683  0.2894  0.4208  0.0683
 4257TIP3    H134186   1.637   6.763  13.639  0.0073 -0.1741 -0.8149
 4257TIP3    H234187   1.526   6.819  13.726  0.8814  0.8624 -0.3403
 4258TIP3   OH234188   4.058   0.765   4.236  0.0342  0.0879  0.4762
 4258TIP3    H134189   4.028   0.786   4.324 -0.2811 -0.9965  0.6495
 4258TIP3    H234190   4.152   0.783   4.237 -0.2892  1.9875  0.4161
 4259TIP3   OH234191   4.085   3.074  15.076  0.3107 -0.4340  0.0579
 4259TIP3    H134192   4.109   3.046  15.164 -1.2380  0.5566  0.8314
 4259TIP3    H234193   4.021   3.144  15.089 -0.6274 -0.8638 -1.8716
 4260TIP3   OH234194   3.890   5.275   0.761 -0.2304  0.2467 -0.6191
 4260TIP3    H134195   3.909   5.185   0.735 -1.6387 -0.0700 -0.5982
 4260TIP3    H234196   3.823   5.268   0.828 -1.6346  1.3624 -1.8305
 4261TIP3   OH234197   5.280   5.161   2.592 -0.5415 -0.5080  0.6544
 4261TIP3    H134198   5.327   5.123   2.518 -0.3234  0.5423  0.2466
 4261TIP3    H234199   5.230   5.087   2.629 -0.8674 -0.9909 -0.6909
 4262TIP3   OH234200   1.740   5.351   6.434 -0.1296 -0.3254  1.0584
 4262TIP3    H134201   1.717   5.364   6.526 -0.4995 -2.1571  1.2706
 4262TIP3    H234202   1.814   5.290   6.436 -0.6420 -1.0134  0.1481
 4263TIP3   OH234203   4.788   6.415  16.575  0.4468  0.4518  0.3157
 4263TIP3    H134204   4.766   6.380  16.488 -0.6421  1.4528  0.1589
 4263TIP3    H234205   4.854   6.355  16.609  0.2865 -0.4349 -0.8658
 4264TIP3   OH234206   2.160   0.930  14.335 -0.0864 -0.4646 -0.4048
 4264TIP3    H134207   2.227   0.863  14.350 -0.2512 -0.5162  0.1365
 4264TIP3    H234208   2.083   0.881  14.309 -0.7228 -0.6751  1.6572
 4265TIP3   OH234209   1.273   5.347   1.971  0.3292 -0.1739  0.1437
 4265TIP3    H134210   1.286   5.411   1.901  0.0578 -0.2216  0.0489
 4265TIP3    H234211   1.184   5.364   2.004  0.5270 -0.0224  0.6076
 4266TIP3   OH234212   2.311   3.195  10.992 -0.3171  0.2517  0.1410
 4266TIP3    H134213   2.361   3.192  10.910  0.8389  1.4164  0.7645
 4266TIP3    H234214   2.226   3.230  10.967 -0.3993 -0.5480 -0.7476
 4267TIP3   OH234215   0.588   6.136  14.956 -0.4869  0.0637  0.2235
 4267TIP3    H134216   0.656   6.073  14.933 -0.5911 -0.2650  0.8002
 4267TIP3    H234217   0.512   6.108  14.906  0.1131  1.1783 -1.4360
 4268TIP3   OH234218   6.373   6.328   2.004 -0.5467 -0.6301  0.0923
 4268TIP3    H134219   6.438   6.296   2.067  0.0542  0.7503  0.2098
 4268TIP3    H234220   6.290   6.324   2.051 -0.2576 -0.5658  0.6171
 4269TIP3   OH234221   4.066   2.485  14.360 -0.5416 -0.1675  0.6267
 4269TIP3    H134222   4.138   2.458  14.417  1.9791  1.3569 -1.6126
 4269TIP3    H234223   4.049   2.575  14.385 -0.1884  0.1450 -0.2112
 4270TIP3   OH234224   6.546   2.169  13.475  0.4171  0.2445 -0.2501
 4270TIP3    H134225   6.624   2.118  13.452  0.0731  0.8616 -3.1146
 4270TIP3    H234226   6.560   2.254  13.434 -1.1073  0.8892  0.4893
 4271TIP3   OH234227   1.855   6.637  11.938 -0.1450  0.4611 -0.0509
 4271TIP3    H134228   1.867   6.543  11.948 -0.1818  0.4794  0.1745
 4271TIP3    H234229   1.847   6.651  11.844  1.0857  0.3859 -0.1776
 4272TIP3   OH234230   4.284   4.771  12.599  0.0150 -0.5573  0.0380
 4272TIP3    H134231   4.205   4.717  12.595  0.9910 -2.1198  0.6439
 4272TIP3    H234232   4.352   4.715  12.562  0.7117  1.0344 -1.1536
 4273TIP3   OH234233   2.826   4.146  12.180  0.1639 -0.3037 -0.3477
 4273TIP3    H134234   2.789   4.221  12.134 -1.6009 -1.2828 -0.6117
 4273TIP3    H234235   2.851   4.085  12.109  1.4662 -0.0514 -0.1347
 4274TIP3   OH234236   3.793   3.978   4.785 -0.1819  0.4904  0.1568
 4274TIP3    H134237   3.746   4.028   4.719 -0.4412  0.0920  0.0362
 4274TIP3    H234238   3.814   3.895   4.742  1.1211  0.8705  0.0198
 4275TIP3   OH234239   1.567   2.429   2.152  0.7584  0.6029  0.0962
 4275TIP3    H134240   1.594   2.377   2.076  0.9069  1.5815 -0.5411
 4275TIP3    H234241   1.616   2.392   2.225 -0.9221 -1.7354  0.1712
 4276TIP3   OH234242   4.871   6.070  15.272  0.2366  0.2348  0.4338
 4276TIP3    H134243   4.817   6.061  15.351  2.1932  1.3783  1.9868
 4276TIP3    H234244   4.916   6.153  15.283  2.0724 -0.5073 -0.9505
 4277TIP3   OH234245   0.045   0.903  11.958 -0.4009 -0.0365 -0.2810
 4277TIP3    H134246   0.048   0.947  11.874 -0.1886 -0.1291 -0.3232
 4277TIP3    H234247   0.011   0.815  11.939  1.8299 -0.8940 -0.6480
 4278TIP3   OH234248   3.003   6.612   3.695 -0.2104 -0.3962 -0.6921
 4278TIP3    H134249   2.990   6.596   3.602 -1.1462 -1.2820 -0.4310
 4278TIP3    H234250   3.084   6.566   3.717  0.2318  0.1545 -1.1393
 4279TIP3   OH234251   6.093   0.529  14.338  0.2476 -0.3708  0.0027
 4279TIP3    H134252   6.068   0.452  14.389  0.9691 -1.3651 -1.0896
 4279TIP3    H234253   6.027   0.534  14.268 -1.1440  1.3826  1.3173
 4280TIP3   OH234254   1.754   0.002   2.000 -0.1493 -0.3298 -0.5691
 4280TIP3    H134255   1.846  -0.022   2.002 -0.0992 -0.1144  0.4081
 4280TIP3    H234256   1.754   0.098   1.992 -0.2320 -0.1716  0.8970
 4281TIP3   OH234257   2.370   2.970  15.912  0.0007  0.8355  0.0240
 4281TIP3    H134258   2.436   2.905  15.887 -0.6164  0.2719 -0.1862
 4281TIP3    H234259   2.344   2.945  16.000 -0.7406  0.3679 -0.3206
 4282TIP3   OH234260   0.897   3.843   5.197  0.3272 -0.7195 -0.1423
 4282TIP3    H134261   0.991   3.850   5.212  0.3932 -0.7054 -0.5486
 4282TIP3    H234262   0.890   3.794   5.115  0.0978  2.7773 -2.4177
 4283TIP3   OH234263   5.067   2.717   5.938 -0.0125  0.6652  0.1346
 4283TIP3    H134264   5.001   2.786   5.945 -1.1156 -0.3505  0.0184
 4283TIP3    H234265   5.105   2.712   6.026 -0.0387  1.2914  0.1886
 4284TIP3   OH234266   3.695   5.543  11.524 -0.0527  0.0758 -0.2352
 4284TIP3    H134267   3.702   5.502  11.438 -0.5506  0.9315 -0.6949
 4284TIP3    H234268   3.777   5.520  11.568 -0.6890 -2.1776 -0.1111
 4285TIP3   OH234269   5.895   3.450   3.961  0.5283  0.2573  0.3143
 4285TIP3    H134270   5.811   3.427   3.998  0.0391  0.6074 -0.5396
 4285TIP3    H234271   5.905   3.544   3.980 -0.1256  0.6500 -1.1329
 4286TIP3   OH234272   1.228   1.063  15.379  0.0076  0.0585 -0.0756
 4286TIP3    H134273   1.299   1.078  15.441  0.0122  1.7918 -0.4503
 4286TIP3    H234274   1.149   1.067  15.432  0.1624 -3.1751  0.5713
 4287TIP3   OH234275   6.579   1.346   2.392 -0.2038 -0.3408  0.0946
 4287TIP3    H134276   6.488   1.317   2.402 -0.1670 -0.8816 -0.9548
 4287TIP3    H234277   6.579   1.395   2.310  0.5446 -0.7753 -0.1734
 4288TIP3   OH234278   5.843   1.605  13.343  0.0415  0.5077 -0.2841
 4288TIP3    H134279   5.845   1.646  13.430 -0.2705  0.2157 -0.1377
 4288TIP3    H234280   5.785   1.530  13.353  0.3723  0.2017 -0.6294
 4289TIP3   OH234281   6.562   2.773  12.816  1.1545  0.2451  0.1370
 4289TIP3    H134282   6.485   2.721  12.793  0.3769  0.9352  1.0764
 4289TIP3    H234283   6.588   2.815  12.735  1.0699 -0.6517 -0.3748
 4290TIP3   OH234284   2.453   0.173   4.087 -0.4676 -0.0311 -0.3517
 4290TIP3    H134285   2.468   0.180   4.182  0.0437  1.0164 -0.4944
 4290TIP3    H234286   2.386   0.106   4.078  0.3191 -0.9829  0.6799
 4291TIP3   OH234287   1.817   1.636  11.210  0.6223 -0.6200  0.5080
 4291TIP3    H134288   1.815   1.583  11.130  0.6693 -1.2993  0.9508
 4291TIP3    H234289   1.906   1.668  11.216  0.4209  0.0757 -0.1246
 4292TIP3   OH234290   5.010   3.625   0.304  0.4885  0.1288  0.3245
 4292TIP3    H134291   5.016   3.589   0.393 -2.5350 -0.0799  0.5393
 4292TIP3    H234292   4.956   3.703   0.313 -1.4352 -0.8958 -1.5085
 4293TIP3   OH234293   5.253   0.474  12.582  0.0662  0.0772  0.1511
 4293TIP3    H134294   5.344   0.445  12.573 -0.4224 -1.7337  0.6018
 4293TIP3    H234295   5.240   0.533  12.508  1.2470 -0.6255 -0.6740
 4294TIP3   OH234296   5.123   5.040   2.769  0.2376 -0.1448  0.6224
 4294TIP3    H134297   5.117   4.957   2.817 -1.9071 -0.8691 -0.7312
 4294TIP3    H234298   5.093   5.106   2.832 -2.0759 -1.0203  0.5445
 4295TIP3   OH234299   4.960   2.016   5.340  0.6759  0.0920 -0.1708
 4295TIP3    H134300   5.014   2.048   5.412  2.1768 -0.1185 -1.1338
 4295TIP3    H234301   4.988   1.925   5.327  0.7064  0.2337 -1.2300
 4296TIP3   OH234302   3.662   0.842   1.897  0.0325  0.4228 -0.1229
 4296TIP3    H134303   3.627   0.896   1.967 -2.0591 -1.2248  0.1794
 4296TIP3    H234304   3.589   0.828   1.837  1.0908 -0.3180 -1.3133
 4297TIP3   OH234305   4.284   4.378   4.686  0.4040 -0.2868  0.2831
 4297TIP3    H134306   4.204   4.393   4.737  1.3655  1.8673  1.2736
 4297TIP3    H234307   4.354   4.410   4.742  1.6977  0.4603 -1.6629
 4298TIP3   OH234308   4.809   5.364   2.364  0.1323 -0.2159 -0.1588
 4298TIP3    H134309   4.827   5.330   2.276 -0.1304 -0.1896 -0.2216
 4298TIP3    H234310   4.896   5.374   2.404  0.2189 -0.8831 -0.1674
 4299TIP3   OH234311   0.212   6.626  14.388  0.0750  0.3620 -0.1412
 4299TIP3    H134312   0.225   6.632  14.294  1.6911 -2.0444 -0.1614
 4299TIP3    H234313   0.204   6.533  14.406 -0.1624  0.7408  2.1375
 4300TIP3   OH234314   4.817   5.149  16.127  0.2305  0.1694  0.0977
 4300TIP3    H134315   4.872   5.227  16.123  0.9990 -0.3903 -0.7246
 4300TIP3    H234316   4.728   5.183  16.136  0.6571  1.1009  0.9938
 4301TIP3   OH234317   5.497   4.580   0.668 -0.1960  0.4109  0.4553
 4301TIP3    H134318   5.446   4.505   0.637  0.2712 -0.0256  0.7252
 4301TIP3    H234319   5.470   4.653   0.612 -2.7717  0.7582  1.9880
 4302TIP3   OH234320   5.997   6.788  16.383  0.0706 -0.3395  0.6717
 4302TIP3    H134321   6.059   6.846  16.427 -1.0948  1.2131  0.3561
 4302TIP3    H234322   5.979   6.830  16.299 -1.5271 -0.6279  0.8308
 4303TIP3   OH234323   4.325   6.171  15.804  0.3172 -0.2668 -0.1194
 4303TIP3    H134324   4.362   6.259  15.795  1.8896 -1.0239 -1.5259
 4303TIP3    H234325   4.259   6.180  15.874  0.1681  2.0891 -0.4782
 4304TIP3   OH234326   3.041   2.683  15.627 -0.2440  0.0293  0.0336
 4304TIP3    H134327   3.109   2.625  15.593 -1.2203 -1.9130  1.2163
 4304TIP3    H234328   3.075   2.714  15.711 -0.0923  0.4697 -0.1895
 4305TIP3   OH234329   4.378   1.326   1.265 -0.1045 -0.3207  0.2088
 4305TIP3    H134330   4.442   1.317   1.336 -1.9462  0.5842  2.0811
 4305TIP3    H234331   4.341   1.413   1.277 -1.4963 -0.7125 -0.9957
 4306TIP3   OH234332   1.272   6.675   0.079 -0.0492 -0.2068 -0.2030
 4306TIP3    H134333   1.269   6.624  -0.002  0.6009 -1.4083  0.4879
 4306TIP3    H234334   1.294   6.764   0.051  1.0948 -0.7924 -1.2722
 4307TIP3   OH234335   5.714   6.349  11.656  0.5501  0.0803  0.1367
 4307TIP3    H134336   5.799   6.338  11.613 -0.2959 -0.5103 -1.4512
 4307TIP3    H234337   5.654   6.296  11.604 -0.9682  1.1969  0.6964
 4308TIP3   OH234338   0.138   2.423  13.622 -0.8547 -0.4338  0.0206
 4308TIP3    H134339   0.118   2.340  13.665 -0.9428 -0.8348 -0.7828
 4308TIP3    H234340   0.053   2.464  13.609 -0.7262  0.5693  1.8958
 4309TIP3   OH234341   4.771   3.109  15.318 -0.1069  0.2427  0.1547
 4309TIP3    H134342   4.834   3.179  15.309 -0.7307  0.8403  0.3240
 4309TIP3    H234343   4.779   3.057  15.238 -1.0024  1.6481 -0.8843
 4310TIP3   OH234344   6.551   2.450  12.346 -0.0107  0.5376 -0.3269
 4310TIP3    H134345   6.632   2.499  12.333 -0.5446  1.1592 -1.4236
 4310TIP3    H234346   6.486   2.498  12.295 -0.5736 -1.2478 -1.3682
 4311TIP3   OH234347   3.401   1.248  16.898  0.0114  0.2677  0.2404
 4311TIP3    H134348   3.488   1.225  16.933 -0.5054  1.2527  2.2980
 4311TIP3    H234349   3.419   1.284  16.811  1.5496 -0.5251  0.1869
 4312TIP3   OH234350   2.540   6.028  12.490  0.0241 -0.0664 -0.0477
 4312TIP3    H134351   2.590   6.069  12.561 -0.3849 -0.6098  0.5707
 4312TIP3    H234352   2.570   5.937  12.490 -1.7423 -0.6939  1.0916
 4313TIP3   OH234353   4.417   1.450  16.338  0.2628 -0.5596 -0.6706
 4313TIP3    H134354   4.474   1.402  16.397 -3.2951 -3.6672  0.6578
 4313TIP3    H234355   4.391   1.528  16.387 -0.4059 -1.6493  0.7725
 4314TIP3   OH234356   3.863   6.641  13.593 -0.8272  0.4268 -0.0891
 4314TIP3    H134357   3.844   6.552  13.623  2.0228  0.7757  3.2256
 4314TIP3    H234358   3.804   6.697  13.644 -0.3135  0.6563  0.2515
 4315TIP3   OH234359   4.494   4.089  16.242  1.0551  0.2098  0.2233
 4315TIP3    H134360   4.454   4.172  16.217  0.6289 -0.3753 -1.1438
 4315TIP3    H234361   4.588   4.106  16.245  1.1188  0.3792 -1.6555
 4316TIP3   OH234362   2.300   4.985  14.947 -0.1787  0.1785  0.3922
 4316TIP3    H134363   2.282   5.028  15.031 -0.9769  0.1622  0.2346
 4316TIP3    H234364   2.252   4.903  14.951 -1.7588  0.9932 -0.7969
 4317TIP3   OH234365   3.683   5.836  12.696  0.5312  1.2721 -0.5003
 4317TIP3    H134366   3.722   5.749  12.708 -1.3513  0.5013  0.3414
 4317TIP3    H234367   3.655   5.837  12.604 -2.3435 -0.3588  0.2323
 4318TIP3   OH234368   5.175   5.030   0.069  0.5611 -0.0713  0.2182
 4318TIP3    H134369   5.128   4.979   0.135 -0.5187 -2.3752 -2.1477
 4318TIP3    H234370   5.123   5.111   0.059  0.0324 -0.2686  1.2745
 4319TIP3   OH234371   3.123   0.940  17.165 -0.2541  0.7684  0.8280
 4319TIP3    H134372   3.035   0.907  17.144 -0.8660  1.7604  1.7416
 4319TIP3    H234373   3.170   0.938  17.082 -1.3874  0.9361  0.1625
 4320TIP3   OH234374   1.983   1.358  15.175  0.6699  0.5255  0.1538
 4320TIP3    H134375   1.935   1.416  15.116 -0.6514 -0.8096 -0.1532
 4320TIP3    H234376   1.983   1.403  15.259 -0.0105  1.1210 -0.1614
 4321TIP3   OH234377   2.923   4.702  14.861  0.2933 -0.1658  0.3932
 4321TIP3    H134378   3.011   4.666  14.869  0.2158 -0.1873  1.2963
 4321TIP3    H234379   2.901   4.731  14.950 -0.3765  0.3860  0.0562
 4322TIP3   OH234380   0.943   3.343  15.557  0.3248  0.6291  0.2094
 4322TIP3    H134381   0.909   3.285  15.489 -1.6757  1.8927  0.0725
 4322TIP3    H234382   0.990   3.411  15.509 -0.1481  0.9206  0.1595
 4323TIP3   OH234383   2.896   6.676   5.724  0.2300 -0.5037  0.2095
 4323TIP3    H134384   2.809   6.700   5.757  0.9323  2.9431  0.0145
 4323TIP3    H234385   2.883   6.665   5.630  0.1777  1.6510 -0.0903
 4324TIP3   OH234386   5.992   2.829  14.086  0.0922  0.1289 -0.7144
 4324TIP3    H134387   5.975   2.785  14.169  2.7508 -1.1719 -0.7420
 4324TIP3    H234388   5.942   2.910  14.091 -2.0632 -1.1752  0.9194
 4325TIP3   OH234389   4.246   2.585  12.839  0.4897  0.2494 -0.3531
 4325TIP3    H134390   4.333   2.583  12.878  0.7630 -2.8807 -0.8935
 4325TIP3    H234391   4.213   2.496  12.848 -2.5462  1.2433 -0.4950
 4326TIP3   OH234392   2.428   0.088  16.704  0.3228 -0.1710 -0.4822
 4326TIP3    H134393   2.405   0.075  16.796  0.6911 -1.4051 -0.5462
 4326TIP3    H234394   2.483   0.165  16.703  2.9519 -1.8916  0.8062
 4327TIP3   OH234395   1.548   1.476  16.065 -0.3432 -0.1409 -0.8990
 4327TIP3    H134396   1.475   1.513  16.115 -0.5229 -0.9367 -0.5490
 4327TIP3    H234397   1.626   1.500  16.114 -0.4272  0.1235 -0.8955
 4328TIP3   OH234398   3.359   5.998   2.976 -0.2438 -0.2839 -0.1348
 4328TIP3    H134399   3.434   5.994   3.035  0.2646  0.6856 -0.6938
 4328TIP3    H234400   3.320   6.084   2.992 -0.5433 -0.3154 -0.6790
 4329TIP3   OH234401   6.293   3.823  13.190  0.3712  0.0377 -0.1882
 4329TIP3    H134402   6.239   3.748  13.164  0.5416 -0.5109  0.9842
 4329TIP3    H234403   6.266   3.893  13.131 -1.6753 -0.1957  0.3796
 4330TIP3   OH234404   0.273   2.834   2.996 -0.5112  0.1441  0.1295
 4330TIP3    H134405   0.213   2.844   2.922  0.0971 -0.3451 -0.4317
 4330TIP3    H234406   0.357   2.865   2.964 -0.3096  0.2045  0.7073
 4331TIP3   OH234407   1.485   0.587   1.733  0.3282 -0.0341  0.0082
 4331TIP3    H134408   1.405   0.557   1.689 -0.9427  0.7587  1.6368
 4331TIP3    H234409   1.512   0.664   1.683  0.2796 -0.5043 -0.7571
 4332TIP3   OH234410   2.999   6.224  15.256 -0.0056  0.0105  0.1175
 4332TIP3    H134411   2.930   6.164  15.228 -1.4893  1.7829 -0.1664
 4332TIP3    H234412   2.986   6.233  15.351  1.4854 -1.5940  0.5383
 4333TIP3   OH234413   5.295   3.881   4.578  0.4692 -0.5965  0.2089
 4333TIP3    H134414   5.223   3.877   4.641 -0.1294 -1.7558 -0.5244
 4333TIP3    H234415   5.262   3.937   4.508  1.7111  2.0543  1.5401
 4334TIP3   OH234416   5.228   4.638  14.737  0.4528 -0.5150  0.5511
 4334TIP3    H134417   5.221   4.639  14.832 -0.6089 -0.3730  0.4853
 4334TIP3    H234418   5.235   4.546  14.714 -0.7778 -0.6536  0.6853
 4335TIP3   OH234419   2.333   1.979   2.046 -0.1873 -0.3098 -0.1159
 4335TIP3    H134420   2.326   1.903   2.104 -0.9166 -0.6884 -0.6738
 4335TIP3    H234421   2.311   2.054   2.101  0.3432 -0.5261  0.3950
 4336TIP3   OH234422   1.211   1.601  15.397 -0.0465  0.1290 -0.7483
 4336TIP3    H134423   1.267   1.526  15.415 -0.1261  0.2004 -0.1902
 4336TIP3    H234424   1.269   1.676  15.403 -0.4311  0.3251  1.1443
 4337TIP3   OH234425   0.874   5.342  14.793 -0.2210 -0.5073 -0.3733
 4337TIP3    H134426   0.846   5.338  14.884 -0.6038 -0.9628 -0.5049
 4337TIP3    H234427   0.925   5.262  14.780 -0.2742 -0.5061 -0.5908
 4338TIP3   OH234428   0.285   3.509  15.203 -0.7869 -0.0102 -0.4316
 4338TIP3    H134429   0.329   3.496  15.119  0.3163  1.8700 -0.2086
 4338TIP3    H234430   0.235   3.590  15.191  0.3946  0.9907  1.0710
 4339TIP3   OH234431   3.470   0.802   0.017  0.1332  0.2483  0.5210
 4339TIP3    H134432   3.530   0.800   0.091 -1.6849  1.5466  2.1569
 4339TIP3    H234433   3.436   0.892   0.016 -0.7140 -0.0329 -1.2234
 4340TIP3   OH234434   5.722   4.812   3.768  0.3893 -0.0575  0.3379
 4340TIP3    H134435   5.766   4.793   3.850 -2.9052 -2.3876  1.7975
 4340TIP3    H234436   5.705   4.726   3.730  0.5629  0.9106 -2.1196
 4341TIP3   OH234437   2.922   6.396   1.775 -0.0971 -0.2978 -0.2253
 4341TIP3    H134438   2.847   6.342   1.752 -0.2216 -0.6401  0.9222
 4341TIP3    H234439   2.961   6.353   1.851 -0.2407  1.2477  0.7692
 4342TIP3   OH234440   0.963   5.944   6.585 -0.3163  0.0457 -0.5361
 4342TIP3    H134441   1.050   5.974   6.610  0.3104 -0.9029 -1.5157
 4342TIP3    H234442   0.924   5.914   6.667  1.0574 -1.4377 -0.3766
 4343TIP3   OH234443   3.911   2.909   2.835  0.5041  0.2510 -0.0735
 4343TIP3    H134444   3.916   2.867   2.749 -0.8408  0.9248 -0.5018
 4343TIP3    H234445   4.003   2.925   2.858  0.9144 -0.3585 -1.1648
 4344TIP3   OH234446   4.228   5.617  15.797  0.0796  0.3254 -0.4660
 4344TIP3    H134447   4.295   5.679  15.826 -0.7099  0.4537  1.1662
 4344TIP3    H234448   4.157   5.627  15.860 -1.0426 -0.5756 -1.5420
 4345TIP3   OH234449   0.664   6.809  13.909 -0.4877 -0.7485 -0.4831
 4345TIP3    H134450   0.645   6.744  13.978 -0.1272 -1.0147 -0.6333
 4345TIP3    H234451   0.753   6.788  13.880  0.1279  0.6094  0.3391
 4346TIP3   OH234452   3.563   5.884  12.430 -0.3079 -0.0575  0.0488
 4346TIP3    H134453   3.485   5.940  12.436  0.1613  0.8526 -1.5955
 4346TIP3    H234454   3.558   5.847  12.342 -0.2152 -2.0837  0.8435
 4347TIP3   OH234455   1.342   5.900  13.723 -0.1115 -0.4283 -0.3232
 4347TIP3    H134456   1.381   5.815  13.704  1.4726  0.0338  0.6566
 4347TIP3    H234457   1.318   5.896  13.815 -2.5458 -0.7148 -0.9056
 4348TIP3   OH234458   0.355   3.314  13.473 -0.3654 -0.3768 -0.3997
 4348TIP3    H134459   0.277   3.362  13.446 -0.6435 -1.3023 -1.2779
 4348TIP3    H234460   0.324   3.226  13.492  0.0084 -0.0676  1.9607
 4349TIP3   OH234461   2.027   1.469   5.019  0.6742 -0.1601  0.3270
 4349TIP3    H134462   2.002   1.468   5.112  0.0960  0.2752  0.1843
 4349TIP3    H234463   2.008   1.558   4.991  1.1223 -0.2115 -0.1422
 4350TIP3   OH234464   1.558   1.261   5.719 -0.2890  0.1531 -0.0480
 4350TIP3    H134465   1.597   1.335   5.674 -0.2060  0.1046 -0.0553
 4350TIP3    H234466   1.491   1.229   5.658  0.5992 -0.6299 -0.6392
 4351TIP3   OH234467   3.570   4.040   1.835  0.1958  0.4140  0.3617
 4351TIP3    H134468   3.641   4.003   1.783  0.2236  2.8130 -1.4682
 4351TIP3    H234469   3.612   4.106   1.889 -0.4053  0.7250  0.4536
 4352TIP3   OH234470   4.681   6.110   0.850  0.3476 -0.1322 -0.5084
 4352TIP3    H134471   4.644   6.183   0.900 -0.3418 -2.2382  2.2720
 4352TIP3    H234472   4.775   6.114   0.867  0.2172 -0.3205  0.2942
 4353TIP3   OH234473   4.041   6.392   4.137 -0.0124 -0.6137  0.2271
 4353TIP3    H134474   3.964   6.363   4.087 -0.6902 -1.0844  1.5078
 4353TIP3    H234475   4.050   6.485   4.114 -1.7877 -0.1875  1.0526
 4354TIP3   OH234476   1.656   0.698  15.249  0.8021  0.5764 -0.1872
 4354TIP3    H134477   1.726   0.718  15.311  0.1981  0.9573  0.3910
 4354TIP3    H234478   1.598   0.774  15.254 -1.0804 -0.8393  1.3623
 4355TIP3   OH234479   4.915   2.264  10.387 -0.0415  0.5802  0.6009
 4355TIP3    H134480   4.901   2.177  10.350  1.4421  0.1007  1.0894
 4355TIP3    H234481   4.971   2.249  10.463  0.2746  1.9765  0.6692
 4356TIP3   OH234482   5.690   2.828  15.419 -0.0732  0.6366 -0.0923
 4356TIP3    H134483   5.714   2.761  15.354 -0.3032 -1.4537  1.8312
 4356TIP3    H234484   5.606   2.862  15.388 -1.1219 -1.6657 -0.0082
 4357TIP3   OH234485   4.476   1.809   5.085  0.2300 -0.2007 -0.1856
 4357TIP3    H134486   4.535   1.753   5.137 -1.3690 -1.1691  0.6552
 4357TIP3    H234487   4.490   1.897   5.119  1.3609 -0.3755 -0.1639
 4358TIP3   OH234488   5.143   2.142  15.228  0.0680 -0.1117  0.1399
 4358TIP3    H134489   5.220   2.191  15.202  1.1869 -1.7451  0.2615
 4358TIP3    H234490   5.077   2.163  15.161  0.3836  1.7564  0.3675
 4359TIP3   OH234491   0.021   2.544   4.927 -0.9687  0.0618  0.0847
 4359TIP3    H134492  -0.013   2.615   4.872  1.3669 -0.4352 -2.1651
 4359TIP3    H234493  -0.005   2.464   4.882 -0.4110 -0.4208  0.6039
 4360TIP3   OH234494   4.810   0.069   3.742 -0.2177  0.8529 -0.2216
 4360TIP3    H134495   4.792   0.078   3.648  0.9761  0.6558 -0.4757
 4360TIP3    H234496   4.862  -0.011   3.749 -3.6440 -1.5401  1.0872
 4361TIP3   OH234497   0.111   5.062   3.899  0.1763 -0.5882  0.1867
 4361TIP3    H134498   0.187   5.116   3.920 -0.6646  0.5973  0.3158
 4361TIP3    H234499   0.128   4.979   3.942  1.4200 -0.3616  0.1677
 4362TIP3   OH234500   4.253   2.258  16.661  0.3354  0.4460  0.3744
 4362TIP3    H134501   4.281   2.189  16.720  0.1006 -0.2907 -0.3615
 4362TIP3    H234502   4.235   2.214  16.578  0.7832  1.4776 -0.3001
 4363TIP3   OH234503   2.630   4.243   2.132 -0.0221  0.4634  0.3999
 4363TIP3    H134504   2.685   4.204   2.064  0.7181  0.2227  1.1278
 4363TIP3    H234505   2.661   4.205   2.213 -1.3537  0.2304  0.8224
 4364TIP3   OH234506   6.272   4.447  15.120  0.0156 -0.3159 -0.4775
 4364TIP3    H134507   6.332   4.478  15.052 -1.3732 -0.9414 -2.0680
 4364TIP3    H234508   6.306   4.485  15.201  1.3176  1.0669 -1.6002
 4365TIP3   OH234509   3.400   0.665   3.387  0.6285 -0.3320  0.4376
 4365TIP3    H134510   3.465   0.639   3.452  1.5170  0.8822  0.0702
 4365TIP3    H234511   3.340   0.590   3.382  1.9390 -1.4647  0.8494
 4366TIP3   OH234512   3.749   3.484  13.438 -0.2553 -0.1592 -0.5697
 4366TIP3    H134513   3.843   3.499  13.440 -0.2123 -0.2378 -1.5549
 4366TIP3    H234514   3.711   3.559  13.483  0.1471  1.1601 -2.3472
 4367TIP3   OH234515   0.650   2.658  16.400 -0.1632  0.2721  0.7124
 4367TIP3    H134516   0.576   2.603  16.374  0.3024 -0.2911  0.5488
 4367TIP3    H234517   0.727   2.609  16.370  0.2633  0.9779  0.6411
 4368TIP3   OH234518   5.722   2.233   4.235 -0.3580  0.2486 -0.6534
 4368TIP3    H134519   5.657   2.304   4.240 -1.3869 -0.6321 -1.1553
 4368TIP3    H234520   5.795   2.272   4.188 -0.5421  1.2398 -0.1601
 4369TIP3   OH234521   1.002   0.798  12.968  0.1694 -0.5723  0.4749
 4369TIP3    H134522   1.065   0.824  12.901 -0.3777  0.0449  0.1880
 4369TIP3    H234523   1.050   0.808  13.051  0.3630  0.1728  0.2788
 4370TIP3   OH234524   5.001   5.013   1.425 -0.5019  0.0801 -0.8013
 4370TIP3    H134525   5.095   5.012   1.406 -0.1452 -0.1423  0.8423
 4370TIP3    H234526   4.970   5.096   1.388  0.6202  0.8120 -0.1687
 4371TIP3   OH234527   2.987   0.175  12.294  0.2899 -0.3913  0.6757
 4371TIP3    H134528   2.954   0.166  12.205  0.7850  0.1663  0.4343
 4371TIP3    H234529   3.003   0.085  12.323  0.9978 -0.5264 -0.1230
 4372TIP3   OH234530   2.257   4.539   1.333 -0.6375  0.1277 -0.4476
 4372TIP3    H134531   2.185   4.483   1.303  0.6361 -2.1380  0.4134
 4372TIP3    H234532   2.318   4.542   1.259 -0.3789 -0.2543 -0.2562
 4373TIP3   OH234533   3.682   2.805  14.776  0.1816 -0.3582  0.1081
 4373TIP3    H134534   3.633   2.844  14.848  1.3572 -0.4227  0.9591
 4373TIP3    H234535   3.625   2.735  14.744 -1.4109  1.1966 -0.6377
 4374TIP3   OH234536   0.749   3.027  17.101  0.1331  0.4309 -1.0911
 4374TIP3    H134537   0.758   3.122  17.098  1.3003  0.3244 -2.2087
 4374TIP3    H234538   0.655   3.011  17.091  0.0150  1.4526 -1.7300
 4375TIP3   OH234539   1.006   6.467   0.802  0.0322  0.3989 -0.2598
 4375TIP3    H134540   0.988   6.516   0.722 -1.2439  0.3888 -0.0081
 4375TIP3    H234541   0.961   6.516   0.871 -0.2625 -0.4684  0.1835
 4376TIP3   OH234542   0.980   5.172   6.285  0.3637 -0.4204  0.5035
 4376TIP3    H134543   1.042   5.160   6.357  1.2918 -1.5001 -0.4299
 4376TIP3    H234544   0.949   5.084   6.264 -0.3817 -0.0529 -0.0063
 4377TIP3   OH234545   2.364   0.647   5.829  0.1137  0.6600  0.1480
 4377TIP3    H134546   2.370   0.683   5.740 -1.0747  2.4555  0.7350
 4377TIP3    H234547   2.272   0.654   5.852  0.4064  0.2813  1.5377
 4378TIP3   OH234548   1.002   1.574   6.296 -0.4155  0.3387  0.0890
 4378TIP3    H134549   0.973   1.508   6.359 -0.1770  0.5947  0.4705
 4378TIP3    H234550   0.924   1.626   6.278 -0.4498  0.3563  0.2846
 4379TIP3   OH234551   5.706   3.931   6.099  0.6411 -0.4045  0.0484
 4379TIP3    H134552   5.617   3.904   6.119  1.0386 -1.3582  0.5721
 4379TIP3    H234553   5.718   3.909   6.006 -0.0449  0.8449 -0.3730
 4380TIP3   OH234554   5.369   6.225  15.201 -0.3345  0.9819 -0.5228
 4380TIP3    H134555   5.318   6.178  15.267 -0.1157  2.0124  0.4006
 4380TIP3    H234556   5.360   6.171  15.122 -1.6865  0.4163 -0.0161
 4381TIP3   OH234557   0.641   5.110   0.254 -0.2560  0.1211  0.1865
 4381TIP3    H134558   0.614   5.101   0.345  0.5360  1.0771  0.5309
 4381TIP3    H234559   0.737   5.111   0.258 -0.2167  0.2356 -0.6576
 4382TIP3   OH234560   3.529   6.801   0.273  0.4178 -0.7583 -0.0688
 4382TIP3    H134561   3.558   6.709   0.276 -1.5776 -1.4018  1.2769
 4382TIP3    H234562   3.483   6.814   0.356 -3.0549  0.1567 -1.9475
 4383TIP3   OH234563   4.512   5.539   0.454  0.0581  0.0710  0.4915
 4383TIP3    H134564   4.558   5.488   0.520 -0.9185 -2.9092 -0.9762
 4383TIP3    H234565   4.569   5.614   0.438  1.2387 -0.1293  3.2473
 4384TIP3   OH234566   0.134   4.440  13.414 -0.3136 -0.3659 -0.1886
 4384TIP3    H134567   0.082   4.367  13.450  0.3441 -1.3056 -1.0831
 4384TIP3    H234568   0.071   4.491  13.364 -0.4399 -1.4383 -1.1781
 4385TIP3   OH234569   4.723   1.642   2.697  0.2364 -0.0657  0.1569
 4385TIP3    H134570   4.786   1.584   2.655 -0.7358 -1.2645  0.3011
 4385TIP3    H234571   4.775   1.693   2.759  1.4173  0.5783 -1.3017
 4386TIP3   OH234572   3.085   4.861   3.891  0.3549 -0.5821 -0.7225
 4386TIP3    H134573   3.171   4.898   3.872  0.0731 -0.5835 -2.0966
 4386TIP3    H234574   3.061   4.814   3.811 -0.8415 -0.7318 -0.2917
 4387TIP3   OH234575   5.237   1.443  15.416  0.4449 -0.0785  0.2519
 4387TIP3    H134576   5.212   1.521  15.367  0.2324 -0.9024 -0.9773
 4387TIP3    H234577   5.257   1.377  15.350 -0.1184 -1.3129  1.2521
 4388TIP3   OH234578   1.281   5.753  12.249 -0.1321  0.3321  0.0250
 4388TIP3    H134579   1.208   5.807  12.217 -0.0499  0.5336  0.1760
 4388TIP3    H234580   1.290   5.777  12.341  1.1650  1.5122 -0.3687
 4389TIP3   OH234581   1.719   6.379   5.901 -0.1644 -0.0987 -0.1390
 4389TIP3    H134582   1.737   6.390   5.995  0.2613  0.1312 -0.2443
 4389TIP3    H234583   1.805   6.370   5.861 -0.0647  3.0559 -0.9052
 4390TIP3   OH234584   1.266   2.756  13.143  0.2136 -0.0436  0.2230
 4390TIP3    H134585   1.324   2.789  13.212  0.4952 -0.0797  0.0042
 4390TIP3    H234586   1.225   2.835  13.106 -0.6141 -0.0809  1.0148
 4391TIP3   OH234587   6.420   2.542  11.398  0.5461  0.0667  0.4459
 4391TIP3    H134588   6.341   2.562  11.449 -0.2793 -1.3745 -0.1887
 4391TIP3    H234589   6.465   2.475  11.449  0.9281  0.2936  0.4054
 4392TIP3   OH234590   1.807   0.215   0.248 -0.0605 -0.3853 -0.3193
 4392TIP3    H134591   1.802   0.149   0.178  1.3304 -0.0409 -0.7853
 4392TIP3    H234592   1.824   0.164   0.327 -1.7465 -0.7874 -0.1810
 4393TIP3   OH234593   1.201   3.752   2.127  0.5349  0.4956  0.2895
 4393TIP3    H134594   1.249   3.754   2.044  1.2850 -1.0825  0.6380
 4393TIP3    H234595   1.144   3.828   2.123  0.8459  0.6979 -1.4957
 4394TIP3   OH234596   5.429   3.956  16.972 -0.1133  0.0658  0.1927
 4394TIP3    H134597   5.450   3.900  17.046 -0.4072 -0.6980 -0.2943
 4394TIP3    H234598   5.482   4.035  16.985  0.8736 -0.6389  0.4847
 4395TIP3   OH234599   2.881   5.500   2.174 -0.0580  0.0828  0.1024
 4395TIP3    H134600   2.845   5.580   2.135 -1.0696 -0.6736 -0.5774
 4395TIP3    H234601   2.942   5.531   2.241 -2.6827  1.4647  2.0051
 4396TIP3   OH234602   5.010   2.757   1.375 -0.7395  0.0040 -0.1794
 4396TIP3    H134603   5.027   2.837   1.426 -1.9316 -0.3522  0.8386
 4396TIP3    H234604   4.932   2.779   1.323  0.2570  0.2389 -1.6185
 4397TIP3   OH234605   2.713   3.645   0.388  0.9196 -0.3471 -0.5262
 4397TIP3    H134606   2.644   3.579   0.396  0.9769 -0.3104  0.3472
 4397TIP3    H234607   2.686   3.716   0.446 -0.7254  1.8674 -3.6645
 4398TIP3   OH234608   6.594   3.283   2.138 -0.2496  0.2154  0.6858
 4398TIP3    H134609   6.551   3.241   2.063  0.4380 -3.5983  2.1888
 4398TIP3    H234610   6.526   3.339   2.176 -2.0389 -1.1187 -0.3342
 4399TIP3   OH234611   2.502   2.622  13.095  0.1082 -0.4556  0.3280
 4399TIP3    H134612   2.451   2.630  13.175 -0.2019 -0.1489  0.1063
 4399TIP3    H234613   2.553   2.703  13.090  1.4031 -1.2015  1.0724
 4400TIP3   OH234614   3.237   2.018   0.978 -0.8163  0.0516 -0.2192
 4400TIP3    H134615   3.172   1.988   1.041 -1.6966  2.1823 -0.0301
 4400TIP3    H234616   3.293   2.079   1.027  0.0609 -0.1836 -0.8920
 4401TIP3   OH234617   5.017   5.246   0.672 -0.5250  0.1116  0.0452
 4401TIP3    H134618   5.031   5.320   0.732 -0.0868 -0.3472  0.5133
 4401TIP3    H234619   5.076   5.263   0.599  0.4936 -0.4124  0.7359
 4402TIP3   OH234620   2.425   1.640  16.892 -0.5392  0.2330 -0.3850
 4402TIP3    H134621   2.520   1.654  16.889 -0.3999 -0.7386 -1.0658
 4402TIP3    H234622   2.414   1.555  16.934 -1.2260  1.1164  1.3263
 4403TIP3   OH234623   2.741   4.900  10.979 -0.7101 -0.0206  0.2901
 4403TIP3    H134624   2.717   4.905  10.887 -0.3807  0.0397  0.2059
 4403TIP3    H234625   2.824   4.948  10.985 -0.6286 -0.1942  0.5804
 4404TIP3   OH234626   3.578   5.610   1.917 -0.0882 -0.3917  0.3277
 4404TIP3    H134627   3.542   5.656   1.993  1.2974  2.7549 -0.7495
 4404TIP3    H234628   3.670   5.597   1.938 -0.3062 -2.1495  0.3105
 4405TIP3   OH234629   6.111   6.287  10.336 -0.1532  0.4445 -0.1807
 4405TIP3    H134630   6.053   6.255  10.267 -0.0801 -1.1930  0.4790
 4405TIP3    H234631   6.092   6.232  10.412  3.6108 -1.5775 -0.4769
 4406TIP3   OH234632   6.594   5.464  15.759  0.0239 -0.6231 -0.1218
 4406TIP3    H134633   6.557   5.541  15.803 -0.0666 -0.4699 -0.4601
 4406TIP3    H234634   6.519   5.405  15.748 -0.5695  0.4413 -2.4529
 4407TIP3   OH234635   3.241   3.504   4.643 -0.1642 -0.2925 -0.2771
 4407TIP3    H134636   3.238   3.455   4.725 -0.2035  1.4996  0.8355
 4407TIP3    H234637   3.317   3.468   4.596 -0.5455 -1.8062  0.2024
 4408TIP3   OH234638   4.117   0.640  12.265 -0.0477  0.4315 -0.0954
 4408TIP3    H134639   4.093   0.695  12.191  0.5770  0.2781 -0.4121
 4408TIP3    H234640   4.212   0.645  12.270 -0.1521  3.1090  2.7230
 4409TIP3   OH234641   0.799   3.904  10.358 -0.5887 -0.0791 -0.4535
 4409TIP3    H134642   0.847   3.857  10.427 -1.0700  0.9003  0.5790
 4409TIP3    H234643   0.848   3.885  10.278  1.4916  0.7817  0.5407
 4410TIP3   OH234644   6.354   6.084   0.569  0.2584  0.0985  0.1378
 4410TIP3    H134645   6.320   6.162   0.612  0.3301 -0.1972  0.7396
 4410TIP3    H234646   6.278   6.045   0.526 -0.2021 -0.5802  1.5005
 4411TIP3   OH234647   1.433   5.111   0.021 -0.3926  0.3218 -0.1395
 4411TIP3    H134648   1.520   5.151   0.027 -0.5658  0.8900 -1.0938
 4411TIP3    H234649   1.372   5.183   0.041 -0.7691  1.0207 -3.2449
 4412TIP3   OH234650   6.239   6.424   4.591 -0.6024  0.2703 -0.0415
 4412TIP3    H134651   6.270   6.499   4.540 -2.2803  0.9847 -0.0594
 4412TIP3    H234652   6.319   6.378   4.617  0.5158  2.3774  0.4463
 4413TIP3   OH234653   3.732   2.446  13.563 -0.2241  0.2260  0.1970
 4413TIP3    H134654   3.658   2.410  13.612  0.0090 -0.1856  0.2446
 4413TIP3    H234655   3.697   2.461  13.475  0.1865 -1.9706 -0.4079
 4414TIP3   OH234656   0.011   3.194   4.761 -0.1230 -0.5972 -0.9563
 4414TIP3    H134657   0.035   3.266   4.703  0.9466  0.5931  0.8587
 4414TIP3    H234658  -0.080   3.213   4.786  0.4257  0.6698  0.1950
 4415TIP3   OH234659   3.092   3.488   3.090  0.4423 -0.1340  0.5174
 4415TIP3    H134660   3.147   3.539   3.149  0.0280  2.7822 -1.3852
 4415TIP3    H234661   3.121   3.514   3.002 -1.5238 -1.3018 -0.5469
 4416TIP3   OH234662   5.969   0.103  16.147  0.6635 -0.1885 -0.1546
 4416TIP3    H134663   5.975   0.189  16.188  2.9205 -1.1940  1.9185
 4416TIP3    H234664   6.054   0.091  16.104  0.8466 -1.7778  0.5678
 4417TIP3   OH234665   6.191   4.468  12.100  0.8654  0.7896  0.2684
 4417TIP3    H134666   6.169   4.464  12.193 -0.6273 -0.8646 -0.1156
 4417TIP3    H234667   6.277   4.428  12.093 -0.6528 -2.8479  0.5325
 4418TIP3   OH234668   0.548   2.257  12.221 -0.9649 -0.0325 -0.3457
 4418TIP3    H134669   0.489   2.186  12.197  0.0599 -0.1889 -2.6815
 4418TIP3    H234670   0.635   2.216  12.223 -0.7237  0.4710  1.7256
 4419TIP3   OH234671   1.048   1.101   0.645 -0.3608 -0.6789 -0.2093
 4419TIP3    H134672   0.999   1.029   0.685 -1.9334  0.4414 -0.0362
 4419TIP3    H234673   1.072   1.158   0.718 -1.6937  0.4596 -0.6246
 4420TIP3   OH234674   1.614   4.641   2.666 -0.2770 -0.5080 -0.2241
 4420TIP3    H134675   1.682   4.592   2.712  1.7190  1.9521 -0.3334
 4420TIP3    H234676   1.558   4.574   2.627  2.0684 -2.6671 -0.1073
 4421TIP3   OH234677   5.572   1.652  14.959  0.2427 -0.0715 -0.1261
 4421TIP3    H134678   5.544   1.732  14.915  1.9968  0.5260 -0.2388
 4421TIP3    H234679   5.600   1.594  14.888  0.0131 -0.3702  0.0239
 4422TIP3   OH234680   4.792   5.415   3.143  0.4257 -0.0316  0.3325
 4422TIP3    H134681   4.749   5.356   3.205 -0.2343 -2.4055 -2.1751
 4422TIP3    H234682   4.878   5.375   3.129 -0.7798 -1.8679 -2.9823
 4423TIP3   OH234683   5.410   5.661   2.140  0.1481  0.0427  0.1277
 4423TIP3    H134684   5.461   5.739   2.161  0.7104 -0.4460  0.6239
 4423TIP3    H234685   5.405   5.613   2.223  0.6834 -0.9442 -0.3953
 4424TIP3   OH234686   0.932   4.738  12.764  0.5052 -0.1416 -0.4160
 4424TIP3    H134687   0.866   4.669  12.769 -0.8838  1.1729  0.2835
 4424TIP3    H234688   0.894   4.804  12.705  0.4043  1.3759  1.2445
 4425TIP3   OH234689   1.380   4.058  14.600  0.0813 -0.1675 -0.0821
 4425TIP3    H134690   1.423   4.021  14.677  1.4565 -2.6302 -1.9178
 4425TIP3    H234691   1.322   4.125  14.636  2.4160  0.5031  2.8887
 4426TIP3   OH234692   6.322   4.059   2.388  0.4322 -0.2898  0.1319
 4426TIP3    H134693   6.321   4.036   2.295  2.7081  1.2063 -0.3339
 4426TIP3    H234694   6.282   3.984   2.431  0.3597 -1.5276 -1.9460
 4427TIP3   OH234695   2.125   0.254   3.520  0.1351 -0.5609  0.0791
 4427TIP3    H134696   2.129   0.203   3.601  0.4702 -1.7051 -0.6359
 4427TIP3    H234697   2.068   0.204   3.462 -0.4545  0.4668 -0.2571
 4428TIP3   OH234698   5.681   0.572   2.991 -0.0838 -0.1789  0.4604
 4428TIP3    H134699   5.593   0.552   2.957  0.2606 -1.1982  0.1130
 4428TIP3    H234700   5.682   0.534   3.079 -0.1010  0.1181  0.5881
 4429TIP3   OH234701   5.623   0.910  12.697  0.4832 -0.3305  0.1320
 4429TIP3    H134702   5.563   0.891  12.769  0.4344  2.3187  0.8709
 4429TIP3    H234703   5.573   0.966  12.638  0.9661 -1.3804 -1.3239
 4430TIP3   OH234704   2.956   5.560  14.434  0.7564 -0.0764  0.4525
 4430TIP3    H134705   2.925   5.539  14.522  2.3667  2.2659  1.7004
 4430TIP3    H234706   2.907   5.502  14.376 -2.2814  0.0965  2.6364
 4431TIP3   OH234707   2.445   4.502  13.341  0.1659  0.4985 -0.2719
 4431TIP3    H134708   2.438   4.579  13.284  0.5932  0.1800 -0.7657
 4431TIP3    H234709   2.428   4.428  13.283  1.6738  0.1012 -0.2391
 4432TIP3   OH234710   4.950   0.667  13.057 -0.0740 -0.4028 -0.1640
 4432TIP3    H134711   4.934   0.574  13.074  1.1978 -0.3917  1.3377
 4432TIP3    H234712   4.942   0.708  13.143  4.4457  0.0458  0.2518
 4433TIP3   OH234713   6.506   0.847  15.841  0.1227 -0.6035 -0.0383
 4433TIP3    H134714   6.454   0.893  15.907  2.2367  1.4365  0.3183
 4433TIP3    H234715   6.461   0.763  15.831 -3.3795  1.0780 -0.0302
 4434TIP3   OH234716   4.591   4.026  15.242  0.2425 -0.2688  0.2138
 4434TIP3    H134717   4.594   4.013  15.147 -1.2327  0.4212  0.0427
 4434TIP3    H234718   4.655   4.095  15.258 -1.0819  1.2431 -0.6424
 4435TIP3   OH234719   4.864   6.723  12.364  0.5787  0.2616  0.0873
 4435TIP3    H134720   4.929   6.656  12.341 -0.0595 -0.1612 -0.5379
 4435TIP3    H234721   4.897   6.762  12.445  0.0341 -2.1074  1.5578
 4436TIP3   OH234722   5.221   1.755  10.461 -0.1555  0.2681 -0.0703
 4436TIP3    H134723   5.149   1.817  10.448  0.8027  1.6516  0.9572
 4436TIP3    H234724   5.293   1.808  10.495  1.8329 -0.8119 -2.2978
 4437TIP3   OH234725   2.378   4.462   0.749 -0.2770 -0.3054 -0.7652
 4437TIP3    H134726   2.442   4.521   0.790 -0.7545 -1.3082  1.5799
 4437TIP3    H234727   2.363   4.500   0.663  2.9950  0.3387 -1.2090
 4438TIP3   OH234728   3.521   4.004  13.253  0.1798 -0.5310 -0.3184
 4438TIP3    H134729   3.571   4.012  13.335  0.1906 -1.9335 -0.1482
 4438TIP3    H234730   3.430   4.000  13.282  0.2262 -1.7734 -0.2838
 4439TIP3   OH234731   5.131   0.518  12.913  0.1600  0.1555  0.3027
 4439TIP3    H134732   5.212   0.499  12.961 -0.1380  1.1726  1.2507
 4439TIP3    H234733   5.087   0.585  12.965 -1.3239 -0.3918 -0.1705
 4440TIP3   OH234734   2.129   1.755  10.513  0.2616  0.0061 -0.3529
 4440TIP3    H134735   2.069   1.762  10.587  0.6128 -1.8812  0.1449
 4440TIP3    H234736   2.215   1.744  10.552  0.8662  1.7787 -1.0742
 4441TIP3   OH234737   5.077   1.867  14.620  0.0045  0.2385  0.8826
 4441TIP3    H134738   5.001   1.906  14.662 -1.7597 -1.1806 -0.7616
 4441TIP3    H234739   5.110   1.803  14.684 -1.1171 -0.1679  1.0784
 4442TIP3   OH234740   2.731   5.516  16.965  0.3600  0.1022 -0.0634
 4442TIP3    H134741   2.682   5.566  17.030  0.6724 -0.6628  0.7840
 4442TIP3    H234742   2.672   5.511  16.890 -0.1500  0.6976  0.2859
 4443TIP3   OH234743   1.124   1.275  11.804  0.5209  0.2003  0.3183
 4443TIP3    H134744   1.109   1.262  11.898  1.1257 -1.3147  0.2442
 4443TIP3    H234745   1.174   1.198  11.778  0.8625  0.8937 -1.1422
 4444TIP3   OH234746   3.693   2.606   3.126  0.0721 -0.2720  0.2260
 4444TIP3    H134747   3.667   2.664   3.197  3.1362  1.9968 -0.2959
 4444TIP3    H234748   3.634   2.628   3.054 -1.2181 -0.5812  1.1528
 4445TIP3   OH234749   5.005   5.848   3.216  0.1402  0.3351  0.3244
 4445TIP3    H134750   5.051   5.809   3.290 -2.1684  0.5691  1.9894
 4445TIP3    H234751   4.992   5.940   3.240  0.0194  0.6073 -0.7113
 4446TIP3   OH234752   6.406   3.006  15.998  0.0417 -0.3404  0.2003
 4446TIP3    H134753   6.447   3.057  15.928  0.8620 -0.6609  0.4244
 4446TIP3    H234754   6.422   2.915  15.974  0.5811 -0.4527  0.9233
 4447TIP3   OH234755   2.881   5.180   0.216  0.2363  0.2739  0.0676
 4447TIP3    H134756   2.831   5.102   0.191  1.4193  0.1542 -2.1864
 4447TIP3    H234757   2.972   5.159   0.193  0.8194  1.7405  0.8777
 4448TIP3   OH234758   5.872   3.260  11.531  0.1048 -0.0347 -0.2101
 4448TIP3    H134759   5.837   3.174  11.507 -1.0423  0.5862 -0.8498
 4448TIP3    H234760   5.795   3.310  11.559  1.0762 -0.0494  2.9029
 4449TIP3   OH234761   3.457   3.768  15.668 -0.2133 -0.1637 -0.3483
 4449TIP3    H134762   3.377   3.811  15.637 -0.7195 -1.8796 -1.5985
 4449TIP3    H234763   3.496   3.831  15.728 -2.2460  0.9318 -0.0717
 4450TIP3   OH234764   3.929   2.542  12.846 -0.3952 -0.8682 -0.3545
 4450TIP3    H134765   3.968   2.559  12.760  0.3253 -1.6764 -0.2019
 4450TIP3    H234766   3.963   2.456  12.871  0.4153 -0.1061  1.3030
 4451TIP3   OH234767   1.854   6.047  15.556 -0.2449  0.2141  0.1652
 4451TIP3    H134768   1.761   6.067  15.566 -0.3884  0.6888 -1.6489
 4451TIP3    H234769   1.893   6.128  15.525  0.3769 -0.4883 -1.0028
 4452TIP3   OH234770   0.979   2.562  15.734 -0.6691  0.1350 -0.0842
 4452TIP3    H134771   0.960   2.487  15.791 -1.1761 -0.6414 -1.2323
 4452TIP3    H234772   1.072   2.579  15.747 -0.4730 -0.9052 -0.0221
 4453TIP3   OH234773   3.204   2.391   0.378  0.3666 -0.4324 -0.1327
 4453TIP3    H134774   3.172   2.481   0.387 -1.2701 -1.0605  0.7052
 4453TIP3    H234775   3.295   2.401   0.351 -0.2742  1.4705 -1.8759
 4454TIP3   OH234776   0.202   6.568  11.244  0.5065 -0.3780 -0.3136
 4454TIP3    H134777   0.114   6.595  11.272  0.2191  1.3212 -2.5760
 4454TIP3    H234778   0.213   6.480  11.280 -1.8472 -0.3686  0.5822
 4455TIP3   OH234779   3.958   4.578  12.807  0.8406  0.0216  0.0662
 4455TIP3    H134780   3.999   4.604  12.725 -0.1035  0.2761 -0.3366
 4455TIP3    H234781   3.919   4.492  12.789  0.4074  0.1943  0.1655
 4456TIP3   OH234782   0.882   6.411  15.796 -0.0575  0.1079  0.7411
 4456TIP3    H134783   0.854   6.329  15.756  0.9900 -1.0455  2.2401
 4456TIP3    H234784   0.826   6.478  15.756 -0.9206 -1.3167 -0.5412
 4457TIP3   OH234785   2.766   2.561  15.899 -0.3390 -0.4004 -0.8858
 4457TIP3    H134786   2.680   2.519  15.888 -0.0338 -0.7179 -2.1822
 4457TIP3    H234787   2.828   2.488  15.905 -0.2272 -0.2007  1.0126
 4458TIP3   OH234788   6.790   2.145  15.049 -0.3152  0.2387  0.3379
 4458TIP3    H134789   6.737   2.225  15.048  0.8833  1.0461 -0.2603
 4458TIP3    H234790   6.753   2.091  14.979 -0.4956  0.6933  0.0756
 4459TIP3   OH234791   5.578   1.079   4.492  0.3623  0.0831 -0.1062
 4459TIP3    H134792   5.651   1.139   4.476  0.6009 -0.1911 -0.0538
 4459TIP3    H234793   5.500   1.132   4.476  0.5256  0.9481  1.7190
 4460TIP3   OH234794   2.272   5.253  15.582  0.3653  0.1428  0.8033
 4460TIP3    H134795   2.200   5.253  15.520  0.7199  0.1731  0.3876
 4460TIP3    H234796   2.288   5.160  15.600  1.3519  0.0418 -0.4462
 4461TIP3   OH234797   3.863   6.318  11.263 -0.0637  0.2103  0.2107
 4461TIP3    H134798   3.840   6.242  11.209 -0.9951  1.4093 -1.1412
 4461TIP3    H234799   3.792   6.323  11.328  0.1112 -0.1869  0.4363
 4462TIP3   OH234800   4.147   4.208  15.739 -0.0474  0.5452  0.3544
 4462TIP3    H134801   4.194   4.234  15.660 -1.4040 -1.7139 -1.3192
 4462TIP3    H234802   4.061   4.180  15.707 -0.1254 -1.8758  2.3973
 4463TIP3   OH234803   0.880   2.122   3.879 -0.1608  0.1130  0.0921
 4463TIP3    H134804   0.928   2.202   3.855  0.4913  0.2616  1.7474
 4463TIP3    H234805   0.929   2.087   3.954 -1.4487 -0.8893  0.4844
 4464TIP3   OH234806   5.066   4.469  12.467 -0.4123  0.2511 -0.3850
 4464TIP3    H134807   4.979   4.430  12.456  0.1955 -0.8607 -1.5292
 4464TIP3    H234808   5.117   4.433  12.395  0.3840  2.7517 -1.1591
 4465TIP3   OH234809   2.854   5.360  12.793 -0.0405 -0.0950 -0.1953
 4465TIP3    H134810   2.768   5.352  12.751 -0.5603 -1.2802  1.0106
 4465TIP3    H234811   2.846   5.307  12.872  2.2082 -1.2325 -0.6735
 4466TIP3   OH234812   4.935   2.047  11.921 -0.6429 -0.1571 -0.9530
 4466TIP3    H134813   4.952   2.087  12.006  1.9882  1.1794 -1.9951
 4466TIP3    H234814   5.012   1.993  11.904  1.5666  3.4945 -4.5028
 4467TIP3   OH234815   6.399   5.478   1.005  0.1094  0.1715 -0.1741
 4467TIP3    H134816   6.464   5.419   1.044 -1.2699 -1.2545  0.1137
 4467TIP3    H234817   6.325   5.475   1.065  0.6854  3.8848  0.9449
 4468TIP3   OH234818   1.472   2.876   3.464 -0.4754  0.0746 -0.7216
 4468TIP3    H134819   1.426   2.877   3.380  0.7820 -0.1696 -1.4463
 4468TIP3    H234820   1.521   2.794   3.463 -2.8231 -1.5425  1.6387
 4469TIP3   OH234821   5.339   0.485   5.585 -0.9904  0.3487 -0.0027
 4469TIP3    H134822   5.287   0.455   5.660 -3.1986 -0.1437 -1.5987
 4469TIP3    H234823   5.374   0.404   5.546 -1.5495  0.3856 -0.6125
 4470TIP3   OH234824   4.633   0.028  17.016 -0.2434 -0.4619  0.4604
 4470TIP3    H134825   4.722  -0.003  16.998 -0.6906 -1.9465  0.7285
 4470TIP3    H234826   4.610   0.078  16.937  0.6049 -0.5526  0.1361
 4471TIP3   OH234827   5.070   2.856  11.449 -0.2893 -0.5267 -0.4355
 4471TIP3    H134828   5.045   2.829  11.361  1.3610  1.5542 -1.6406
 4471TIP3    H234829   5.162   2.831  11.456 -0.1575  0.1516  0.3471
 4472TIP3   OH234830   2.896   4.284   6.081  0.1098  0.1298  0.6062
 4472TIP3    H134831   2.932   4.197   6.095 -0.4741 -0.4887 -1.5002
 4472TIP3    H234832   2.945   4.319   6.007 -3.1356 -0.5828 -2.1282
 4473TIP3   OH234833   3.864   3.911  10.708  0.2290  0.3375 -0.0913
 4473TIP3    H134834   3.926   3.950  10.646  0.8709 -0.6589 -0.1021
 4473TIP3    H234835   3.796   3.977  10.718  1.2419  1.4399 -0.1606
 4474TIP3   OH234836   4.957   3.564  12.842  0.5880 -0.2189  0.6762
 4474TIP3    H134837   4.973   3.504  12.916 -1.1650 -1.7123 -0.0610
 4474TIP3    H234838   4.889   3.623  12.874 -0.7465 -1.3638  0.0795
 4475TIP3   OH234839   2.440   4.682   4.552  0.1143  0.6782  0.9141
 4475TIP3    H134840   2.532   4.709   4.558  1.3257 -2.5755 -0.8300
 4475TIP3    H234841   2.428   4.623   4.626  0.8215 -2.2085 -1.1248
 4476TIP3   OH234842   5.940   1.120   0.215  0.2080  0.0327 -0.5389
 4476TIP3    H134843   5.981   1.134   0.301  0.6437  1.5051 -0.9609
 4476TIP3    H234844   5.925   1.025   0.211 -0.3545 -0.0036  1.4013
 4477TIP3   OH234845   2.986   6.556   2.406 -0.1985  0.0577  0.2629
 4477TIP3    H134846   2.977   6.636   2.459 -1.0404  0.6452 -0.7326
 4477TIP3    H234847   2.997   6.587   2.317 -0.0896 -0.9456 -0.0831
 4478TIP3   OH234848   1.725   2.765  12.195  0.5323 -0.0415  0.5258
 4478TIP3    H134849   1.658   2.774  12.128 -0.4602  2.4702  1.6998
 4478TIP3    H234850   1.808   2.771  12.148 -0.1322  0.7411 -0.5900
 4479TIP3   OH234851   5.187   1.449  13.031  0.6273 -0.1007 -0.2775
 4479TIP3    H134852   5.198   1.544  13.022  1.5799 -0.2225 -0.4490
 4479TIP3    H234853   5.171   1.418  12.942 -1.4464  0.0925 -0.0177
 4480TIP3   OH234854   6.316   0.362   3.118  0.2101  0.0055  0.1708
 4480TIP3    H134855   6.282   0.413   3.045  0.3380  0.0349  0.1312
 4480TIP3    H234856   6.357   0.427   3.176 -1.1943  0.1818  1.0224
 4481TIP3   OH234857   1.708   4.816   3.021 -0.1231  0.0717  0.0307
 4481TIP3    H134858   1.614   4.803   3.013  0.3056 -3.4950 -0.9845
 4481TIP3    H234859   1.734   4.858   2.939 -0.6947  0.3334 -0.0202
 4482TIP3   OH234860   4.389   2.990   0.960  0.3497  0.0664  0.2316
 4482TIP3    H134861   4.424   2.992   0.871  2.1703 -0.1311  0.9002
 4482TIP3    H234862   4.458   3.029   1.014 -0.7639  0.2887  1.5561
 4483TIP3   OH234863   6.402   4.449  14.661 -0.2537  0.1742 -0.2314
 4483TIP3    H134864   6.461   4.444  14.587  0.2521 -2.8441  0.2430
 4483TIP3    H234865   6.408   4.540  14.691  4.6355 -0.0197  0.1582
 4484TIP3   OH234866   6.429   5.779  12.323  0.0042  0.1699 -0.5048
 4484TIP3    H134867   6.392   5.865  12.344 -0.4398  0.8583 -3.5918
 4484TIP3    H234868   6.358   5.718  12.344 -0.2989  0.7304  0.1572
 4485TIP3   OH234869   2.473   0.015   3.117  0.0670 -0.3274 -0.4187
 4485TIP3    H134870   2.518   0.033   3.200  0.0987 -0.5970 -0.3776
 4485TIP3    H234871   2.380   0.017   3.139  0.0247  0.9684 -0.6483
 4486TIP3   OH234872   2.793   4.155  11.193  0.8303 -0.3346 -0.6572
 4486TIP3    H134873   2.707   4.163  11.234  0.7164 -0.3520 -0.8881
 4486TIP3    H234874   2.777   4.174  11.100  0.9191 -1.2148 -0.8573
 4487TIP3   OH234875   3.922   2.706   4.448 -0.5461 -0.3721 -0.0037
 4487TIP3    H134876   3.965   2.790   4.436  1.1258 -1.4221 -1.9527
 4487TIP3    H234877   3.927   2.689   4.542 -0.2077  1.3113  0.3067
 4488TIP3   OH234878   5.704   1.385   2.647  0.3705  0.1887 -0.5271
 4488TIP3    H134879   5.750   1.453   2.598  1.6159  0.7426  1.3096
 4488TIP3    H234880   5.771   1.345   2.702 -0.7776 -1.0341  0.0520
 4489TIP3   OH234881   1.399   0.450   0.949  0.1198 -0.2343 -0.7510
 4489TIP3    H134882   1.347   0.389   0.897  0.5579 -0.5547 -0.8176
 4489TIP3    H234883   1.409   0.527   0.893 -2.7528  1.0528  0.3478
 4490TIP3   OH234884   5.136   3.413   5.552 -0.2061 -0.3781  0.2576
 4490TIP3    H134885   5.223   3.451   5.541 -0.7543  0.6090 -0.9238
 4490TIP3    H234886   5.078   3.488   5.568 -1.0219 -0.8770 -0.2418
 4491TIP3   OH234887   0.597   5.935  13.919 -0.2270  0.4302  0.1162
 4491TIP3    H134888   0.639   5.850  13.935 -0.3885 -0.0549 -1.8607
 4491TIP3    H234889   0.668   5.999  13.930  0.2750 -0.1000 -0.0219
 4492TIP3   OH234890   4.739   2.023  13.094  0.0559  0.0158 -0.0430
 4492TIP3    H134891   4.732   2.117  13.078  0.1920 -0.2592 -2.0742
 4492TIP3    H234892   4.687   2.008  13.173 -0.4025  1.7128  0.0191
 4493TIP3   OH234893   6.300   5.609  10.339 -0.1727  0.0326  1.1340
 4493TIP3    H134894   6.368   5.659  10.294 -1.5515  1.5387  0.6182
 4493TIP3    H234895   6.344   5.570  10.414  1.0851  1.6094  1.2561
 4494TIP3   OH234896   1.276   0.049   0.448 -0.6414 -0.2878 -0.4454
 4494TIP3    H134897   1.353   0.094   0.484 -0.6672  0.6767 -1.5424
 4494TIP3    H234898   1.227   0.118   0.404 -2.1326 -0.9028  0.2093
 4495TIP3   OH234899   4.333   3.786  16.897 -0.2448  0.2003 -0.5932
 4495TIP3    H134900   4.251   3.751  16.931  0.3647 -0.3752  0.3445
 4495TIP3    H234901   4.376   3.712  16.855  0.8668 -0.1390  1.0430
 4496TIP3   OH234902   1.491   3.065  13.040 -0.9379  0.4735  0.2510
 4496TIP3    H134903   1.569   3.110  13.073 -0.4334 -0.9296  1.0610
 4496TIP3    H234904   1.462   3.118  12.965  1.4001  0.4462 -0.7360
 4497TIP3   OH234905   1.457   4.094   4.065  0.5736 -0.2279  0.0286
 4497TIP3    H134906   1.380   4.147   4.042  0.8329 -0.1790 -0.7473
 4497TIP3    H234907   1.448   4.015   4.012  1.6837  0.3108 -1.0257
 4498TIP3   OH234908   2.269   3.201  14.463  0.2525  0.0387  0.8655
 4498TIP3    H134909   2.210   3.259  14.511 -0.9345 -0.1441 -0.2955
 4498TIP3    H234910   2.253   3.114  14.499 -1.6190 -0.3228 -0.6436
 4499TIP3   OH234911   1.335   0.967  15.798 -0.8431  0.0333 -0.2140
 4499TIP3    H134912   1.381   0.954  15.881 -0.7363  2.6941  0.2082
 4499TIP3    H234913   1.255   1.012  15.821 -0.4572  1.5130 -1.6028
 4500TIP3   OH234914   3.085   2.160   4.838 -0.0895 -0.6634  0.6221
 4500TIP3    H134915   3.074   2.216   4.915 -0.9977 -0.0709  0.0782
 4500TIP3    H234916   3.179   2.160   4.821 -0.0804  0.8480  0.5411
 4501TIP3   OH234917   6.330   1.363  16.998 -0.6423  0.0925 -0.0547
 4501TIP3    H134918   6.347   1.304  17.072 -0.2622  1.8598  1.3281
 4501TIP3    H234919   6.413   1.408  16.984 -1.0907  0.7466 -0.6676
 4502TIP3   OH234920   4.638   6.487   4.308 -0.2590  0.5882 -0.1561
 4502TIP3    H134921   4.628   6.403   4.354  0.1196  0.9870  0.6742
 4502TIP3    H234922   4.560   6.492   4.252  0.6986 -1.2543 -1.8004
 4503TIP3   OH234923   5.283   6.084   2.937 -0.2637 -0.4287  0.1453
 4503TIP3    H134924   5.253   6.096   3.028 -2.8802 -0.9053 -0.5730
 4503TIP3    H234925   5.270   6.169   2.896  0.1398 -0.4324  0.0062
 4504TIP3   OH234926   4.890   1.508  11.319  0.2718 -0.8006  0.1866
 4504TIP3    H134927   4.907   1.590  11.365 -0.4420 -1.0457  0.8982
 4504TIP3    H234928   4.795   1.508  11.305  0.3910 -1.0626 -0.6565
 4505TIP3   OH234929   5.809   3.095  14.974  0.0879 -0.2231  0.2615
 4505TIP3    H134930   5.885   3.112  15.030  1.1322  1.6274 -1.5692
 4505TIP3    H234931   5.744   3.160  15.002  1.0380  1.4981 -1.3238
 4506TIP3   OH234932   0.337   5.923   2.918 -0.6987 -0.3571  0.1265
 4506TIP3    H134933   0.284   5.847   2.893  0.4630 -0.9454 -0.6885
 4506TIP3    H234934   0.373   5.955   2.835  1.5330 -1.0263  0.7621
 4507TIP3   OH234935   2.366   3.231  13.228  0.5213  0.2128  0.6205
 4507TIP3    H134936   2.350   3.274  13.312 -0.7179 -0.4077  0.7221
 4507TIP3    H234937   2.280   3.198  13.201  0.6778  1.3574 -1.4540
 4508TIP3   OH234938   3.358   1.830  16.298 -0.2186  0.2876 -0.0080
 4508TIP3    H134939   3.441   1.875  16.278 -0.6673  0.7025 -1.0177
 4508TIP3    H234940   3.359   1.752  16.243 -0.8975  0.7745 -0.7371
 4509TIP3   OH234941   3.671   6.590   3.969  0.2834 -0.5235  0.0769
 4509TIP3    H134942   3.583   6.567   3.997  1.3702 -1.5486  2.9985
 4509TIP3    H234943   3.725   6.516   3.996  2.4990  1.4195  1.3065
 4510TIP3   OH234944   4.850   1.420  17.230 -0.0566  0.5622  0.0149
 4510TIP3    H134945   4.796   1.479  17.283 -0.2207 -0.7901  1.4422
 4510TIP3    H234946   4.933   1.415  17.277  0.3383  0.5008 -0.6797
 4511TIP3   OH234947   4.510   1.425  11.638  0.1854 -0.7143 -0.3070
 4511TIP3    H134948   4.420   1.401  11.660 -0.1096  0.7854  0.2082
 4511TIP3    H234949   4.527   1.381  11.554 -0.9753 -1.1022 -0.3535
 4512TIP3   OH234950   3.740   2.327  12.684  0.1540 -0.0416  0.4604
 4512TIP3    H134951   3.749   2.272  12.607 -1.3186 -0.1350  0.3305
 4512TIP3    H234952   3.739   2.416  12.650 -1.0410 -0.1074  0.3075
 4513TIP3   OH234953   6.563   2.096   4.644  0.5047  0.3551 -0.2428
 4513TIP3    H134954   6.636   2.148   4.676 -0.7987  2.8341 -1.0456
 4513TIP3    H234955   6.594   2.058   4.562  2.0366 -1.6180  1.1655
 4514TIP3   OH234956   2.044   4.299  16.997 -0.1737 -0.1611 -0.1769
 4514TIP3    H134957   2.083   4.359  17.060  0.5954 -0.3475 -0.4679
 4514TIP3    H234958   2.118   4.263  16.949 -0.5954 -1.5325  0.1584
 4515TIP3   OH234959   4.941   5.921  13.446 -0.6848  0.5297  0.1174
 4515TIP3    H134960   4.899   5.986  13.503  0.1842  2.2611 -1.1139
 4515TIP3    H234961   4.870   5.891  13.388 -1.3660 -0.5793  1.4627
 4516TIP3   OH234962   1.997   5.382   4.567 -0.3034  0.4178  0.1635
 4516TIP3    H134963   1.980   5.319   4.637  0.9353 -0.0265  0.0847
 4516TIP3    H234964   1.921   5.440   4.568  0.3166  1.3071  2.8441
 4517TIP3   OH234965   6.561   3.664   2.283 -0.3431  0.6833 -0.6413
 4517TIP3    H134966   6.581   3.721   2.209  1.7647  0.2271 -0.4828
 4517TIP3    H234967   6.642   3.663   2.335 -1.3860  0.0683  1.0495
 4518TIP3   OH234968   1.681   4.141   2.085 -0.1196 -0.7217 -0.0958
 4518TIP3    H134969   1.609   4.176   2.032 -0.6878 -2.6931 -0.7489
 4518TIP3    H234970   1.671   4.184   2.170 -0.3049  1.1556 -1.0231
 4519TIP3   OH234971   5.406   5.387   2.730  0.3383 -0.2463  0.0787
 4519TIP3    H134972   5.343   5.345   2.672  0.2475  1.4808 -1.1579
 4519TIP3    H234973   5.489   5.383   2.681  0.6541 -0.3461  0.6196
 4520TIP3   OH234974   5.553   4.072  11.027  0.1918 -0.3768 -0.2514
 4520TIP3    H134975   5.640   4.048  10.995  0.9348  1.3701  0.3364
 4520TIP3    H234976   5.549   4.167  11.017 -1.9379 -0.4819 -0.9052
 4521TIP3   OH234977   5.274   1.121  14.965 -0.3997  0.0875 -0.0184
 4521TIP3    H134978   5.321   1.050  14.922  0.4419  0.1511  0.7690
 4521TIP3    H234979   5.218   1.077  15.029  0.1492  0.1226  0.4953
 4522TIP3   OH234980   2.545   2.670  11.516  0.1765  0.4026  0.1190
 4522TIP3    H134981   2.498   2.639  11.594  1.9806  1.1430  1.5855
 4522TIP3    H234982   2.533   2.765  11.517  2.5782  0.7706  1.2323
 4523TIP3   OH234983   1.381   2.961   2.892  0.0948  0.1019 -0.1833
 4523TIP3    H134984   1.437   2.894   2.853  1.0073  1.5184 -1.4486
 4523TIP3    H234985   1.402   3.041   2.843 -1.3707  1.1922  0.8675
 4524TIP3   OH234986   1.219   1.571   3.851  0.1809  0.2622 -0.0009
 4524TIP3    H134987   1.216   1.627   3.773 -1.0050 -0.9213 -0.8444
 4524TIP3    H234988   1.134   1.584   3.893 -0.6609 -1.8713 -0.9438
 4525TIP3   OH234989   0.122   5.344   5.355 -0.7890  0.1635  0.1865
 4525TIP3    H134990   0.046   5.356   5.299 -0.5837 -2.5536 -0.8354
 4525TIP3    H234991   0.109   5.258   5.396  1.1951  0.1068  0.8369
 4526TIP3   OH234992   0.333   6.525   0.954 -0.2163 -0.1766  0.4400
 4526TIP3    H134993   0.297   6.437   0.959  1.3565 -0.8620  0.2205
 4526TIP3    H234994   0.420   6.518   0.993  1.3240  0.4489 -2.5708
 4527TIP3   OH234995   3.885   1.008  16.781  0.5483  0.1030 -0.1575
 4527TIP3    H134996   3.934   0.938  16.826 -1.9986 -0.2534  2.3500
 4527TIP3    H234997   3.921   1.089  16.817  1.2427 -0.0186 -0.5557
 4528TIP3   OH234998   0.041   3.219   1.531 -0.3358  0.7667  0.2783
 4528TIP3    H134999   0.112   3.275   1.501  0.4764 -0.4501 -0.1099
 4528TIP3    H235000   0.059   3.133   1.492 -1.6110  0.2542  0.7696
 4529TIP3   OH235001   5.252   2.921  10.679  0.4519  0.0970  0.2701
 4529TIP3    H135002   5.328   2.979  10.673  0.3364  0.1821 -0.5914
 4529TIP3    H235003   5.182   2.976  10.714  0.1544  0.6992 -1.1929
 4530TIP3   OH235004   3.002   5.078   2.027 -0.2678 -0.1174  0.0517
 4530TIP3    H135005   2.994   4.993   1.983  0.7415  1.2849 -3.0844
 4530TIP3    H235006   3.090   5.077   2.066 -0.2679 -0.5100  0.0454
 4531TIP3   OH235007   1.568   2.394   5.375  0.1059 -0.2986  0.0813
 4531TIP3    H135008   1.495   2.352   5.329  0.1959 -0.3864  0.0198
 4531TIP3    H235009   1.577   2.479   5.333  0.5676 -0.6085 -0.4510
 4532TIP3   OH235010   0.009   0.448   2.121 -0.1796 -0.0479  0.2825
 4532TIP3    H135011  -0.056   0.426   2.188 -0.1815  1.9015  0.9840
 4532TIP3    H235012  -0.041   0.487   2.050  0.0839  0.1820  0.2224
 4533TIP3   OH235013   1.666   3.283   6.703 -0.4166 -0.1581  0.6107
 4533TIP3    H135014   1.585   3.246   6.738 -0.3925 -0.4027  0.4077
 4533TIP3    H235015   1.651   3.290   6.609 -0.5958  0.7873  0.6960
 4534TIP3   OH235016   1.822   2.802   5.716 -0.4937 -0.0530  0.8665
 4534TIP3    H135017   1.804   2.811   5.810 -1.7636  1.3962  0.5332
 4534TIP3    H235018   1.736   2.807   5.675  0.1224  0.1839 -0.4323
 4535TIP3   OH235019   1.997   3.449  11.623 -0.1445 -0.1857  0.4031
 4535TIP3    H135020   2.059   3.377  11.627 -1.1249 -1.2821 -1.8066
 4535TIP3    H235021   2.031   3.506  11.553  0.0115  0.9023  1.3393
 4536TIP3   OH235022   2.051   5.478  11.686  0.4817 -0.1241  0.6657
 4536TIP3    H135023   2.080   5.546  11.747 -1.1939  0.3624  0.9966
 4536TIP3    H235024   2.054   5.397  11.737  2.0910 -0.2631  0.3965
 4537TIP3   OH235025   1.744   5.473  11.677 -0.0318 -0.2748 -0.3126
 4537TIP3    H135026   1.711   5.513  11.596 -2.3405  0.5282  0.9292
 4537TIP3    H235027   1.839   5.476  11.668 -0.1941 -0.5487 -3.1382
 4538TIP3   OH235028   0.912   3.940   1.701  0.2709 -0.1403 -0.3554
 4538TIP3    H135029   0.978   4.007   1.720 -0.4269  0.3014  0.5799
 4538TIP3    H235030   0.899   3.894   1.784 -1.0649  0.2086 -0.3486
 4539TIP3   OH235031   3.761   1.718   4.978 -0.1647  0.1852  0.4178
 4539TIP3    H135032   3.846   1.688   4.947 -1.1929 -1.5895 -0.8708
 4539TIP3    H235033   3.755   1.683   5.067  0.8899  1.3500  0.9913
 4540TIP3   OH235034   1.885   2.362   3.420 -0.8463 -0.0787 -0.5020
 4540TIP3    H135035   1.812   2.328   3.470 -0.5443  1.2616  0.9432
 4540TIP3    H235036   1.956   2.371   3.484  1.1209 -2.6808 -2.1134
 4541TIP3   OH235037   2.641   3.143   5.281 -0.9271 -0.4990  0.1089
 4541TIP3    H135038   2.571   3.150   5.346 -1.1867 -0.4848 -0.1724
 4541TIP3    H235039   2.632   3.220   5.226  1.2297  1.2109  1.9186
 4542TIP3   OH235040   2.682   5.331   1.060  0.0622 -0.1527  0.5142
 4542TIP3    H135041   2.687   5.422   1.031  2.4072 -0.3527  0.1620
 4542TIP3    H235042   2.596   5.301   1.029 -0.3175  1.6075 -0.2795
 4543TIP3   OH235043   1.057   6.144  15.133 -0.3694  0.3531  0.5134
 4543TIP3    H135044   1.092   6.153  15.222  0.1121  0.0005  0.3677
 4543TIP3    H235045   1.032   6.051  15.127  1.6164 -0.1687 -0.4211
 4544TIP3   OH235046   2.673   2.270   6.256  0.5181  0.1230 -0.1897
 4544TIP3    H135047   2.679   2.209   6.329 -1.7590 -1.3019 -1.0878
 4544TIP3    H235048   2.670   2.356   6.297 -0.8458 -0.6465  1.4466
 4545TIP3   OH235049   2.147   1.580  15.667  0.1528  0.5037 -0.0586
 4545TIP3    H135050   2.160   1.519  15.740 -0.7635  1.7205  1.1793
 4545TIP3    H235051   2.076   1.541  15.616  0.4888 -0.1319 -0.0518
 4546TIP3   OH235052   1.164   5.760  15.401  0.1596  0.3282  0.1309
 4546TIP3    H135053   1.220   5.730  15.472  0.7233  0.4523 -0.2520
 4546TIP3    H235054   1.081   5.714  15.414  0.9090 -1.1789 -0.2748
 4547TIP3   OH235055   2.123   4.341   5.090  0.1707  0.3752  0.4163
 4547TIP3    H135056   2.099   4.248   5.090  0.4745  0.2761 -0.7498
 4547TIP3    H235057   2.046   4.386   5.126  0.4131 -0.3930  2.0029
 4548TIP3   OH235058   0.712   0.553  14.001  0.3990  0.0335 -0.4150
 4548TIP3    H135059   0.672   0.638  14.023  0.5402  0.1579 -0.6338
 4548TIP3    H235060   0.658   0.489  14.047 -0.2746  0.1718 -0.9848
 4549TIP3   OH235061   1.350   2.990  14.955  0.1451  0.2853  0.5520
 4549TIP3    H135062   1.438   3.021  14.934  1.0959 -2.4065  0.1299
 4549TIP3    H235063   1.316   2.955  14.873 -0.4290 -0.6258  1.1510
 4550TIP3   OH235064   1.092   3.347  11.567  0.3992 -0.4764  0.3631
 4550TIP3    H135065   1.106   3.380  11.478  0.9813 -1.1380  0.1917
 4550TIP3    H235066   1.180   3.325  11.598  0.0868 -1.3903  0.6411
 4551TIP3   OH235067   4.196   1.614  11.148  0.2814 -0.1796  0.0418
 4551TIP3    H135068   4.146   1.532  11.148 -0.5226  0.2823 -1.1487
 4551TIP3    H235069   4.138   1.678  11.190 -0.5180  0.5453 -2.0398
 4552TIP3   OH235070   0.767   1.136   4.927  0.5702 -0.1235 -0.8818
 4552TIP3    H135071   0.801   1.124   4.839 -1.3042  0.2704 -1.6955
 4552TIP3    H235072   0.845   1.137   4.983  1.8570  0.4610 -2.6101
 4553TIP3   OH235073   1.904   4.864   1.767 -0.7586 -0.3719  0.5370
 4553TIP3    H135074   1.874   4.950   1.738 -3.2757 -0.7423  1.7524
 4553TIP3    H235075   1.879   4.805   1.696 -0.6352 -0.3344  0.4630
 4554TIP3   OH235076   6.189   5.075   4.248  0.7088  0.1250  0.1937
 4554TIP3    H135077   6.228   5.112   4.328  1.5630 -3.1852  1.5009
 4554TIP3    H235078   6.101   5.051   4.274  0.2028  1.0683 -0.5956
 4555TIP3   OH235079   5.009   4.566   4.552 -0.0588 -0.3043  0.9193
 4555TIP3    H135080   4.914   4.562   4.564 -0.3969  0.9828 -0.8742
 4555TIP3    H235081   5.021   4.565   4.457  1.7252 -0.2573  1.1100
 4556TIP3   OH235082   1.230   1.821   2.810 -0.8418 -0.6138 -0.1371
 4556TIP3    H135083   1.246   1.772   2.891  3.8617 -0.7584 -0.8588
 4556TIP3    H235084   1.222   1.912   2.839  0.5302 -0.6906  0.5995
 4557TIP3   OH235085   2.763   2.329  12.027  0.0058  0.1194  0.3387
 4557TIP3    H135086   2.813   2.396  11.980 -0.8960  2.1198  2.0200
 4557TIP3    H235087   2.824   2.257  12.039  1.4769  1.1915 -0.4141
 4558TIP3   OH235088   1.841   0.262  12.871  0.5095 -0.4642 -0.0406
 4558TIP3    H135089   1.785   0.299  12.802 -0.4371 -0.6641  0.6053
 4558TIP3    H235090   1.924   0.245  12.827  0.0204 -0.3152 -1.0635
 4559TIP3   OH235091   0.949   1.593   3.955 -0.2443 -0.3073 -0.0252
 4559TIP3    H135092   0.891   1.595   4.031 -1.9619 -2.4897 -1.1956
 4559TIP3    H235093   0.942   1.681   3.918 -0.4742  0.3573  1.4914
 4560TIP3   OH235094   3.853   6.635   3.185 -0.3802 -0.2820 -0.3067
 4560TIP3    H135095   3.851   6.552   3.138  1.9338 -0.1130 -0.8244
 4560TIP3    H235096   3.795   6.692   3.134 -0.6761 -1.0959 -0.9095
 4561TIP3   OH235097   2.803   1.210   4.902 -0.4315 -0.2316 -0.2096
 4561TIP3    H135098   2.850   1.164   4.971 -0.8681 -0.4526 -0.0560
 4561TIP3    H235099   2.711   1.207   4.930 -0.8276 -1.6414 -1.5221
 4562TIP3   OH235100   6.807   6.239  11.506 -0.5878  0.3209  0.5034
 4562TIP3    H135101   6.814   6.197  11.421  0.4564  0.8610  0.3065
 4562TIP3    H235102   6.791   6.167  11.567 -1.3519 -0.0685 -0.1340
 4563TIP3   OH235103   2.363   5.864  14.789  0.2625 -0.3459  0.0346
 4563TIP3    H135104   2.383   5.790  14.846  0.5428  0.3524  0.8616
 4563TIP3    H235105   2.441   5.920  14.793 -0.9321  1.3459  1.6109
 4564TIP3   OH235106   0.464   5.175  16.635 -0.6257 -0.1028 -0.2767
 4564TIP3    H135107   0.421   5.125  16.565  0.6478  1.1628 -2.0586
 4564TIP3    H235108   0.512   5.244  16.589  0.1931  0.8518  1.8829
 4565TIP3   OH235109   0.925   2.575  16.351  0.0711  0.4286 -0.4763
 4565TIP3    H135110   0.923   2.587  16.446 -0.9491  0.3663 -0.4877
 4565TIP3    H235111   0.968   2.490  16.339  0.6420  0.6549 -0.0986
 4566TIP3   OH235112   3.466   1.833   0.234  0.3079 -0.3583 -0.4052
 4566TIP3    H135113   3.413   1.762   0.270 -0.5309  0.1415 -0.6004
 4566TIP3    H235114   3.412   1.869   0.163  0.0574  1.3959  0.6080
 4567TIP3   OH235115   5.613   3.294  16.854 -0.2686  0.3747  0.0899
 4567TIP3    H135116   5.559   3.337  16.788  0.7910 -1.8677 -2.4273
 4567TIP3    H235117   5.606   3.201  16.835  3.7378 -0.1127  0.0689
 4568TIP3   OH235118   5.959   4.400   0.551  0.1826  0.2815 -0.0156
 4568TIP3    H135119   5.999   4.374   0.469 -0.1845  0.6259 -0.3098
 4568TIP3    H235120   6.023   4.460   0.591  0.5984 -0.3028  0.2128
 4569TIP3   OH235121   6.058   2.820  13.414 -0.8043 -0.2721 -0.2860
 4569TIP3    H135122   6.006   2.759  13.363  0.2349 -1.0757 -0.4149
 4569TIP3    H235123   6.131   2.768  13.447 -0.2491  0.7491  0.1429
 4570TIP3   OH235124   6.320   3.611   6.345 -0.0392  0.1829 -0.2969
 4570TIP3    H135125   6.338   3.675   6.276 -2.9359  2.1144  0.5336
 4570TIP3    H235126   6.308   3.528   6.298 -0.4255  1.1359 -1.9675
 4571TIP3   OH235127   3.689   5.288   4.800  0.4342 -0.1001 -0.3820
 4571TIP3    H135128   3.728   5.360   4.851 -2.2881 -0.3178  2.2484
 4571TIP3    H235129   3.758   5.222   4.796  1.0034  0.1640  2.6381
 4572TIP3   OH235130   0.965   2.622  15.447  0.1732 -0.1328  0.6779
 4572TIP3    H135131   0.999   2.705  15.413 -1.0403  0.1768  0.1815
 4572TIP3    H235132   0.988   2.624  15.540 -0.3983  1.0688  0.8158
 4573TIP3   OH235133   5.493   4.169  13.727 -0.5047 -0.6304 -0.6475
 4573TIP3    H135134   5.580   4.205  13.711 -0.7199  0.8347  1.2290
 4573TIP3    H235135   5.490   4.091  13.672  2.7589 -1.9075  0.6958
 4574TIP3   OH235136   2.573   1.866   1.622 -0.0844 -0.8905  0.3861
 4574TIP3    H135137   2.513   1.908   1.561 -1.4827 -0.1275  2.1960
 4574TIP3    H235138   2.638   1.822   1.566 -1.0863  0.0450 -1.5990
 4575TIP3   OH235139   3.263   0.918  15.779 -0.2614  0.0452  0.2167
 4575TIP3    H135140   3.298   0.936  15.866 -0.2656  0.5711  0.1132
 4575TIP3    H235141   3.295   0.990  15.725 -0.8405  0.1055 -0.0554
 4576TIP3   OH235142   4.295   4.146   6.240  0.2418 -0.1104 -0.4024
 4576TIP3    H135143   4.205   4.136   6.210 -0.1961  1.7137  0.1604
 4576TIP3    H235144   4.307   4.076   6.304  0.1745 -2.0883 -2.4418
 4577TIP3   OH235145   2.950   2.589   3.607  0.7881 -0.4109 -0.3564
 4577TIP3    H135146   2.981   2.517   3.663  2.6654 -0.0738 -0.8817
 4577TIP3    H235147   2.997   2.576   3.524 -1.1012 -0.2656 -1.4923
 4578TIP3   OH235148   2.764   2.797   5.181  0.2029 -0.4459 -0.3161
 4578TIP3    H135149   2.671   2.777   5.167 -0.1756  0.9577  0.0296
 4578TIP3    H235150   2.777   2.779   5.274 -0.1493  0.8535  0.0057
 4579TIP3   OH235151   4.019   4.991  13.488  0.2978  0.3811 -0.3871
 4579TIP3    H135152   4.050   4.907  13.520  0.8439 -0.2132 -2.3096
 4579TIP3    H235153   4.030   4.985  13.393 -2.6688  1.3793 -0.8982
 4580TIP3   OH235154   4.923   4.397   2.086 -0.0475 -0.3203  0.2406
 4580TIP3    H135155   4.867   4.463   2.045  2.9357  2.5717  0.5012
 4580TIP3    H235156   4.907   4.408   2.180 -0.9836 -1.4369  0.2414
 4581TIP3   OH235157   6.323   5.859   1.548  0.0003  0.4715  0.0348
 4581TIP3    H135158   6.286   5.895   1.468  1.2144  1.7964  0.0132
 4581TIP3    H235159   6.394   5.920   1.571 -0.4636  0.2723  2.2458
 4582TIP3   OH235160   1.350   3.661  13.516 -0.0906  0.5450 -0.5897
 4582TIP3    H135161   1.326   3.572  13.488  0.7919  0.3441 -0.7416
 4582TIP3    H235162   1.280   3.687  13.575  0.4428 -0.9030  0.7797
 4583TIP3   OH235163   6.751   2.949  11.429 -0.0606 -0.4066  0.2534
 4583TIP3    H135164   6.736   2.917  11.340  0.1865  3.0595 -1.2207
 4583TIP3    H235165   6.669   2.930  11.476 -1.7198  0.9954 -1.8914
 4584TIP3   OH235166   5.637   6.605  13.527  0.3118 -0.3839 -0.3142
 4584TIP3    H135167   5.550   6.566  13.535 -0.6509  1.6902 -0.1176
 4584TIP3    H235168   5.696   6.539  13.564 -1.1303 -1.8499 -0.4713
 4585TIP3   OH235169   4.087   6.158  15.944 -0.2505 -0.3522  0.3385
 4585TIP3    H135170   4.029   6.212  15.890  0.2505 -0.8479 -0.7157
 4585TIP3    H235171   4.030   6.089  15.979 -0.5363 -0.1386  0.2973
 4586TIP3   OH235172   4.418   6.085  17.246 -0.2420 -0.7816 -0.0244
 4586TIP3    H135173   4.501   6.130  17.259 -0.4003 -0.8930  1.5795
 4586TIP3    H235174   4.434   6.024  17.174  0.8877 -0.3911 -0.1222
 4587TIP3   OH235175   6.163   2.005   1.503  0.5996  0.3304 -0.0077
 4587TIP3    H135176   6.200   1.917   1.494 -0.8291 -0.2511 -0.4880
 4587TIP3    H235177   6.209   2.043   1.578  2.9814  0.1017 -1.2550
 4588TIP3   OH235178   1.574   3.812  16.356 -0.2175 -0.3743  0.4580
 4588TIP3    H135179   1.570   3.758  16.277 -1.5559  0.4007 -0.0446
 4588TIP3    H235180   1.655   3.861  16.348 -1.7557  2.0420 -2.1007
 4589TIP3   OH235181   6.086   6.713  11.608  0.3645 -0.5022 -0.1349
 4589TIP3    H135182   5.998   6.687  11.634  1.0701 -1.7183  1.1841
 4589TIP3    H235183   6.091   6.806  11.632 -0.4723 -0.4886  0.0203
 4590TIP3   OH235184   4.036   3.521   1.265 -0.7260 -1.1412  0.2695
 4590TIP3    H135185   4.091   3.446   1.244  0.2548 -0.1544 -0.8517
 4590TIP3    H235186   4.019   3.564   1.181 -1.7191 -0.4060  0.8135
 4591TIP3   OH235187   6.008   2.834  14.847  0.1804 -0.2830  0.1821
 4591TIP3    H135188   6.059   2.915  14.846  0.5805 -0.5357 -0.4847
 4591TIP3    H235189   6.022   2.798  14.935  0.7934 -0.1213  0.1536
 4592TIP3   OH235190   4.476   3.296   3.057 -0.5174 -0.4702 -0.7349
 4592TIP3    H135191   4.541   3.229   3.038  0.1157  0.2182 -1.0392
 4592TIP3    H235192   4.519   3.379   3.033 -1.0885  0.0866  0.1049
 4593TIP3   OH235193   0.396   2.594  11.566 -0.5023  0.2825  0.0160
 4593TIP3    H135194   0.419   2.539  11.641  1.0949  0.4514 -0.3172
 4593TIP3    H235195   0.327   2.545  11.521  0.2324 -1.0134  0.2416
 4594TIP3   OH235196   6.607   5.663  13.272  0.2581 -0.0756  0.0215
 4594TIP3    H135197   6.618   5.628  13.183 -0.8843 -0.1942 -0.0903
 4594TIP3    H235198   6.612   5.758  13.261  0.4237 -0.1015 -0.1290
 4595TIP3   OH235199   3.494   2.186   1.006  0.1121 -0.2557 -0.6118
 4595TIP3    H135200   3.559   2.211   1.072 -0.2641  0.8438 -0.6277
 4595TIP3    H235201   3.529   2.106   0.966 -1.2424 -2.9848  3.1559
 4596TIP3   OH235202   2.130   2.659  11.814 -0.1001  0.9329  0.5116
 4596TIP3    H135203   2.167   2.572  11.830  0.2953  1.2313  1.2661
 4596TIP3    H235204   2.192   2.719  11.855 -1.4624  1.4432  1.9085
 4597TIP3   OH235205   6.601   1.122  16.751 -0.1169  0.0034 -0.3460
 4597TIP3    H135206   6.559   1.076  16.824 -1.3786  0.6696 -0.6274
 4597TIP3    H235207   6.653   1.190  16.794 -1.1023  0.5950 -0.0522
 4598TIP3   OH235208   1.054   5.390   2.659  0.3188 -0.0516 -0.8353
 4598TIP3    H135209   1.144   5.421   2.652  0.5187 -0.0120  1.4441
 4598TIP3    H235210   1.055   5.328   2.731 -1.7691  1.1547  0.3320
 4599TIP3   OH235211   5.519   2.384   1.918  0.3504 -0.3074 -0.8046
 4599TIP3    H135212   5.435   2.421   1.947 -0.6057 -0.1045 -3.5547
 4599TIP3    H235213   5.574   2.460   1.902  0.2225 -0.3185 -1.3105
 4600TIP3   OH235214   4.694   1.144  14.958 -0.1164 -0.1555  0.0558
 4600TIP3    H135215   4.749   1.178  15.028 -0.3408  0.2110  0.0563
 4600TIP3    H235216   4.738   1.173  14.877  0.5816 -1.2633  0.0258
 4601TIP3   OH235217   1.163   2.559   3.088 -0.4168 -0.1650 -0.0525
 4601TIP3    H135218   1.180   2.634   3.030 -1.9979  0.3105  0.0667
 4601TIP3    H235219   1.213   2.579   3.167 -0.1132  0.3219 -0.3577
 4602TIP3   OH235220   2.157   5.243  12.427 -0.1121 -0.1020  0.4684
 4602TIP3    H135221   2.132   5.209  12.513  1.0343 -1.6838  0.2119
 4602TIP3    H235222   2.203   5.170  12.384  0.5427  1.0938 -0.9591
 4603TIP3   OH235223   0.998   4.400   6.783  0.4415  0.2830 -0.4584
 4603TIP3    H135224   1.015   4.493   6.798 -3.3421  0.8622  1.4343
 4603TIP3    H235225   0.925   4.398   6.722  1.7139 -1.6237 -2.0565
 4604TIP3   OH235226   0.651   0.817   3.391 -0.6276  0.4292 -0.4091
 4604TIP3    H135227   0.711   0.800   3.464  1.1263 -1.2170 -2.1369
 4604TIP3    H235228   0.570   0.773   3.416 -0.4699  0.8995  1.0320
 4605TIP3   OH235229   3.525   3.418  13.042  0.6580 -0.0600  0.1072
 4605TIP3    H135230   3.592   3.354  13.066 -0.4987 -1.5001 -0.3253
 4605TIP3    H235231   3.449   3.395  13.096  0.2286  1.0139 -0.0016
 4606TIP3   OH235232   6.455   5.088   0.047 -0.4371  0.5171  0.3019
 4606TIP3    H135233   6.490   5.122   0.129 -1.7352  1.0019  0.6911
 4606TIP3    H235234   6.377   5.039   0.073  1.1047 -2.5221 -0.2692
 4607TIP3   OH235235   2.145   6.556  16.361 -0.6694 -0.3573  0.9520
 4607TIP3    H135236   2.159   6.485  16.298  0.2746  0.4482  0.2102
 4607TIP3    H235237   2.084   6.521  16.425 -0.9603 -1.5018  0.0635
 4608TIP3   OH235238   2.840   6.061  11.748 -0.0944  0.1964  0.4937
 4608TIP3    H135239   2.911   6.070  11.685  0.4308  1.2570  1.2044
 4608TIP3    H235240   2.844   5.969  11.776 -0.3264 -0.2865 -0.9642
 4609TIP3   OH235241   6.125   1.037   3.314  0.1524 -0.1216 -0.5304
 4609TIP3    H135242   6.218   1.020   3.298  0.2634  0.8220 -0.9755
 4609TIP3    H235243   6.121   1.066   3.405  0.7890  2.8660 -1.3348
 4610TIP3   OH235244   1.024   5.071   2.194 -0.3081 -0.2594  0.1619
 4610TIP3    H135245   1.044   4.987   2.236  3.0020 -0.1399 -0.8740
 4610TIP3    H235246   1.067   5.136   2.250 -0.2898  0.4212 -0.6296
 4611TIP3   OH235247   5.422   2.485  11.468  0.3163  0.0238 -0.7736
 4611TIP3    H135248   5.473   2.508  11.390  1.6295 -0.6248 -0.1301
 4611TIP3    H235249   5.407   2.391  11.459 -0.9257  0.2245 -1.0250
 4612TIP3   OH235250   2.076   2.789   0.189  0.1754 -0.0352  0.1406
 4612TIP3    H135251   2.024   2.869   0.187  0.6073  0.2527  0.2403
 4612TIP3    H235252   2.026   2.729   0.244  0.0916  0.3374  0.4740
 4613TIP3   OH235253   4.068   0.138  14.652  0.4301 -0.7988 -0.3031
 4613TIP3    H135254   4.093   0.147  14.744 -1.3857  0.5269  0.1310
 4613TIP3    H235255   4.069   0.227  14.618 -0.3569 -1.0999 -1.1602
 4614TIP3   OH235256   4.389   6.413  16.005 -0.5734  0.4176  0.1292
 4614TIP3    H135257   4.464   6.465  16.033  1.6764 -1.9217 -1.1467
 4614TIP3    H235258   4.351   6.463  15.932  1.5944  0.3214 -1.1550
 4615TIP3   OH235259   0.886   5.824  14.074  0.2537  0.5384 -0.0533
 4615TIP3    H135260   0.881   5.781  13.989 -0.7604 -1.5552  0.9965
 4615TIP3    H235261   0.929   5.908  14.056  0.4369 -0.0172 -2.5334
 4616TIP3   OH235262   1.701   2.491   5.017 -0.1460  0.7871 -0.0727
 4616TIP3    H135263   1.747   2.552   4.958  1.4384 -0.4750 -0.2152
 4616TIP3    H235264   1.660   2.427   4.958  1.2775 -0.3646  0.1307
 4617TIP3   OH235265   5.835   0.023   2.559  0.1290  0.3668 -0.1251
 4617TIP3    H135266   5.896   0.012   2.486 -0.1950 -1.1522 -0.2028
 4617TIP3    H235267   5.791   0.106   2.541 -0.5431 -0.3763 -2.1118
 4618TIP3   OH235268   4.586   4.701   2.719 -0.9807  0.4461  0.1675
 4618TIP3    H135269   4.624   4.743   2.797 -0.8581  1.7162 -0.5514
 4618TIP3    H235270   4.623   4.613   2.719  3.1634  1.9493 -1.1753
 4619TIP3   OH235271   3.217   1.334   5.542 -0.3562 -0.3183 -0.5176
 4619TIP3    H135272   3.244   1.385   5.618  0.6608 -1.3986 -0.1366
 4619TIP3    H235273   3.141   1.284   5.573  1.1263 -2.1010  0.3613
 4620TIP3   OH235274   3.786   1.204   4.435 -0.4983 -0.0746 -0.1403
 4620TIP3    H135275   3.703   1.190   4.481 -0.3948 -1.3136 -0.3025
 4620TIP3    H235276   3.760   1.234   4.348 -0.7795 -0.5822 -0.2342
 4621TIP3   OH235277   1.197   4.746   1.280 -0.0388 -0.1892  0.4760
 4621TIP3    H135278   1.238   4.825   1.244 -0.0399 -1.6212 -2.9926
 4621TIP3    H235279   1.267   4.703   1.329  1.1087  0.0379 -0.8978
 4622TIP3   OH235280   3.451   1.353   4.109  0.3476 -0.0119 -0.2710
 4622TIP3    H135281   3.385   1.286   4.125  1.1336 -0.8932 -0.6298
 4622TIP3    H235282   3.416   1.432   4.149 -2.0360  0.1646 -2.4461
 4623TIP3   OH235283   4.191   0.800   4.794 -0.5243 -0.3842 -0.6487
 4623TIP3    H135284   4.128   0.747   4.744 -1.5783  0.6620 -0.4826
 4623TIP3    H235285   4.173   0.890   4.767  0.5585 -0.0140 -0.1890
 4624TIP3   OH235286   2.363   2.118  14.673  0.3425  0.6549  0.0659
 4624TIP3    H135287   2.353   2.119  14.768 -3.1069 -0.3763 -0.1512
 4624TIP3    H235288   2.304   2.186  14.642  0.0983 -0.1852 -1.4019
 4625TIP3   OH235289   1.002   6.197  11.262 -0.2743 -0.4937  0.0434
 4625TIP3    H135290   1.047   6.278  11.238  0.6725 -1.6494 -2.3521
 4625TIP3    H235291   1.068   6.144  11.305 -0.1335 -1.0398 -0.8301
 4626TIP3   OH235292   1.849   3.181  15.957  0.1398 -0.0436 -0.1784
 4626TIP3    H135293   1.898   3.100  15.947  0.6882  0.1247  0.8936
 4626TIP3    H235294   1.787   3.182  15.885 -0.3142 -1.7268  0.1494
 4627TIP3   OH235295   0.400   3.730  11.164 -0.2352  0.3419  0.5336
 4627TIP3    H135296   0.451   3.791  11.217  1.0237  0.7767 -1.0914
 4627TIP3    H235297   0.373   3.782  11.087 -1.1622 -0.5214  0.2568
 4628TIP3   OH235298   3.954   0.505  11.319 -0.2066 -0.5023 -0.4723
 4628TIP3    H135299   3.962   0.451  11.241 -1.9551 -0.7024 -0.5486
 4628TIP3    H235300   4.040   0.499  11.361  0.3029 -1.5724 -1.6025
 4629TIP3   OH235301   1.838   4.672  14.531  0.1826  0.4523  0.8994
 4629TIP3    H135302   1.746   4.698  14.531 -0.4634 -1.7059  1.1730
 4629TIP3    H235303   1.843   4.603  14.465  1.2336 -0.6489  2.0852
 4630TIP3   OH235304   1.012   0.725  14.513  0.0029  0.0819 -0.1139
 4630TIP3    H135305   1.029   0.781  14.437  0.1142  0.4416  0.1752
 4630TIP3    H235306   0.943   0.770  14.561 -1.6714 -1.2537 -1.1612
 4631TIP3   OH235307   1.662   6.621   3.704  0.0843 -0.2356  0.5108
 4631TIP3    H135308   1.637   6.712   3.724  1.6818  0.8377 -1.9442
 4631TIP3    H235309   1.594   6.591   3.643  1.6972  0.8753 -2.0094
 4632TIP3   OH235310   6.806   2.460   5.735  0.1708  0.0783 -0.3146
 4632TIP3    H135311   6.751   2.527   5.693  0.2142 -0.9243 -2.0540
 4632TIP3    H235312   6.757   2.379   5.726  0.1761 -0.1879  1.6716
 4633TIP3   OH235313   2.047   1.344  15.988 -0.0442  0.4735  0.0345
 4633TIP3    H135314   2.037   1.396  16.068 -1.2352  0.5789 -0.1519
 4633TIP3    H235315   2.016   1.256  16.013  1.8663 -0.1680  0.3258
 4634TIP3   OH235316   4.962   4.185  10.701  0.1348  0.3230 -0.0941
 4634TIP3    H135317   5.016   4.106  10.697  1.3377  1.1591 -1.7763
 4634TIP3    H235318   4.877   4.157  10.667  0.3688 -0.3861 -0.1262
 4635TIP3   OH235319   5.068   4.911   0.325  0.3278 -0.0931 -0.1424
 4635TIP3    H135320   5.099   4.985   0.376  3.3503 -2.2796  1.5019
 4635TIP3    H235321   4.973   4.915   0.331  0.4804  1.9075  2.5062
 4636TIP3   OH235322   3.497   2.081   5.736 -0.6871  0.0189 -0.0522
 4636TIP3    H135323   3.571   2.038   5.692 -0.8201 -0.4609  0.1798
 4636TIP3    H235324   3.517   2.074   5.829  0.1678  2.0868 -0.0452
 4637TIP3   OH235325   0.657   4.317  14.894 -0.6533 -0.6962 -0.1060
 4637TIP3    H135326   0.625   4.402  14.864 -3.0416 -0.2434  3.2029
 4637TIP3    H235327   0.585   4.257  14.878  0.7528 -2.0614 -1.7450
 4638TIP3   OH235328   2.155   1.913  13.208  0.7835 -0.0921  0.1487
 4638TIP3    H135329   2.089   1.936  13.144  1.9698 -0.1607 -1.1498
 4638TIP3    H235330   2.113   1.848  13.264 -0.6311  0.7793  0.1469
 4639TIP3   OH235331   6.604   1.028  17.221 -0.0655 -0.3049  0.1218
 4639TIP3    H135332   6.607   1.065  17.310 -0.3982  0.2376 -0.0861
 4639TIP3    H235333   6.689   0.984  17.211 -0.4423 -1.2791  1.0819
 4640TIP3   OH235334   1.483   6.141   1.703  0.4465  0.6567 -0.2017
 4640TIP3    H135335   1.523   6.072   1.755 -1.2539  0.3339  0.7670
 4640TIP3    H235336   1.552   6.169   1.642  1.5171 -1.0806  0.1522
 4641TIP3   OH235337   5.540   4.054  11.975 -0.6733 -0.6913 -0.0683
 4641TIP3    H135338   5.511   4.124  12.033 -1.6840 -0.8966 -0.3057
 4641TIP3    H235339   5.476   3.984  11.989 -0.9043 -0.7660 -1.3840
 4642TIP3   OH235340   6.803   6.299  16.465  0.3061 -0.1002 -0.0835
 4642TIP3    H135341   6.864   6.299  16.539  1.0600  0.0334 -0.6905
 4642TIP3    H235342   6.854   6.264  16.392  0.1867  1.5604 -1.0155
 4643TIP3   OH235343   0.503   0.999  11.782  0.6930 -0.5206  0.4701
 4643TIP3    H135344   0.521   0.950  11.701  1.5429  0.9713 -0.2883
 4643TIP3    H235345   0.503   0.933  11.851  1.2975 -1.6482 -0.5781
 4644TIP3   OH235346   1.600   0.479   0.043  0.0778 -0.3179 -0.2834
 4644TIP3    H135347   1.663   0.511  -0.022  1.9146 -1.2975  0.9297
 4644TIP3    H235348   1.654   0.454   0.118 -1.7241 -1.6788  0.6320
 4645TIP3   OH235349   2.943   6.464   0.015 -0.5116 -0.4880 -0.0648
 4645TIP3    H135350   2.993   6.545   0.011  0.8843 -1.3002  0.2671
 4645TIP3    H235351   2.893   6.461  -0.067 -0.3515  0.5440 -0.2054
 4646TIP3   OH235352   4.232   3.879   5.001 -0.3819 -0.3060 -0.0548
 4646TIP3    H135353   4.209   3.788   4.980 -0.6509 -0.1455 -0.4599
 4646TIP3    H235354   4.169   3.932   4.953  0.6368  0.1350 -0.9593
 4647TIP3   OH235355   2.714   4.997   0.850  0.3873 -0.6776  0.4832
 4647TIP3    H135356   2.676   5.076   0.813  1.0849  0.3146  1.7563
 4647TIP3    H235357   2.807   5.002   0.828  0.9763  0.3330  2.8524
 4648TIP3   OH235358   3.178   2.115   0.317  0.6095 -0.0598  0.2595
 4648TIP3    H135359   3.172   2.189   0.377  0.5456 -0.2649  0.5077
 4648TIP3    H235360   3.088   2.087   0.304  0.7239 -0.9289  1.2163
 4649TIP3   OH235361   4.922   1.014  16.450 -0.2584 -0.5858 -0.9341
 4649TIP3    H135362   5.005   1.031  16.494 -1.2379  1.8458  0.1866
 4649TIP3    H235363   4.946   0.989  16.361  1.6703  1.4895 -1.0698
 4650TIP3   OH235364   1.676   3.452   5.489  0.4993 -0.5744 -0.4946
 4650TIP3    H135365   1.649   3.539   5.519  0.3488  0.2160 -2.7386
 4650TIP3    H235366   1.763   3.440   5.527  0.5978  0.6423 -0.2919
 4651TIP3   OH235367   1.787   3.297   1.657 -0.1061  0.0621  0.6714
 4651TIP3    H135368   1.703   3.251   1.667 -0.8456  1.1253 -0.4203
 4651TIP3    H235369   1.848   3.248   1.713 -1.1750 -1.4213  0.5954
 4652TIP3   OH235370   4.368   0.565   6.602  0.1358 -0.5812  0.1128
 4652TIP3    H135371   4.431   0.584   6.672  0.3228 -1.2140  0.1208
 4652TIP3    H235372   4.326   0.649   6.583  0.4817 -0.3005  0.6010
 4653TIP3   OH235373   5.087   2.541  10.345  0.1424 -0.3595  0.4136
 4653TIP3    H135374   5.172   2.497  10.337  0.3360 -0.0105  0.5495
 4653TIP3    H235375   5.024   2.475  10.316  0.3006 -1.2055  1.8612
 4654TIP3   OH235376   5.558   3.249  15.870  0.1856 -0.4412 -0.3513
 4654TIP3    H135377   5.611   3.169  15.866  1.5223  0.2402  1.9203
 4654TIP3    H235378   5.521   3.249  15.958  0.1601  1.4066 -0.3225
 4655TIP3   OH235379   6.172   4.322   5.897 -0.2574 -0.4698  0.3571
 4655TIP3    H135380   6.149   4.357   5.811  0.3012 -0.0178  0.3853
 4655TIP3    H235381   6.180   4.228   5.884 -1.8134 -0.6160  0.2853
 4656TIP3   OH235382   6.283   5.358  15.173  0.1091  0.0157 -0.1782
 4656TIP3    H135383   6.245   5.385  15.256  0.2347  0.2656 -0.2021
 4656TIP3    H235384   6.324   5.273  15.192 -0.9153 -0.5101 -0.2824
 4657TIP3   OH235385   2.626   3.772   1.665 -0.4801  0.1771  0.3576
 4657TIP3    H135386   2.596   3.787   1.754  2.4853 -0.1197  1.4870
 4657TIP3    H235387   2.583   3.691   1.639 -1.4124  0.2849  1.4833
 4658TIP3   OH235388   4.847   5.589   0.581 -0.3012 -0.0422  0.2800
 4658TIP3    H135389   4.916   5.591   0.648 -0.5146  0.8115  0.4745
 4658TIP3    H235390   4.885   5.635   0.506 -0.9189  1.0584  0.6362
 4659TIP3   OH235391   6.034   0.885  11.644 -0.1879 -0.0446 -0.6894
 4659TIP3    H135392   5.948   0.920  11.619 -0.4807 -0.1053  0.1983
 4659TIP3    H235393   6.014   0.812  11.702  0.4754  1.0293  0.9517
 4660TIP3   OH235394   1.534   4.494  15.075  0.0055  0.1580  0.0489
 4660TIP3    H135395   1.460   4.443  15.043 -0.5755  0.6801  0.5408
 4660TIP3    H235396   1.560   4.450  15.156  0.9891 -0.7126 -0.7171
 4661TIP3   OH235397   6.516   6.337  15.077  0.6297  0.0806 -0.4137
 4661TIP3    H135398   6.554   6.336  14.989  1.4534  0.1666 -0.0677
 4661TIP3    H235399   6.589   6.357  15.135  0.1351 -0.1585  0.3159
 4662TIP3   OH235400   0.189   6.006   3.909  0.0365 -0.2431  0.3892
 4662TIP3    H135401   0.142   6.088   3.920  0.1253 -0.4680  3.1833
 4662TIP3    H235402   0.122   5.938   3.912  0.0759 -0.3708 -0.8480
 4663TIP3   OH235403   2.289   6.215  14.481 -0.3268  0.1012  0.7276
 4663TIP3    H135404   2.224   6.208  14.551 -0.9884  0.7568  0.1939
 4663TIP3    H235405   2.252   6.278  14.420  0.1813 -0.5406 -0.2770
 4664TIP3   OH235406   4.302   0.571   4.889  0.7846 -0.0320 -0.0545
 4664TIP3    H135407   4.320   0.495   4.834  1.8129  0.1726 -0.0116
 4664TIP3    H235408   4.264   0.636   4.829  0.0162 -0.5165 -0.1115
 4665TIP3   OH235409   3.781   5.880  15.109 -0.3530  0.1081  0.3402
 4665TIP3    H135410   3.855   5.940  15.098  1.3618 -1.8704  0.3075
 4665TIP3    H235411   3.727   5.919  15.177  1.2733  1.1492  1.0910
 4666TIP3   OH235412   3.679   6.150  12.366 -0.2904  0.1664 -0.3611
 4666TIP3    H135413   3.743   6.095  12.410 -0.3379  0.7022  0.3907
 4666TIP3    H235414   3.692   6.133  12.273 -0.6372 -1.4966 -0.1325
 4667TIP3   OH235415   3.751   6.185  17.152  0.0825 -0.2089 -0.0996
 4667TIP3    H135416   3.671   6.201  17.102 -0.1620 -0.6890  0.1368
 4667TIP3    H235417   3.813   6.249  17.118 -0.3973  0.1625 -0.2880
 4668TIP3   OH235418   5.367   6.812  16.384 -0.1969 -0.5805  0.0725
 4668TIP3    H135419   5.291   6.815  16.325 -0.8104 -0.6607  0.8478
 4668TIP3    H235420   5.334   6.771  16.464 -0.1590  2.0160  1.5530
 4669TIP3   OH235421   5.585   3.986   1.110 -0.6838  0.6102 -0.0975
 4669TIP3    H135422   5.613   3.897   1.087 -1.6908  0.3895 -0.5167
 4669TIP3    H235423   5.586   4.033   1.027 -0.0159  1.0277  0.1497
 4670TIP3   OH235424   1.482   2.909   6.006 -0.0308 -0.4292 -0.5147
 4670TIP3    H135425   1.493   2.816   6.028  0.0043 -0.7738 -1.9235
 4670TIP3    H235426   1.457   2.950   6.089 -0.9004 -1.8397 -0.0421
 4671TIP3   OH235427   3.651   4.957  12.616  0.1031 -0.4948 -0.2712
 4671TIP3    H135428   3.697   5.015  12.677 -1.2322  1.6893 -1.2126
 4671TIP3    H235429   3.620   4.885  12.670  2.0622 -0.5387  0.9104
 4672TIP3   OH235430   5.077   4.906  13.169  0.0568  0.0867 -0.7496
 4672TIP3    H135431   5.113   4.965  13.236  1.6363  0.1468 -1.6064
 4672TIP3    H235432   5.153   4.863  13.131 -0.4594  1.7620 -4.1228
 4673TIP3   OH235433   4.543   5.197   3.641 -0.3844  0.3800 -0.0353
 4673TIP3    H135434   4.484   5.193   3.566 -0.2128  0.0937 -0.1538
 4673TIP3    H235435   4.625   5.158   3.611  0.2925  1.8823 -0.2539
 4674TIP3   OH235436   3.792   2.645  16.587 -0.1796  0.3725 -0.2591
 4674TIP3    H135437   3.847   2.570  16.565  1.3199  1.6390 -1.0245
 4674TIP3    H235438   3.833   2.684  16.664  1.0388  2.2731 -1.7885
 4675TIP3   OH235439   5.099   2.838  13.004 -0.3160 -0.1181 -0.3600
 4675TIP3    H135440   5.145   2.921  12.992 -0.2572 -0.3868 -2.4759
 4675TIP3    H235441   5.080   2.834  13.097 -0.9484  2.6071 -0.2835
 4676TIP3   OH235442   4.692   3.621   2.156 -0.0993 -0.5165  0.5302
 4676TIP3    H135443   4.718   3.630   2.248  1.8618 -0.6883  0.0370
 4676TIP3    H235444   4.771   3.590   2.112 -1.1867 -1.0505 -1.1228
 4677TIP3   OH235445   2.121   5.379  16.672  0.4231 -0.1423 -0.3379
 4677TIP3    H135446   2.056   5.350  16.608  0.0447 -1.4703  0.6142
 4677TIP3    H235447   2.073   5.385  16.754  1.6234 -1.9569  0.5710
 4678TIP3   OH235448   6.017   2.622  15.678 -0.3571 -0.1266  0.1945
 4678TIP3    H135449   5.952   2.552  15.671  0.1259 -0.6376  0.6469
 4678TIP3    H235450   6.076   2.593  15.749  0.8094 -0.0495 -0.7128
 4679TIP3   OH235451   3.020   4.878   3.199 -0.0320 -0.2577 -0.2647
 4679TIP3    H135452   2.963   4.802   3.206  1.6949 -1.6565 -0.5739
 4679TIP3    H235453   2.994   4.921   3.118 -2.8024  1.1016  1.2083
 4680TIP3   OH235454   2.528   4.353   5.099  0.6347  0.2915  0.4134
 4680TIP3    H135455   2.575   4.346   5.016 -0.9604 -0.9402 -0.4472
 4680TIP3    H235456   2.529   4.265   5.136 -1.9938 -0.1321 -0.2843
 4681TIP3   OH235457   1.307   3.937   2.868  0.3403  0.4934 -0.1814
 4681TIP3    H135458   1.364   4.008   2.899  0.3227  0.2518  0.4034
 4681TIP3    H235459   1.315   3.941   2.772  0.6032  1.0661 -0.1416
 4682TIP3   OH235460   5.902   3.893   4.277  0.7397  0.2486  0.0145
 4682TIP3    H135461   5.860   3.961   4.329 -1.2752 -0.2595 -0.8094
 4682TIP3    H235462   5.971   3.938   4.228  0.3740  1.3998  0.5271
 4683TIP3   OH235463   5.257   0.051   0.021  0.0684 -0.2799 -0.3577
 4683TIP3    H135464   5.253  -0.037   0.057 -1.7051 -0.5599 -1.1107
 4683TIP3    H235465   5.302   0.041  -0.063 -1.8227 -0.8787 -1.3686
 4684TIP3   OH235466   3.412   0.619   6.042  0.1566 -0.5142 -0.3905
 4684TIP3    H135467   3.418   0.681   5.970 -2.3592 -0.7851 -0.9359
 4684TIP3    H235468   3.424   0.672   6.121 -1.1765  0.5618 -0.8763
 4685TIP3   OH235469   4.587   5.471   6.190  0.0431 -1.0605  0.2463
 4685TIP3    H135470   4.620   5.459   6.101  2.3628 -1.5491  1.0968
 4685TIP3    H235471   4.545   5.387   6.211 -1.3066 -0.6317 -0.6691
 4686TIP3   OH235472   2.917   1.205   2.203 -0.7510 -0.6040 -0.1407
 4686TIP3    H135473   2.982   1.266   2.168 -1.8868  1.8582  1.7103
 4686TIP3    H235474   2.833   1.243   2.180 -1.5080 -0.7201  2.1604
 4687TIP3   OH235475   4.419   3.568   3.252 -0.5190  0.2778  0.4963
 4687TIP3    H135476   4.381   3.490   3.210 -0.0664 -0.9095  2.1872
 4687TIP3    H235477   4.383   3.567   3.341 -1.4193  2.6888  0.2284
 4688TIP3   OH235478   3.277   4.798  12.606  0.5214 -0.4070  0.1960
 4688TIP3    H135479   3.234   4.721  12.644 -0.1988 -0.1646 -0.1117
 4688TIP3    H235480   3.308   4.848  12.681  1.3521 -1.1864  0.3916
 4689TIP3   OH235481   2.353   6.401  13.772 -0.0414 -0.0981 -0.4618
 4689TIP3    H135482   2.317   6.407  13.860  0.2623  0.0182 -0.3432
 4689TIP3    H235483   2.441   6.440  13.779 -0.6591  1.5107 -1.1876
 4690TIP3   OH235484   2.260   3.330  11.679 -0.1974  0.6318  0.1114
 4690TIP3    H135485   2.310   3.315  11.599  1.2161  1.0989  0.8744
 4690TIP3    H235486   2.269   3.424  11.695 -1.6499  0.7960  0.0785
 4691TIP3   OH235487   0.000   5.958   1.934  0.5274  0.3794 -0.4162
 4691TIP3    H135488   0.092   5.943   1.913  0.8643  1.1774  0.4160
 4691TIP3    H235489  -0.000   5.974   2.029 -0.5849 -0.5031 -0.2432
 4692TIP3   OH235490   4.293   4.778   3.264 -0.6578 -0.1154  0.1348
 4692TIP3    H135491   4.204   4.813   3.256 -0.6589 -0.5809 -4.3107
 4692TIP3    H235492   4.349   4.852   3.242  0.0676 -0.2029  1.5441
 4693TIP3   OH235493   2.760   1.504  16.195 -0.0744 -0.7023 -0.3803
 4693TIP3    H135494   2.779   1.410  16.197  0.6679 -0.5563 -0.0018
 4693TIP3    H235495   2.843   1.546  16.219 -0.3312  0.0611 -0.7625
 4694TIP3   OH235496   5.949   5.190   3.787  0.2980  0.4644  0.2007
 4694TIP3    H135497   6.001   5.161   3.862  0.7391  0.4925 -0.0871
 4694TIP3    H235498   6.012   5.194   3.715 -0.0573  0.7391 -0.0974
 4695TIP3   OH235499   2.340   1.805   5.685 -0.3909  0.8555  0.3554
 4695TIP3    H135500   2.386   1.791   5.768 -2.3589  0.9957  1.5176
 4695TIP3    H235501   2.380   1.884   5.649  0.1639  1.0651  1.3954
 4696TIP3   OH235502   4.504   2.971   2.802  0.2517 -0.0202  0.1079
 4696TIP3    H135503   4.558   3.017   2.867 -0.4157  1.0781 -0.0860
 4696TIP3    H235504   4.537   2.881   2.803  2.6161  0.7510 -0.5443
 4697TIP3   OH235505   2.183   5.561   4.038 -0.7295 -0.4332 -0.3554
 4697TIP3    H135506   2.219   5.636   4.085  0.5037 -0.9534 -0.4541
 4697TIP3    H235507   2.169   5.495   4.106  0.3060 -0.9048 -0.5944
 4698TIP3   OH235508   5.998   2.828  11.751  0.0206  0.2547 -0.7356
 4698TIP3    H135509   5.958   2.792  11.830  0.7733  0.1910 -0.3728
 4698TIP3    H235510   6.088   2.850  11.778  0.5472 -0.5388 -1.7784
 4699TIP3   OH235511   1.048   5.947  13.012  0.8360 -0.8755 -0.1498
 4699TIP3    H135512   1.047   5.869  12.956  1.0432  0.7054 -2.4804
 4699TIP3    H235513   1.088   6.015  12.958 -1.2834  1.4209  1.0042
 4700TIP3   OH235514   4.299   1.952  12.027 -0.1312 -0.1361 -0.7882
 4700TIP3    H135515   4.277   2.046  12.027  0.5338  0.0573 -2.5802
 4700TIP3    H235516   4.393   1.949  12.010  0.0843 -1.1220  0.4391
 4701TIP3   OH235517   0.959   3.143   2.185 -0.2453  0.3690  0.1300
 4701TIP3    H135518   1.003   3.228   2.193  1.0748  0.5644 -5.3986
 4701TIP3    H235519   0.871   3.165   2.154  0.1128 -0.1776 -1.3565
 4702TIP3   OH235520   4.432   5.712  11.023  0.1887  0.2377  0.0745
 4702TIP3    H135521   4.392   5.632  10.989  1.3412 -0.2218 -0.2488
 4702TIP3    H235522   4.516   5.684  11.057  1.1193  1.4785 -1.0912
 4703TIP3   OH235523   4.995   2.242  12.761 -0.6537 -0.2633 -0.0239
 4703TIP3    H135524   4.998   2.157  12.805  0.5315 -0.2568 -0.0595
 4703TIP3    H235525   4.902   2.264  12.759 -0.8819 -1.0289  0.9954
 4704TIP3   OH235526   0.326   4.110  14.050 -0.0782  0.0272  0.1124
 4704TIP3    H135527   0.233   4.129  14.065 -0.7982 -1.9361 -1.5120
 4704TIP3    H235528   0.350   4.163  13.975 -0.5886 -1.2126 -0.9678
 4705TIP3   OH235529   1.424   1.735   5.296  0.4712  0.0211  0.4662
 4705TIP3    H135530   1.496   1.677   5.272  0.1819 -0.5054  0.8623
 4705TIP3    H235531   1.353   1.676   5.324  0.6254  0.5816  2.1395
 4706TIP3   OH235532   0.862   0.831  13.334  0.1710  0.3843 -0.2956
 4706TIP3    H135533   0.851   0.906  13.275 -0.3076 -0.1067 -0.8462
 4706TIP3    H235534   0.773   0.800  13.350  0.3433  0.1365  0.2007
 4707TIP3   OH235535   4.642   6.421  11.578  0.9153 -0.2147  0.0347
 4707TIP3    H135536   4.629   6.516  11.577  1.3935 -0.0629 -2.8846
 4707TIP3    H235537   4.560   6.387  11.542  1.3675 -0.7611 -0.4838
 4708TIP3   OH235538   3.911   0.612  11.839 -0.2833 -0.2539 -0.0163
 4708TIP3    H135539   3.851   0.671  11.884 -0.7278  0.1755 -1.1475
 4708TIP3    H235540   3.907   0.638  11.747  0.9993 -0.7654 -0.2464
 4709TIP3   OH235541   5.411   3.774   2.298  0.0868  0.7997  0.1121
 4709TIP3    H135542   5.445   3.812   2.217 -1.5610  1.6196 -0.2375
 4709TIP3    H235543   5.395   3.682   2.275 -0.8325  1.1361 -0.6660
 4710TIP3   OH235544   4.831   0.110  16.285  0.3785 -0.5971 -0.7064
 4710TIP3    H135545   4.736   0.111  16.279  0.4173  0.1022 -1.2992
 4710TIP3    H235546   4.850   0.037  16.345 -0.5452 -0.3748 -0.1146
 4711TIP3   OH235547   6.124   4.146   4.417  0.0683 -0.8894  0.3020
 4711TIP3    H135548   6.140   4.106   4.503  0.8680  1.6694  1.4491
 4711TIP3    H235549   6.029   4.155   4.412 -0.1705 -3.0724 -0.1335
 4712TIP3   OH235550   6.188   1.131  16.878  0.2647 -0.1951  0.1512
 4712TIP3    H135551   6.251   1.203  16.885  0.8617 -0.3223 -2.5531
 4712TIP3    H235552   6.166   1.108  16.968  3.4756  0.4175  1.2105
 4713TIP3   OH235553   6.370   0.793  15.069  0.2947  0.5789 -0.2902
 4713TIP3    H135554   6.365   0.710  15.021  0.2545  0.5248 -0.1925
 4713TIP3    H235555   6.294   0.843  15.039 -1.2051 -0.4599  1.6062
 4714TIP3   OH235556   0.544   3.401   3.391 -0.0212 -0.2049 -0.9619
 4714TIP3    H135557   0.512   3.491   3.398 -0.9586 -0.6838  1.8056
 4714TIP3    H235558   0.592   3.385   3.472  2.0470 -1.5438 -2.3377
 4715TIP3   OH235559   5.225   1.676   5.996  0.6392  0.3587  0.4414
 4715TIP3    H135560   5.277   1.756   6.002  1.1432  0.0334  0.5390
 4715TIP3    H235561   5.147   1.693   6.049 -0.0534  1.3720 -0.8510
 4716TIP3   OH235562   1.795   4.782   3.825 -0.4528 -0.0201  0.8979
 4716TIP3    H135563   1.740   4.849   3.865 -0.4529 -0.7788  2.2047
 4716TIP3    H235564   1.736   4.734   3.767 -0.5071  0.9335  0.1407
 4717TIP3   OH235565   5.373   0.785  15.933  0.0735  0.5088 -0.0978
 4717TIP3    H135566   5.352   0.877  15.917  0.5064  1.1094  2.4312
 4717TIP3    H235567   5.453   0.787  15.986 -0.7090 -1.2510  1.2337
 4718TIP3   OH235568   1.752   4.421  13.564  0.2041  0.3431  0.3435
 4718TIP3    H135569   1.785   4.366  13.635  2.4323  0.4698 -0.4998
 4718TIP3    H235570   1.715   4.360  13.501 -1.9917  0.2455  1.6355
 4719TIP3   OH235571   5.272   2.565  11.211  0.0174 -0.0749  0.2007
 4719TIP3    H135572   5.230   2.637  11.162 -0.0267  0.6413  1.2573
 4719TIP3    H235573   5.363   2.566  11.181 -0.3219 -0.5856 -0.9117
 4720TIP3   OH235574   0.928   6.225  12.634 -0.8102 -0.1315 -0.0667
 4720TIP3    H135575   0.916   6.130  12.630 -1.3568 -0.0324 -1.0704
 4720TIP3    H235576   0.850   6.258  12.678 -0.4203 -0.1733  0.6737
 4721TIP3   OH235577   4.199   0.418  11.796  0.1515 -0.4690 -0.6024
 4721TIP3    H135578   4.199   0.346  11.733 -0.0793 -1.5155  0.5630
 4721TIP3    H235579   4.191   0.497  11.742  1.6983 -1.2121 -1.9890
 4722TIP3   OH235580   3.309   6.064   6.318 -0.1408  0.0731  0.1356
 4722TIP3    H135581   3.240   6.086   6.381 -1.8130 -2.8180 -0.4760
 4722TIP3    H235582   3.364   6.000   6.364  1.5591  1.5461  0.2379
 4723TIP3   OH235583   5.014   0.271   0.851  0.0428 -0.4427 -0.0230
 4723TIP3    H135584   4.953   0.345   0.854  0.4273 -0.1695  1.7447
 4723TIP3    H235585   5.056   0.271   0.937 -0.9993 -3.5993  0.5842
 4724TIP3   OH235586   0.133   1.035  15.181  0.0768 -0.2226 -0.2907
 4724TIP3    H135587   0.073   1.088  15.128 -0.0714 -1.3204 -1.2655
 4724TIP3    H235588   0.114   1.061  15.271 -1.5314 -0.1759 -0.6072
 4725TIP3   OH235589   2.411   1.860  11.869  0.4543  0.4158  0.3446
 4725TIP3    H135590   2.357   1.936  11.845  0.7819  0.6939  0.4769
 4725TIP3    H235591   2.372   1.787  11.822 -0.9851  0.3168  1.5933
 4726TIP3   OH235592   1.522   4.358   3.364 -0.0007 -0.5592  0.0491
 4726TIP3    H135593   1.529   4.451   3.385 -1.3678 -0.1041 -1.3566
 4726TIP3    H235594   1.497   4.317   3.447  1.0860  0.2272  0.7963
 4727TIP3   OH235595   6.093   1.496   5.513  0.0813  0.2131  0.3944
 4727TIP3    H135596   6.151   1.428   5.480 -2.6817 -1.5904 -1.1568
 4727TIP3    H235597   6.022   1.448   5.557 -0.0907  2.3014  2.5950
 4728TIP3   OH235598   0.085   0.033   4.467  0.0770 -0.0653  0.1381
 4728TIP3    H135599   0.006  -0.020   4.452 -0.4341  0.3355  1.2446
 4728TIP3    H235600   0.085   0.096   4.396 -1.5482  0.9765  0.9925
 4729TIP3   OH235601   1.664   0.332  13.251  0.2071  0.5662 -0.3362
 4729TIP3    H135602   1.673   0.251  13.301 -1.6332  0.3707 -0.2518
 4729TIP3    H235603   1.571   0.352  13.254  0.2196  1.2724 -2.5656
 4730TIP3   OH235604   1.598   3.069   4.513 -0.3101  0.0197 -0.9192
 4730TIP3    H135605   1.668   3.022   4.468 -0.4993 -1.5985  0.3864
 4730TIP3    H235606   1.643   3.134   4.567  0.1538 -0.6100 -0.5415
 4731TIP3   OH235607   6.395   5.056   4.064 -0.4975  0.1985 -0.2011
 4731TIP3    H135608   6.329   5.056   4.133 -0.9613 -1.2162 -0.6040
 4731TIP3    H235609   6.477   5.034   4.109 -0.4657  0.9948  0.1476
 4732TIP3   OH235610   2.599   5.275  12.982  0.3448  0.9659  0.4124
 4732TIP3    H135611   2.563   5.307  12.899 -1.1830  0.2002  0.7457
 4732TIP3    H235612   2.588   5.349  13.042 -0.7092  0.7455  0.5074
 4733TIP3   OH235613   1.197   4.986  12.479  0.7722 -0.4353 -0.2731
 4733TIP3    H135614   1.205   4.912  12.539 -0.1291 -0.3739 -0.0737
 4733TIP3    H235615   1.231   4.953  12.396  0.0839 -1.1699 -0.2724
 4734TIP3   OH235616   2.735   2.405  13.545  0.6032  0.2025  0.0174
 4734TIP3    H135617   2.787   2.485  13.553 -0.7004  1.0196  0.6074
 4734TIP3    H235618   2.682   2.419  13.466  1.9015 -1.0331 -1.1388
 4735TIP3   OH235619   5.610   5.875   4.541  0.3867 -0.3683  0.4016
 4735TIP3    H135620   5.588   5.803   4.600  1.1126  0.6280  1.9589
 4735TIP3    H235621   5.526   5.914   4.518  0.1129 -0.4540  1.2191
 4736TIP3   OH235622   4.374   3.407   0.549 -0.5898  0.4737 -0.1157
 4736TIP3    H135623   4.464   3.380   0.529 -0.2717  0.9448  0.6486
 4736TIP3    H235624   4.320   3.359   0.486  0.1137 -0.6032  0.0751
 4737TIP3   OH235625   1.394   1.509   3.112  0.5553  0.7033 -0.2463
 4737TIP3    H135626   1.431   1.438   3.059  2.5137  0.8343  0.8357
 4737TIP3    H235627   1.412   1.483   3.202 -0.2035  1.8031  0.2475
 4738TIP3   OH235628   1.874   6.493  13.651  0.0080  0.8810  0.3785
 4738TIP3    H135629   1.939   6.424  13.637  1.3258  1.6855  2.0515
 4738TIP3    H235630   1.844   6.479  13.741 -1.4647  1.1166 -0.0494
 4739TIP3   OH235631   4.279   6.315   5.508 -0.5933 -0.3521 -0.0506
 4739TIP3    H135632   4.362   6.272   5.486  0.1357  0.4752  0.9795
 4739TIP3    H235633   4.253   6.359   5.428  0.2121 -0.2281 -0.2515
 4740TIP3   OH235634   4.103   4.024  12.092  0.0287 -0.2923  0.8129
 4740TIP3    H135635   4.069   4.081  12.023 -0.5245 -1.1303  0.3775
 4740TIP3    H235636   4.180   3.982  12.053  1.5084  1.4377  1.7214
 4741TIP3   OH235637   4.274   1.629   0.656 -0.1490  0.6439 -0.2880
 4741TIP3    H135638   4.290   1.586   0.740 -0.6094  1.6681  0.3551
 4741TIP3    H235639   4.180   1.617   0.641 -0.2140  1.0947 -0.2704
 4742TIP3   OH235640   6.362   0.121  16.563  0.4576  0.1579 -0.4362
 4742TIP3    H135641   6.312   0.040  16.561  2.7101 -1.4050  1.4225
 4742TIP3    H235642   6.430   0.108  16.497  0.4625  0.7910 -0.5571
 4743TIP3   OH235643   3.554   5.164   1.867  0.4562 -0.3704  0.0018
 4743TIP3    H135644   3.506   5.228   1.813 -0.3557 -2.3011 -1.6913
 4743TIP3    H235645   3.522   5.180   1.956  0.7178  1.9195 -0.2442
 4744TIP3   OH235646   0.315   2.507  13.413 -0.8065  0.2454 -0.2868
 4744TIP3    H135647   0.395   2.478  13.457 -1.6441 -0.0497  1.0959
 4744TIP3    H235648   0.244   2.463  13.461 -1.7224 -1.1269 -2.7474
 4745TIP3   OH235649   0.263   3.046  14.824  0.0727  0.1185 -0.1415
 4745TIP3    H135650   0.217   3.034  14.908  0.8288  1.2245  0.4529
 4745TIP3    H235651   0.353   3.064  14.848  0.2545  0.6904 -1.1889
 4746TIP3   OH235652   2.709   1.663  13.908 -0.1006  0.2047  0.3903
 4746TIP3    H135653   2.643   1.689  13.843 -1.6527 -0.8412  1.4692
 4746TIP3    H235654   2.661   1.661  13.991  1.0177 -1.7114  1.0437
 4747TIP3   OH235655   4.276   2.237   1.396  0.7893 -0.8713  0.6010
 4747TIP3    H135656   4.310   2.237   1.306  0.3032 -1.1670  0.4162
 4747TIP3    H235657   4.314   2.315   1.436 -0.7985  0.5403 -0.5398
 4748TIP3   OH235658   0.605   3.534  13.092  0.1015  0.0436 -0.4719
 4748TIP3    H135659   0.668   3.593  13.134  0.9916 -0.8545 -0.4957
 4748TIP3    H235660   0.572   3.480  13.163 -1.3012  1.0592 -0.3208
 4749TIP3   OH235661   2.390   1.348   5.770  0.0673 -0.2269  0.2734
 4749TIP3    H135662   2.390   1.410   5.697  0.0467 -0.8174 -0.2367
 4749TIP3    H235663   2.406   1.402   5.847 -2.6620  0.8134  0.2058
 4750TIP3   OH235664   6.687   1.203  11.747 -0.1240 -0.8431 -0.3742
 4750TIP3    H135665   6.676   1.226  11.655  2.2333 -0.4763 -0.6322
 4750TIP3    H235666   6.748   1.129  11.746  1.1136  0.0941  0.9161
 4751TIP3   OH235667   1.962   4.595   5.567 -0.1974  0.6013  0.1151
 4751TIP3    H135668   2.012   4.635   5.495 -0.1715 -1.2753 -0.9765
 4751TIP3    H235669   1.921   4.518   5.527 -2.5682  1.0954  1.4131
 4752TIP3   OH235670   4.102   1.996  11.418  0.1267  0.4678 -0.1703
 4752TIP3    H135671   4.098   2.000  11.514 -2.3778  1.8747 -0.2644
 4752TIP3    H235672   4.178   2.050  11.395 -0.6553  2.1357  0.9746
 4753TIP3   OH235673   4.593   4.143  13.410 -0.0867 -0.1311 -0.2955
 4753TIP3    H135674   4.643   4.083  13.354  3.2131 -0.4463  2.6554
 4753TIP3    H235675   4.631   4.229  13.393 -0.3559  0.0675  0.1033
 4754TIP3   OH235676   3.958   5.418  14.662  0.3096  0.1385  0.8259
 4754TIP3    H135677   3.936   5.510  14.646 -1.8894 -0.4074  0.4064
 4754TIP3    H235678   3.926   5.372  14.584  1.0787 -1.0229  1.1752
 4755TIP3   OH235679   3.925   5.636  12.422 -0.0430  0.1680 -0.1073
 4755TIP3    H135680   3.917   5.563  12.483  0.0348  1.7912  1.9485
 4755TIP3    H235681   3.871   5.610  12.347 -0.0029 -1.9723  0.5224
 4756TIP3   OH235682   5.877   1.392  14.838  0.2338  0.4574  0.5680
 4756TIP3    H135683   5.787   1.374  14.864 -0.2116 -1.7596 -2.0652
 4756TIP3    H235684   5.929   1.364  14.913 -1.1745 -0.9225  1.1021
 4757TIP3   OH235685   0.786   2.671   1.781 -0.0066  0.3734 -0.3152
 4757TIP3    H135686   0.881   2.680   1.782  0.0437 -0.1743  0.0580
 4757TIP3    H235687   0.757   2.717   1.860  0.1970 -1.9567  1.2121
 4758TIP3   OH235688   1.072   5.969  16.783  0.6975  0.5069 -0.3401
 4758TIP3    H135689   1.015   5.938  16.854 -0.6604  0.0145 -1.5950
 4758TIP3    H235690   1.049   6.061  16.773  0.6166  0.4810 -0.3946
 4759TIP3   OH235691   6.549   2.987   0.429  0.0354 -0.3383 -0.1943
 4759TIP3    H135692   6.497   2.907   0.431 -0.1218 -0.3265 -1.9695
 4759TIP3    H235693   6.484   3.057   0.427  0.1658 -0.0585  2.4634
 4760TIP3   OH235694   3.300   5.288  13.903 -0.5989  0.0824 -0.5096
 4760TIP3    H135695   3.262   5.267  13.988  0.2768 -2.4081 -0.6493
 4760TIP3    H235696   3.335   5.376  13.913  0.2795 -0.4862  2.0021
 4761TIP3   OH235697   2.725   2.349   4.584  0.7302 -0.4969  0.6654
 4761TIP3    H135698   2.738   2.302   4.667  0.4486 -0.1091  0.9351
 4761TIP3    H235699   2.771   2.296   4.519 -2.3739 -3.0523  0.3179
 4762TIP3   OH235700   5.244   6.772   3.259  0.3610  0.0970 -0.4688
 4762TIP3    H135701   5.308   6.793   3.326 -0.0081  0.5626 -0.2571
 4762TIP3    H235702   5.286   6.705   3.205  0.7215 -0.1596  0.1293
 4763TIP3   OH235703   3.428   4.391   2.425  0.7572  0.1411  0.2099
 4763TIP3    H135704   3.422   4.458   2.493 -1.6849  1.7212 -1.3985
 4763TIP3    H235705   3.454   4.438   2.347  0.2709 -1.0093 -0.6773
 4764TIP3   OH235706   6.317   2.887   3.091  0.1936  0.4327  0.8212
 4764TIP3    H135707   6.320   2.918   3.001 -1.5514 -0.5242  0.3860
 4764TIP3    H235708   6.391   2.826   3.097  1.3231  1.7393  0.5611
 4765TIP3   OH235709   3.810   1.074  11.708 -0.0327 -0.3439  0.2204
 4765TIP3    H135710   3.784   1.092  11.618 -1.0348 -1.7310  0.2105
 4765TIP3    H235711   3.906   1.066  11.704  0.0595  0.8068 -0.4678
 4766TIP3   OH235712   6.200   2.382  13.300  0.6836 -0.2711 -1.0508
 4766TIP3    H135713   6.212   2.477  13.300 -0.9801 -0.0373 -1.0647
 4766TIP3    H235714   6.200   2.358  13.393  1.7231 -0.3670 -1.0610
 4767TIP3   OH235715   2.958   4.569   4.322  0.5478 -0.0774 -0.4418
 4767TIP3    H135716   2.898   4.613   4.381  0.5719  0.0834 -0.5373
 4767TIP3    H235717   2.950   4.616   4.239  0.0891 -0.6594 -0.7322
 4768TIP3   OH235718   6.104   4.890  12.143 -0.2702  0.3562 -0.2269
 4768TIP3    H135719   6.140   4.939  12.069  1.7305 -2.1431 -1.0643
 4768TIP3    H235720   6.086   4.803  12.108 -0.9680 -0.3975  1.8262
 4769TIP3   OH235721   0.060   4.332  15.111 -0.0231 -0.3370  0.3980
 4769TIP3    H135722   0.125   4.281  15.062 -0.8959  0.0454 -1.2507
 4769TIP3    H235723   0.088   4.423  15.103  0.0245 -0.2993  0.9442
 4770TIP3   OH235724   0.176   0.753   4.481 -0.4248 -0.1082 -0.0877
 4770TIP3    H135725   0.180   0.792   4.394 -2.5037 -0.5308 -0.4182
 4770TIP3    H235726   0.189   0.826   4.541  2.2226  0.0256 -0.6797
 4771TIP3   OH235727   3.145   3.474   1.246 -0.0441 -0.0839  0.1947
 4771TIP3    H135728   3.075   3.408   1.251 -0.0237 -0.0957  0.3226
 4771TIP3    H235729   3.223   3.424   1.223  0.2144 -0.2757  1.4382
 4772TIP3   OH235730   2.931   5.602  16.061 -0.3717 -0.5086 -0.1938
 4772TIP3    H135731   2.886   5.549  15.995 -0.5481 -0.1996 -0.3279
 4772TIP3    H235732   3.010   5.634  16.016  0.4802 -1.7842  0.3170
 4773TIP3   OH235733   1.467   4.554  13.529  0.4038 -0.8198 -0.5229
 4773TIP3    H135734   1.419   4.634  13.508  0.1637 -0.4484  1.2505
 4773TIP3    H235735   1.546   4.558  13.475  0.4886  0.7143 -0.3213
 4774TIP3   OH235736   1.516   0.383  12.836 -0.3696  0.5396 -0.2403
 4774TIP3    H135737   1.575   0.381  12.760  0.0094  0.5059  0.0528
 4774TIP3    H235738   1.527   0.471  12.872  0.4184  0.1502  0.5205
 4775TIP3   OH235739   1.813   6.161  14.508  0.0307 -0.3990 -0.4620
 4775TIP3    H135740   1.859   6.245  14.502  0.5172 -0.5329  1.0259
 4775TIP3    H235741   1.883   6.095  14.507 -0.0323 -0.5877  2.1918
 4776TIP3   OH235742   2.801   2.036  11.408 -0.4340  0.8708 -0.1086
 4776TIP3    H135743   2.880   2.089  11.401 -0.5736  1.0469 -0.3532
 4776TIP3    H235744   2.819   1.959  11.353 -1.0687  1.6918 -1.5241
 4777TIP3   OH235745   4.229   2.677  14.764  0.5295 -0.1600 -0.1432
 4777TIP3    H135746   4.218   2.759  14.715 -1.9089 -0.0761  0.3827
 4777TIP3    H235747   4.233   2.609  14.697  0.4521  0.2270 -0.5465
 4778TIP3   OH235748   4.686   0.129   0.033  0.1616 -0.4555  0.3595
 4778TIP3    H135749   4.726   0.215   0.025  0.0101 -0.5243 -1.4262
 4778TIP3    H235750   4.691   0.091  -0.054  0.2470 -2.2850  1.1114
 4779TIP3   OH235751   0.036   2.091   3.748  0.1894  0.5963  0.4696
 4779TIP3    H135752   0.037   2.017   3.687 -0.7212  1.1835 -0.2779
 4779TIP3    H235753  -0.030   2.151   3.713  1.8443  2.4214  0.2751
 4780TIP3   OH235754   4.229   0.272   5.599  0.8507  0.2011  0.1094
 4780TIP3    H135755   4.276   0.355   5.602  0.0991  0.6444  0.0427
 4780TIP3    H235756   4.164   0.279   5.669  0.5833 -0.2007 -0.0931
 4781TIP3   OH235757   6.540   6.542  10.805  0.1678  0.1951  0.2577
 4781TIP3    H135758   6.596   6.609  10.845  0.8949 -1.2587  1.7872
 4781TIP3    H235759   6.580   6.525  10.720 -0.8332  2.6349 -0.8154
 4782TIP3   OH235760   2.140   6.506   4.470  0.5982  0.2264 -0.4014
 4782TIP3    H135761   2.203   6.571   4.504  0.4659 -0.1434  0.6035
 4782TIP3    H235762   2.121   6.535   4.381  2.1878  0.3559 -0.7306
 4783TIP3   OH235763   0.526   1.261   4.781  0.1725 -0.1679 -0.1229
 4783TIP3    H135764   0.593   1.220   4.836  0.1445  0.2405  0.2185
 4783TIP3    H235765   0.562   1.257   4.693 -0.5331 -2.4410 -0.3892
 4784TIP3   OH235766   2.177   5.973  13.608 -0.1675  0.1863  0.5007
 4784TIP3    H135767   2.096   5.998  13.564  1.1316  2.8033 -0.6275
 4784TIP3    H235768   2.166   6.002  13.698 -0.8394 -0.4034  0.6206
 4785TIP3   OH235769   5.107   2.139   2.181 -0.5484  0.3710 -0.2355
 4785TIP3    H135770   5.170   2.069   2.201 -0.7614  0.8207  2.2748
 4785TIP3    H235771   5.081   2.122   2.090  1.3185 -1.2802 -0.5273
 4786TIP3   OH235772   0.185   6.227  15.472  0.3843 -0.2532 -0.1334
 4786TIP3    H135773   0.207   6.163  15.540  0.0672 -0.3591 -0.1261
 4786TIP3    H235774   0.096   6.203  15.445  0.5636 -0.3100 -0.6937
 4787TIP3   OH235775   0.424   0.630   4.062 -0.0159 -0.0797  0.4274
 4787TIP3    H135776   0.331   0.617   4.081 -0.5485  1.1054 -1.1447
 4787TIP3    H235777   0.467   0.554   4.101 -1.7307 -1.0809  0.4805
 4788TIP3   OH235778   6.195   5.607  11.576  0.5034  0.4053  0.0487
 4788TIP3    H135779   6.262   5.573  11.517  0.0994  0.0046 -0.1862
 4788TIP3    H235780   6.242   5.626  11.657  0.5309 -1.9890  0.6567
 4789TIP3   OH235781   5.389   4.072  14.036  0.2606  0.1863  0.3302
 4789TIP3    H135782   5.379   4.136  13.966  1.8052  1.7462  1.4605
 4789TIP3    H235783   5.460   4.015  14.006  2.4560  2.1676  1.4360
 4790TIP3   OH235784   3.584   6.051  12.824 -0.6767 -0.6171  0.6747
 4790TIP3    H135785   3.499   6.053  12.780 -0.6070  0.0045  0.5630
 4790TIP3    H235786   3.634   5.984  12.778 -0.7696 -0.2976  0.1086
 4791TIP3   OH235787   3.815   4.920  13.962  0.1923  0.5662  0.0175
 4791TIP3    H135788   3.904   4.951  13.977  0.4113  0.8721 -1.7168
 4791TIP3    H235789   3.760   4.999  13.972  0.1814  0.5155  0.3892
 4792TIP3   OH235790   2.566   2.471  15.494  0.0504 -0.9019  0.3344
 4792TIP3    H135791   2.638   2.514  15.541 -1.2038  2.6089 -0.6075
 4792TIP3    H235792   2.515   2.428  15.563  1.3288 -0.7973  1.3970
 4793TIP3   OH235793   0.327   4.465   2.863 -0.3781  0.1450 -0.4463
 4793TIP3    H135794   0.340   4.508   2.948  0.1680 -0.7310 -0.0666
 4793TIP3    H235795   0.392   4.504   2.805 -0.0798  0.0386 -0.1849
 4794TIP3   OH235796   4.269   2.576   6.227  1.1285  0.0773  0.3046
 4794TIP3    H135797   4.361   2.551   6.236  0.6423 -1.1813  2.1976
 4794TIP3    H235798   4.235   2.576   6.316 -0.5009  1.4844 -0.2622
 4795TIP3   OH235799   5.295   5.864   6.555  0.0911  0.1073  1.0125
 4795TIP3    H135800   5.341   5.812   6.489  0.8106  0.7027  1.0295
 4795TIP3    H235801   5.359   5.929   6.584 -0.2206 -0.1142  2.2779
 4796TIP3   OH235802   2.002   2.506   4.187 -0.9967 -0.1285  0.3043
 4796TIP3    H135803   1.910   2.522   4.206 -1.1493  0.0211 -0.5215
 4796TIP3    H235804   2.010   2.411   4.183 -1.2654 -0.1296 -0.3040
 4797TIP3   OH235805   5.587   3.029   6.261  1.0883  0.1322  0.1719
 4797TIP3    H135806   5.508   3.025   6.207  0.7405 -1.5900  0.7309
 4797TIP3    H235807   5.562   3.084   6.335  0.5842  0.0308  0.0821
 4798TIP3   OH235808   0.787   5.398  12.409 -0.4077 -0.4262 -0.4954
 4798TIP3    H135809   0.698   5.379  12.437 -0.9303  3.1688  0.8270
 4798TIP3    H235810   0.843   5.355  12.474 -1.2232 -1.5149 -0.5006
 4799TIP3   OH235811   2.037   3.950   0.212 -0.2820  0.2394  0.7351
 4799TIP3    H135812   1.997   3.863   0.207 -0.2157  0.2792 -1.3153
 4799TIP3    H235813   1.979   4.007   0.162  0.4812  1.0523  0.7471
 4800TIP3   OH235814   2.148   1.659  13.592  0.4869  0.3047  0.6011
 4800TIP3    H135815   2.241   1.661  13.567  0.4112 -0.3646  0.2555
 4800TIP3    H235816   2.149   1.682  13.685  0.9086  1.2492  0.3733
 4801TIP3   OH235817   5.984   0.626   2.752  0.4227  0.3426 -0.9592
 4801TIP3    H135818   6.042   0.673   2.693  1.3156  0.2317 -0.1915
 4801TIP3    H235819   5.922   0.692   2.782  0.8238  0.7175 -0.9449
 4802TIP3   OH235820   3.330   3.091   5.818 -0.0974 -0.1117 -0.0389
 4802TIP3    H135821   3.372   3.073   5.902 -0.5489 -0.9843  0.0098
 4802TIP3    H235822   3.338   3.009   5.769  0.5764  0.5251 -1.0369
 4803TIP3   OH235823   1.873   1.378   1.414 -0.1653  0.0980  0.1930
 4803TIP3    H135824   1.884   1.340   1.501 -0.2647 -0.0021  0.1623
 4803TIP3    H235825   1.914   1.465   1.420  0.4915 -0.2004  0.1231
 4804TIP3   OH235826   5.274   0.706  11.831  0.2846 -0.2194 -0.3695
 4804TIP3    H135827   5.363   0.715  11.800  0.3815  1.7154  0.3563
 4804TIP3    H235828   5.227   0.782  11.796 -0.6741 -0.3593  0.5292
 4805TIP3   OH235829   4.633   6.524  12.909  0.2116 -0.1761 -0.5986
 4805TIP3    H135830   4.699   6.555  12.848  1.0188  2.8523  1.5598
 4805TIP3    H235831   4.680   6.510  12.991 -1.2848 -1.2453  0.1399
 4806TIP3   OH235832   2.608   4.838  15.800 -0.6526  0.2372 -0.7265
 4806TIP3    H135833   2.699   4.837  15.830 -0.9044  0.1189  0.0600
 4806TIP3    H235834   2.612   4.877  15.713  0.2066 -0.1722 -0.8892
 4807TIP3   OH235835   2.196   3.896  12.089  0.1680 -0.7579  0.4823
 4807TIP3    H135836   2.209   3.801  12.100 -1.2848 -1.2375 -1.3285
 4807TIP3    H235837   2.106   3.904  12.057  0.6675  1.1233 -0.6254
 4808TIP3   OH235838   4.126   6.645   1.290 -0.1250  0.2762 -0.5387
 4808TIP3    H135839   4.193   6.582   1.262 -2.0199 -2.3465  0.3866
 4808TIP3    H235840   4.055   6.635   1.227 -0.7918  0.8906  0.0941
 4809TIP3   OH235841   1.318   3.597  16.742  0.0760 -0.1706 -0.1630
 4809TIP3    H135842   1.341   3.618  16.833 -0.3855  0.3032 -0.1503
 4809TIP3    H235843   1.402   3.586  16.698  0.3518 -2.8314  0.8398
 4810TIP3   OH235844   6.276   0.664   1.370  0.1517 -0.3098  0.2583
 4810TIP3    H135845   6.199   0.608   1.383 -0.6380  0.5917 -0.4001
 4810TIP3    H235846   6.346   0.603   1.347 -0.5227 -1.0999  0.2524
 4811TIP3   OH235847   1.496   6.621   4.028  0.0969 -0.0790  0.0332
 4811TIP3    H135848   1.427   6.557   4.009  0.9578 -1.2734  0.8128
 4811TIP3    H235849   1.577   6.576   4.004  0.6282  1.4494 -1.2702
 4812TIP3   OH235850   0.852   4.739  12.425  0.3792 -0.5354  0.1621
 4812TIP3    H135851   0.881   4.699  12.342 -0.9051 -0.8237 -0.1622
 4812TIP3    H235852   0.861   4.668  12.489  1.1049 -0.3948  0.2282
 4813TIP3   OH235853   2.801   2.787  15.276  0.0592  0.5327 -0.2132
 4813TIP3    H135854   2.868   2.760  15.213  1.6367  0.3825  1.4119
 4813TIP3    H235855   2.850   2.840  15.340 -1.5816  1.1597  0.5669
 4814TIP3   OH235856   0.016   4.390  14.215  0.1803 -0.3891 -0.8236
 4814TIP3    H135857  -0.079   4.400  14.223  0.1837 -1.2849  0.7990
 4814TIP3    H235858   0.043   4.462  14.159 -1.1243  1.6439  0.9910
 4815TIP3   OH235859   2.842   6.534   0.900 -0.1869  0.9164  0.7323
 4815TIP3    H135860   2.780   6.580   0.844  0.6741  2.4552  0.9913
 4815TIP3    H235861   2.821   6.562   0.988 -1.5105 -1.4705  1.2779
 4816TIP3   OH235862   2.687   3.706  12.576 -0.1401 -0.2847 -0.0263
 4816TIP3    H135863   2.772   3.674  12.603 -0.1066 -1.1046 -1.0510
 4816TIP3    H235864   2.707   3.778  12.516 -0.2020  0.5333  0.9051
 4817TIP3   OH235865   4.977   4.802   1.615 -0.2079 -0.0986 -0.0502
 4817TIP3    H135866   4.957   4.878   1.561 -2.0788  1.8918  3.0734
 4817TIP3    H235867   5.024   4.838   1.691  0.4137 -2.3383  0.7049
 4818TIP3   OH235868   1.035   2.760   1.850  0.3193 -0.3269  0.6670
 4818TIP3    H135869   1.098   2.707   1.898 -1.5359 -0.8125  2.7121
 4818TIP3    H235870   1.056   2.850   1.875  0.0805 -0.4987  1.5076
 4819TIP3   OH235871   2.456   3.571  10.436 -0.2820  0.0343  0.5690
 4819TIP3    H135872   2.507   3.503  10.392 -0.9149  0.2508 -0.5323
 4819TIP3    H235873   2.514   3.603  10.505  0.4055 -0.9145  0.4518
 4820TIP3   OH235874   1.584   2.229  11.878  0.0684 -0.1036 -0.3434
 4820TIP3    H135875   1.620   2.142  11.894 -1.4640 -0.7528 -0.2162
 4820TIP3    H235876   1.564   2.263  11.965  1.9068  0.9695 -0.2993
 4821TIP3   OH235877   4.339   1.890  12.319  0.1822  0.1017 -0.1972
 4821TIP3    H135878   4.351   1.906  12.225 -0.1810 -0.5863 -0.3675
 4821TIP3    H235879   4.413   1.835  12.343 -1.0932 -1.9401 -0.6773
 4822TIP3   OH235880   5.800   6.706  12.500 -0.0087 -0.1693 -0.0360
 4822TIP3    H135881   5.881   6.658  12.517  0.2860  1.0105  2.2888
 4822TIP3    H235882   5.731   6.643  12.521  0.3634 -0.0490  1.6592
 4823TIP3   OH235883   1.468   3.464  13.087  0.0290 -0.0985 -0.3525
 4823TIP3    H135884   1.471   3.542  13.143  1.2168  0.6793 -1.4405
 4823TIP3    H235885   1.551   3.465  13.040 -0.0732 -1.8638 -0.6280
 4824TIP3   OH235886   2.078   0.081   3.759 -0.0396  0.4975 -0.3286
 4824TIP3    H135887   1.998   0.094   3.809  0.3533  4.3708 -0.3642
 4824TIP3    H235888   2.135   0.029   3.816 -1.3545  0.6087  1.1283
 4825TIP3   OH235889   0.430   5.103  14.990  0.1392  0.4021 -0.3223
 4825TIP3    H135890   0.368   5.127  15.059  0.5033  1.9261 -0.4939
 4825TIP3    H235891   0.507   5.071  15.037 -0.8692 -1.9791 -0.1059
 4826TIP3   OH235892   1.324   0.851  12.556  0.2741  0.2641  0.6737
 4826TIP3    H135893   1.413   0.822  12.571  0.3364 -0.2269 -0.4967
 4826TIP3    H235894   1.326   0.888  12.467 -0.6975  0.1468  0.5923
 4827TIP3   OH235895   1.211   2.945  17.008  0.0589 -0.5855 -0.2305
 4827TIP3    H135896   1.208   2.850  17.017  2.0393 -0.6766 -0.2477
 4827TIP3    H235897   1.196   2.961  16.915  0.2698 -0.9176 -0.3216
 4828TIP3   OH235898   2.583   5.210  16.160 -0.6911 -0.1236 -0.0431
 4828TIP3    H135899   2.526   5.167  16.096  1.3832 -1.6018 -1.0033
 4828TIP3    H235900   2.588   5.149  16.233  2.0977 -1.5955 -1.3217
 4829TIP3   OH235901   2.735   3.604   0.725 -0.1903 -0.2465  0.0881
 4829TIP3    H135902   2.655   3.578   0.680 -1.5527  0.5264  1.9692
 4829TIP3    H235903   2.773   3.671   0.669 -2.1402  1.1051  0.2963
 4830TIP3   OH235904   2.728   5.625  15.478 -0.2153 -0.0635  0.2056
 4830TIP3    H135905   2.782   5.657  15.550 -0.7207  1.5797 -0.0896
 4830TIP3    H235906   2.638   5.642  15.506 -0.5894 -2.1024  0.3936
 4831TIP3   OH235907   5.435   1.969  11.036 -0.0326 -0.6842 -0.1722
 4831TIP3    H135908   5.515   1.949  11.085  0.1278  0.4620  0.0492
 4831TIP3    H235909   5.459   2.041  10.978 -0.8651 -0.4074 -0.1917
 4832TIP3   OH235910   2.528   2.901  14.053  0.0663 -0.3464 -0.2668
 4832TIP3    H135911   2.590   2.914  14.126  0.2077 -1.7290 -0.1165
 4832TIP3    H235912   2.516   2.806  14.049 -1.4387 -0.1526 -0.8189
 4833TIP3   OH235913   3.864   0.695  14.059 -0.5824 -0.5604  0.0790
 4833TIP3    H135914   3.896   0.715  13.971  0.4055  1.2569  0.7880
 4833TIP3    H235915   3.856   0.599  14.061 -0.7591 -0.6271 -2.0012
 4834TIP3   OH235916   4.013   5.311  11.519  0.1819 -0.4024 -0.2962
 4834TIP3    H135917   3.939   5.299  11.459  0.4087 -1.1743 -0.4273
 4834TIP3    H235918   4.070   5.236  11.502  1.0966  0.2855 -0.3310
 4835TIP3   OH235919   3.717   5.319   0.987 -0.1825  0.2541  0.4203
 4835TIP3    H135920   3.642   5.260   0.980  0.4555 -0.6256  0.8992
 4835TIP3    H235921   3.726   5.337   1.080  1.9387 -1.9744  0.7395
 4836TIP3   OH235922   2.903   5.397   5.347 -0.0929  0.1326 -0.2931
 4836TIP3    H135923   2.902   5.447   5.266  1.1233 -1.2620 -1.2415
 4836TIP3    H235924   2.811   5.376   5.364 -0.7642  3.2533  0.6104
 4837TIP3   OH235925   6.080   5.404  16.539 -0.5075  0.5826 -0.7762
 4837TIP3    H135926   5.987   5.411  16.556 -0.5353 -0.2271 -0.5326
 4837TIP3    H235927   6.122   5.453  16.610 -0.7045 -0.4863  0.1001
 4838TIP3   OH235928   6.491   4.449   1.776  0.1252  0.2119 -0.1520
 4838TIP3    H135929   6.575   4.435   1.732  0.1928  1.3266 -0.4096
 4838TIP3    H235930   6.477   4.543   1.772 -1.0362  0.0689  0.0914
 4839TIP3   OH235931   1.774   4.210   1.655 -0.1133 -0.6493 -0.1337
 4839TIP3    H135932   1.715   4.161   1.598  0.2203 -1.7175  0.3983
 4839TIP3    H235933   1.836   4.144   1.686  0.7025  0.2388  0.1660
 4840TIP3   OH235934   1.522   2.176  16.878 -0.1722 -0.4437  0.1384
 4840TIP3    H135935   1.563   2.183  16.792  0.5887 -0.9948  0.4449
 4840TIP3    H235936   1.546   2.257  16.923 -1.6771  0.4590 -0.6096
 4841TIP3   OH235937   0.489   2.480   5.407 -0.0241  0.3429 -0.3180
 4841TIP3    H135938   0.554   2.550   5.411 -0.1592  0.4102  1.4689
 4841TIP3    H235939   0.408   2.523   5.382 -0.0545  0.8181  0.5405
 4842TIP3   OH235940   1.323   6.139  15.887  0.5498  0.5216  0.3776
 4842TIP3    H135941   1.416   6.134  15.869  0.6263 -1.7482  1.1398
 4842TIP3    H235942   1.317   6.190  15.968  1.2058 -0.1182  0.8372
 4843TIP3   OH235943   5.623   2.064   6.146  0.1887 -0.3700  0.3385
 4843TIP3    H135944   5.655   2.062   6.056  0.9583 -0.9519  0.6113
 4843TIP3    H235945   5.581   1.979   6.159 -2.2923  0.6650 -0.2677
 4844TIP3   OH235946   2.705   3.185   2.645 -0.1563 -0.0625  0.0437
 4844TIP3    H135947   2.680   3.267   2.601  0.5907 -0.5997 -1.4186
 4844TIP3    H235948   2.627   3.161   2.696 -1.7264 -0.2820 -2.3039
 4845TIP3   OH235949   1.782   4.968  11.799 -0.1799 -0.2044  0.1849
 4845TIP3    H135950   1.714   4.965  11.731  0.2390 -0.5185 -0.2289
 4845TIP3    H235951   1.782   4.880  11.837 -0.7076  0.0898  0.8999
 4846TIP3   OH235952   6.536   3.984  14.245 -0.5960 -0.6168 -0.1585
 4846TIP3    H135953   6.476   3.920  14.282 -0.1298 -1.3186 -0.5936
 4846TIP3    H235954   6.529   4.060  14.303 -1.6919 -0.7871 -0.0494
 4847TIP3   OH235955   0.127   5.376   6.481  0.0439  0.3468 -0.1884
 4847TIP3    H135956   0.188   5.440   6.446  1.0786 -0.1715  0.5959
 4847TIP3    H235957   0.183   5.307   6.518 -0.9732  0.4046  1.6014
 4848TIP3   OH235958   2.008   4.099   6.089  0.0627  0.4510 -1.0590
 4848TIP3    H135959   2.030   4.191   6.075 -0.7651  0.6260 -1.2856
 4848TIP3    H235960   2.039   4.079   6.177 -0.3031  1.1321 -0.7685
 4849TIP3   OH235961   4.685   5.402  11.724 -0.3884  0.2819  0.2323
 4849TIP3    H135962   4.626   5.347  11.774 -0.7630  0.9705  0.5554
 4849TIP3    H235963   4.630   5.439  11.654 -0.2076  0.4744  0.1911
 4850TIP3   OH235964   5.999   3.301  11.291 -0.3548  0.2108  0.0258
 4850TIP3    H135965   5.963   3.219  11.256 -0.2121 -0.0627  0.5040
 4850TIP3    H235966   6.003   3.286  11.386  0.9582  0.2438 -0.0022
 4851TIP3   OH235967   3.884   4.779   0.922 -0.6835 -0.4151  0.0763
 4851TIP3    H135968   3.977   4.782   0.943 -0.6552  0.5248 -0.1175
 4851TIP3    H235969   3.840   4.761   1.005 -0.3039 -1.3110  0.0859
 4852TIP3   OH235970   0.797   0.510   0.227 -0.4018  0.0244 -0.0888
 4852TIP3    H135971   0.735   0.454   0.273 -2.1783  1.7249 -0.2920
 4852TIP3    H235972   0.776   0.499   0.134  0.9153 -0.8237 -0.3152
 4853TIP3   OH235973   0.752   4.201   3.699  0.1583 -0.6208 -0.5411
 4853TIP3    H135974   0.740   4.273   3.637  0.2869 -0.5059 -0.4328
 4853TIP3    H235975   0.764   4.124   3.643 -0.3316 -0.6167 -0.6543
 4854TIP3   OH235976   5.316   5.256   2.947  0.0629  0.0716 -0.0231
 4854TIP3    H135977   5.379   5.299   3.005  0.9048 -0.8561 -0.2334
 4854TIP3    H235978   5.327   5.300   2.863 -0.4777  0.7636  0.2571
 4855TIP3   OH235979   6.004   1.826  13.571 -0.1142  0.4796  0.0291
 4855TIP3    H135980   6.000   1.915  13.538  1.6000 -0.1254 -2.0066
 4855TIP3    H235981   6.094   1.814  13.599 -0.0675 -0.8898 -0.6274
 4856TIP3   OH235982   4.593   3.933  16.468  0.3913  0.0868  0.4755
 4856TIP3    H135983   4.680   3.974  16.473 -0.1827  1.3355  0.5164
 4856TIP3    H235984   4.560   3.957  16.382 -0.5586  0.9841  1.0642
 4857TIP3   OH235985   4.394   6.166   1.018 -0.1064  0.1808  0.3083
 4857TIP3    H135986   4.311   6.158   0.971  1.3468 -0.7312 -2.3457
 4857TIP3    H235987   4.445   6.229   0.966  1.9815 -1.6750 -0.0510
 4858TIP3   OH235988   3.521   2.585  14.197 -0.3247  0.0278 -0.3183
 4858TIP3    H135989   3.565   2.557  14.116  1.5487  1.3326  0.1848
 4858TIP3    H235990   3.483   2.670  14.176  0.8530  0.7441  0.3588
 4859TIP3   OH235991   3.564   4.487  13.219  0.2047  0.2481  0.0813
 4859TIP3    H135992   3.552   4.581  13.216 -0.3868  0.1338 -1.9204
 4859TIP3    H235993   3.520   4.460  13.300  1.4285  1.7813  1.3358
 4860TIP3   OH235994   0.222   6.663  15.750  0.2930  0.4480  0.4856
 4860TIP3    H135995   0.171   6.588  15.720  3.1263 -1.2182 -0.5455
 4860TIP3    H235996   0.224   6.722  15.674 -1.8038  1.5738  1.2449
 4861TIP3   OH235997   1.691   5.377  12.471 -0.3282  0.1197  0.0819
 4861TIP3    H135998   1.695   5.296  12.421  1.2194 -0.4622  1.0680
 4861TIP3    H235999   1.676   5.445  12.406 -0.3922 -0.8268 -0.9159
 4862TIP3   OH236000   3.920   3.751   6.798 -0.1127  0.4829  0.1055
 4862TIP3    H136001   3.947   3.836   6.833 -0.6654 -0.1452  2.1406
 4862TIP3    H236002   3.825   3.758   6.790 -0.0756  0.3288 -0.5315
 4863TIP3   OH236003   4.001   3.426  15.758 -0.0231  0.1668 -0.2271
 4863TIP3    H136004   3.909   3.438  15.783  0.0667 -0.0705  0.2323
 4863TIP3    H236005   4.037   3.369  15.826  0.6986  1.0114  0.1121
 4864TIP3   OH236006   0.788   6.510  14.212 -0.1341 -0.0154 -0.2067
 4864TIP3    H136007   0.849   6.550  14.274 -0.3795 -0.3623  0.2616
 4864TIP3    H236008   0.763   6.427  14.253 -1.6193  0.5280  0.0219
 4865TIP3   OH236009   1.155   5.423   5.383  0.3630  0.2023  0.2571
 4865TIP3    H136010   1.237   5.392   5.422 -0.8852 -2.1179  1.2632
 4865TIP3    H236011   1.143   5.511   5.419  0.8729 -0.6319  2.6563
 4866TIP3   OH236012   5.198   6.310  13.491  0.4074  0.9046  0.7666
 4866TIP3    H136013   5.110   6.332  13.459 -0.0109  0.5153  1.6262
 4866TIP3    H236014   5.185   6.235  13.549  1.4025  0.4223  0.3920
 4867TIP3   OH236015   5.391   4.422  15.149 -0.2091 -0.3200 -0.3276
 4867TIP3    H136016   5.434   4.486  15.092  0.0482  0.1771  0.4053
 4867TIP3    H236017   5.397   4.339  15.101 -0.2870  0.1469 -1.1578
 4868TIP3   OH236018   0.718   3.021  14.714  0.4819  0.8716 -0.1975
 4868TIP3    H136019   0.653   3.013  14.643  0.6551 -0.3062 -0.2461
 4868TIP3    H236020   0.767   3.100  14.692  0.6505  0.4385 -1.5149
 4869TIP3   OH236021   5.594   2.754   0.357 -0.1571  0.1645  0.0807
 4869TIP3    H136022   5.558   2.683   0.304 -0.6842  0.6605 -0.2474
 4869TIP3    H236023   5.522   2.780   0.414 -1.7171  3.5850 -3.0188
 4870TIP3   OH236024   3.971   0.327   1.895  0.0242 -0.1241 -0.1893
 4870TIP3    H136025   3.980   0.399   1.833  1.7409  0.5972  0.8042
 4870TIP3    H236026   4.032   0.261   1.864  1.4169  0.5199  1.0177
 4871TIP3   OH236027   0.650   1.649   4.795  0.2747  0.2608  0.4691
 4871TIP3    H136028   0.612   1.734   4.821  0.3691  0.3283  0.3864
 4871TIP3    H236029   0.704   1.624   4.870  1.4132  0.9756 -0.0846
 4872TIP3   OH236030   6.093   0.908   4.149  0.4661  0.3127 -0.2764
 4872TIP3    H136031   6.078   0.997   4.117  0.4576  0.9526  1.3791
 4872TIP3    H236032   6.150   0.868   4.085  1.6668  2.0084 -0.3272
 4873TIP3   OH236033   3.650   0.047   3.859 -0.2781 -0.4661 -1.0311
 4873TIP3    H136034   3.700   0.083   3.932 -1.2238 -2.5515  0.7506
 4873TIP3    H236035   3.655  -0.048   3.871 -1.8701 -0.8192 -2.7221
 4874TIP3   OH236036   1.716   4.077  14.049  0.3004 -0.2458 -0.2530
 4874TIP3    H136037   1.716   4.083  13.954 -0.3458 -0.5448 -0.2775
 4874TIP3    H236038   1.742   4.164  14.079  0.3343 -0.1020 -0.6973
 4875TIP3   OH236039   2.964   1.528   1.583  0.1824  0.1921  0.1779
 4875TIP3    H136040   2.876   1.503   1.611 -0.2055 -0.2096 -1.2974
 4875TIP3    H236041   2.991   1.458   1.523  0.6817  1.2931 -0.9460
 4876TIP3   OH236042   6.514   3.608  13.661  0.8936 -0.4828 -0.4463
 4876TIP3    H136043   6.458   3.530  13.658  0.3874 -0.3175  2.0317
 4876TIP3    H236044   6.478   3.666  13.594  0.3092 -1.7436 -1.2770
 4877TIP3   OH236045   3.387   5.078  15.434  0.0417  0.5236 -0.1801
 4877TIP3    H136046   3.453   5.083  15.504  0.1287 -0.3583 -0.1759
 4877TIP3    H236047   3.437   5.054  15.356 -0.0896  1.2689 -0.4954
 4878TIP3   OH236048   3.835   1.257  15.131 -0.2634 -0.7557 -0.4226
 4878TIP3    H136049   3.853   1.260  15.225 -0.9453 -0.6514 -0.2890
 4878TIP3    H236050   3.824   1.164  15.111  1.3805 -0.9194 -0.7086
 4879TIP3   OH236051   5.327   5.230   1.875  0.3068 -0.4928  0.3039
 4879TIP3    H136052   5.295   5.319   1.891  2.5055  0.3415  0.4772
 4879TIP3    H236053   5.275   5.199   1.801  1.0795  1.9302 -1.4007
 4880TIP3   OH236054   1.724   6.804   4.599  0.1138 -0.3542 -0.6390
 4880TIP3    H136055   1.692   6.796   4.509  0.4016  0.1441 -0.7957
 4880TIP3    H236056   1.775   6.724   4.614  1.4574  0.2812 -1.5222
 4881TIP3   OH236057   5.403   6.693   6.351 -0.2708  0.1141  0.0535
 4881TIP3    H136058   5.394   6.614   6.297  1.0536  0.6898 -1.0506
 4881TIP3    H236059   5.451   6.664   6.428 -2.1363 -0.7052  0.9918
 4882TIP3   OH236060   3.160   3.267   3.693 -0.2367 -0.5412  0.4324
 4882TIP3    H136061   3.123   3.257   3.605 -0.9203 -3.8053  0.9837
 4882TIP3    H236062   3.116   3.200   3.746  0.0371  1.4063  3.3561
 4883TIP3   OH236063   5.775   6.542   2.177 -0.4502 -0.0370  0.6603
 4883TIP3    H136064   5.789   6.465   2.122  0.4298 -0.1399  1.0172
 4883TIP3    H236065   5.781   6.509   2.267  0.7417  0.5671  0.8198
 4884TIP3   OH236066   0.725   3.029   2.964  0.0526  0.0622 -0.3581
 4884TIP3    H136067   0.735   3.002   3.056  1.7032  0.5363 -0.3593
 4884TIP3    H236068   0.803   3.082   2.946 -1.1085  1.4440 -1.5448
 4885TIP3   OH236069   3.482   4.883  15.237  0.8057  0.1555  0.3901
 4885TIP3    H136070   3.429   4.823  15.185  0.3744  1.2424 -0.4751
 4885TIP3    H236071   3.554   4.909  15.178  0.0338  1.7890  0.1205
 4886TIP3   OH236072   4.064   4.173  12.950 -0.9338 -0.1827  0.2643
 4886TIP3    H136073   4.031   4.085  12.936  0.8102 -0.6073 -1.5498
 4886TIP3    H236074   4.159   4.166  12.937 -0.6556  1.8186  0.8506
 4887TIP3   OH236075   2.876   4.925  12.334  0.1129 -0.0230 -0.0704
 4887TIP3    H136076   2.927   4.871  12.394  1.6633  0.6027 -0.7543
 4887TIP3    H236077   2.868   5.009  12.378  0.4497  0.1485 -0.3262
 4888TIP3   OH236078   5.359   5.340  14.373  0.6475  0.7601 -0.5658
 4888TIP3    H136079   5.370   5.336  14.278  0.5439 -0.6083 -0.5530
 4888TIP3    H236080   5.446   5.363  14.407  0.9203  0.3216 -0.9570
 4889TIP3   OH236081   0.090   0.566   4.783  0.0798 -0.2932 -0.4483
 4889TIP3    H136082   0.184   0.584   4.775 -0.0667  0.4536 -0.5144
 4889TIP3    H236083   0.047   0.639   4.739 -0.6502  1.6247  3.0873
 4890TIP3   OH236084   5.638   0.079   6.297  0.1804  0.4912  0.3911
 4890TIP3    H136085   5.560   0.028   6.321 -0.9566  2.1168  0.3298
 4890TIP3    H236086   5.621   0.109   6.208  1.0202  0.6401  0.2701
 4891TIP3   OH236087   6.139   0.237   0.062 -0.7981 -0.4835  0.4994
 4891TIP3    H136088   6.098   0.187   0.133  0.8109 -1.7234  0.6271
 4891TIP3    H236089   6.229   0.252   0.092  0.4464 -2.4147 -1.8186
 4892TIP3   OH236090   1.138   2.806  14.457 -0.7748  0.4834  0.0208
 4892TIP3    H136091   1.200   2.796  14.529 -0.8734 -0.6012 -0.0279
 4892TIP3    H236092   1.113   2.898  14.459 -1.3401  0.3150  1.8372
 4893TIP3   OH236093   5.559   3.338   3.618  0.0043  0.2626 -0.1349
 4893TIP3    H136094   5.630   3.277   3.638 -0.3257  0.3492  1.5081
 4893TIP3    H236095   5.479   3.288   3.635 -0.2786  1.3179  2.1234
 4894TIP3   OH236096   6.397   3.491   4.548  0.5458 -0.0640  0.6928
 4894TIP3    H136097   6.445   3.412   4.571  1.8055  0.5146  0.1551
 4894TIP3    H236098   6.387   3.486   4.453 -0.0613  0.0515  0.7470
 4895TIP3   OH236099   4.638   5.226  14.634 -0.4919  0.3423  0.4244
 4895TIP3    H136100   4.700   5.247  14.704  0.5564 -0.5061 -0.2165
 4895TIP3    H236101   4.625   5.132  14.641  0.5009  0.0311 -1.1639
 4896TIP3   OH236102   0.487   6.328  14.020  0.4993  0.0540  0.5150
 4896TIP3    H136103   0.422   6.261  14.039 -1.8346  1.6708 -1.1301
 4896TIP3    H236104   0.518   6.307  13.932 -0.2703  1.0605 -0.0267
 4897TIP3   OH236105   3.515   6.137   2.435 -0.3224  0.1824  0.2144
 4897TIP3    H136106   3.497   6.121   2.528 -1.2737  1.5435  0.2823
 4897TIP3    H236107   3.465   6.069   2.389  1.9810 -2.0116  0.7059
 4898TIP3   OH236108   5.657   1.147  16.845 -0.6123  0.4200 -0.1314
 4898TIP3    H136109   5.570   1.114  16.823 -1.0828  1.0124  0.7417
 4898TIP3    H236110   5.684   1.198  16.769 -1.6746  1.4365  0.1429
 4899TIP3   OH236111   1.961   2.566   1.993 -0.1284  0.0939  0.1110
 4899TIP3    H136112   1.998   2.645   2.033 -0.1218 -0.4935  1.3029
 4899TIP3    H236113   1.991   2.569   1.902  1.2485  0.6223  0.5565
 4900TIP3   OH236114   4.194   5.742   3.776  0.3826  0.0984 -0.0870
 4900TIP3    H136115   4.264   5.719   3.837  1.8330 -0.7196 -1.9714
 4900TIP3    H236116   4.119   5.762   3.832  1.5887 -0.7822  1.9374
 4901TIP3   OH236117   1.856   2.544  13.418  0.6731  0.1476  0.3365
 4901TIP3    H136118   1.836   2.622  13.366  1.2898  0.3940  0.4692
 4901TIP3    H236119   1.802   2.554  13.497  1.3051  0.8181  0.6984
 4902TIP3   OH236120   1.997   6.713  14.923 -0.6899  0.1725 -0.5427
 4902TIP3    H136121   2.023   6.675  15.007  1.0638 -0.0220 -1.1153
 4902TIP3    H236122   2.005   6.807  14.936 -1.6845  0.2150 -0.1357
 4903TIP3   OH236123   4.825   2.581  10.771  0.1343 -0.2161 -0.7182
 4903TIP3    H136124   4.909   2.625  10.759  0.2392 -0.1177  0.2889
 4903TIP3    H236125   4.781   2.632  10.840  0.0576 -1.3995  0.1385
 4904TIP3   OH236126   4.676   0.138  16.665  0.5396  0.0382  0.2065
 4904TIP3    H136127   4.765   0.163  16.638  1.2673  0.3531  2.6632
 4904TIP3    H236128   4.664   0.051  16.627  0.1986  1.5690 -3.6313
 4905TIP3   OH236129   1.396   6.743  12.776  0.4046 -0.0277  0.6040
 4905TIP3    H136130   1.455   6.669  12.789 -0.6104 -0.7081  1.5005
 4905TIP3    H236131   1.447   6.806  12.725  1.4278 -1.1624  0.1815
 4906TIP3   OH236132   5.581   1.340  14.838 -0.2999 -0.0103  0.0300
 4906TIP3    H136133   5.563   1.253  14.802  0.3618 -0.3755  0.5397
 4906TIP3    H236134   5.508   1.357  14.897 -1.2662  0.4907 -1.2702
 4907TIP3   OH236135   4.660   6.648  15.703 -0.6379 -0.1152 -0.0499
 4907TIP3    H136136   4.574   6.610  15.721 -1.5703  2.5857  1.9011
 4907TIP3    H236137   4.644   6.710  15.632 -0.0485 -0.3651 -0.4076
 4908TIP3   OH236138   0.515   6.363  14.351 -0.3209  0.4032 -0.5070
 4908TIP3    H136139   0.551   6.451  14.342 -0.1408  0.3074 -0.7206
 4908TIP3    H236140   0.452   6.370  14.423 -1.4648  1.0833 -1.5408
 4909TIP3   OH236141   5.346   3.662  14.299  0.3545  0.1512 -0.6671
 4909TIP3    H136142   5.271   3.721  14.297 -0.5129 -0.9438 -0.8818
 4909TIP3    H236143   5.357   3.634  14.208 -0.6710 -1.7591 -0.2534
 4910TIP3   OH236144   5.084   3.639  14.804 -0.7919 -0.2614 -0.0006
 4910TIP3    H136145   5.126   3.680  14.729  1.5434 -1.3792  0.5779
 4910TIP3    H236146   5.046   3.558  14.769 -2.5797  0.7446 -0.5234
 4911TIP3   OH236147   6.369   0.182   5.179  0.0141 -0.5497  0.0189
 4911TIP3    H136148   6.322   0.205   5.259  0.9698  1.5376  0.0439
 4911TIP3    H236149   6.439   0.247   5.173  0.7444 -1.4431 -1.8500
 4912TIP3   OH236150   2.166   2.237  11.218 -0.5444 -0.2698 -0.3348
 4912TIP3    H136151   2.135   2.172  11.155 -0.4486 -0.1242 -0.5332
 4912TIP3    H236152   2.125   2.211  11.301 -0.8555 -0.3288 -0.5046
 4913TIP3   OH236153   2.387   3.862  11.346 -0.1258 -0.2830  0.1720
 4913TIP3    H136154   2.300   3.825  11.336 -0.7121  1.0070  0.3970
 4913TIP3    H236155   2.444   3.804  11.295 -1.0928 -1.1689  0.0801
 4914TIP3   OH236156   1.132   3.861  14.170  0.4037 -0.2682  0.0634
 4914TIP3    H136157   1.195   3.867  14.242 -0.1605  0.3668  0.5162
 4914TIP3    H236158   1.155   3.932  14.111  0.5782 -0.5052 -0.1568
 4915TIP3   OH236159   5.461   6.244   6.308  0.6958  0.3648  0.2177
 4915TIP3    H136160   5.409   6.295   6.371  0.4449  0.1950  0.1481
 4915TIP3    H236161   5.475   6.160   6.351  0.0243  0.0333 -0.1854
 4916TIP3   OH236162   1.725   0.021   5.668 -0.2125  0.6490 -0.2383
 4916TIP3    H136163   1.630   0.020   5.680 -0.2939  0.5409 -0.8475
 4916TIP3    H236164   1.759  -0.026   5.744 -0.4682  2.7458  1.2544
 4917TIP3   OH236165   1.240   0.655   4.714 -0.7208 -0.0290  0.4027
 4917TIP3    H136166   1.320   0.605   4.695 -1.0361 -0.2214 -0.4761
 4917TIP3    H236167   1.263   0.709   4.789  0.9253  1.3999 -1.0271
 4918TIP3   OH236168   1.187   1.254   3.764 -0.3644 -0.0363 -0.4482
 4918TIP3    H136169   1.094   1.263   3.786 -0.4578 -0.0808 -0.8285
 4918TIP3    H236170   1.208   1.163   3.783 -0.6839 -0.3270 -1.4415
 4919TIP3   OH236171   5.309   0.798   1.749 -0.2848 -0.4766 -0.0200
 4919TIP3    H136172   5.362   0.859   1.800  0.2844 -1.1657  0.2258
 4919TIP3    H236173   5.278   0.850   1.675 -1.2902  0.6009  1.0993
 4920TIP3   OH236174   4.589   0.194   6.002 -0.2177  0.3114 -0.0984
 4920TIP3    H136175   4.621   0.276   5.966  0.7297 -0.1074 -0.2443
 4920TIP3    H236176   4.625   0.191   6.091 -0.7839  0.3595  0.1316
 4921TIP3   OH236177   6.574   1.325  15.669  0.7695  0.4369 -0.0670
 4921TIP3    H136178   6.637   1.357  15.605  0.5145 -3.3018 -2.5022
 4921TIP3    H236179   6.627   1.288  15.739  1.0947  2.1603  0.6442
 4922TIP3   OH236180   1.111   0.895  13.706 -0.2532 -0.0250  0.5066
 4922TIP3    H136181   1.082   0.831  13.771 -1.8438  1.2987  1.1727
 4922TIP3    H236182   1.030   0.932  13.672  0.6193  1.8261  0.3416
 4923TIP3   OH236183   3.989   2.715   6.130  0.3400  0.2066 -0.3910
 4923TIP3    H136184   3.950   2.734   6.044  2.0266  1.3396 -0.9749
 4923TIP3    H236185   3.966   2.624   6.147 -1.5127  0.4703 -1.2137
 4924TIP3   OH236186   4.265   2.009   1.138 -0.2571  0.3611 -0.1174
 4924TIP3    H136187   4.222   1.963   1.210  0.2994  1.0148  0.6531
 4924TIP3    H236188   4.340   1.953   1.116  0.6674  1.0866  1.1075
 4925TIP3   OH236189   4.001   0.285  17.182 -0.2014  0.7495 -0.4520
 4925TIP3    H136190   3.977   0.266  17.091  2.5834 -0.8602 -0.9642
 4925TIP3    H236191   4.093   0.260  17.188 -0.4981  0.0213  3.0309
 4926TIP3   OH236192   0.585   6.511   4.125 -1.0943 -0.3462 -0.7594
 4926TIP3    H136193   0.578   6.420   4.099 -3.0607 -0.3671 -0.2793
 4926TIP3    H236194   0.515   6.556   4.078 -0.3570  0.8716 -0.7475
 4927TIP3   OH236195   5.227   5.161  16.618 -0.9122 -0.1186 -0.4966
 4927TIP3    H136196   5.256   5.095  16.682  0.7023 -0.3044 -1.3502
 4927TIP3    H236197   5.223   5.113  16.535 -1.5440  0.4498 -0.8031
 4928TIP3   OH236198   2.203   3.606   4.066 -0.1169  0.4636  0.2173
 4928TIP3    H136199   2.224   3.530   4.121 -0.2979  1.4006  1.6355
 4928TIP3    H236200   2.267   3.603   3.995  0.6913 -0.3018  0.9546
 4929TIP3   OH236201   2.441   4.991  13.007 -0.3239  0.0969 -0.1484
 4929TIP3    H136202   2.393   4.979  13.089  0.0543  0.1793  0.0886
 4929TIP3    H236203   2.491   5.072  13.021  0.7073 -0.5536  0.0136
 4930TIP3   OH236204   1.942   2.886  12.318  0.1023 -0.7784 -0.3636
 4930TIP3    H136205   1.855   2.845  12.316 -0.2976 -0.0350 -3.7706
 4930TIP3    H236206   2.002   2.814  12.338 -1.1773 -1.3481  1.8332
 4931TIP3   OH236207   2.664   4.005   3.492 -0.4651 -0.0918  0.2065
 4931TIP3    H136208   2.720   3.964   3.558 -0.4313 -1.4627 -0.6391
 4931TIP3    H236209   2.723   4.060   3.441 -0.3107  0.1850  0.6742
 4932TIP3   OH236210   6.069   3.148   4.121 -0.5480  0.7784 -0.2778
 4932TIP3    H136211   6.023   3.163   4.203 -1.9636  2.1342 -1.2686
 4932TIP3    H236212   6.017   3.081   4.076 -0.4353  0.8838 -0.5684
 4933TIP3   OH236213   1.995   1.650   3.512 -0.2750 -0.7367 -0.7589
 4933TIP3    H136214   1.946   1.667   3.431  0.1874  0.2402 -0.8548
 4933TIP3    H236215   2.085   1.677   3.491  0.2666 -2.2368 -0.5020
 4934TIP3   OH236216   6.764   5.650   6.237  0.6238 -0.7152 -0.1647
 4934TIP3    H136217   6.731   5.562   6.253 -1.4497  0.2027  1.1469
 4934TIP3    H236218   6.823   5.667   6.310 -3.2272  0.8187  2.9952
 4935TIP3   OH236219   3.254   0.869   3.961  0.1637  0.0300 -0.3765
 4935TIP3    H136220   3.264   0.834   3.872 -1.3911  0.7271 -0.8590
 4935TIP3    H236221   3.164   0.848   3.985  0.5719 -0.1758  1.0717
 4936TIP3   OH236222   4.961   4.851  13.904  0.1174 -0.6144 -0.4784
 4936TIP3    H136223   4.885   4.839  13.846 -1.0552 -0.7356  1.0072
 4936TIP3    H236224   4.926   4.899  13.979  2.0609  1.4465 -0.7915
 4937TIP3   OH236225   2.152   4.313   0.778 -0.8864  0.1947 -0.4285
 4937TIP3    H136226   2.085   4.380   0.770 -0.5476  0.4749 -0.9821
 4937TIP3    H236227   2.235   4.362   0.777 -0.6633  0.1671  3.0670
 4938TIP3   OH236228   3.011   1.573  15.588  0.2160  0.7459 -0.0165
 4938TIP3    H136229   3.098   1.567  15.628 -0.0148  1.0883  0.5616
 4938TIP3    H236230   3.016   1.519  15.510  0.7054  0.0931  0.4538
 4939TIP3   OH236231   3.391   2.431   3.009  0.6315  0.0670  0.5748
 4939TIP3    H136232   3.396   2.341   2.978  3.7771  0.5373 -0.6604
 4939TIP3    H236233   3.332   2.475   2.948 -0.1093 -0.8952  0.5752
 4940TIP3   OH236234   3.175   6.649  11.011  0.5715  0.0566 -0.1995
 4940TIP3    H136235   3.256   6.618  10.969  1.1573  0.2865  0.7150
 4940TIP3    H236236   3.150   6.726  10.961  1.3217  0.3922 -0.0783
 4941TIP3   OH236237   2.224   6.235   4.455  0.1997  0.2083  0.3439
 4941TIP3    H136238   2.229   6.322   4.493  0.6768 -0.2414  1.3472
 4941TIP3    H236239   2.176   6.247   4.373 -1.2287  1.1649  1.2597
 4942TIP3   OH236240   1.193   2.365   2.081 -0.2418 -0.1661  0.1484
 4942TIP3    H136241   1.237   2.449   2.068  0.6244 -0.4333  1.1844
 4942TIP3    H236242   1.170   2.365   2.174 -0.7300 -0.8517  0.0312
 4943TIP3   OH236243   6.175   4.424  12.858 -0.0725  0.6314 -0.1064
 4943TIP3    H136244   6.099   4.381  12.819  1.2133 -1.9014 -0.0124
 4943TIP3    H236245   6.233   4.442  12.784 -0.5235  2.1984 -0.1283
 4944TIP3   OH236246   1.838   5.475   3.576 -0.0135  0.0632 -0.3398
 4944TIP3    H136247   1.884   5.392   3.570 -1.5787 -0.8222 -0.5120
 4944TIP3    H236248   1.892   5.537   3.527  0.5659 -1.1254 -1.2370
 4945TIP3   OH236249   6.523   4.121   5.594 -0.1638 -0.8774 -0.2060
 4945TIP3    H136250   6.508   4.186   5.526 -0.8458 -1.0521 -0.2325
 4945TIP3    H236251   6.539   4.040   5.547 -0.0692 -0.8828 -0.1650
 4946TIP3   OH236252   3.858   0.682   2.366 -0.1636  0.1156  0.1254
 4946TIP3    H136253   3.920   0.609   2.365 -0.5751 -0.2530  0.6978
 4946TIP3    H236254   3.907   0.756   2.399  0.2259  0.0706 -0.3389
 4947TIP3   OH236255   6.483   6.290   4.275  0.3168  0.3498 -0.4790
 4947TIP3    H136256   6.510   6.348   4.346 -0.6781  0.4289 -0.1431
 4947TIP3    H236257   6.405   6.245   4.309 -1.5820  2.0237 -2.2766
 4948TIP3   OH236258   5.537   6.458  12.115 -0.1825 -0.2612  0.1866
 4948TIP3    H136259   5.510   6.462  12.023 -0.8970 -0.3546  0.3859
 4948TIP3    H236260   5.543   6.550  12.141  3.0824 -0.0578 -0.7845
 4949TIP3   OH236261   2.007   5.876   4.680  0.7075 -0.3567  0.4851
 4949TIP3    H136262   2.048   5.842   4.759  1.9324  0.3769  0.1867
 4949TIP3    H236263   2.020   5.971   4.684 -0.2941 -0.1807 -0.0011
 4950TIP3   OH236264   3.619   4.326  17.113  0.4838  0.2217  0.0495
 4950TIP3    H136265   3.587   4.390  17.177  0.1039  0.7172 -0.6308
 4950TIP3    H236266   3.543   4.270  17.097 -0.3724  1.8588 -2.1457
 4951TIP3   OH236267   5.192   2.069  11.702 -0.8799 -0.0510 -0.0449
 4951TIP3    H136268   5.265   2.014  11.732  0.4810  1.9134  0.4640
 4951TIP3    H236269   5.137   2.080  11.779 -1.4841 -1.1204 -0.2979
 4952TIP3   OH236270   1.947   0.865  13.114  0.1468 -0.3225  0.0203
 4952TIP3    H136271   1.935   0.960  13.111  0.2397 -0.3082  0.0888
 4952TIP3    H236272   1.966   0.846  13.206  2.8747 -0.0714 -0.3986
 4953TIP3   OH236273   3.812   4.373  13.375  0.0957  0.1626 -0.0944
 4953TIP3    H136274   3.896   4.407  13.407 -0.6382  1.9678  0.0244
 4953TIP3    H236275   3.798   4.418  13.292  0.5098 -2.2011 -1.5316
 4954TIP3   OH236276   0.852   5.952  17.173 -0.6632 -0.3137  0.0340
 4954TIP3    H136277   0.763   5.933  17.204 -0.9067 -2.0021 -1.4955
 4954TIP3    H236278   0.858   5.905  17.090  0.9215  1.6027 -1.0180
 4955TIP3   OH236279   6.393   2.411   0.819 -0.1246  0.1556 -0.1556
 4955TIP3    H136280   6.325   2.471   0.787 -0.4020  0.3430  0.7478
 4955TIP3    H236281   6.452   2.467   0.870 -0.9674 -0.4762  1.6013
 4956TIP3   OH236282   2.716   6.552   4.419 -0.5314 -0.5377  0.4148
 4956TIP3    H136283   2.660   6.503   4.478 -1.4288  0.0173  0.0477
 4956TIP3    H236284   2.779   6.597   4.476  0.1300 -1.8665  0.7696
 4957TIP3   OH236285   4.817   5.258   1.059 -0.4811  0.4002 -0.6000
 4957TIP3    H136286   4.850   5.271   1.148 -1.5485  0.6714 -0.2325
 4957TIP3    H236287   4.819   5.163   1.046 -0.1348  0.3743 -0.3680
 4958TIP3   OH236288   1.125   4.409   0.017 -0.0265 -0.2171  0.2183
 4958TIP3    H136289   1.217   4.409  -0.008  0.6675 -1.1710  2.4702
 4958TIP3    H236290   1.095   4.321  -0.006 -0.3759  0.0771 -0.4686
 4959TIP3   OH236291   3.380   3.840  12.284 -0.2281  0.6670 -0.3946
 4959TIP3    H136292   3.422   3.762  12.247  0.3207 -0.4984  2.3848
 4959TIP3    H236293   3.443   3.910  12.267  2.0127 -0.6290  1.7300
 4960TIP3   OH236294   0.707   1.843   0.278 -0.1165 -0.2882 -0.1273
 4960TIP3    H136295   0.622   1.807   0.299 -0.8824  2.7086  2.8148
 4960TIP3    H236296   0.767   1.804   0.342 -0.4444  1.4374  1.3302
 4961TIP3   OH236297   2.644   3.296   0.418  0.1555  0.0890  0.6528
 4961TIP3    H136298   2.613   3.207   0.435 -0.7953  0.2923  0.0632
 4961TIP3    H236299   2.725   3.285   0.369 -1.4987 -0.4982 -2.1375
 4962TIP3   OH236300   0.816   2.004   5.088  0.4730  0.3142  0.1466
 4962TIP3    H136301   0.831   2.076   5.150 -2.3554  1.4815 -0.3722
 4962TIP3    H236302   0.723   1.982   5.099  0.6269 -1.4565 -1.6010
 4963TIP3   OH236303   4.350   1.114  12.992  0.0998 -0.2796 -0.4464
 4963TIP3    H136304   4.286   1.132  13.061 -0.9116 -0.7597 -1.2238
 4963TIP3    H236305   4.422   1.069  13.036  0.3401  1.0589  0.6100
 4964TIP3   OH236306   3.669   3.831   6.660  0.3607  0.4692 -0.4081
 4964TIP3    H136307   3.699   3.917   6.631  2.4021 -0.3768 -0.9944
 4964TIP3    H236308   3.721   3.769   6.609  0.2673 -1.0968  1.2949
 4965TIP3   OH236309   1.020   5.850   0.114  0.2224  0.4019  0.0824
 4965TIP3    H136310   0.933   5.862   0.075 -0.8201  0.0868  2.1608
 4965TIP3    H236311   1.067   5.931   0.094 -1.0525  1.1830  0.1354
 4966TIP3   OH236312   3.281   4.634   0.055 -0.0145  0.1783  0.0425
 4966TIP3    H136313   3.278   4.607  -0.037 -0.1422 -0.0354  0.1100
 4966TIP3    H236314   3.282   4.730   0.051  2.7484  0.2189 -0.2750
 4967TIP3   OH236315   1.368   1.009  12.307 -0.1616  0.2531 -0.3083
 4967TIP3    H136316   1.301   1.008  12.239 -1.7025  1.3119  1.1286
 4967TIP3    H236317   1.356   1.093  12.351  0.1401 -0.8113  1.9109
 4968TIP3   OH236318   2.204   2.092  12.601 -0.0976  0.3072  0.1445
 4968TIP3    H136319   2.197   2.027  12.671  0.4688 -0.2492 -0.2962
 4968TIP3    H236320   2.217   2.175  12.646 -1.0217  0.1475  0.7244
 4969TIP3   OH236321   2.777   0.692   5.122  0.1613 -0.6238  0.2176
 4969TIP3    H136322   2.707   0.698   5.057 -0.6149 -2.4074  0.8144
 4969TIP3    H236323   2.833   0.622   5.090  1.5416  0.5864 -0.0933
 4970TIP3   OH236324   5.526   1.706   1.761 -0.4408 -0.0407  0.0148
 4970TIP3    H136325   5.486   1.629   1.801 -1.1596  0.0682 -0.4812
 4970TIP3    H236326   5.572   1.749   1.833 -1.9750  0.3217  0.8251
 4971TIP3   OH236327   1.458   3.680  12.680  0.5767  0.2106  0.1969
 4971TIP3    H136328   1.527   3.692  12.745 -0.4137 -0.9250  1.4930
 4971TIP3    H236329   1.379   3.663  12.730 -0.2493 -0.5859 -1.2993
 4972TIP3   OH236330   0.385   3.186  11.625  0.6060  0.3464 -0.6885
 4972TIP3    H136331   0.475   3.180  11.656  0.5144  0.5111 -0.3792
 4972TIP3    H236332   0.381   3.128  11.550  0.8140 -0.1282 -0.3365
 4973TIP3   OH236333   4.701   2.165   2.835  0.2504  0.7344 -0.2785
 4973TIP3    H136334   4.668   2.239   2.886  1.2463  1.4237 -0.6070
 4973TIP3    H236335   4.694   2.090   2.894 -1.9112  0.8275 -0.3443
 4974TIP3   OH236336   0.672   1.888  16.535  0.5658 -0.2793  0.0133
 4974TIP3    H136337   0.717   1.804  16.536  1.6814  0.3117  0.2772
 4974TIP3    H236338   0.713   1.937  16.464 -0.7578 -0.2926 -0.8129
 4975TIP3   OH236339   3.076   0.207  14.546  0.1303  0.2979  0.3730
 4975TIP3    H136340   3.156   0.256  14.563 -0.2006  1.4269 -1.1292
 4975TIP3    H236341   3.026   0.262  14.485 -2.1352 -0.0229  1.8046
 4976TIP3   OH236342   6.096   1.222  11.509  1.1213  0.1850 -0.1735
 4976TIP3    H136343   6.003   1.238  11.521  0.8872 -0.2103 -1.3528
 4976TIP3    H236344   6.125   1.183  11.592  0.6071  1.8166  0.8147
 4977TIP3   OH236345   1.067   5.923  12.137  0.1166  0.2118  0.6520
 4977TIP3    H136346   0.995   5.917  12.073 -0.8401 -1.6416  1.8009
 4977TIP3    H236347   1.027   5.965  12.214  0.1909 -0.9859  1.3629
 4978TIP3   OH236348   5.512   1.980   0.640  0.4916 -0.1544  0.4981
 4978TIP3    H136349   5.513   2.014   0.730 -0.6821  0.3576  0.3331
 4978TIP3    H236350   5.603   1.988   0.611  0.5068  1.6662  0.9285
 4979TIP3   OH236351   5.185   0.590  15.872  0.0626 -0.3717 -0.6689
 4979TIP3    H136352   5.196   0.676  15.913 -1.6340 -0.0295 -0.8597
 4979TIP3    H236353   5.196   0.527  15.944 -1.3556  0.1521  0.0473
 4980TIP3   OH236354   3.889   5.427   3.925  1.0991 -0.0346 -0.3947
 4980TIP3    H136355   3.884   5.487   3.999 -1.9580  1.1237 -1.3535
 4980TIP3    H236356   3.963   5.370   3.944  3.2498  3.0809  1.3005
 4981TIP3   OH236357   5.042   4.167  16.177  0.2788 -0.5754  0.2985
 4981TIP3    H136358   5.089   4.186  16.096  0.6110 -0.8188  0.4372
 4981TIP3    H236359   5.082   4.087  16.211  0.7856  0.0465  1.2056
 4982TIP3   OH236360   5.433   2.982  16.351 -0.1544 -1.0669  0.1632
 4982TIP3    H136361   5.435   2.937  16.435  0.6120 -0.5952  0.4005
 4982TIP3    H236362   5.506   2.943  16.302 -0.5195 -1.2523 -0.2433
 4983TIP3   OH236363   4.982   5.952  13.903 -1.0273 -0.5638 -0.5752
 4983TIP3    H136364   4.922   5.896  13.953 -0.1175 -1.4320 -0.4151
 4983TIP3    H236365   5.023   5.893  13.841  0.1889 -0.1528 -0.2014
 4984TIP3   OH236366   3.731   4.941  15.112 -0.4193 -0.1699  0.1899
 4984TIP3    H136367   3.716   5.018  15.167 -0.4485  1.2545 -1.7199
 4984TIP3    H236368   3.774   4.976  15.033 -0.0664 -2.1722 -0.5604
 4985TIP3   OH236369   6.042   2.785  12.999  0.3184 -0.0986  0.5571
 4985TIP3    H136370   6.023   2.878  12.992 -2.4576 -0.6238 -0.1824
 4985TIP3    H236371   6.034   2.752  12.909  1.6417 -1.0094  0.7444
 4986TIP3   OH236372   3.712   1.395  16.025  0.0869  0.3320 -0.4994
 4986TIP3    H136373   3.632   1.346  16.044  1.2238 -0.6514  2.2930
 4986TIP3    H236374   3.783   1.332  16.038  1.3914  1.4869 -1.6961
 4987TIP3   OH236375   1.758   1.951   5.935  0.1055 -0.1494 -1.0344
 4987TIP3    H136376   1.840   1.938   5.886  0.9268 -0.8203  0.4497
 4987TIP3    H236377   1.751   2.046   5.944  1.9691 -0.1014  0.7453
 4988TIP3   OH236378   2.733   5.942   2.885  0.8444 -0.1883 -0.2008
 4988TIP3    H136379   2.682   5.958   2.806  1.3421  0.4041 -0.4108
 4988TIP3    H236380   2.699   6.005   2.949 -0.9056 -1.9469  0.7173
 4989TIP3   OH236381   0.401   3.611  15.913  0.6967  0.0093 -0.0414
 4989TIP3    H136382   0.341   3.610  15.838  0.3857  0.0625  0.2044
 4989TIP3    H236383   0.413   3.704  15.933  2.7061  0.1515 -1.5354
 4990TIP3   OH236384   5.007   0.651  11.727  0.7460 -0.4495  0.1050
 4990TIP3    H136385   5.021   0.631  11.634  0.7024 -0.1494  0.0324
 4990TIP3    H236386   5.095   0.665  11.762  1.1307 -3.9717  0.9245
 4991TIP3   OH236387   4.387   0.363   2.239 -0.0429  0.2452  0.2419
 4991TIP3    H136388   4.314   0.364   2.177 -0.4323  2.5819  0.6596
 4991TIP3    H236389   4.459   0.403   2.192 -0.4975  2.5749  1.3764
 4992TIP3   OH236390   6.407   2.218  16.240 -0.4729 -0.6201 -0.1915
 4992TIP3    H136391   6.460   2.155  16.191 -1.5443 -0.4502 -1.6094
 4992TIP3    H236392   6.354   2.165  16.298 -0.0195 -0.8918 -0.0174
 4993TIP3   OH236393   1.918   6.322   2.095  0.2629  0.3295  0.1148
 4993TIP3    H136394   1.974   6.382   2.045  1.8333  0.1444  1.5246
 4993TIP3    H236395   1.874   6.379   2.159  1.6368  0.0898  1.3515
 4994TIP3   OH236396   0.325   3.435   6.183 -0.3085  0.2784 -0.7276
 4994TIP3    H136397   0.396   3.391   6.136 -0.0804  1.1343 -1.2158
 4994TIP3    H236398   0.347   3.425   6.276 -0.4421 -0.9131 -0.8156
 4995TIP3   OH236399   4.190   1.275  15.253 -0.5707 -0.1883  0.4739
 4995TIP3    H136400   4.161   1.297  15.165 -0.0070  0.4847  0.4458
 4995TIP3    H236401   4.280   1.308  15.257 -0.1154 -1.4257  0.8463
 4996TIP3   OH236402   3.372   6.306  15.822  0.2619  0.2544  0.5157
 4996TIP3    H136403   3.340   6.390  15.855  1.2002  0.7049  0.3369
 4996TIP3    H236404   3.331   6.296  15.736  0.5360  0.7853  0.3188
 4997TIP3   OH236405   3.651   0.696  14.224 -0.1426  0.0713  0.0496
 4997TIP3    H136406   3.632   0.605  14.249 -0.7569 -0.0131 -0.6598
 4997TIP3    H236407   3.739   0.692  14.186 -0.5035 -0.4054 -0.7751
 4998TIP3   OH236408   3.824   3.123   2.420 -0.3945 -0.3387 -1.0886
 4998TIP3    H136409   3.750   3.175   2.390 -0.6263 -1.3311 -2.3121
 4998TIP3    H236410   3.867   3.178   2.485 -2.3570  0.1380 -0.1210
 4999TIP3   OH236411   3.609   6.394  10.984 -0.0798 -0.2981  0.7484
 4999TIP3    H136412   3.632   6.305  10.959 -0.0032 -0.2221  0.5425
 4999TIP3    H236413   3.687   6.446  10.964 -0.3885 -0.0575  0.1419
 5000TIP3   OH236414   5.841   2.209   1.207 -0.3978  0.7351  0.4954
 5000TIP3    H136415   5.863   2.296   1.241  0.4602  0.5226  0.5164
 5000TIP3    H236416   5.748   2.199   1.225 -0.9355  2.3530 -1.0869
 5001TIP3   OH236417   0.976   4.609  15.845 -0.0861 -0.3153  0.0206
 5001TIP3    H136418   1.066   4.580  15.861 -0.2412 -0.0834  1.4109
 5001TIP3    H236419   0.982   4.704  15.842 -0.1648 -0.3266 -0.7666
 5002TIP3   OH236420   3.964   4.528   2.892 -0.0034  0.2430 -0.0549
 5002TIP3    H136421   4.041   4.533   2.835  0.1064  1.2710  0.1695
 5002TIP3    H236422   3.985   4.585   2.966  0.1560 -1.6248  1.4239
 5003TIP3   OH236423   2.024   5.301   1.789  0.6657 -0.6305  0.1670
 5003TIP3    H136424   2.068   5.274   1.869  0.8151  0.5061  0.4789
 5003TIP3    H236425   1.990   5.388   1.808 -1.7083 -1.4339 -0.0810
 5004TIP3   OH236426   2.431   2.344  10.380 -0.2529  0.4539  0.0034
 5004TIP3    H136427   2.378   2.421  10.402 -1.7380 -0.1928 -1.1605
 5004TIP3    H236428   2.457   2.307  10.464 -0.1970  1.7541  0.5791
 5005TIP3   OH236429   6.035   3.832  15.706  0.0543  0.4427 -0.5325
 5005TIP3    H136430   5.963   3.811  15.765  0.3915  0.9303  0.0606
 5005TIP3    H236431   6.061   3.921  15.730  2.7201 -0.7023  1.2318
 5006TIP3   OH236432   1.175   3.517   0.848  0.7607  0.0466  0.0947
 5006TIP3    H136433   1.085   3.551   0.854  1.0421  0.9118 -0.4263
 5006TIP3    H236434   1.165   3.422   0.859  0.1951  0.3979  3.8710
 5007TIP3   OH236435   6.148   6.481   1.264  0.1103 -0.7759 -0.1375
 5007TIP3    H136436   6.096   6.403   1.246 -1.1018  0.2092 -1.1440
 5007TIP3    H236437   6.129   6.502   1.356 -0.3146 -1.1247 -0.1432
 5008TIP3   OH236438   5.956   1.403   3.751  0.0583 -0.5259 -0.0739
 5008TIP3    H136439   5.928   1.491   3.726  2.0055 -0.1927 -1.2471
 5008TIP3    H236440   6.014   1.375   3.681  0.4721 -2.2640  0.9021
 5009TIP3   OH236441   4.766   0.732   0.188 -0.6684  0.0648 -0.3084
 5009TIP3    H136442   4.821   0.685   0.251  0.7602  3.8961  1.6547
 5009TIP3    H236443   4.681   0.741   0.232 -1.6721 -2.2959 -1.5939
 5010TIP3   OH236444   4.194   4.678   4.888 -0.5008 -0.1271  0.3163
 5010TIP3    H136445   4.106   4.715   4.894 -1.5841 -2.4193 -0.2971
 5010TIP3    H236446   4.233   4.696   4.974 -1.3443  1.3543  0.4232
 5011TIP3   OH236447   5.665   2.839  14.880 -0.2021 -0.1452  0.5112
 5011TIP3    H136448   5.692   2.928  14.901 -0.4602 -0.0684  0.5261
 5011TIP3    H236449   5.745   2.795  14.853 -0.1062  0.1480  0.3079
 5012TIP3   OH236450   6.572   3.256   5.169  0.3763  0.1920 -0.0378
 5012TIP3    H136451   6.621   3.200   5.230  0.6213 -1.2847 -1.5263
 5012TIP3    H236452   6.498   3.203   5.141 -1.0241  1.6825  0.6421
 5013TIP3   OH236453   1.728   3.545   6.674 -0.4273  0.1494  0.0445
 5013TIP3    H136454   1.706   3.456   6.702 -1.2420  1.1332  2.8605
 5013TIP3    H236455   1.645   3.584   6.648  0.2306 -0.5490 -3.6447
 5014TIP3   OH236456   3.522   5.664   2.346 -0.0401  0.3626 -0.1681
 5014TIP3    H136457   3.583   5.724   2.389  0.7013 -0.0863 -0.5747
 5014TIP3    H236458   3.487   5.714   2.272 -1.8453  1.3827  1.3055
 5015TIP3   OH236459   1.771   4.933  17.252 -0.4520  0.0184  0.1724
 5015TIP3    H136460   1.866   4.944  17.246 -0.3956 -0.7254 -0.3315
 5015TIP3    H236461   1.738   4.970  17.170 -0.3958 -1.8713 -0.7477
 5016TIP3   OH236462   3.232   1.019   0.306  0.4123  0.0411 -0.1224
 5016TIP3    H136463   3.280   0.968   0.372 -0.2081 -0.4985 -0.0697
 5016TIP3    H236464   3.156   0.964   0.284 -2.8998  2.7170  3.2078
 5017TIP3   OH236465   6.425   1.492   3.012 -0.1214  0.5070  0.7098
 5017TIP3    H136466   6.469   1.575   3.028  1.9571 -0.2961 -0.4872
 5017TIP3    H236467   6.438   1.475   2.919 -1.6932 -0.5269  0.6359
 5018TIP3   OH236468   3.262   2.287  10.992  0.7605  0.2504  0.5315
 5018TIP3    H136469   3.335   2.262  11.048  1.2048  1.2462  0.4099
 5018TIP3    H236470   3.247   2.379  11.011 -0.0268  0.2309  0.0652
 5019TIP3   OH236471   1.519   1.295   2.378  0.1701 -0.1320  0.5458
 5019TIP3    H136472   1.609   1.327   2.376  0.5184 -1.0937 -0.7756
 5019TIP3    H236473   1.477   1.337   2.302 -0.0782 -0.8250  0.2970
 5020TIP3   OH236474   6.609   0.166  13.015 -0.7794  0.5909 -0.4376
 5020TIP3    H136475   6.704   0.180  13.012 -0.5655 -0.4724  0.4759
 5020TIP3    H236476   6.575   0.214  12.940  0.3504  1.9345 -0.1301
 5021TIP3   OH236477   1.434   1.572   5.866 -0.2971 -0.0827 -0.0668
 5021TIP3    H136478   1.505   1.593   5.805 -0.6620  0.7228 -0.2412
 5021TIP3    H236479   1.383   1.504   5.822  0.6324 -1.0115  0.2731
 5022TIP3   OH236480   1.146   1.208  12.087  0.1189 -0.2790 -0.0818
 5022TIP3    H136481   1.113   1.128  12.128 -0.6022  0.3252  0.5652
 5022TIP3    H236482   1.212   1.241  12.149 -1.6246  1.1268  1.1311
 5023TIP3   OH236483   3.691   5.992  16.200  0.1322  0.4082 -0.0487
 5023TIP3    H136484   3.603   5.974  16.165 -0.2505  0.5317  0.8200
 5023TIP3    H236485   3.727   6.058  16.140  0.0915 -0.4937 -1.0822
 5024TIP3   OH236486   1.713   3.938  15.962  0.1234  0.0348 -0.7287
 5024TIP3    H136487   1.695   4.032  15.963 -1.1412 -0.1676  1.4323
 5024TIP3    H236488   1.626   3.897  15.970  0.7058 -1.3033 -0.9336
 5025TIP3   OH236489   6.038   4.688   1.673 -0.4532  0.0000  0.1322
 5025TIP3    H136490   5.974   4.746   1.713 -0.3810 -0.0407  0.3085
 5025TIP3    H236491   6.105   4.747   1.637  0.2792  0.0068  1.4118
 5026TIP3   OH236492   0.582   1.470  12.379  0.2379  0.5772 -0.0398
 5026TIP3    H136493   0.595   1.419  12.298  0.6294  2.2865 -1.1044
 5026TIP3    H236494   0.515   1.422  12.427 -1.2471  0.3908 -2.1630
 5027TIP3   OH236495   2.503   2.948  12.540 -0.2038  0.1231 -0.6892
 5027TIP3    H136496   2.490   2.873  12.598  0.3107  0.2445 -0.4160
 5027TIP3    H236497   2.572   2.999  12.581 -0.6696  0.8460 -0.7872
 5028TIP3   OH236498   2.747   2.476   4.065 -0.3173 -0.0509 -0.0510
 5028TIP3    H136499   2.824   2.424   4.044  1.9878  2.8698  0.4353
 5028TIP3    H236500   2.782   2.556   4.105 -3.4743  2.2472 -1.3831
 5029TIP3   OH236501   5.982   1.756   0.621 -0.0106  0.1303 -0.6825
 5029TIP3    H136502   6.008   1.666   0.602 -0.9276 -0.0692 -1.0675
 5029TIP3    H236503   6.037   1.782   0.695  1.9400  0.0946 -2.0343
 5030TIP3   OH236504   1.619   4.490   1.166 -0.1919  0.0555 -0.1724
 5030TIP3    H136505   1.607   4.407   1.212 -3.2230  0.4236 -0.1271
 5030TIP3    H236506   1.550   4.546   1.200 -1.1598  1.1058 -3.4840
 5031TIP3   OH236507   0.142   0.139  16.619 -0.0410 -0.2645  0.0886
 5031TIP3    H136508   0.192   0.175  16.546  0.3781  0.2445  0.6143
 5031TIP3    H236509   0.162   0.046  16.618  0.1071 -0.2296 -0.3379
 5032TIP3   OH236510   0.408   3.800  14.747 -0.7096  0.1013 -0.0955
 5032TIP3    H136511   0.500   3.799  14.772 -0.5844  1.9497 -0.2946
 5032TIP3    H236512   0.361   3.771  14.825 -0.1280  2.4904  1.2575
 5033TIP3   OH236513   3.142   6.581  15.488 -0.0291 -0.1724 -0.1534
 5033TIP3    H136514   3.050   6.577  15.461 -0.0269  1.2896 -0.4752
 5033TIP3    H236515   3.162   6.674  15.490  2.0684 -0.4814 -2.2122
 5034TIP3   OH236516   4.597   4.912   6.507  0.1047 -0.5209 -0.0818
 5034TIP3    H136517   4.553   4.982   6.457  3.3977 -0.1948 -2.8775
 5034TIP3    H236518   4.562   4.831   6.471 -0.0952 -0.2939 -0.4026
 5035TIP3   OH236519   1.961   2.673  10.930 -0.2101 -0.0957 -0.0648
 5035TIP3    H136520   2.016   2.737  10.884 -2.1000  0.8578 -1.1383
 5035TIP3    H236521   1.971   2.592  10.880  0.2061  0.0574 -0.2356
 5036TIP3   OH236522   1.223   4.480  15.764  0.6406 -0.1644  0.3852
 5036TIP3    H136523   1.286   4.550  15.746  2.0144 -1.3095  0.5654
 5036TIP3    H236524   1.274   4.412  15.808 -0.4751 -1.6245 -0.4924
 5037TIP3   OH236525   2.139   4.087  12.274  0.2186  0.4895  0.6924
 5037TIP3    H136526   2.188   4.165  12.247  0.3896  0.6538  1.4628
 5037TIP3    H236527   2.171   4.018  12.217  1.7307  0.4690  1.5131
 5038TIP3   OH236528   6.373   6.679  12.254  0.2594 -0.3054 -0.5715
 5038TIP3    H136529   6.322   6.600  12.238 -0.2557 -0.2827  0.7829
 5038TIP3    H236530   6.451   6.648  12.300 -0.7365  0.0802  1.5151
 5039TIP3   OH236531   1.737   6.692  16.839  0.4910  0.3092  0.0609
 5039TIP3    H136532   1.690   6.639  16.903 -0.7519 -0.8067 -1.6828
 5039TIP3    H236533   1.811   6.728  16.888  1.1129 -2.6180  1.5106
 5040TIP3   OH236534   5.554   1.661   0.729  0.3367 -0.0029 -0.3645
 5040TIP3    H136535   5.526   1.729   0.791  2.7841  1.5895 -0.8557
 5040TIP3    H236536   5.633   1.624   0.769 -0.2783 -1.7510 -0.7029
 5041TIP3   OH236537   6.135   5.642  13.469  0.1168 -0.0929  0.0499
 5041TIP3    H136538   6.230   5.633  13.463  0.3028  2.1351 -1.5779
 5041TIP3    H236539   6.101   5.580  13.404  0.5636  0.3049 -0.5725
 5042TIP3   OH236540   5.690   4.859  13.478 -0.4030 -0.0220  0.6163
 5042TIP3    H136541   5.610   4.912  13.483  0.1004  0.7102  1.0775
 5042TIP3    H236542   5.659   4.772  13.453 -1.2041  0.5919 -0.6379
 5043TIP3   OH236543   0.127   2.051   2.836  0.4528  0.6658 -0.3555
 5043TIP3    H136544   0.123   2.128   2.779 -0.5840  0.9864  0.1138
 5043TIP3    H236545   0.035   2.032   2.856  0.7713  0.2521  0.7758
 5044TIP3   OH236546   1.266   6.081  14.450  0.0599 -0.5349  0.4166
 5044TIP3    H136547   1.318   6.001  14.444  0.2555 -0.3821  0.0313
 5044TIP3    H236548   1.225   6.088  14.364 -0.7530 -0.7553  0.7721
 5045TIP3   OH236549   2.516   0.310  11.317 -0.2381 -0.5695 -0.0257
 5045TIP3    H136550   2.564   0.233  11.287 -1.2654 -1.1186 -0.3371
 5045TIP3    H236551   2.569   0.384  11.289  0.2477 -1.1452 -0.6760
 5046TIP3   OH236552   5.097   3.261  17.221 -0.2529 -0.2342 -0.3079
 5046TIP3    H136553   5.133   3.339  17.262  0.7147 -0.2501 -1.0661
 5046TIP3    H236554   5.167   3.196  17.228 -0.1217 -0.2916 -1.7690
 5047TIP3   OH236555   0.991   3.664  12.390  0.1867 -0.2369 -0.1222
 5047TIP3    H136556   1.026   3.642  12.303  1.7559  0.2462  0.3450
 5047TIP3    H236557   1.068   3.695  12.439 -0.2535 -2.3177  2.0622
 5048TIP3   OH236558   2.735   1.280  16.420 -0.4634  0.1332  0.2452
 5048TIP3    H136559   2.803   1.261  16.355 -0.9764 -0.1556 -0.2167
 5048TIP3    H236560   2.777   1.339  16.482  1.1208 -2.1716  1.5438
 5049TIP3   OH236561   5.169   6.134  14.383 -0.0140  0.1245  0.8965
 5049TIP3    H136562   5.117   6.069  14.430 -0.8369 -0.1521 -0.3328
 5049TIP3    H236563   5.154   6.114  14.291 -1.3905  2.8660  0.4160
 5050TIP3   OH236564   0.653   2.440  15.893  0.0552  0.2070 -0.2249
 5050TIP3    H136565   0.743   2.409  15.903 -0.5309 -1.0431  2.0298
 5050TIP3    H236566   0.603   2.361  15.870 -0.8649  0.2048  1.5802
 5051TIP3   OH236567   5.344   3.431   5.787  0.2851  0.2579 -0.2732
 5051TIP3    H136568   5.279   3.362   5.799 -0.6948  1.4294  1.7860
 5051TIP3    H236569   5.299   3.511   5.816  1.7323  1.5823 -1.5285
 5052TIP3   OH236570   0.707   4.748   3.987 -0.1360 -0.1893  0.4774
 5052TIP3    H136571   0.801   4.733   3.975 -0.2960 -1.1762  0.2956
 5052TIP3    H236572   0.696   4.843   3.984  0.7111 -0.1136 -0.6077
 5053TIP3   OH236573   5.301   6.443   6.464  0.0584  0.0149  0.2988
 5053TIP3    H136574   5.215   6.458   6.501  0.1803  0.3409  0.4509
 5053TIP3    H236575   5.359   6.504   6.510  0.3620 -0.1690  0.1685
 5054TIP3   OH236576   4.681   0.906  11.645 -0.3135  0.0740  0.0246
 5054TIP3    H136577   4.627   0.952  11.710  2.3539  2.7322  0.5794
 5054TIP3    H236578   4.745   0.971  11.616  2.4316 -2.7271 -0.7975
 5055TIP3   OH236579   6.666   4.444  12.786  0.0485 -0.2755  0.3805
 5055TIP3    H136580   6.725   4.393  12.730 -0.6417 -1.0023  0.2940
 5055TIP3    H236581   6.717   4.521  12.810  0.3787  0.0643 -1.2525
 5056TIP3   OH236582   2.557   0.098  12.416  0.4792  0.4939 -0.3807
 5056TIP3    H136583   2.617   0.028  12.390  0.4789  0.7090 -0.9984
 5056TIP3    H236584   2.597   0.178  12.381  1.3747  1.0584  1.8177
 5057TIP3   OH236585   4.636   2.067  16.635 -0.2759 -0.1500 -0.1415
 5057TIP3    H136586   4.554   2.020  16.621 -1.4447  2.0799 -1.2586
 5057TIP3    H236587   4.619   2.123  16.711  0.8199 -0.8151  0.6478
 5058TIP3   OH236588   3.700   2.339   3.332  0.0059 -0.2095  0.4228
 5058TIP3    H136589   3.665   2.253   3.313  0.3073 -0.3933  0.6808
 5058TIP3    H236590   3.631   2.383   3.381 -1.3876  0.8067 -2.2675
 5059TIP3   OH236591   0.350   1.017   3.238  0.7665 -0.0294 -0.6749
 5059TIP3    H136592   0.413   1.089   3.235  1.2028 -0.4027 -0.7678
 5059TIP3    H236593   0.293   1.032   3.163  0.9133  0.1711 -0.7477
 5060TIP3   OH236594   2.079   0.078   1.538 -0.4279 -0.1499  0.2075
 5060TIP3    H136595   2.079   0.173   1.548  1.6508 -0.1219  0.4617
 5060TIP3    H236596   2.047   0.045   1.622 -0.7652  0.3156  0.2645
 5061TIP3   OH236597   2.098   4.104  15.169  0.2051  0.3413  0.1702
 5061TIP3    H136598   2.048   4.123  15.249  1.0954  0.1018  0.8066
 5061TIP3    H236599   2.165   4.041  15.198  0.4767  0.1802 -0.7905
 5062TIP3   OH236600   3.096   3.744  10.792  0.0186  0.0469 -0.0473
 5062TIP3    H136601   3.098   3.676  10.725  0.0635  0.7019 -0.7210
 5062TIP3    H236602   3.144   3.818  10.754 -1.8228  1.2325 -0.1979
 5063TIP3   OH236603   6.671   4.830   0.870  0.3578  0.9141  0.2165
 5063TIP3    H136604   6.628   4.911   0.841  0.4905  0.8912 -0.0503
 5063TIP3    H236605   6.624   4.761   0.823  1.9702  1.0139 -1.6691
 5064TIP3   OH236606   5.285   2.195  10.829 -0.1223  0.4034 -0.6402
 5064TIP3    H136607   5.377   2.191  10.803  0.2943  0.1877  0.8011
 5064TIP3    H236608   5.283   2.257  10.901 -0.9269 -0.3706  0.0256
 5065TIP3   OH236609   3.425   0.116   0.686  0.1808 -0.2229 -0.0894
 5065TIP3    H136610   3.381   0.158   0.760 -0.6794 -0.7349 -0.2999
 5065TIP3    H236611   3.493   0.178   0.660 -0.8827  0.9290 -0.2197
 5066TIP3   OH236612   4.069   2.548   6.419 -0.2241  0.1205 -0.6223
 5066TIP3    H136613   3.996   2.597   6.458 -0.2839 -0.2806 -0.2213
 5066TIP3    H236614   4.102   2.493   6.490  1.7127  1.6795 -0.2340
 5067TIP3   OH236615   0.847   2.250   2.618 -0.2371  0.5490 -0.0180
 5067TIP3    H136616   0.917   2.311   2.640 -0.2634  1.3170 -1.8811
 5067TIP3    H236617   0.890   2.182   2.566 -0.7333  0.5897 -0.4845
 5068TIP3   OH236618   5.883   5.662  10.868  0.2167 -0.1720  0.2162
 5068TIP3    H136619   5.799   5.664  10.914 -0.0466 -2.1387 -0.1207
 5068TIP3    H236620   5.928   5.584  10.902  1.5640  0.3738 -0.2294
 5069TIP3   OH236621   2.620   5.346  12.669 -0.3757 -0.1549 -0.1504
 5069TIP3    H136622   2.658   5.323  12.584 -1.1705 -0.6800 -0.3795
 5069TIP3    H236623   2.558   5.275  12.687  2.0796 -1.9162  2.4351
 5070TIP3   OH236624   6.337   6.734  12.767  0.0210  0.2893  0.0417
 5070TIP3    H136625   6.309   6.686  12.689 -1.1194  0.8216  0.0943
 5070TIP3    H236626   6.321   6.674  12.840  2.4575 -0.7632 -0.2171
 5071TIP3   OH236627   6.403   2.237  14.946 -0.9915 -0.3402  0.2482
 5071TIP3    H136628   6.343   2.305  14.978  2.1928  3.1287 -0.4170
 5071TIP3    H236629   6.371   2.217  14.858 -2.5415 -0.5085  0.8036
 5072TIP3   OH236630   5.631   1.994  16.746  0.6058  0.2172  0.1854
 5072TIP3    H136631   5.700   1.928  16.742  0.4344 -0.0456  1.3117
 5072TIP3    H236632   5.550   1.945  16.728  0.5922  0.3256 -0.0543
 5073TIP3   OH236633   0.559   2.300  16.344 -0.1471 -0.0609  0.3054
 5073TIP3    H136634   0.507   2.224  16.318 -2.6907  1.9137 -0.8082
 5073TIP3    H236635   0.531   2.370  16.284  1.7716  1.8894  1.5264
 5074TIP3   OH236636   3.265   0.930   2.905  0.3415 -0.1418 -0.3443
 5074TIP3    H136637   3.332   0.867   2.880  0.8751  0.0643  0.5361
 5074TIP3    H236638   3.306   0.985   2.971 -0.8411 -0.3293  0.5961
 5075TIP3   OH236639   2.341   3.465  10.669 -0.5143  0.0323 -0.2198
 5075TIP3    H136640   2.386   3.494  10.590  1.0580 -0.6485  0.3817
 5075TIP3    H236641   2.249   3.481  10.652 -0.2348 -0.3772 -2.2957
 5076TIP3   OH236642   4.025   5.176   3.956  0.3728  0.0972  0.3214
 5076TIP3    H136643   4.100   5.166   4.015  0.6647 -0.6472 -0.1604
 5076TIP3    H236644   4.005   5.087   3.927 -2.2748 -0.0647  2.3252
 5077TIP3   OH236645   0.307   4.081   3.687 -0.5343  0.1249  0.0909
 5077TIP3    H136646   0.286   4.151   3.625 -0.8059 -1.2475 -1.4311
 5077TIP3    H236647   0.389   4.109   3.729 -1.0234  1.6713  0.0566
 5078TIP3   OH236648   6.746   2.593   1.949  0.1077 -0.4489 -0.1740
 5078TIP3    H136649   6.840   2.610   1.949  0.5378 -2.2395  1.9631
 5078TIP3    H236650   6.735   2.519   2.010 -2.5954 -0.8284 -0.9656
 5079TIP3   OH236651   6.609   3.313  15.153 -0.3855  0.0509  0.7726
 5079TIP3    H136652   6.689   3.327  15.204  0.5362  1.3815 -0.9397
 5079TIP3    H236653   6.538   3.345  15.208  0.4568  0.5117  1.6023
 5080TIP3   OH236654   0.834   2.170  12.785  0.0494 -0.1552  0.0825
 5080TIP3    H136655   0.867   2.172  12.695 -0.0354  0.4759  0.0592
 5080TIP3    H236656   0.739   2.177  12.776  0.1042  0.9860  0.2498
 5081TIP3   OH236657   5.612   5.248  15.479 -0.2540  0.4506  0.0906
 5081TIP3    H136658   5.608   5.331  15.526  0.0217  1.4277 -1.5493
 5081TIP3    H236659   5.549   5.257  15.408 -1.7591 -1.5615  1.0494
 5082TIP3   OH236660   2.151   4.634   6.120 -0.3969  0.3383  0.4020
 5082TIP3    H136661   2.058   4.658   6.127 -0.5072  0.1091 -0.1992
 5082TIP3    H236662   2.188   4.696   6.057 -0.8650 -1.4544 -1.7894
 5083TIP3   OH236663   3.390   6.283   1.109 -0.1568 -0.7577 -0.2589
 5083TIP3    H136664   3.320   6.263   1.171  0.5891  2.4210  1.8869
 5083TIP3    H236665   3.346   6.294   1.025 -1.8580 -1.2434  0.5288
 5084TIP3   OH236666   6.734   3.115  11.830  0.3647 -0.4407 -0.2946
 5084TIP3    H136667   6.781   3.040  11.794 -0.1880 -1.5449  1.2157
 5084TIP3    H236668   6.699   3.160  11.753 -0.5862 -2.5844 -1.2032
 5085TIP3   OH236669   1.777   3.550   2.866  0.1369  0.0032  0.9556
 5085TIP3    H136670   1.705   3.611   2.849  2.2649  1.7292 -3.3515
 5085TIP3    H236671   1.848   3.605   2.898  1.6561 -0.2922 -1.6522
 5086TIP3   OH236672   3.647   6.288  15.582 -0.1411  0.2882 -0.0132
 5086TIP3    H136673   3.710   6.224  15.617  0.2117  1.5309  1.7382
 5086TIP3    H236674   3.661   6.367  15.634 -0.3307  1.9552 -2.3369
 5087TIP3   OH236675   0.586   6.753  14.342  0.1679 -0.2357 -0.9054
 5087TIP3    H136676   0.589   6.681  14.404  0.8835 -0.6528 -1.4187
 5087TIP3    H236677   0.677   6.778  14.329 -0.0890  1.1962 -0.2477
 5088TIP3   OH236678   3.157   3.309  14.257  0.6315  0.1168 -0.4580
 5088TIP3    H136679   3.152   3.398  14.223 -2.7584  0.3836  0.3703
 5088TIP3    H236680   3.121   3.254  14.186  0.3348 -0.2374 -0.0412
 5089TIP3   OH236681   2.550   5.614   3.115  0.4530  0.0204 -0.5682
 5089TIP3    H136682   2.624   5.629   3.056  1.4459 -1.8260  0.1215
 5089TIP3    H236683   2.486   5.680   3.091  1.6084  0.5335 -2.4034
 5090TIP3   OH236684   3.005   5.941   3.209 -0.2207  0.0184 -0.2266
 5090TIP3    H136685   2.910   5.942   3.221 -0.1411 -0.1893  0.4988
 5090TIP3    H236686   3.031   6.032   3.217 -0.3602  0.0743 -0.4158
 5091TIP3   OH236687   4.143   4.796   3.633 -0.0045  0.5272 -0.4814
 5091TIP3    H136688   4.123   4.727   3.569  0.1511 -0.7255  0.7825
 5091TIP3    H236689   4.232   4.823   3.612  0.6420 -1.0136  0.1723
 5092TIP3   OH236690   3.679   2.278  12.367 -0.5721  0.1503 -0.2710
 5092TIP3    H136691   3.602   2.292  12.421 -1.8109 -0.2914 -1.8434
 5092TIP3    H236692   3.683   2.183  12.355 -0.6495  0.2667 -1.3534
 5093TIP3   OH236693   1.662   0.009   5.233  0.2267  0.2006  0.3832
 5093TIP3    H136694   1.745   0.056   5.228  0.3487  0.2645  2.2849
 5093TIP3    H236695   1.625   0.017   5.145  1.5646  1.3997 -0.1136
 5094TIP3   OH236696   0.111   5.690  13.808 -0.1382 -0.2430 -0.0736
 5094TIP3    H136697   0.187   5.721  13.856  0.0155 -0.6397 -0.0567
 5094TIP3    H236698   0.036   5.718  13.861 -0.0025  0.1173 -0.0727
 5095TIP3   OH236699   3.291   3.594  13.251 -0.3611 -0.4857  0.1032
 5095TIP3    H136700   3.280   3.641  13.168  1.6668  0.1292  0.1409
 5095TIP3    H236701   3.302   3.502  13.225  2.5973 -0.0363 -0.5893
 5096TIP3   OH236702   1.487   4.696  16.101 -0.3864  0.0728 -0.0732
 5096TIP3    H136703   1.545   4.680  16.026 -2.2812 -4.7607 -0.9193
 5096TIP3    H236704   1.542   4.681  16.178  0.5913  0.7457 -0.6210
 5097TIP3   OH236705   6.192   2.182   6.207  0.3110 -0.1261 -0.1363
 5097TIP3    H136706   6.250   2.243   6.162  0.6685 -1.2116 -1.1687
 5097TIP3    H236707   6.243   2.101   6.215 -0.3250 -0.4525  0.7973
 5098TIP3   OH236708   3.959   6.718  15.829 -0.0297  0.1018  0.1684
 5098TIP3    H136709   3.871   6.740  15.798  0.0742 -0.7704 -0.8065
 5098TIP3    H236710   4.009   6.702  15.749  0.0328 -3.1278  0.7115
 5099TIP3   OH236711   4.150   2.205  13.197  0.0908  0.3294  0.0078
 5099TIP3    H136712   4.077   2.265  13.185  0.8711  1.2817 -0.0668
 5099TIP3    H236713   4.129   2.130  13.142 -1.3321  0.1180  0.7935
 5100TIP3   OH236714   4.238   2.856  16.895  0.0896 -0.3269  0.6250
 5100TIP3    H136715   4.202   2.772  16.924  2.0541 -1.6864 -0.6238
 5100TIP3    H236716   4.230   2.853  16.799 -2.4430  2.2468  0.5963
 5101TIP3   OH236717   0.550   4.278  11.247 -0.1071 -0.1433 -0.5332
 5101TIP3    H136718   0.537   4.204  11.188 -0.5238 -0.7418  0.2931
 5101TIP3    H236719   0.579   4.239  11.329 -0.5352  0.5890 -0.0202
 5102TIP3   OH236720   1.613   5.451   5.763 -0.4095  0.7463  0.0477
 5102TIP3    H136721   1.551   5.381   5.784 -0.7021  1.4238  1.5760
 5102TIP3    H236722   1.562   5.512   5.710 -0.5751  0.5317 -0.0445
 5103TIP3   OH236723   2.419   3.320   2.456  0.0793  0.7612 -0.2910
 5103TIP3    H136724   2.496   3.350   2.409  0.4105  0.1721 -0.1379
 5103TIP3    H236725   2.434   3.344   2.547  0.5627 -0.2526 -0.0868
 5104TIP3   OH236726   0.029   0.744  13.738  0.2520 -0.0271 -0.6772
 5104TIP3    H136727  -0.046   0.693  13.770  0.1101 -0.1874 -1.2596
 5104TIP3    H236728   0.087   0.680  13.698  0.2490  0.2240 -1.0860
 5105TIP3   OH236729   3.457   1.421   4.880  0.7608  0.0567  0.5359
 5105TIP3    H136730   3.390   1.357   4.857  0.8626 -0.0345  0.4920
 5105TIP3    H236731   3.539   1.371   4.882  0.8825  0.2364  0.2336
 5106TIP3   OH236732   1.670   4.841  15.716 -0.4006 -0.1914 -0.4262
 5106TIP3    H136733   1.712   4.819  15.633 -1.2080  0.9492 -1.1650
 5106TIP3    H236734   1.610   4.913  15.695 -0.2631  0.4718  1.2338
 5107TIP3   OH236735   1.842   4.753   2.525 -0.0640  0.0943 -0.0399
 5107TIP3    H136736   1.890   4.676   2.494  1.8037  0.1570  2.3681
 5107TIP3    H236737   1.773   4.717   2.581  1.6176  0.0866  2.1538
 5108TIP3   OH236738   5.965   4.105  12.406  0.3111 -0.0373 -0.1255
 5108TIP3    H136739   5.925   4.019  12.394  0.6521 -0.3245  0.7051
 5108TIP3    H236740   5.974   4.141  12.318  0.3103 -0.9233 -0.4902
 5109TIP3   OH236741   1.049   1.109   4.996  0.0930  0.3038  0.0119
 5109TIP3    H136742   1.039   1.026   4.948 -1.0550  0.2810  0.2737
 5109TIP3    H236743   1.073   1.082   5.084 -1.5837  0.1622  0.4587
 5110TIP3   OH236744   2.432   1.119  15.902  0.2251 -0.2554 -0.1510
 5110TIP3    H136745   2.346   1.078  15.893 -0.1408  0.4234  0.2401
 5110TIP3    H236746   2.488   1.070  15.841 -0.5062 -0.4994 -0.6386
 5111TIP3   OH236747   4.024   3.016   3.563 -0.6312  0.0895  0.0305
 5111TIP3    H136748   4.044   2.923   3.571 -3.3999 -0.4859  1.3975
 5111TIP3    H236749   3.940   3.018   3.517  0.3268  2.0759 -1.7999
 5112TIP3   OH236750   5.164   5.961  14.630 -0.0207 -0.2948 -0.2444
 5112TIP3    H136751   5.218   5.940  14.554  0.9057 -0.0348  0.3270
 5112TIP3    H236752   5.076   5.933  14.605  0.5953 -1.9495 -0.6998
 5113TIP3   OH236753   4.425   1.525   3.326  0.4052  0.0842 -0.2061
 5113TIP3    H136754   4.404   1.523   3.419  1.9550 -0.4145  0.1496
 5113TIP3    H236755   4.411   1.616   3.300  1.4650  0.5777  0.8850
 5114TIP3   OH236756   5.196   6.712  13.312  0.8413  0.3697 -0.5362
 5114TIP3    H136757   5.213   6.666  13.393 -0.8216  1.7953  0.7093
 5114TIP3    H236758   5.202   6.645  13.244  1.1278 -1.0904  0.8764
 5115TIP3   OH236759   2.024   0.265   2.616  0.2333  0.1551 -0.4714
 5115TIP3    H136760   1.983   0.322   2.552  1.5883 -0.0176 -1.5457
 5115TIP3    H236761   2.086   0.212   2.565  0.4505 -0.8637  0.7929
 5116TIP3   OH236762   5.695   1.992   3.890 -0.3477  0.2043 -0.0060
 5116TIP3    H136763   5.629   1.926   3.913  0.3403 -0.5846 -0.2245
 5116TIP3    H236764   5.762   1.983   3.958 -1.2642  2.2196  1.2425
 5117TIP3   OH236765   4.770   5.654   6.477  0.3645  0.3940 -0.3761
 5117TIP3    H136766   4.787   5.638   6.570 -2.7226  2.2580  0.6655
 5117TIP3    H236767   4.816   5.736   6.459 -1.5413  1.7110  0.4700
 5118TIP3   OH236768   3.455   2.876   0.928 -0.6394  0.2096  0.1752
 5118TIP3    H136769   3.451   2.947   0.864 -0.4519 -1.5373 -1.9047
 5118TIP3    H236770   3.434   2.917   1.012 -2.6733  2.2806 -1.2498
 5119TIP3   OH236771   0.763   4.654  15.620  0.0430  0.2363 -0.2994
 5119TIP3    H136772   0.829   4.678  15.684 -0.2051 -1.2239  0.5524
 5119TIP3    H236773   0.681   4.684  15.657  0.0116  0.3113 -0.4286
 5120TIP3   OH236774   5.631   5.742  10.987 -0.8065 -0.1810  0.1162
 5120TIP3    H136775   5.621   5.836  10.974 -1.9439  0.0944  2.4283
 5120TIP3    H236776   5.571   5.702  10.924  1.5114  0.4397 -2.6644
 5121TIP3   OH236777   1.820   4.533  10.779  0.4065  0.3181 -0.6448
 5121TIP3    H136778   1.729   4.543  10.751  1.3971  0.9990 -4.0982
 5121TIP3    H236779   1.868   4.601  10.732  2.7849 -0.2408  0.7712
 5122TIP3   OH236780   6.459   6.259   4.646  0.6986 -0.1452 -0.6548
 5122TIP3    H136781   6.520   6.233   4.576  2.0464 -0.1889  0.4846
 5122TIP3    H236782   6.485   6.205   4.721  1.3584  2.0474  0.7926
 5123TIP3   OH236783   3.985   5.489   3.431 -0.3581  0.5731 -0.7439
 5123TIP3    H136784   4.007   5.464   3.341  1.0917  0.6737 -0.4306
 5123TIP3    H236785   4.060   5.463   3.483 -2.0337 -1.4961  0.8296
 5124TIP3   OH236786   2.621   1.998   4.832  0.4685  0.7680 -0.3248
 5124TIP3    H136787   2.581   1.912   4.828  1.0019  0.4351  1.0671
 5124TIP3    H236788   2.703   1.988   4.784  0.0883  0.7671 -0.9835
 5125TIP3   OH236789   5.815   6.672   4.737  0.6539  0.1805  0.0435
 5125TIP3    H136790   5.869   6.614   4.791  1.4184  0.2372 -0.6382
 5125TIP3    H236791   5.775   6.732   4.800 -2.3357 -2.6356  1.1451
 5126TIP3   OH236792   2.597   1.353  11.420  0.0199  0.3736  0.4309
 5126TIP3    H136793   2.597   1.321  11.330 -0.7172 -1.2978  0.9897
 5126TIP3    H236794   2.505   1.358  11.444  0.2092  0.7896  1.1094
 5127TIP3   OH236795   3.675   3.106   2.922  0.6077 -0.4840  0.1971
 5127TIP3    H136796   3.644   3.101   2.831 -1.1897 -1.5500  0.8104
 5127TIP3    H236797   3.760   3.063   2.921  0.9707  0.2166 -1.1118
 5128TIP3   OH236798   1.059   6.272   5.931  0.0557 -0.1507 -0.1178
 5128TIP3    H136799   1.034   6.201   5.990 -2.4704  0.7427 -0.0086
 5128TIP3    H236800   1.021   6.247   5.846 -1.7359  1.4403  0.1439
 5129TIP3   OH236801   2.771   2.635   2.648  0.0314 -0.0763  0.2801
 5129TIP3    H136802   2.694   2.687   2.669  1.0769  2.2815 -1.2739
 5129TIP3    H236803   2.739   2.567   2.588 -1.3313 -1.2610  2.2357
 5130TIP3   OH236804   6.644   2.232  12.805 -0.1296 -0.1930  0.5947
 5130TIP3    H136805   6.652   2.323  12.835 -0.5647  0.3209 -0.7698
 5130TIP3    H236806   6.670   2.179  12.881  0.9254  1.0733  1.1523
 5131TIP3   OH236807   5.483   1.155  16.588 -0.5074  0.4685  0.5022
 5131TIP3    H136808   5.544   1.179  16.517 -2.4883  1.1742 -1.0473
 5131TIP3    H236809   5.450   1.239  16.619  0.0043  0.1381  2.0315
 5132TIP3   OH236810   2.392   4.571   5.914  0.0740  0.2324 -0.3352
 5132TIP3    H136811   2.331   4.522   5.859  0.6604  1.1670 -1.8820
 5132TIP3    H236812   2.430   4.505   5.972  0.9019 -1.1965 -2.3970
 5133TIP3   OH236813   5.368   4.190   6.545  0.1495 -0.5700  0.0457
 5133TIP3    H136814   5.411   4.111   6.578  0.2296 -0.2185  0.8207
 5133TIP3    H236815   5.308   4.215   6.616 -2.1402 -1.6265 -1.3909
 5134TIP3   OH236816   1.783   3.808  13.072 -0.5333  0.8429  0.0390
 5134TIP3    H136817   1.691   3.833  13.085 -0.7905 -0.0819  0.0738
 5134TIP3    H236818   1.830   3.854  13.141 -1.0749  0.7653  0.4734
 5135TIP3   OH236819   4.947   5.548   3.550 -0.4940 -0.2449 -0.1452
 5135TIP3    H136820   4.871   5.598   3.582 -1.0751 -1.5021  0.5318
 5135TIP3    H236821   5.011   5.554   3.620  0.0636  0.8317 -0.7252
 5136TIP3   OH236822   5.484   1.661   5.167  0.2992  0.0095  0.0435
 5136TIP3    H136823   5.544   1.600   5.124  0.6944 -1.4226  2.5076
 5136TIP3    H236824   5.515   1.748   5.139  1.7589 -0.7846 -0.9356
 5137TIP3   OH236825   1.152   0.495  16.729 -0.3970  0.2893  0.6162
 5137TIP3    H136826   1.096   0.497  16.652 -2.0990  0.9499  1.8125
 5137TIP3    H236827   1.110   0.555  16.791  1.3331  0.3666  1.7811
 5138TIP3   OH236828   6.333   2.683  14.853 -0.4336  0.2678  0.7560
 5138TIP3    H136829   6.305   2.641  14.934 -0.3450 -0.8957  0.2105
 5138TIP3    H236830   6.365   2.611  14.799  0.9058  1.2015  0.2478
 5139TIP3   OH236831   1.509   2.130  14.579  0.0482 -0.3427  0.2612
 5139TIP3    H136832   1.576   2.126  14.647  0.4119 -0.1556 -0.0818
 5139TIP3    H236833   1.533   2.061  14.517 -0.3787 -0.6273  0.4054
 5140TIP3   OH236834   1.987   3.834   3.831  0.2148  0.0329  0.3724
 5140TIP3    H136835   2.024   3.759   3.878  0.6196 -0.2032 -0.3019
 5140TIP3    H236836   1.956   3.797   3.748  0.2700  0.5833  0.1019
 5141TIP3   OH236837   2.554   1.072   0.919  0.4857 -0.0737 -0.1472
 5141TIP3    H136838   2.517   1.037   1.000  2.2730 -2.0849 -0.1162
 5141TIP3    H236839   2.623   1.132   0.949 -1.2903  2.1584 -0.2299
 5142TIP3   OH236840   4.898   4.840  10.623 -0.4795  0.2213  0.1723
 5142TIP3    H136841   4.876   4.830  10.716 -1.3746  1.4232  0.1105
 5142TIP3    H236842   4.979   4.890  10.623 -0.2920 -0.0790  0.3081
 5143TIP3   OH236843   5.714   3.839  12.158  0.1934  0.4522  0.7362
 5143TIP3    H136844   5.656   3.897  12.109  0.9723 -0.0132 -0.8388
 5143TIP3    H236845   5.656   3.784  12.210 -0.6086  1.8081  1.3056
 5144TIP3   OH236846   6.456   6.430  14.060 -0.2200 -0.0240  0.2331
 5144TIP3    H136847   6.535   6.479  14.037 -1.6787  2.0650 -0.5846
 5144TIP3    H236848   6.461   6.350  14.006  1.4564 -0.1158  0.4559
 5145TIP3   OH236849   6.723   6.731  16.062  0.4927  0.2541  0.3240
 5145TIP3    H136850   6.746   6.693  16.146 -0.3503  0.9976  0.9065
 5145TIP3    H236851   6.632   6.705  16.048  0.8590 -0.5294 -0.7425
 5146TIP3   OH236852   4.852   2.027  13.943  0.4815 -0.2312  0.3500
 5146TIP3    H136853   4.812   2.098  13.892 -0.9789 -2.6050 -2.1237
 5146TIP3    H236854   4.945   2.030  13.919  0.5655  1.1902  0.7762
 5147TIP3   OH236855   3.975   4.792  15.204  0.7184  0.1836 -0.0553
 5147TIP3    H136856   4.017   4.864  15.156  1.2440  0.2470  0.4935
 5147TIP3    H236857   3.882   4.802  15.185  1.0517 -1.0874 -2.8610
 5148TIP3   OH236858   0.105   2.844   5.560 -0.3737  0.8249  0.8270
 5148TIP3    H136859   0.042   2.779   5.529 -0.4591  0.4067  1.8443
 5148TIP3    H236860   0.119   2.902   5.484 -1.0172  0.1877  0.2060
 5149TIP3   OH236861   6.525   4.865  10.907  0.2935 -0.0386 -0.3580
 5149TIP3    H136862   6.439   4.893  10.878  0.6623  0.1927 -1.2553
 5149TIP3    H236863   6.516   4.771  10.923 -0.5565  0.2713  1.2189
 5150TIP3   OH236864   2.572   2.741   2.799 -0.1365  0.0461 -0.1840
 5150TIP3    H136865   2.477   2.739   2.802 -0.1324 -2.8406  0.3768
 5150TIP3    H236866   2.597   2.800   2.870 -1.4835 -0.2137  0.5302
 5151TIP3   OH236867   1.724   3.415  12.962  0.2401  0.3806  0.1719
 5151TIP3    H136868   1.762   3.442  12.879  0.1339  1.7390  0.5417
 5151TIP3    H236869   1.788   3.440  13.028  0.2429 -0.5148  0.5345
 5152TIP3   OH236870   2.152   4.865   3.352  0.2884  0.0502  0.5444
 5152TIP3    H136871   2.218   4.917   3.398  1.8849 -2.2233  0.9635
 5152TIP3    H236872   2.202   4.797   3.307 -1.5831 -0.2429 -1.2452
 5153TIP3   OH236873   1.690   6.421   6.176  0.3383  0.0528  0.0814
 5153TIP3    H136874   1.662   6.513   6.183 -0.9417 -0.2222 -1.0480
 5153TIP3    H236875   1.669   6.383   6.262  0.4103  0.6876  0.3892
 5154TIP3   OH236876   2.307   3.704   5.367  0.7193  0.6180  0.1976
 5154TIP3    H136877   2.302   3.717   5.272 -1.0693 -1.6722 -0.1176
 5154TIP3    H236878   2.288   3.790   5.404  0.4589  1.3431 -1.5114
 5155TIP3   OH236879   1.325   4.028  12.953 -0.8526  0.0776 -0.3312
 5155TIP3    H136880   1.249   4.079  12.983 -2.5684 -1.8850 -1.1184
 5155TIP3    H236881   1.386   4.031  13.026 -2.0126  1.0865  0.6421
 5156TIP3   OH236882   2.809   6.602  14.156  0.1220  0.3760 -0.7890
 5156TIP3    H136883   2.875   6.669  14.141  0.7656 -0.1444 -0.3596
 5156TIP3    H236884   2.828   6.533  14.092 -1.0645  0.9508 -1.8132
 5157TIP3   OH236885   3.516   4.192  15.585  0.0458 -0.3748  0.0249
 5157TIP3    H136886   3.572   4.179  15.662  0.1909  0.7894  0.1374
 5157TIP3    H236887   3.427   4.180  15.619  0.1822 -2.2938 -0.1693
 5158TIP3   OH236888   6.111   0.179  11.214  0.1977 -0.4133  0.0479
 5158TIP3    H136889   6.140   0.177  11.305 -1.4071 -0.7109  0.5727
 5158TIP3    H236890   6.069   0.264  11.204 -3.5271 -1.9846  0.9072
 5159TIP3   OH236891   1.142   5.062   1.952 -0.2867  0.3866 -0.0707
 5159TIP3    H136892   1.189   5.143   1.974 -0.5171  0.6810 -0.6422
 5159TIP3    H236893   1.078   5.051   2.023 -0.0562  0.5479  0.1611
 5160TIP3   OH236894   4.364   0.985  13.261 -0.1692 -0.2110 -0.3620
 5160TIP3    H136895   4.374   0.907  13.316 -0.5106 -1.2387 -1.7147
 5160TIP3    H236896   4.272   0.984  13.236  0.1375 -0.1583 -1.5265
 5161TIP3   OH236897   5.961   6.806  10.872 -0.3314  0.0968  0.0460
 5161TIP3    H136898   5.924   6.718  10.860  0.4461 -0.0806 -1.2854
 5161TIP3    H236899   5.973   6.814  10.966 -0.2221 -1.3213  0.1765
 5162TIP3   OH236900   6.666   2.648  16.786 -0.2115 -0.0661 -0.3447
 5162TIP3    H136901   6.692   2.679  16.699  2.3550  0.6018  0.5725
 5162TIP3    H236902   6.637   2.728  16.831  0.8308  0.0374  0.1683
 5163TIP3   OH236903   4.617   2.135  11.512  0.0568  0.0472 -0.1408
 5163TIP3    H136904   4.661   2.066  11.462 -0.7804 -0.3800 -0.3261
 5163TIP3    H236905   4.680   2.162  11.578  0.3753 -0.9569 -0.0201
 5164TIP3   OH236906   3.938   0.410   0.447 -0.5393 -0.1440  0.2816
 5164TIP3    H136907   3.987   0.371   0.520 -0.9055  0.3382  0.7910
 5164TIP3    H236908   3.873   0.466   0.489 -1.6813 -0.9319 -0.3766
 5165TIP3   OH236909   5.633   1.168  11.230  0.0700  0.6881 -0.1609
 5165TIP3    H136910   5.618   1.207  11.316 -0.0004 -0.7639  0.5140
 5165TIP3    H236911   5.583   1.087  11.232  1.2094 -0.0583 -1.0493
 5166TIP3   OH236912   1.107   6.493  16.741  0.1237  0.0420 -0.5305
 5166TIP3    H136913   1.043   6.564  16.740 -0.3752 -0.4068 -0.5687
 5166TIP3    H236914   1.074   6.429  16.678  0.6654 -0.1456 -0.6337
 5167TIP3   OH236915   5.595   0.081   5.786  0.6286  0.4198  0.5093
 5167TIP3    H136916   5.627   0.040   5.705  2.2486 -0.1082  1.3741
 5167TIP3    H236917   5.652   0.046   5.855  0.4343  2.2239  1.6510
 5168TIP3   OH236918   6.496   5.814  16.660 -0.6062 -0.5045 -0.4782
 5168TIP3    H136919   6.523   5.733  16.617  0.3074  0.9381 -2.8052
 5168TIP3    H236920   6.518   5.801  16.752 -1.0065 -3.0686 -0.6710
 5169TIP3   OH236921   4.916   4.609   0.473  0.0818  0.0368 -0.1558
 5169TIP3    H136922   4.848   4.677   0.472  0.0593  0.0159 -0.0848
 5169TIP3    H236923   4.946   4.604   0.383 -0.3473 -0.2937 -0.2834
 5170TIP3   OH236924   6.360   1.813  10.311 -0.4421  0.6206 -0.5845
 5170TIP3    H136925   6.433   1.853  10.358 -0.4707  2.1559 -1.7625
 5170TIP3    H236926   6.282   1.845  10.356 -0.4814 -1.8999  1.3786
 5171TIP3   OH236927   0.287   2.756   0.050  0.1211  0.6823 -0.0411
 5171TIP3    H136928   0.248   2.733  -0.035  1.7501  0.0379 -0.6551
 5171TIP3    H236929   0.378   2.776   0.030  0.3633  1.2388  1.4736
 5172TIP3   OH236930   3.696   4.623   4.295  0.1530 -0.0653 -0.6316
 5172TIP3    H136931   3.766   4.680   4.261 -0.9702  0.3572 -2.3535
 5172TIP3    H236932   3.621   4.682   4.306 -0.4519 -0.8501 -0.5213
 5173TIP3   OH236933   5.966   1.560   2.697  0.3117 -0.3321  0.1181
 5173TIP3    H136934   5.903   1.559   2.769 -0.1281  0.3308 -0.2440
 5173TIP3    H236935   6.040   1.507   2.728 -0.1156 -0.5220  0.8254
 5174TIP3   OH236936   2.265   0.161   5.989 -0.0741  0.5024 -0.6232
 5174TIP3    H136937   2.346   0.153   5.939  0.6876  0.7059  0.5412
 5174TIP3    H236938   2.274   0.242   6.038 -0.6184  0.1222  0.1452
 5175TIP3   OH236939   5.753   3.965   0.503  0.6518 -0.2307 -0.3596
 5175TIP3    H136940   5.830   3.992   0.453  1.1564 -0.0547  0.4952
 5175TIP3    H236941   5.682   4.020   0.470  0.8503 -0.5060 -1.2626
 5176TIP3   OH236942   1.639   0.867   0.959 -0.5749  0.0327 -0.2338
 5176TIP3    H136943   1.706   0.858   0.891  0.7566  0.1306  1.0286
 5176TIP3    H236944   1.567   0.912   0.915  0.4650  0.5802 -1.4496
 5177TIP3   OH236945   0.137   4.791   5.016  0.1552 -0.4672  0.2738
 5177TIP3    H136946   0.168   4.762   4.930  1.2824 -1.2650  0.9211
 5177TIP3    H236947   0.085   4.718   5.048  1.7151 -1.2199  1.2490
 5178TIP3   OH236948   6.223   0.248  13.876 -0.7602 -0.1492  0.3415
 5178TIP3    H136949   6.240   0.157  13.900 -3.3738 -0.5727  0.8375
 5178TIP3    H236950   6.254   0.299  13.951  0.2988 -0.6394  0.2518
 5179TIP3   OH236951   5.308   6.278  13.065 -0.7104  0.2863  0.0249
 5179TIP3    H136952   5.386   6.253  13.016 -1.7383 -0.5491 -1.2616
 5179TIP3    H236953   5.278   6.196  13.106  0.1818  0.9742  2.2144
 5180TIP3   OH236954   3.913   6.517   1.474  0.2169  0.5509  0.1425
 5180TIP3    H136955   3.993   6.566   1.454  0.2855  0.7430  0.8562
 5180TIP3    H236956   3.941   6.448   1.534 -0.4026  1.7184  1.8821
 5181TIP3   OH236957   2.386   2.189  14.942 -0.1644 -0.3959  0.0782
 5181TIP3    H136958   2.388   2.281  14.914  1.0067 -0.2249  0.6709
 5181TIP3    H236959   2.430   2.189  15.027  1.0545 -1.7069 -0.5209
 5182TIP3   OH236960   6.133   4.901  16.410  0.2383  0.0569 -0.4012
 5182TIP3    H136961   6.210   4.957  16.398  0.4313 -0.2337 -0.5323
 5182TIP3    H236962   6.087   4.939  16.485  0.5301  0.2096 -0.2983
 5183TIP3   OH236963   3.368   5.292   3.920  0.0487  0.0417  0.0401
 5183TIP3    H136964   3.403   5.361   3.976 -0.3700  0.0264  0.3255
 5183TIP3    H236965   3.385   5.211   3.968 -1.4868  0.1269  0.7894
 5184TIP3   OH236966   2.683   1.041  12.131 -0.0298  0.5324 -0.4291
 5184TIP3    H136967   2.638   1.058  12.048 -2.0870  0.4223  0.6017
 5184TIP3    H236968   2.613   1.020  12.192  1.6085 -1.5119  0.8553
 5185TIP3   OH236969   5.993   4.017   2.651 -0.1309  0.3980 -0.2921
 5185TIP3    H136970   5.957   4.093   2.605 -0.0116  0.4533 -0.2949
 5185TIP3    H236971   6.056   3.979   2.589  1.6973  1.7669  0.6471
 5186TIP3   OH236972   1.563   1.340   0.560 -0.3334 -0.3670  0.3294
 5186TIP3    H136973   1.535   1.427   0.590 -0.8156  0.2285 -1.6870
 5186TIP3    H236974   1.658   1.340   0.573 -0.0596  1.2052 -1.2754
 5187TIP3   OH236975   2.743   4.849   2.420 -0.0095 -0.8171  0.6147
 5187TIP3    H136976   2.650   4.834   2.400 -0.4676  1.3903  0.8572
 5187TIP3    H236977   2.780   4.885   2.340  0.4887 -1.0418  0.7361
 5188TIP3   OH236978   3.738   5.362  13.604 -0.1699  0.1504  0.3010
 5188TIP3    H136979   3.660   5.306  13.602 -1.0291  1.2633  1.1416
 5188TIP3    H236980   3.737   5.402  13.691  0.9750  0.6872  0.0868
 5189TIP3   OH236981   5.918   2.947   3.999  0.4560  0.0150 -0.3029
 5189TIP3    H136982   5.842   2.975   3.947  0.1247  1.3988  0.8422
 5189TIP3    H236983   5.893   2.861   4.033  0.1123 -0.2924 -1.2816
 5190TIP3   OH236984   1.996   5.196   3.462 -0.9893  0.6777  0.0288
 5190TIP3    H136985   2.073   5.194   3.404 -0.4342 -0.7791  0.7565
 5190TIP3    H236986   2.031   5.214   3.549 -1.7253  2.0061  0.0786
 5191TIP3   OH236987   4.307   4.750  13.835  0.5994  0.5634 -0.0922
 5191TIP3    H136988   4.291   4.792  13.919 -1.6570 -0.6491  0.1665
 5191TIP3    H236989   4.364   4.811  13.788  0.2201  2.2541  1.5237
 5192TIP3   OH236990   6.250   2.440  15.330 -0.3744  0.0552 -0.5550
 5192TIP3    H136991   6.199   2.392  15.395 -0.5704  0.0138 -0.7404
 5192TIP3    H236992   6.334   2.394  15.327 -1.8026 -2.7412 -3.5263
 5193TIP3   OH236993   1.708   5.710  16.993 -0.1534 -0.2731  0.2410
 5193TIP3    H136994   1.734   5.619  17.004  1.6109  0.4431  2.9905
 5193TIP3    H236995   1.620   5.715  17.030  1.0168 -0.3322  3.3254
 5194TIP3   OH236996   4.093   6.317   5.004  0.8015  0.5131  0.3825
 5194TIP3    H136997   4.160   6.385   5.001  1.3938 -0.0318 -3.0722
 5194TIP3    H236998   4.013   6.360   4.973  0.0668  0.5502  2.1657
 5195TIP3   OH236999   2.472   0.137  16.426 -0.3343 -0.3407 -0.5231
 5195TIP3    H137000   2.414   0.065  16.402  0.9517 -1.4732 -0.3323
 5195TIP3    H237001   2.496   0.120  16.517 -0.6472  0.7863 -0.2122
 5196TIP3   OH237002   2.611   1.884  16.973 -0.1843 -0.1013  0.3922
 5196TIP3    H137003   2.670   1.956  16.952 -0.9313  0.4380  0.0719
 5196TIP3    H237004   2.597   1.891  17.068  1.2969 -1.0596  0.7081
 5197TIP3   OH237005   1.320   3.199  16.015  0.5532  0.1468  0.2977
 5197TIP3    H137006   1.249   3.140  15.992 -0.1687  0.9809  0.3190
 5197TIP3    H237007   1.398   3.144  16.015 -0.0391 -0.7183 -0.0466
 5198TIP3   OH237008   5.843   0.685   1.472 -0.1423  0.2313  0.2401
 5198TIP3    H137009   5.852   0.767   1.521 -0.2149 -0.2015  0.9795
 5198TIP3    H237010   5.793   0.627   1.529 -0.4819 -0.1898 -0.4602
 5199TIP3   OH237011   5.089   0.515  14.978 -0.4449  0.4863  0.3241
 5199TIP3    H137012   5.071   0.502  14.885 -1.6851  1.0477  0.4620
 5199TIP3    H237013   5.102   0.426  15.012 -0.1837  0.2636 -0.3325
 5200TIP3   OH237014   0.237   4.223  14.307 -0.0467  0.2866  1.1333
 5200TIP3    H137015   0.174   4.281  14.265 -0.2998  0.4654  1.7546
 5200TIP3    H237016   0.310   4.217  14.244 -1.1294 -0.7734 -0.0867
 5201TIP3   OH237017   2.896   1.354  15.151 -0.2118 -0.2449 -0.5589
 5201TIP3    H137018   2.822   1.368  15.092  0.6739 -0.1634 -1.6765
 5201TIP3    H237019   2.911   1.260  15.148 -0.8765 -0.3974  0.4419
 5202TIP3   OH237020   1.987   6.560   2.940  0.1272  0.3476  0.6347
 5202TIP3    H137021   1.905   6.539   2.897  0.5546  1.7163 -1.0028
 5202TIP3    H237022   1.998   6.494   3.007 -1.6819 -0.6020  0.0407
 5203TIP3   OH237023   6.356   0.912   5.871  0.6451  0.2552 -0.0749
 5203TIP3    H137024   6.378   0.830   5.827 -0.4223  1.0912 -2.3331
 5203TIP3    H237025   6.260   0.912   5.875  0.6543  1.0784  0.5202
 5204TIP3   OH237026   3.985   5.833   6.026 -0.6419 -0.4464  0.3513
 5204TIP3    H137027   3.897   5.868   6.038 -1.1151 -0.6746 -1.9301
 5204TIP3    H237028   3.974   5.763   5.961  0.9352 -1.9112  1.5789
 5205TIP3   OH237029   5.282   5.360  13.018 -0.0187 -0.3683 -0.2258
 5205TIP3    H137030   5.318   5.312  12.944  1.7000  0.3568  0.1094
 5205TIP3    H237031   5.248   5.441  12.980  0.2133 -0.3104 -0.3048
 5206TIP3   OH237032   1.892   2.380   0.546  0.0914 -0.0644 -0.3824
 5206TIP3    H137033   1.907   2.293   0.585  1.0948  0.3343  0.1549
 5206TIP3    H237034   1.846   2.429   0.615 -0.2350 -0.0788 -0.5867
 5207TIP3   OH237035   2.977   5.555   1.532 -0.2189  0.2003 -0.2698
 5207TIP3    H137036   2.912   5.498   1.574 -0.4853  0.3461 -0.4802
 5207TIP3    H237037   2.943   5.643   1.546 -0.2714  0.2526 -0.7307
 5208TIP3   OH237038   0.198   0.129   2.539 -0.0064 -0.1339 -0.2744
 5208TIP3    H137039   0.243   0.049   2.510 -0.3008 -0.3518 -0.1320
 5208TIP3    H237040   0.161   0.166   2.459  0.9147  0.3607 -0.4889
 5209TIP3   OH237041   3.408   1.377   3.577  0.0587 -0.6930  0.1776
 5209TIP3    H137042   3.372   1.400   3.491 -0.6706  1.0402  0.9004
 5209TIP3    H237043   3.486   1.431   3.585 -1.1252  0.9158  1.4946
 5210TIP3   OH237044   5.321   5.224   5.303  0.0498  0.4357  0.0283
 5210TIP3    H137045   5.335   5.160   5.372 -1.0177 -0.0822 -0.2174
 5210TIP3    H237046   5.352   5.181   5.223  3.2257  1.7858  0.4081
 5211TIP3   OH237047   1.154   3.477  16.507  0.2212  0.4282  0.1651
 5211TIP3    H137048   1.234   3.448  16.464 -0.1662 -1.6665  0.7233
 5211TIP3    H237049   1.184   3.524  16.585  0.9288 -0.5924  0.5286
 5212TIP3   OH237050   6.193   0.256   0.790 -0.5856  0.4549  0.6796
 5212TIP3    H137051   6.107   0.255   0.747 -0.0976 -0.6737 -0.3648
 5212TIP3    H237052   6.203   0.167   0.824 -0.0053  0.7016  1.1656
 5213TIP3   OH237053   6.312   3.737   4.599 -0.1070 -0.0090  0.0125
 5213TIP3    H137054   6.331   3.643   4.595  0.5299 -0.0908  2.7289
 5213TIP3    H237055   6.333   3.769   4.512 -0.7208 -2.4290 -1.1332
 5214TIP3   OH237056   3.280   2.670   0.835  0.1559  0.2724 -0.6072
 5214TIP3    H137057   3.359   2.724   0.844  0.3617 -0.2364  1.1172
 5214TIP3    H237058   3.212   2.720   0.881 -0.2795  0.2331 -1.2066
 5215TIP3   OH237059   5.348   2.666  10.545  0.0476 -0.3810  0.5522
 5215TIP3    H137060   5.329   2.725  10.472 -0.1960 -0.9536  0.1445
 5215TIP3    H237061   5.325   2.716  10.623 -0.6842 -0.1282  0.1801
 5216TIP3   OH237062   5.681   4.817   1.133 -0.1764 -0.1128 -0.2062
 5216TIP3    H137063   5.771   4.846   1.120 -0.1684 -0.4077 -0.8475
 5216TIP3    H237064   5.665   4.754   1.063 -0.3867 -1.2478  0.8386
 5217TIP3   OH237065   0.404   4.616  10.954 -0.5614 -0.4160 -0.2057
 5217TIP3    H137066   0.346   4.645  10.883 -0.1319  2.3911  0.4607
 5217TIP3    H237067   0.492   4.615  10.914 -0.5063 -0.2932 -0.0873
 5218TIP3   OH237068   5.928   6.145   2.164  0.2333 -0.3676  0.4473
 5218TIP3    H137069   5.849   6.107   2.203  1.0981 -0.2322  2.4448
 5218TIP3    H237070   5.993   6.076   2.170  0.5596 -0.1266 -0.2350
 5219TIP3   OH237071   6.276   1.036  11.701  0.1776 -0.4599 -0.5472
 5219TIP3    H137072   6.238   1.085  11.774  2.6665 -1.7030  1.8054
 5219TIP3    H237073   6.205   0.982  11.669 -1.2007  0.6536  0.4752
 5220TIP3   OH237074   2.693   1.242   1.099  0.2869  0.5652 -0.5806
 5220TIP3    H137075   2.706   1.253   1.193 -2.4382 -1.4299  0.1936
 5220TIP3    H237076   2.776   1.267   1.060  2.4549 -0.9973  2.5685
 5221TIP3   OH237077   5.708   6.716   5.979  0.0352 -0.3729 -0.4480
 5221TIP3    H137078   5.663   6.700   6.062 -0.7896  2.5629 -0.2107
 5221TIP3    H237079   5.797   6.741   6.004 -0.0241 -0.1292 -0.4751
 5222TIP3   OH237080   2.179   4.781   0.306  0.8086  0.3224 -0.4475
 5222TIP3    H137081   2.112   4.714   0.287  0.2915  0.9107 -0.7341
 5222TIP3    H237082   2.244   4.769   0.236  2.7034 -2.3607  1.5828
 5223TIP3   OH237083   5.315   6.704   4.410 -0.0139  0.3548  0.5614
 5223TIP3    H137084   5.365   6.786   4.410  0.9941 -0.2468  0.6323
 5223TIP3    H237085   5.265   6.707   4.328 -1.6080  1.9746  1.5233
 5224TIP3   OH237086   2.511   2.192  12.736  0.0523  0.2339 -0.1519
 5224TIP3    H137087   2.481   2.195  12.827  0.5677 -0.9101  0.0643
 5224TIP3    H237088   2.491   2.279  12.702 -1.3843  0.2542  0.6575
 5225TIP3   OH237089   6.129   3.763   0.492  0.9461 -0.3891 -0.2977
 5225TIP3    H137090   6.058   3.721   0.540  1.4256 -1.4870 -0.5161
 5225TIP3    H237091   6.208   3.740   0.541  1.7776 -3.6066 -2.7932
 5226TIP3   OH237092   2.174   3.852  15.480  0.2167 -0.9469 -0.1266
 5226TIP3    H137093   2.217   3.874  15.397  0.0817 -1.2915 -0.2867
 5226TIP3    H237094   2.182   3.932  15.532  0.5183 -0.8080 -0.3805
 5227TIP3   OH237095   3.231   2.331  15.287 -0.2166  0.0680 -0.3215
 5227TIP3    H137096   3.208   2.283  15.367 -1.2242 -0.6327 -1.0082
 5227TIP3    H237097   3.147   2.350  15.245  0.2887  0.5461 -1.1442
 5228TIP3   OH237098   2.012   6.755  12.707  0.2412  0.1417 -0.0995
 5228TIP3    H137099   2.064   6.833  12.690 -1.7339  1.3320 -0.9550
 5228TIP3    H237100   1.967   6.773  12.789 -1.5132  0.6825 -1.1288
 5229TIP3   OH237101   5.612   1.922   5.132 -0.2156 -0.3200  0.1835
 5229TIP3    H137102   5.543   1.936   5.066 -0.1396 -2.5113 -0.4244
 5229TIP3    H237103   5.692   1.908   5.080 -0.0005 -1.2918  0.7616
 5230TIP3   OH237104   0.736   6.205  17.068  0.5166 -0.0473 -0.2679
 5230TIP3    H137105   0.714   6.199  16.976  0.8210 -3.1857 -0.2315
 5230TIP3    H237106   0.793   6.130  17.085  1.2835  0.9631  2.2874
 5231TIP3   OH237107   3.781   0.850  14.964 -0.3988  0.0101 -0.1904
 5231TIP3    H137108   3.822   0.937  14.956  0.9323 -0.6451 -0.7497
 5231TIP3    H237109   3.813   0.817  15.048 -1.8800  0.5200  0.6173
 5232TIP3   OH237110   6.666   5.029   1.911  0.1459  0.1659  0.0951
 5232TIP3    H137111   6.694   5.018   1.820 -1.6507 -2.9099 -0.2547
 5232TIP3    H237112   6.742   5.002   1.963 -0.1786 -2.7152 -0.7096
 5233TIP3   OH237113   5.179   6.504   2.538 -0.1432 -0.1294 -0.6541
 5233TIP3    H137114   5.172   6.492   2.443 -0.1261  1.6080 -0.9184
 5233TIP3    H237115   5.150   6.594   2.553  0.1430 -0.2680  0.9626
 5234TIP3   OH237116   0.113   1.319  17.109  0.3037  0.2533  0.5467
 5234TIP3    H137117   0.084   1.395  17.161 -2.1631 -0.9135  1.0431
 5234TIP3    H237118   0.174   1.273  17.167  1.8946  1.8284  0.2136
 5235TIP3   OH237119   0.272   5.491   5.097  0.1109  0.1892 -0.0619
 5235TIP3    H137120   0.275   5.577   5.139 -0.2885 -0.2002  0.7876
 5235TIP3    H237121   0.241   5.509   5.008 -1.1010  0.8033  0.4663
 5236TIP3   OH237122   1.927   6.603   3.481 -0.3227 -0.3027 -0.2067
 5236TIP3    H137123   1.896   6.691   3.460 -0.7529 -0.3178  0.3311
 5236TIP3    H237124   1.965   6.611   3.569 -1.4511 -0.8893  0.3586
 5237TIP3   OH237125   3.320   5.986   5.679  0.1229  0.2115 -0.0050
 5237TIP3    H137126   3.409   6.019   5.686  0.8260 -1.6697  0.4966
 5237TIP3    H237127   3.330   5.899   5.641 -1.4749 -0.1614  0.3723
 5238TIP3   OH237128   4.350   6.735  13.844 -0.7536 -0.1419 -0.3096
 5238TIP3    H137129   4.376   6.827  13.831  0.6430 -0.5132 -0.2437
 5238TIP3    H237130   4.359   6.721  13.938  1.7763 -1.1045 -0.6323
 5239TIP3   OH237131   5.267   3.419  16.923 -0.0076  0.1019 -0.2269
 5239TIP3    H137132   5.332   3.449  16.859 -1.7204  0.2631 -1.9800
 5239TIP3    H237133   5.209   3.361  16.873 -2.2879  1.3972  0.7757
 5240TIP3   OH237134   5.293   3.554   2.772 -0.5024 -0.3107  0.5616
 5240TIP3    H137135   5.383   3.563   2.741 -0.5506  0.3763  0.6064
 5240TIP3    H237136   5.239   3.558   2.693 -0.4736 -1.2467  0.4800
 5241TIP3   OH237137   2.154   1.201  10.936 -0.0771  0.1748 -0.4465
 5241TIP3    H137138   2.178   1.173  10.848  1.0394  0.1258 -0.1303
 5241TIP3    H237139   2.058   1.198  10.937 -0.0736 -0.3552 -1.4794
 5242TIP3   OH237140   0.466   5.740  13.336  0.2023 -0.3519  0.2362
 5242TIP3    H137141   0.440   5.702  13.252  0.7315 -0.7027  0.2292
 5242TIP3    H237142   0.559   5.760  13.326  0.0994  0.2840  0.4892
 5243TIP3   OH237143   1.036   4.857   6.062  0.3411  0.3194  0.1329
 5243TIP3    H137144   0.972   4.898   6.121 -1.2483 -0.9584 -0.6060
 5243TIP3    H237145   1.077   4.930   6.016 -2.5320  1.2149 -1.2870
 5244TIP3   OH237146   2.203   4.569  16.710  0.6172 -0.2081  0.6625
 5244TIP3    H137147   2.270   4.616  16.760  0.5682 -1.3742  1.8759
 5244TIP3    H237148   2.152   4.638  16.668  2.4200  0.7075 -0.0983
 5245TIP3   OH237149   6.709   1.491   5.988 -0.4573 -0.3346 -0.6722
 5245TIP3    H137150   6.777   1.429   6.016  0.1462  0.4485 -0.3443
 5245TIP3    H237151   6.752   1.577   5.994 -2.0276  0.3923  1.3443
 5246TIP3   OH237152   5.118   4.720   1.880  0.1943 -0.3412 -0.3691
 5246TIP3    H137153   5.162   4.654   1.934 -1.0878 -1.1478 -0.2849
 5246TIP3    H237154   5.051   4.756   1.937  1.0696  1.2987 -0.3113
 5247TIP3   OH237155   1.890   4.447   3.075  0.3735  0.2580 -0.0295
 5247TIP3    H137156   1.814   4.389   3.073  0.3300  0.3260 -1.0758
 5247TIP3    H237157   1.943   4.416   3.148  0.3510 -1.0911 -0.5608
 5248TIP3   OH237158   4.993   2.831   3.123 -0.2931 -0.2230 -0.5636
 5248TIP3    H137159   5.083   2.800   3.111 -0.0460  1.1448 -2.9555
 5248TIP3    H237160   4.939   2.768   3.076 -0.3868 -0.1204 -0.5956
 5249TIP3   OH237161   1.070   5.474  11.598  0.1447 -0.2485 -0.5264
 5249TIP3    H137162   1.148   5.429  11.632  1.3290  0.8420 -1.6992
 5249TIP3    H237163   1.044   5.421  11.523  0.6881  0.2358 -1.0586
 5250TIP3   OH237164   4.275   5.003   4.629 -0.5906  0.4972  0.2701
 5250TIP3    H137165   4.358   5.050   4.617  0.8989 -1.8064  0.8547
 5250TIP3    H237166   4.255   5.013   4.722 -0.5586  0.4464  0.2828
 5251TIP3   OH237167   0.175   3.871   3.554 -0.3168  0.3917  0.1272
 5251TIP3    H137168   0.185   3.939   3.621 -1.1120 -0.8019  1.5031
 5251TIP3    H237169   0.262   3.865   3.513  0.0563  1.4502  0.7302
 5252TIP3   OH237170   4.351   6.126  10.926  0.0433 -0.5264 -0.5372
 5252TIP3    H137171   4.314   6.205  10.886  2.9350  1.7728  0.8790
 5252TIP3    H237172   4.291   6.105  10.997  0.3941  2.0878  0.6890
 5253TIP3   OH237173   5.045   4.557  17.181 -0.0066  0.2615 -0.2695
 5253TIP3    H137174   4.973   4.505  17.144  0.4329 -0.0481 -0.6971
 5253TIP3    H237175   5.051   4.528  17.272 -0.5000  0.3789 -0.1935
 5254TIP3   OH237176   0.218   0.801  16.045  0.9586 -0.4283 -0.2942
 5254TIP3    H137177   0.275   0.867  16.004  0.9794 -2.1188 -3.3083
 5254TIP3    H237178   0.130   0.825  16.017  0.4438  0.4784  1.9030
 5255TIP3   OH237179   2.703   6.363   5.633 -0.1053  0.5660  0.2245
 5255TIP3    H137180   2.798   6.372   5.647 -0.2467  1.2537  0.7972
 5255TIP3    H237181   2.688   6.269   5.633  0.2538  0.4538  2.4670
 5256TIP3   OH237182   0.467   5.420  10.699  0.0360  0.0264  0.1764
 5256TIP3    H137183   0.530   5.412  10.627 -1.2258  1.1135 -1.1069
 5256TIP3    H237184   0.391   5.369  10.669 -1.1503  1.8636 -0.0623
 5257TIP3   OH237185   2.384   5.492   0.125  0.2472  0.8211 -0.0937
 5257TIP3    H137186   2.343   5.561   0.176  0.4311  0.9883 -0.1734
 5257TIP3    H237187   2.326   5.416   0.136 -0.0229  1.0245 -0.1187
 5258TIP3   OH237188   0.189   0.822  16.346 -0.4039  0.5974 -0.1242
 5258TIP3    H137189   0.220   0.812  16.256  0.5002  0.2683  0.2086
 5258TIP3    H237190   0.255   0.778  16.399 -1.1028  0.4884  0.6783
 5259TIP3   OH237191   4.006   5.798   0.927  0.3342  0.4601 -0.6859
 5259TIP3    H137192   4.010   5.883   0.971 -0.6906  0.2125 -0.0814
 5259TIP3    H237193   4.098   5.772   0.917  0.6863 -0.2081  2.8338
 5260TIP3   OH237194   1.433   4.842   4.172  0.2013 -0.0196 -0.2792
 5260TIP3    H137195   1.477   4.778   4.116 -1.4265 -0.9981 -0.5182
 5260TIP3    H237196   1.470   4.826   4.259  0.6908 -0.4658 -0.5640
 5261TIP3   OH237197   2.551   0.180   5.982  0.5566  0.3665 -0.2776
 5261TIP3    H137198   2.570   0.113   6.048  0.7714 -1.0518 -1.7013
 5261TIP3    H237199   2.561   0.263   6.028  0.8020 -0.5629  1.4317
 5262TIP3   OH237200   2.177   6.176  16.910  0.4659 -0.4970 -0.5819
 5262TIP3    H137201   2.182   6.158  17.003 -1.8347  1.3059 -0.0326
 5262TIP3    H237202   2.132   6.100  16.873  0.5441 -0.7915 -0.0761
 5263TIP3   OH237203   1.850   2.278  16.367  0.3343  0.0821 -0.1726
 5263TIP3    H137204   1.787   2.344  16.396 -1.4953 -1.2365 -0.9926
 5263TIP3    H237205   1.904   2.261  16.444 -2.2137 -0.8717  1.5205
 5264TIP3   OH237206   0.154   2.341   3.116  0.0705  0.1819  0.0439
 5264TIP3    H137207   0.112   2.374   3.036 -0.1724 -0.9434 -0.3216
 5264TIP3    H237208   0.244   2.371   3.110 -0.1508  0.7962 -0.2519
 5265TIP3   OH237209   2.985   2.046  15.413  0.3205 -0.8495  0.4954
 5265TIP3    H137210   2.956   1.961  15.445 -0.3107 -0.8240  0.0094
 5265TIP3    H237211   3.054   2.026  15.350  1.0082 -0.9357  1.2576
 5266TIP3   OH237212   0.475   4.071   5.744  0.0455 -0.3501 -0.3690
 5266TIP3    H137213   0.552   4.083   5.689  0.8649 -1.1475  0.5508
 5266TIP3    H237214   0.466   4.154   5.790  0.5800 -0.3622 -0.2302
 5267TIP3   OH237215   6.122   4.870   3.253  0.0666  0.1222 -0.6715
 5267TIP3    H137216   6.204   4.838   3.217  0.9095 -0.7004  1.7741
 5267TIP3    H237217   6.107   4.817   3.331 -2.1435  1.1000 -0.3361
 5268TIP3   OH237218   2.550   3.770  13.726  0.1216  0.0160 -0.4313
 5268TIP3    H137219   2.567   3.821  13.805 -1.7966 -0.7257  0.5203
 5268TIP3    H237220   2.610   3.695  13.732 -0.1851 -0.1670  0.4719
 5269TIP3   OH237221   4.380   4.054  10.921 -0.6431 -0.4085  0.1614
 5269TIP3    H137222   4.391   4.129  10.864 -0.7967 -0.7244 -0.2877
 5269TIP3    H237223   4.285   4.041  10.926 -0.5663 -1.7232 -1.2914
 5270TIP3   OH237224   5.317   2.167  16.466  0.3661 -0.0807  0.1595
 5270TIP3    H137225   5.393   2.170  16.523  0.2642  1.0930  0.2596
 5270TIP3    H237226   5.248   2.129  16.520  0.5780 -0.0861  0.4296
 5271TIP3   OH237227   1.503   1.613   0.671 -0.3890  0.0966  0.2324
 5271TIP3    H137228   1.582   1.655   0.705  0.7581 -1.3927 -0.4539
 5271TIP3    H237229   1.452   1.589   0.749  0.6412 -0.3929  0.7714
 5272TIP3   OH237230   2.547   6.468   0.378  0.0685 -0.1672 -0.0165
 5272TIP3    H137231   2.583   6.453   0.291  0.0702  0.0573 -0.0555
 5272TIP3    H237232   2.607   6.423   0.437 -1.1639 -2.3181 -0.2818
 5273TIP3   OH237233   3.707   3.254   0.565 -0.2838 -0.7957 -0.0704
 5273TIP3    H137234   3.614   3.274   0.576 -0.3507 -1.3745  0.4826
 5273TIP3    H237235   3.749   3.339   0.554 -0.8916 -0.5376 -0.4334
 5274TIP3   OH237236   0.985   3.589   3.553  0.1236 -0.1978 -0.2915
 5274TIP3    H137237   0.971   3.627   3.466 -0.5797 -1.3738 -0.7250
 5274TIP3    H237238   1.043   3.514   3.537  2.9588  1.6175  0.7897
 5275TIP3   OH237239   3.122   4.284   1.967  0.6302  0.2090 -0.3398
 5275TIP3    H137240   3.029   4.281   1.945  0.3661 -0.0042  0.7418
 5275TIP3    H237241   3.166   4.304   1.884 -0.2881 -0.7693 -1.0853
 5276TIP3   OH237242   0.382   2.134   2.924 -0.0629  0.4184 -0.0384
 5276TIP3    H137243   0.323   2.198   2.963 -1.0026  0.4392 -1.3981
 5276TIP3    H237244   0.323   2.072   2.880  0.8939 -0.3095 -0.3297
 5277TIP3   OH237245   6.042   0.545  12.454 -0.1760  0.1710 -0.0789
 5277TIP3    H137246   6.081   0.554  12.542 -0.3665  1.2355 -0.0926
 5277TIP3    H237247   6.014   0.633  12.431  0.0467 -0.0589 -1.3043
 5278TIP3   OH237248   2.490   2.450   4.965 -0.0306  0.1594  0.2625
 5278TIP3    H137249   2.501   2.384   5.033  2.3601  0.6369  0.4093
 5278TIP3    H237250   2.575   2.455   4.922 -0.6304  1.9842 -0.8140
 5279TIP3   OH237251   2.836   6.689  13.029  0.5323 -0.2715  0.5048
 5279TIP3    H137252   2.759   6.696  13.084  0.9499  0.5690  1.0074
 5279TIP3    H237253   2.879   6.775  13.036  1.2355 -0.5516 -0.1665
 5280TIP3   OH237254   6.737   3.656   0.323 -0.1159  0.8801  0.2649
 5280TIP3    H137255   6.655   3.657   0.275  0.0294  0.4029 -0.0071
 5280TIP3    H237256   6.713   3.629   0.412 -0.4343  2.1496  0.5708
 5281TIP3   OH237257   4.486   2.251  12.602  0.3325  0.2138  0.0234
 5281TIP3    H137258   4.527   2.295  12.528  0.2899 -0.7155 -0.5651
 5281TIP3    H237259   4.559   2.228  12.659  0.4144  0.4899  0.0317
 5282TIP3   OH237260   5.626   6.365   5.260 -0.0639 -0.0470  0.2615
 5282TIP3    H137261   5.685   6.297   5.227  0.2759 -0.7792  2.2335
 5282TIP3    H237262   5.539   6.330   5.244  0.1046 -0.7249  0.7579
 5283TIP3   OH237263   4.814   1.878  17.194  0.3654 -0.2635 -0.1698
 5283TIP3    H137264   4.876   1.916  17.131  0.4085 -0.5947 -0.3303
 5283TIP3    H237265   4.845   1.907  17.279 -1.1760  2.3750 -0.4209
 5284TIP3   OH237266   5.404   0.422  12.997 -0.1395 -0.0067  0.0688
 5284TIP3    H137267   5.443   0.430  12.910  0.7948  0.1061  0.4833
 5284TIP3    H237268   5.405   0.328  13.016  0.6803  0.0541  0.3924
 5285TIP3   OH237269   1.269   6.699   4.670  0.6803  0.5298 -0.3376
 5285TIP3    H137270   1.245   6.775   4.723  1.0420  0.3553  0.0866
 5285TIP3    H237271   1.328   6.733   4.603  1.9816  0.4251  0.6979
 5286TIP3   OH237272   4.985   5.645  14.621  0.0740 -0.3832  0.1526
 5286TIP3    H137273   4.909   5.618  14.571 -0.0235 -2.2204  1.2017
 5286TIP3    H237274   4.958   5.726  14.664 -0.3186  0.4572 -1.5600
 5287TIP3   OH237275   0.683   5.511   3.958 -0.2321 -0.3075 -0.0728
 5287TIP3    H137276   0.686   5.569   3.882  0.3706 -1.4499 -0.9380
 5287TIP3    H237277   0.774   5.505   3.988 -0.3883 -0.2823  0.4244
 5288TIP3   OH237278   6.148   1.640   3.319 -0.0967 -0.4138  0.1479
 5288TIP3    H137279   6.120   1.726   3.349 -0.5847 -0.7498  0.6686
 5288TIP3    H237280   6.226   1.620   3.371  0.8787  0.3165 -0.9720
 5289TIP3   OH237281   2.872   0.094  11.515  0.1118  0.4623 -0.0566
 5289TIP3    H137282   2.850   0.088  11.422 -1.7240 -0.0389  0.3822
 5289TIP3    H237283   2.948   0.152  11.517  0.0118  0.7206 -1.8461
 5290TIP3   OH237284   4.610   6.261  15.470 -0.2870  0.2399  0.0472
 5290TIP3    H137285   4.632   6.311  15.391 -0.1173  0.0523 -0.0239
 5290TIP3    H237286   4.531   6.213  15.447 -1.4026  1.7155  0.6344
 5291TIP3   OH237287   6.450   2.412   5.441  0.1181 -0.6143 -0.8035
 5291TIP3    H137288   6.442   2.355   5.518  0.6705  0.0428 -0.2419
 5291TIP3    H237289   6.433   2.354   5.367 -2.8463 -0.7765 -0.1045
 5292TIP3   OH237290   6.239   1.673   1.180 -0.1659  0.7716 -0.5657
 5292TIP3    H137291   6.242   1.759   1.138  0.9154 -0.0643 -2.3173
 5292TIP3    H237292   6.294   1.617   1.124 -0.3683 -0.9196  0.8480
 5293TIP3   OH237293   1.135   1.928  11.823 -0.4618 -0.0996  0.2843
 5293TIP3    H137294   1.152   2.021  11.809 -3.5427  0.5502  0.1046
 5293TIP3    H237295   1.159   1.887  11.740  0.7893  0.5151  0.3155
 5294TIP3   OH237296   4.895   6.425   3.479 -0.5640 -0.1905 -0.1996
 5294TIP3    H137297   4.943   6.493   3.432  0.8879 -1.9387 -1.3976
 5294TIP3    H237298   4.805   6.434   3.448 -0.2905  0.8003 -0.7784
 5295TIP3   OH237299   0.695   4.653  15.297  0.2660 -0.6180 -0.3701
 5295TIP3    H137300   0.744   4.635  15.217  1.1155 -0.9824  0.2202
 5295TIP3    H237301   0.752   4.710  15.348 -0.0731 -0.7649  0.1778
 5296TIP3   OH237302   1.086   4.215   2.757 -0.2654 -0.0864  0.2218
 5296TIP3    H137303   1.176   4.208   2.789  0.2909  2.4314 -0.5903
 5296TIP3    H237304   1.038   4.258   2.828 -0.0077  1.5917 -0.5617
 5297TIP3   OH237305   0.858   1.635   1.452  0.2805  0.0825 -0.2731
 5297TIP3    H137306   0.888   1.640   1.361  1.2883 -1.2659 -0.0542
 5297TIP3    H237307   0.862   1.541   1.473  1.6477  0.5059  1.6353
 5298TIP3   OH237308   3.696   2.132  17.121 -0.0287  0.1183  0.4743
 5298TIP3    H137309   3.715   2.046  17.159  0.7884  0.1886  0.2412
 5298TIP3    H237310   3.662   2.111  17.033  3.0976  0.0570 -0.8507
 5299TIP3   OH237311   1.090   4.864   4.271  0.0471  0.3249  0.7507
 5299TIP3    H137312   1.148   4.789   4.285  1.1525  0.9634 -0.2466
 5299TIP3    H237313   1.143   4.927   4.222 -0.5377  2.1535  2.3353
 5300TIP3   OH237314   5.978   3.480   2.882  0.2425 -0.0165 -0.2107
 5300TIP3    H137315   5.914   3.484   2.953  1.0164  0.3356  0.4783
 5300TIP3    H237316   5.957   3.556   2.826 -2.0368 -1.7204 -1.8596
 5301TIP3   OH237317   5.572   4.012  16.262  0.1524 -0.2017 -0.2780
 5301TIP3    H137318   5.596   4.075  16.195  2.9338 -0.3821  0.4584
 5301TIP3    H237319   5.561   3.929  16.215  0.3969  0.0132 -0.7107
 5302TIP3   OH237320   5.962   2.943   3.654  0.1470 -0.2443  0.0778
 5302TIP3    H137321   5.911   3.024   3.647 -0.8383 -0.8676 -0.0912
 5302TIP3    H237322   6.051   2.969   3.627 -0.4911  0.4523 -1.4989
 5303TIP3   OH237323   6.320   2.453  14.696  0.2769  0.0895 -0.4070
 5303TIP3    H137324   6.366   2.453  14.612  0.1068 -0.4124 -0.5014
 5303TIP3    H237325   6.235   2.494  14.677  0.5320  0.6768 -0.3105
 5304TIP3   OH237326   2.305   4.273  11.221 -0.0481 -0.8299 -0.1556
 5304TIP3    H137327   2.296   4.360  11.260 -1.3046 -2.0024  2.4236
 5304TIP3    H237328   2.263   4.280  11.136 -2.0372  0.6045  0.8682
 5305TIP3   OH237329   6.733   0.625   3.469  0.8932 -0.0117 -0.0133
 5305TIP3    H137330   6.784   0.585   3.399  1.6122 -0.4060  0.7140
 5305TIP3    H237331   6.686   0.697   3.427  0.4361 -0.9288 -1.1197
 5306TIP3   OH237332   3.228   6.179   4.653 -0.5148 -0.0498 -0.0514
 5306TIP3    H137333   3.243   6.203   4.561 -1.7893 -0.0802 -0.2823
 5306TIP3    H237334   3.184   6.255   4.690  0.8648  0.3703  0.8268
 5307TIP3   OH237335   3.118   5.408   1.966 -0.6188 -0.5983 -0.2594
 5307TIP3    H137336   3.143   5.418   2.058 -2.4862  1.4312  0.1017
 5307TIP3    H237337   3.030   5.369   1.970 -1.3686  0.9149 -1.0608
 5308TIP3   OH237338   5.057   0.784  14.907  0.1967 -0.3577  0.6791
 5308TIP3    H137339   5.067   0.693  14.933  1.9260 -0.3584  0.1585
 5308TIP3    H237340   4.977   0.786  14.856  0.9898 -1.9601 -0.7333
 5309TIP3   OH237341   5.304   0.766   5.709 -0.2827 -0.1221  0.1725
 5309TIP3    H137342   5.362   0.813   5.649  0.6139 -1.3686  0.0108
 5309TIP3    H237343   5.325   0.673   5.694 -0.0039 -0.4776  2.4144
 5310TIP3   OH237344   1.524   6.639  15.451  0.1028  0.0796 -0.1594
 5310TIP3    H137345   1.498   6.731  15.459  1.0801  0.6574 -2.6944
 5310TIP3    H237346   1.501   6.616  15.361 -0.5188 -2.3423  0.5402
 5311TIP3   OH237347   5.789   0.662  12.768 -0.2543  0.3697  0.1269
 5311TIP3    H137348   5.764   0.754  12.755  1.1896  0.5848 -1.4540
 5311TIP3    H237349   5.883   0.660  12.752 -0.1063 -1.2582  0.9851
 5312TIP3   OH237350   5.947   0.113  13.868  0.1295  0.4555  0.0176
 5312TIP3    H137351   5.965   0.190  13.922  0.4701  0.0197  0.5321
 5312TIP3    H237352   5.898   0.055  13.926  0.3519  0.0572 -0.1939
 5313TIP3   OH237353   4.223   4.351  15.945 -0.0572 -0.0269  0.1073
 5313TIP3    H137354   4.204   4.282  15.881  2.7698 -0.0082 -0.8898
 5313TIP3    H237355   4.159   4.420  15.926 -0.2606 -0.6604 -1.7123
 5314TIP3   OH237356   4.719   4.895   6.849 -0.0178  0.5882  0.1434
 5314TIP3    H137357   4.708   4.954   6.923  0.5676  1.4139 -0.4040
 5314TIP3    H237358   4.814   4.889   6.837  0.1162 -2.4950  1.7559
 5315TIP3   OH237359   5.352   5.095   2.117  0.0440 -0.0324  0.4307
 5315TIP3    H137360   5.382   5.141   2.038 -1.2482 -0.7112 -0.4823
 5315TIP3    H237361   5.283   5.150   2.153  0.0564 -0.1325  0.6103
 5316TIP3   OH237362   3.551   4.301   5.295 -0.0876 -0.0622  0.0787
 5316TIP3    H137363   3.586   4.214   5.277 -0.4119 -0.7103  2.2262
 5316TIP3    H237364   3.627   4.351   5.326  0.0144  0.3074 -0.7453
 5317TIP3   OH237365   5.627   1.552  16.991  0.0513 -0.3660  0.5238
 5317TIP3    H137366   5.657   1.532  16.902 -0.9249 -0.2391  0.1552
 5317TIP3    H237367   5.707   1.570  17.039  0.4976  1.7981 -0.8840
 5318TIP3   OH237368   6.515   5.478   1.294  0.1548 -0.1694  0.1894
 5318TIP3    H137369   6.540   5.424   1.220 -3.1326  0.9688 -1.9960
 5318TIP3    H237370   6.443   5.430   1.336 -0.5214  0.9206  0.3144
 5319TIP3   OH237371   0.539   1.396  15.580 -0.6289  0.2593  0.4038
 5319TIP3    H137372   0.587   1.356  15.508  0.1580  0.2627  0.9115
 5319TIP3    H237373   0.460   1.343  15.588 -0.5763  0.0742 -0.2600
 5320TIP3   OH237374   5.769   5.408   0.173  0.5734 -0.0066  0.7380
 5320TIP3    H137375   5.863   5.389   0.176  0.5270 -0.4343 -0.0707
 5320TIP3    H237376   5.728   5.334   0.215  0.5448 -0.3871  0.0590
 5321TIP3   OH237377   3.976   1.602   3.328 -0.5065 -0.0628  0.3992
 5321TIP3    H137378   4.015   1.565   3.407 -1.1197 -3.2287 -0.6189
 5321TIP3    H237379   4.031   1.571   3.256 -0.6925  1.6766 -0.5665
 5322TIP3   OH237380   1.222   0.445   0.068 -0.3900  0.4443  0.4665
 5322TIP3    H137381   1.255   0.530   0.037  0.6707  0.2035  0.8757
 5322TIP3    H237382   1.169   0.412  -0.004  1.4315  0.2171 -0.8432
 5323TIP3   OH237383   2.679   1.271  10.659 -0.1788 -0.1903  0.0221
 5323TIP3    H137384   2.687   1.246  10.751  0.4355 -1.5202 -0.3756
 5323TIP3    H237385   2.658   1.190  10.614 -0.2197  0.4060 -1.0575
 5324TIP3   OH237386   0.487   4.599  16.111  0.1161  0.0903  0.3335
 5324TIP3    H137387   0.574   4.624  16.080  0.6022 -1.4906  0.3396
 5324TIP3    H237388   0.438   4.681  16.115  1.7964  1.0874  0.9574
 5325TIP3   OH237389   0.703   3.407  15.750  0.5404 -0.2152  0.7860
 5325TIP3    H137390   0.717   3.448  15.665  3.4854 -0.8200  0.8496
 5325TIP3    H237391   0.669   3.320  15.730 -0.3953  0.2403  0.3530
 5326TIP3   OH237392   1.074   1.562   2.431  0.7247  0.3935 -0.0884
 5326TIP3    H137393   1.050   1.654   2.426  0.0711  0.4239  2.2750
 5326TIP3    H237394   0.991   1.515   2.424  0.8294  0.0958  0.5942
 5327TIP3   OH237395   0.607   1.158  15.995 -0.3972 -0.0892 -0.2738
 5327TIP3    H137396   0.654   1.091  15.945 -0.3061  1.1338 -1.9350
 5327TIP3    H237397   0.652   1.240  15.972 -1.7678  0.7894  0.0759
 5328TIP3   OH237398   3.598   3.094   2.670  0.1021  0.5570  0.1674
 5328TIP3    H137399   3.595   3.013   2.619  1.3797  0.0806  0.7988
 5328TIP3    H237400   3.667   3.146   2.629 -1.0959  1.6123 -0.5923
 5329TIP3   OH237401   5.483   2.420   1.175 -0.1308  0.4497 -0.1180
 5329TIP3    H137402   5.479   2.472   1.255 -0.6206  0.9423 -0.4542
 5329TIP3    H237403   5.506   2.332   1.205 -0.3010  0.6284  0.5617
 5330TIP3   OH237404   4.289   3.511   0.891 -0.0252 -0.6319  0.3947
 5330TIP3    H137405   4.296   3.416   0.899 -0.5219 -0.5541  2.5625
 5330TIP3    H237406   4.267   3.540   0.980 -2.6443  1.2644 -0.7543
 5331TIP3   OH237407   5.804   1.300  15.706 -0.0882 -0.3563  0.7303
 5331TIP3    H137408   5.873   1.333  15.649 -0.3224 -0.4698  0.3766
 5331TIP3    H237409   5.749   1.247  15.648 -0.0849 -0.8275  1.1487
 5332TIP3   OH237410   3.697   2.356  15.327  0.1441  0.0949  0.1517
 5332TIP3    H137411   3.737   2.314  15.251 -2.1145 -1.4142 -0.3246
 5332TIP3    H237412   3.744   2.438  15.337  0.8069  0.1745 -2.6544
 5333TIP3   OH237413   2.350   5.991   2.832 -0.3507  0.0633  0.2096
 5333TIP3    H137414   2.277   5.936   2.803 -0.9078  0.1357  1.4067
 5333TIP3    H237415   2.403   6.004   2.754  0.6142 -3.3628  0.1341
 5334TIP3   OH237416   4.671   5.108  12.363  0.4267 -0.2531  0.3471
 5334TIP3    H137417   4.733   5.180  12.357 -0.7392  0.6974 -0.8234
 5334TIP3    H237418   4.692   5.051  12.289  0.9205 -0.7994  0.8900
 5335TIP3   OH237419   2.403   6.641  13.367 -0.5368 -0.0846  0.6542
 5335TIP3    H137420   2.340   6.685  13.424 -2.5766 -1.6898 -0.1928
 5335TIP3    H237421   2.423   6.559  13.412 -0.6654 -0.4929 -0.0083
 5336TIP3   OH237422   1.701   2.536   5.982 -0.6180 -0.1255 -0.1024
 5336TIP3    H137423   1.617   2.574   6.011  0.1261  0.5145  1.3386
 5336TIP3    H237424   1.764   2.608   5.992  0.1809 -0.7146 -0.8042
 5337TIP3   OH237425   2.109   2.613  12.197  0.2157 -0.0128 -0.9605
 5337TIP3    H137426   2.121   2.518  12.206 -0.7556 -0.0574  0.1325
 5337TIP3    H237427   2.021   2.623  12.159  0.6175  0.4393 -1.7908
 5338TIP3   OH237428   4.044   5.490  13.403 -0.4522  0.4842 -0.0725
 5338TIP3    H137429   4.088   5.520  13.324  2.1918  0.9378  1.4473
 5338TIP3    H237430   4.027   5.397  13.388  0.6874  0.3863 -0.9124
 5339TIP3   OH237431   3.019   2.991  11.690  0.0363  0.3017  0.0558
 5339TIP3    H137432   3.061   2.917  11.647 -0.5724  0.5881 -1.0694
 5339TIP3    H237433   2.952   2.951  11.746 -0.7337  0.0231 -1.0502
 5340TIP3   OH237434   5.287   6.017   5.540  0.3300 -0.7395  0.2677
 5340TIP3    H137435   5.378   6.023   5.513  0.3513 -0.3469  0.4204
 5340TIP3    H237436   5.244   6.091   5.498  0.1944 -0.6050  0.6369
 5341TIP3   OH237437   2.309   0.553  15.162 -0.2014 -0.1147  0.3609
 5341TIP3    H137438   2.262   0.518  15.087 -1.3461 -0.1818  1.0757
 5341TIP3    H237439   2.351   0.477  15.202  0.1705 -0.1235 -0.0443
 5342TIP3   OH237440   4.456   0.940  11.326  0.0774  0.1336  0.4900
 5342TIP3    H137441   4.470   0.857  11.281 -2.3226  0.1760 -0.4616
 5342TIP3    H237442   4.411   0.917  11.407  0.6682  0.4192  0.9109
 5343TIP3   OH237443   0.499   0.025   1.630  0.3797  0.0709 -0.2428
 5343TIP3    H137444   0.538   0.108   1.655  0.7579 -0.2008  0.0847
 5343TIP3    H237445   0.441   0.002   1.702  0.7331 -0.2351 -0.0453
 5344TIP3   OH237446   3.713   1.697   0.532 -0.4271  0.0771 -0.1995
 5344TIP3    H137447   3.678   1.770   0.582 -0.2755  0.4513 -0.6306
 5344TIP3    H237448   3.658   1.622   0.557 -1.7241  0.6986 -1.0350
 5345TIP3   OH237449   0.650   3.844   1.964  0.4004 -0.4536  0.3152
 5345TIP3    H137450   0.604   3.765   1.994  0.6075 -1.0950 -0.9941
 5345TIP3    H237451   0.589   3.915   1.984  0.5093 -0.8212  2.1840
 5346TIP3   OH237452   6.004   4.726   2.965  0.0358 -0.2919  0.2816
 5346TIP3    H137453   5.939   4.747   3.032 -0.0071 -0.3850  0.2695
 5346TIP3    H237454   6.056   4.656   3.004  1.4759  1.1974  1.1423
 5347TIP3   OH237455   1.105   2.671  11.548  0.5312  0.1488  0.4522
 5347TIP3    H137456   1.088   2.577  11.543  2.9181 -0.4175  1.3775
 5347TIP3    H237457   1.019   2.711  11.560 -0.7906 -1.6929 -2.0564
 5348TIP3   OH237458   1.521   6.113   2.035 -0.1335  0.2882 -0.0329
 5348TIP3    H137459   1.437   6.086   1.999 -0.4339  0.0927  0.7728
 5348TIP3    H237460   1.498   6.167   2.111  0.4547 -0.3552  0.6244
 5349TIP3   OH237461   0.614   1.127   5.600  0.0334  0.0328  0.0437
 5349TIP3    H137462   0.631   1.084   5.516 -0.9956 -1.3915  0.5233
 5349TIP3    H237463   0.689   1.101   5.655 -0.0097 -0.2181 -0.0124
 5350TIP3   OH237464   5.642   0.813  11.043 -0.2895 -0.6406 -0.1488
 5350TIP3    H137465   5.623   0.893  10.995 -0.1915 -1.2363 -1.2106
 5350TIP3    H237466   5.713   0.771  10.994 -0.0810 -1.1891  0.6022
 5351TIP3   OH237467   4.732   2.877  10.861 -0.5970  0.0298 -0.5141
 5351TIP3    H137468   4.690   2.873  10.775  0.6664  0.0789 -1.1422
 5351TIP3    H237469   4.677   2.938  10.911 -0.6175  1.0214 -1.6958
 5352TIP3   OH237470   1.554   3.633  16.593 -0.1634 -0.2196 -0.5127
 5352TIP3    H137471   1.574   3.707  16.536 -0.1903  0.4173  0.2814
 5352TIP3    H237472   1.610   3.563  16.561 -1.3345 -0.3971 -2.3386
 5353TIP3   OH237473   1.523   1.823  14.955 -0.1243 -0.1248 -0.1058
 5353TIP3    H137474   1.490   1.783  14.875  0.4085 -0.3942 -0.1912
 5353TIP3    H237475   1.446   1.827  15.013 -0.2273 -1.1121 -0.1571
 5354TIP3   OH237476   0.227   6.204   0.148  0.8400  0.0849 -0.2562
 5354TIP3    H137477   0.268   6.285   0.117  1.6160 -0.4090 -0.5522
 5354TIP3    H237478   0.142   6.232   0.182  1.6994  1.2415  1.0165
 5355TIP3   OH237479   0.828   0.309  15.607 -0.5096 -0.0444  0.1739
 5355TIP3    H137480   0.755   0.263  15.649 -1.2181  2.0345  1.3516
 5355TIP3    H237481   0.877   0.348  15.679  0.4503  0.4903 -0.7464
 5356TIP3   OH237482   5.859   2.845   1.091  0.0336 -0.2285  0.2776
 5356TIP3    H137483   5.954   2.837   1.098  0.0333 -0.9581 -0.3585
 5356TIP3    H237484   5.837   2.798   1.011 -0.5079  2.8908 -1.5716
 5357TIP3   OH237485   5.154   5.866  11.306 -0.4714  0.3597 -0.8153
 5357TIP3    H137486   5.176   5.958  11.292 -0.4142  0.2799 -1.2603
 5357TIP3    H237487   5.076   5.869  11.362 -1.5828  0.7243 -2.3276
 5358TIP3   OH237488   2.299   6.618  13.067  0.2837  0.5527  0.6392
 5358TIP3    H137489   2.286   6.693  13.009  2.3879  1.1614  0.8479
 5358TIP3    H237490   2.312   6.657  13.154  0.5067 -0.0956  0.9043
 5359TIP3   OH237491   2.654   5.025   4.505  0.2690 -0.1606 -0.0158
 5359TIP3    H137492   2.665   4.983   4.419  1.1588 -0.0793  0.0475
 5359TIP3    H237493   2.662   5.119   4.486  3.7658 -0.2345  0.5560
 5360TIP3   OH237494   0.994   2.175   5.876 -0.2069  0.0307  0.0324
 5360TIP3    H137495   0.906   2.210   5.882  0.2346  1.3013 -0.4519
 5360TIP3    H237496   1.038   2.232   5.813  0.9790 -0.5326  0.3144
 5361TIP3   OH237497   1.073   2.834   4.088 -0.3966 -0.2203 -0.0080
 5361TIP3    H137498   1.073   2.911   4.144  0.7002 -0.0370 -0.2341
 5361TIP3    H237499   1.081   2.760   4.148  1.5334  0.0113  0.0808
 5362TIP3   OH237500   0.584   4.379  12.278 -0.3891 -0.0541  0.4276
 5362TIP3    H137501   0.640   4.349  12.350 -0.4463 -2.4281 -0.4365
 5362TIP3    H237502   0.524   4.441  12.319  1.4068  0.8430  1.8233
 5363TIP3   OH237503   0.165   1.329  12.705 -0.4091 -0.2483 -0.1380
 5363TIP3    H137504   0.156   1.424  12.705  1.7637  0.0049  0.7099
 5363TIP3    H237505   0.165   1.304  12.797  1.0189 -0.8260 -0.2797
 5364TIP3   OH237506   0.508   2.882   2.886 -0.0539  0.0689 -0.1306
 5364TIP3    H137507   0.500   2.893   2.792 -2.2714  1.0142  0.1184
 5364TIP3    H237508   0.585   2.935   2.910 -0.9602  1.9168 -1.0957
 5365TIP3   OH237509   4.551   2.588  15.479 -0.1108 -0.4819  0.0353
 5365TIP3    H137510   4.536   2.682  15.476  0.4389 -0.4044 -0.3825
 5365TIP3    H237511   4.540   2.565  15.572  0.3448  0.0928  0.2347
 5366TIP3   OH237512   0.910   5.843  15.615 -0.5521 -0.2195 -0.1997
 5366TIP3    H137513   0.884   5.835  15.706 -2.6106 -0.3492 -0.7412
 5366TIP3    H237514   0.938   5.934  15.606 -0.2128 -0.2389  0.5597
 5367TIP3   OH237515   4.017   0.064   5.683  0.1545  0.3543 -0.2829
 5367TIP3    H137516   4.110   0.084   5.686  0.5292 -1.2832  2.7790
 5367TIP3    H237517   3.979   0.116   5.754 -0.8015 -0.8414  0.1201
 5368TIP3   OH237518   5.497   3.760  17.155  0.0070 -0.0818 -0.3610
 5368TIP3    H137519   5.465   3.672  17.177 -3.5303  1.3514  1.0513
 5368TIP3    H237520   5.536   3.792  17.237  0.7020 -0.0773 -0.6869
 5369TIP3   OH237521   5.863   2.698   0.866 -0.4301  0.0527 -0.2479
 5369TIP3    H137522   5.788   2.665   0.915  0.5193 -1.2207  0.4023
 5369TIP3    H237523   5.907   2.620   0.834  0.0820  0.8081 -1.4784
 5370TIP3   OH237524   1.516   1.150  16.040 -0.0986 -0.7247  0.3934
 5370TIP3    H137525   1.474   1.202  16.108  1.2468  0.2493  0.5192
 5370TIP3    H237526   1.566   1.213  15.988 -0.0378 -1.6247 -0.6984
 5371TIP3   OH237527   2.867   4.683   6.414  0.0491 -0.6628  0.0057
 5371TIP3    H137528   2.924   4.753   6.383  0.0109  0.0708  1.5047
 5371TIP3    H237529   2.912   4.602   6.389  2.1287 -0.1267  1.7299
 5372TIP3   OH237530   0.733   1.911  13.563  0.0196 -0.1598 -0.1801
 5372TIP3    H137531   0.686   1.987  13.529 -0.6477  0.0498  1.1434
 5372TIP3    H237532   0.750   1.857  13.486 -1.0424  0.4879 -0.8957
 5373TIP3   OH237533   6.701   4.651  14.392 -0.2614  0.2389  0.0559
 5373TIP3    H137534   6.750   4.668  14.312  1.6937 -1.3135  0.8421
 5373TIP3    H237535   6.645   4.728  14.402  1.9388  2.1079 -0.9794
 5374TIP3   OH237536   1.204   2.118  17.083 -0.9856  0.6713 -0.1054
 5374TIP3    H137537   1.224   2.045  17.142 -1.2359  0.3105 -0.4549
 5374TIP3    H237538   1.220   2.197  17.135 -0.9487  0.3619  0.3569
 5375TIP3   OH237539   5.673   6.016  14.717  0.3290 -0.3776 -0.3808
 5375TIP3    H137540   5.613   6.020  14.792 -0.9430  1.1139 -1.4142
 5375TIP3    H237541   5.646   5.937  14.670 -0.5730  0.0450 -0.6012
 5376TIP3   OH237542   3.834   3.866   0.609 -0.0160 -0.4443 -0.9595
 5376TIP3    H137543   3.770   3.935   0.627  1.3960  1.4699 -2.8326
 5376TIP3    H237544   3.814   3.839   0.519  0.8770 -0.8540 -1.0427
 5377TIP3   OH237545   4.190   3.971   1.139 -0.1704  0.2943 -0.5147
 5377TIP3    H137546   4.258   3.941   1.199 -0.8673  0.3195  0.3195
 5377TIP3    H237547   4.237   4.006   1.064  0.7221  0.0025 -0.1034
 5378TIP3   OH237548   1.807   4.316   5.868  0.4868  0.2871 -0.1060
 5378TIP3    H137549   1.832   4.291   5.957  0.5999 -2.2858 -0.7795
 5378TIP3    H237550   1.857   4.257   5.811 -1.4370  0.1475 -1.7783
 5379TIP3   OH237551   1.765   5.518  10.716 -0.3529  0.1177 -0.5874
 5379TIP3    H137552   1.783   5.435  10.760 -2.0415  0.3365  0.6122
 5379TIP3    H237553   1.791   5.503  10.625  0.6214 -1.2645 -0.1184
 5380TIP3   OH237554   6.104   4.292  16.172 -0.5910  0.2999  0.3929
 5380TIP3    H137555   6.087   4.255  16.259 -1.0962 -0.6318 -0.0835
 5380TIP3    H237556   6.091   4.218  16.112 -0.7987  1.0668 -0.5230
 5381TIP3   OH237557   0.533   4.894  13.683  0.0226 -0.1083 -0.3320
 5381TIP3    H137558   0.531   4.980  13.639 -0.5782 -0.7185 -1.5381
 5381TIP3    H237559   0.463   4.845  13.642  0.3392 -1.1763  0.3804
 5382TIP3   OH237560   3.907   5.938  16.009 -0.3601  0.6081 -0.3768
 5382TIP3    H137561   3.836   5.892  15.965  0.3460 -0.9064  0.0198
 5382TIP3    H237562   3.974   5.872  16.023  0.8715  1.8467 -0.1420
 5383TIP3   OH237563   5.188   2.401   2.079 -0.1010 -0.6332  0.8981
 5383TIP3    H137564   5.190   2.313   2.117  2.2558 -0.8081  0.5609
 5383TIP3    H237565   5.222   2.458   2.149 -0.0271 -0.2594  0.5608
 5384TIP3   OH237566   2.519   3.232   5.870  0.2097  0.0388  0.1044
 5384TIP3    H137567   2.472   3.302   5.916 -0.5024 -0.2925 -0.1145
 5384TIP3    H237568   2.452   3.188   5.818  0.5761 -1.0749  0.5546
 5385TIP3   OH237569   4.519   2.711   4.864 -0.4122  0.0808  0.4898
 5385TIP3    H137570   4.471   2.779   4.912 -1.9977 -0.8495  0.3047
 5385TIP3    H237571   4.607   2.747   4.853 -0.5876  1.1724  2.2942
 5386TIP3   OH237572   0.455   2.669  15.891  0.1885  0.3881 -0.0187
 5386TIP3    H137573   0.437   2.677  15.797 -0.6130  0.6068  0.1423
 5386TIP3    H237574   0.529   2.609  15.897 -0.3566 -0.3694 -0.7432
 5387TIP3   OH237575   3.926   2.964   6.685 -0.3724  0.1597  0.7017
 5387TIP3    H137576   3.908   2.874   6.656 -0.2585  1.0619 -2.5829
 5387TIP3    H237577   3.846   2.991   6.729 -2.3663 -0.1081 -2.4240
 5388TIP3   OH237578   1.537   0.633  13.503 -0.6065  0.0405 -0.3697
 5388TIP3    H137579   1.493   0.691  13.566  1.2431  0.0011  1.0165
 5388TIP3    H237580   1.512   0.545  13.530  0.4480  0.0111  0.5231
 5389TIP3   OH237581   4.834   4.703   3.575 -0.0560  0.2620 -0.5178
 5389TIP3    H137582   4.821   4.652   3.495 -0.4449  0.7316 -0.7570
 5389TIP3    H237583   4.928   4.717   3.579  0.4136 -2.5681  0.8558
 5390TIP3   OH237584   3.361   3.410  12.810  0.3932 -0.4583 -0.6793
 5390TIP3    H137585   3.371   3.475  12.741 -1.3065  1.0356  0.3836
 5390TIP3    H237586   3.429   3.432  12.874  0.5641 -0.4334 -0.8725
 5391TIP3   OH237587   0.996   6.715  14.722  0.1826  0.2226 -0.0622
 5391TIP3    H137588   1.015   6.809  14.723 -1.5667  0.6062  0.2380
 5391TIP3    H237589   1.066   6.676  14.774 -0.8157  1.7392  2.6139
 5392TIP3   OH237590   3.091   1.524  13.362 -0.2537  0.1655  0.5358
 5392TIP3    H137591   3.124   1.544  13.274 -0.2769 -1.4505  0.1370
 5392TIP3    H237592   3.034   1.448  13.350  0.9371 -1.0670  2.1407
 5393TIP3   OH237593   4.745   1.713   4.169  0.1822  0.0462  0.1448
 5393TIP3    H137594   4.744   1.660   4.090 -0.4655  0.2763 -0.0008
 5393TIP3    H237595   4.760   1.803   4.139  0.9864 -0.0053  0.3673
 5394TIP3   OH237596   5.079   6.025  12.010  0.6408  0.2596  0.5112
 5394TIP3    H137597   5.025   5.949  12.031  0.2550  0.8396  1.7309
 5394TIP3    H237598   5.108   6.010  11.920 -1.1657 -0.2913 -0.0248
 5395TIP3   OH237599   1.125   6.437   4.808 -0.0804 -0.0964  0.2555
 5395TIP3    H137600   1.050   6.384   4.835 -0.6725  0.6601  0.1368
 5395TIP3    H237601   1.088   6.524   4.792  1.1705  0.8402  2.1772
 5396TIP3   OH237602   4.260   2.578  16.195  0.5521  0.1103  0.2100
 5396TIP3    H137603   4.279   2.639  16.124 -0.4824  1.7412  1.2739
 5396TIP3    H237604   4.343   2.572  16.243  0.6741  0.6378  0.0719
 5397TIP3   OH237605   1.765   6.491  13.386  0.4858  0.1410  0.1742
 5397TIP3    H137606   1.840   6.439  13.356  0.7514 -0.7795  2.2848
 5397TIP3    H237607   1.786   6.514  13.476 -0.8095  1.7719  0.1101
 5398TIP3   OH237608   4.784   4.533  14.168 -0.5222  0.2275  0.1352
 5398TIP3    H137609   4.723   4.531  14.241 -0.8308  0.9812 -0.0871
 5398TIP3    H237610   4.729   4.546  14.091 -0.0333  2.2383  0.0638
 5399TIP3   OH237611   6.194   5.840  10.484  0.0365  0.1917  0.4081
 5399TIP3    H137612   6.157   5.795  10.561 -0.1121 -0.9457 -0.3133
 5399TIP3    H237613   6.235   5.771  10.433  2.1100  1.2492  0.5375
 5400TIP3   OH237614   6.196   6.322   5.323 -0.0846  0.4400 -0.7681
 5400TIP3    H137615   6.111   6.333   5.365 -1.0708 -3.6637 -1.2383
 5400TIP3    H237616   6.256   6.301   5.395 -0.5741 -1.2040 -0.7936
 5401TIP3   OH237617   5.716   2.266   3.032  0.5160  0.2870  0.4401
 5401TIP3    H137618   5.640   2.216   3.003  0.9430  0.0807 -0.3430
 5401TIP3    H237619   5.751   2.214   3.105 -0.6436  0.8878  1.4701
 5402TIP3   OH237620   5.697   0.318  15.830  0.1674  0.3925  0.0496
 5402TIP3    H137621   5.606   0.338  15.850 -0.3350 -2.3034  0.9449
 5402TIP3    H237622   5.741   0.321  15.915  0.6069  0.3222 -0.1749
 5403TIP3   OH237623   2.525   0.915  11.475  0.0090 -1.0394 -0.2178
 5403TIP3    H137624   2.442   0.879  11.505  0.2138 -0.8223  0.6265
 5403TIP3    H237625   2.580   0.839  11.457 -1.0473 -1.2714 -2.8537
 5404TIP3   OH237626   3.459   1.240   5.998 -0.4884  0.2224 -0.0030
 5404TIP3    H137627   3.388   1.303   5.987 -0.8963  0.0665  1.4688
 5404TIP3    H237628   3.419   1.167   6.046  0.7436  0.3180  1.2422
 5405TIP3   OH237629   0.813   6.121   1.836  0.6405 -0.0124  0.0617
 5405TIP3    H137630   0.839   6.163   1.755 -1.8725 -1.4979 -1.6339
 5405TIP3    H237631   0.795   6.193   1.896  1.8792  1.1247 -0.8588
 5406TIP3   OH237632   0.717   0.980  16.583 -0.4643  0.1754 -0.6174
 5406TIP3    H137633   0.792   1.036  16.563 -1.5583  1.1209 -2.3603
 5406TIP3    H237634   0.746   0.926  16.656  1.2276  1.8486  0.0239
 5407TIP3   OH237635   1.563   4.805   0.147 -0.3980  0.6312  0.3458
 5407TIP3    H137636   1.648   4.846   0.132  0.4193 -0.5076  1.6640
 5407TIP3    H237637   1.527   4.851   0.223  0.5418 -1.0284  1.8591
 5408TIP3   OH237638   2.093   5.038   4.891 -0.0401  0.2758  0.0302
 5408TIP3    H137639   2.140   5.121   4.905 -0.0870  0.4021 -0.5511
 5408TIP3    H237640   2.162   4.973   4.881 -0.0023  0.2461  0.4436
 5409TIP3   OH237641   5.388   5.728  14.670  0.5710  0.6290  0.1982
 5409TIP3    H137642   5.429   5.726  14.584 -0.4029 -1.0873 -0.2719
 5409TIP3    H237643   5.346   5.814  14.676  3.5967  2.2272  0.4600
 5410TIP3   OH237644   2.293   1.888   3.513  0.3491  0.6547  0.1707
 5410TIP3    H137645   2.297   1.802   3.471 -1.2985 -0.2606  1.7457
 5410TIP3    H237646   2.234   1.938   3.456  0.9981  0.6249 -0.5419
 5411TIP3   OH237647   6.755   0.627   2.478  0.6150 -0.3766  0.6484
 5411TIP3    H137648   6.681   0.584   2.521  0.4287  0.6880  1.4397
 5411TIP3    H237649   6.717   0.703   2.433  1.2030  0.1648  1.0337
 5412TIP3   OH237650   6.588   0.014  12.747 -0.2538  0.3682  0.8652
 5412TIP3    H137651   6.554   0.073  12.679 -0.4737 -0.7396 -0.0230
 5412TIP3    H237652   6.511  -0.012  12.797  0.2023  3.2873  3.3705
 5413TIP3   OH237653   4.942   1.436  10.475  0.4714 -0.1416 -0.5392
 5413TIP3    H137654   4.989   1.367  10.522 -1.3644 -0.8146  0.4607
 5413TIP3    H237655   4.855   1.399  10.460  0.1182  1.1627 -1.9524
 5414TIP3   OH237656   6.462   3.818  13.489 -0.2917 -0.2552 -0.4206
 5414TIP3    H137657   6.444   3.909  13.463 -1.0335 -0.9009 -2.4048
 5414TIP3    H237658   6.544   3.796  13.446 -1.0667 -1.0706 -1.5509
 5415TIP3   OH237659   3.509   5.637   0.222  0.0874  0.1299 -0.6571
 5415TIP3    H137660   3.560   5.573   0.272 -1.2573  0.0879  0.7097
 5415TIP3    H237661   3.543   5.629   0.133  1.3310 -1.0454 -0.1225
 5416TIP3   OH237662   6.170   2.580  11.523 -0.4446  0.1567  0.0618
 5416TIP3    H137663   6.121   2.635  11.461  0.4923 -0.5209 -1.3384
 5416TIP3    H237664   6.127   2.495  11.518  0.5216 -0.3151 -0.8323
 5417TIP3   OH237665   1.259   3.795  12.213  0.0791  0.2873 -0.0339
 5417TIP3    H137666   1.267   3.811  12.119  0.5547  1.0776  0.1367
 5417TIP3    H237667   1.184   3.848  12.240  1.6544  2.3347  0.5318
 5418TIP3   OH237668   6.202   2.318   1.270 -0.2497 -0.6730  0.8956
 5418TIP3    H137669   6.132   2.324   1.205  0.6521  1.0519  0.0247
 5418TIP3    H237670   6.281   2.347   1.224  0.8749 -1.6056  2.1363
 5419TIP3   OH237671   2.494   2.719  16.848 -0.5793  0.1182 -0.0536
 5419TIP3    H137672   2.512   2.812  16.833  2.2471  0.2840  3.0714
 5419TIP3    H237673   2.574   2.674  16.819 -1.1652 -1.1221  0.1807
 5420TIP3   OH237674   1.423   0.530   5.769  0.1156  0.5038  0.2203
 5420TIP3    H137675   1.342   0.480   5.758 -0.1786  0.7531  1.1948
 5420TIP3    H237676   1.484   0.468   5.808  0.3119  0.3972 -0.2519
 5421TIP3   OH237677   4.238   5.355   1.321  1.0571  0.7104  0.3552
 5421TIP3    H137678   4.171   5.423   1.321 -0.6549 -0.9014  0.8238
 5421TIP3    H237679   4.218   5.302   1.398  0.4964 -2.0381 -1.5548
 5422TIP3   OH237680   1.764   1.060   5.188  0.4101 -0.0757  0.6373
 5422TIP3    H137681   1.836   1.058   5.125  0.3485  3.0851  0.2924
 5422TIP3    H237682   1.786   1.133   5.246 -2.1388  0.4740  1.0206
 5423TIP3   OH237683   6.428   2.151  15.538 -0.1217  0.1082 -0.0287
 5423TIP3    H137684   6.522   2.137  15.533 -0.0302  0.6943 -0.0146
 5423TIP3    H237685   6.418   2.246  15.538 -0.7338  0.0493 -0.4334
 5424TIP3   OH237686   5.203   1.617   4.920 -0.3232  0.3603  0.2628
 5424TIP3    H137687   5.194   1.671   4.998  3.2573 -1.8230  2.5099
 5424TIP3    H237688   5.259   1.668   4.862  0.5020  0.3539  1.0292
 5425TIP3   OH237689   5.367   6.799   0.876  0.0365  0.0129 -0.3080
 5425TIP3    H137690   5.398   6.730   0.934  1.2761  0.9182  0.1493
 5425TIP3    H237691   5.441   6.816   0.817 -0.1535  1.1102 -0.2549
 5426TIP3   OH237692   3.454   2.063   0.393 -0.1231 -0.5223 -0.3202
 5426TIP3    H137693   3.360   2.065   0.376 -0.1548  1.2371 -0.1562
 5426TIP3    H237694   3.478   1.971   0.384 -1.8427 -1.0035 -0.4063
 5427TIP3   OH237695   4.272   3.251   5.963  0.3301  0.6872  0.2522
 5427TIP3    H137696   4.287   3.342   5.988  2.1121  0.3575  0.5329
 5427TIP3    H237697   4.193   3.254   5.909  0.2569  2.3736  0.3915
 5428TIP3   OH237698   1.467   4.193  14.153  0.4153 -0.0813  0.3632
 5428TIP3    H137699   1.432   4.131  14.217 -2.5985  0.7728 -0.3300
 5428TIP3    H237700   1.541   4.146  14.114 -1.8030 -3.4123 -0.2863
 5429TIP3   OH237701   1.457   0.002  11.599 -0.5332 -0.3501 -0.0465
 5429TIP3    H137702   1.371  -0.003  11.557 -0.0173 -0.9804 -1.0816
 5429TIP3    H237703   1.513   0.041  11.531  0.0909 -0.3594  0.4623
 5430TIP3   OH237704   5.739   3.494   5.438 -0.2888 -0.1369 -0.0780
 5430TIP3    H137705   5.724   3.580   5.397  2.0984 -0.2092 -1.2942
 5430TIP3    H237706   5.774   3.515   5.524 -2.0944  0.0366  0.6616
 5431TIP3   OH237707   5.311   4.815  13.068 -0.0199 -0.0627 -0.3671
 5431TIP3    H137708   5.289   4.723  13.055 -1.5519  0.0925  0.8086
 5431TIP3    H237709   5.380   4.815  13.134 -1.5886 -0.3223  1.3368
 5432TIP3   OH237710   6.126   0.941  15.268 -0.2731  0.2353 -0.0652
 5432TIP3    H137711   6.065   1.015  15.266  0.9742  1.2958 -0.9997
 5432TIP3    H237712   6.121   0.903  15.180  0.1619  0.1174 -0.0418
 5433TIP3   OH237713   0.850   0.187   2.514 -0.4230 -0.0058  0.0964
 5433TIP3    H137714   0.869   0.280   2.503 -1.9966  0.3206 -0.0310
 5433TIP3    H237715   0.843   0.153   2.424 -0.4105 -0.1352  0.1435
 5434TIP3   OH237716   6.656   3.623   6.758 -0.2029 -0.7957  0.1105
 5434TIP3    H137717   6.672   3.709   6.796 -1.5887 -0.6241  0.3577
 5434TIP3    H237718   6.609   3.642   6.676  1.2474 -1.2369 -0.8501
 5435TIP3   OH237719   1.233   4.601  16.038 -0.1288 -0.0604 -0.0297
 5435TIP3    H137720   1.311   4.653  16.059  0.7138 -1.1852 -0.2691
 5435TIP3    H237721   1.266   4.512  16.025 -1.4394 -0.5341 -0.2983
 5436TIP3   OH237722   6.813   0.195  13.255 -0.0886  0.2747  0.6023
 5436TIP3    H137723   6.765   0.167  13.332  1.3672  0.5830  1.6592
 5436TIP3    H237724   6.895   0.146  13.257  0.2204  0.6954 -0.4420
 5437TIP3   OH237725   2.920   4.738  13.120 -0.3328 -0.4349 -0.9137
 5437TIP3    H137726   2.856   4.671  13.143 -1.6665  1.4426  1.3396
 5437TIP3    H237727   3.002   4.708  13.159 -1.3944  0.1349  2.0003
 5438TIP3   OH237728   5.504   0.221   1.325  0.5510 -0.1855  0.4658
 5438TIP3    H137729   5.594   0.202   1.300  0.6275  0.0616  0.5511
 5438TIP3    H237730   5.467   0.265   1.248  0.7427  0.4402  0.7285
 5439TIP3   OH237731   2.231   6.546   0.986  0.1889 -0.1876  0.6966
 5439TIP3    H137732   2.303   6.483   0.993  0.3445  0.1665  2.7022
 5439TIP3    H237733   2.274   6.631   0.978  0.0757  0.1654  3.1711
 5440TIP3   OH237734   4.376   3.776  12.123 -0.0731  0.7462  0.0085
 5440TIP3    H137735   4.339   3.707  12.179  1.4971  0.6035  0.9288
 5440TIP3    H237736   4.361   3.744  12.034 -0.2207 -0.3372  0.3973
 5441TIP3   OH237737   6.229   2.806  14.577  0.0840 -0.2385 -0.2111
 5441TIP3    H137738   6.227   2.897  14.606 -1.6080 -0.7559  1.4951
 5441TIP3    H237739   6.235   2.755  14.658  2.9855 -1.6831 -1.1839
 5442TIP3   OH237740   0.121   4.754  12.409  0.1620 -0.0254 -0.6190
 5442TIP3    H137741   0.149   4.776  12.320 -2.1767 -0.3451 -1.5124
 5442TIP3    H237742   0.033   4.718  12.398  0.0172 -0.5860  1.7918
 5443TIP3   OH237743   3.526   1.175   1.684 -0.5465 -0.3531  0.0951
 5443TIP3    H137744   3.523   1.258   1.732  0.5212  0.1536 -0.6735
 5443TIP3    H237745   3.586   1.120   1.735  1.4234  0.5453 -1.1195
 5444TIP3   OH237746   0.795   4.277   1.695 -1.0195  0.3879  0.2877
 5444TIP3    H137747   0.882   4.238   1.708  0.5832  3.6979  0.4333
 5444TIP3    H237748   0.752   4.269   1.780 -0.0259  0.5163  0.8220
 5445TIP3   OH237749   5.407   4.848   2.592  0.1642 -0.4414 -0.2612
 5445TIP3    H137750   5.349   4.855   2.516  0.0040  1.2370 -0.0276
 5445TIP3    H237751   5.389   4.762   2.629 -0.0285 -1.1293 -1.8935
 5446TIP3   OH237752   1.195   4.606   3.455 -0.1968  0.1982  0.0452
 5446TIP3    H137753   1.206   4.576   3.365  0.4734 -0.0402  0.2027
 5446TIP3    H237754   1.106   4.579   3.478  0.2312 -1.3623  0.0421
 5447TIP3   OH237755   3.531   0.298   2.015 -0.0974  0.4819 -0.0590
 5447TIP3    H137756   3.588   0.318   1.940 -0.2486 -2.2912 -1.0050
 5447TIP3    H237757   3.555   0.209   2.040 -0.9545  0.8898  2.4225
 5448TIP3   OH237758   5.398   3.244  10.501  0.3826  0.0171  0.1623
 5448TIP3    H137759   5.432   3.326  10.537  0.4799  0.4119 -0.8023
 5448TIP3    H237760   5.468   3.180  10.517  0.1444  0.0180  1.2736
 5449TIP3   OH237761   4.506   0.328   5.325  0.2965  0.2143 -0.5814
 5449TIP3    H137762   4.553   0.346   5.406  1.6037  0.2436 -1.3124
 5449TIP3    H237763   4.418   0.364   5.339 -0.2412 -1.7560  1.6192
 5450TIP3   OH237764   1.675   5.779   6.240  0.3100 -0.2973  1.0691
 5450TIP3    H137765   1.615   5.838   6.284  0.1034  0.5099 -0.2392
 5450TIP3    H237766   1.631   5.694   6.241 -0.4581  0.0960  0.9121
 5451TIP3   OH237767   0.416   1.530   5.883  0.7711  0.4196 -0.2092
 5451TIP3    H137768   0.369   1.552   5.963 -0.7837 -0.2821 -0.8726
 5451TIP3    H237769   0.369   1.454   5.848  1.0297  1.0721 -2.0842
 5452TIP3   OH237770   4.208   2.466   0.665  0.1871  0.2019  0.0567
 5452TIP3    H137771   4.246   2.542   0.622 -0.7003  0.2943 -0.5896
 5452TIP3    H237772   4.213   2.486   0.758 -1.7127  1.9003 -0.1402
 5453TIP3   OH237773   5.788   1.797  16.272 -0.1253  0.2761  0.1952
 5453TIP3    H137774   5.882   1.779  16.263 -0.1520 -0.8145  1.6930
 5453TIP3    H237775   5.756   1.805  16.182  0.8485 -2.4389 -0.4683
 5454TIP3   OH237776   5.895   5.435   1.807  0.2870  0.6184 -0.2464
 5454TIP3    H137777   5.968   5.436   1.745 -0.3884 -2.0747 -1.1987
 5454TIP3    H237778   5.817   5.449   1.752 -0.2191 -0.5039  0.1694
 5455TIP3   OH237779   4.054   1.692  15.787 -0.4397  0.3782  0.4993
 5455TIP3    H137780   4.047   1.746  15.708  1.9593  0.0299 -0.0250
 5455TIP3    H237781   4.138   1.647  15.778 -0.8091 -0.8513  2.5469
 5456TIP3   OH237782   5.549   1.272  11.457 -0.0700 -0.2877 -0.3479
 5456TIP3    H137783   5.565   1.364  11.435 -0.8584  0.6449  2.5342
 5456TIP3    H237784   5.454   1.262  11.448  0.1099 -1.1279 -1.5382
 5457TIP3   OH237785   4.042   6.036   0.533  0.0710  0.1014  0.2236
 5457TIP3    H137786   4.033   5.985   0.453  1.4607  1.3211 -0.7608
 5457TIP3    H237787   4.102   5.985   0.587  1.4753  0.6369 -0.7647
 5458TIP3   OH237788   5.904   2.345  13.333 -0.7814  0.6251 -0.2688
 5458TIP3    H137789   5.901   2.438  13.354 -0.4764  0.9755 -1.6654
 5458TIP3    H237790   5.816   2.325  13.302 -0.5503  0.7289 -1.0168
 5459TIP3   OH237791   2.254   4.402   3.085 -0.5270  0.3461 -0.2781
 5459TIP3    H137792   2.305   4.482   3.096  0.7422 -0.3687 -0.7534
 5459TIP3    H237793   2.175   4.417   3.137  1.4271  0.3543  2.9709
 5460TIP3   OH237794   2.620   1.843  15.313  0.1049 -0.2052  0.1517
 5460TIP3    H137795   2.702   1.883  15.283  0.2171 -1.5416 -1.5194
 5460TIP3    H237796   2.561   1.851  15.237 -0.6246 -1.0713  0.6100
 5461TIP3   OH237797   2.857   1.428  11.530 -0.0778  0.2686 -0.0294
 5461TIP3    H137798   2.792   1.395  11.468  1.0307 -0.7474 -0.6775
 5461TIP3    H237799   2.835   1.385  11.613 -1.1256  1.0863  0.1459
 5462TIP3   OH237800   3.809   0.952  12.624  0.5375 -0.0836  0.1332
 5462TIP3    H137801   3.866   0.994  12.560  0.5838  1.3000  1.0388
 5462TIP3    H237802   3.868   0.922  12.693  0.7968 -3.7522 -1.4759
 5463TIP3   OH237803   3.974   0.412  12.239 -0.0324  0.4992  0.3852
 5463TIP3    H137804   4.033   0.487  12.227  0.2293  0.1330 -0.7122
 5463TIP3    H237805   3.957   0.380  12.150  0.1787 -0.9813  0.8500
 5464TIP3   OH237806   3.551   1.017   0.961 -0.0338  0.2141 -0.5238
 5464TIP3    H137807   3.559   0.990   1.052 -1.4929  0.7897 -0.2029
 5464TIP3    H237808   3.636   1.057   0.941  0.2409  0.2659  0.6428
 5465TIP3   OH237809   4.863   2.676   2.439 -0.9294  0.0321 -0.2398
 5465TIP3    H137810   4.953   2.691   2.467 -0.3327 -0.1900 -1.9533
 5465TIP3    H237811   4.823   2.764   2.438 -0.4216  0.2640 -0.4847
 5466TIP3   OH237812   1.417   3.294   4.992  0.3814  0.2030  0.5165
 5466TIP3    H137813   1.453   3.278   4.905 -1.2843 -1.6099  0.0907
 5466TIP3    H237814   1.491   3.281   5.052  0.9197 -1.4766 -0.4441
 5467TIP3   OH237815   6.118   6.021  11.789  0.4408  0.2578 -0.1134
 5467TIP3    H137816   6.116   6.112  11.759 -1.0186  0.6225  0.9845
 5467TIP3    H237817   6.101   5.970  11.710  0.1047  1.0199 -0.5472
 5468TIP3   OH237818   3.175   6.080   1.827  0.2576 -0.1341 -0.0692
 5468TIP3    H137819   3.228   6.022   1.772 -1.5816 -0.6603 -1.3753
 5468TIP3    H237820   3.147   6.150   1.769  2.3548  2.1426  1.4550
 5469TIP3   OH237821   1.679   0.360  12.621  0.3598 -0.3666  0.1733
 5469TIP3    H137822   1.731   0.395  12.549  1.5506 -2.5220 -0.0951
 5469TIP3    H237823   1.659   0.270  12.595 -1.8561 -0.2466  1.1876
 5470TIP3   OH237824   3.583   5.962  16.776 -0.0865  0.2337 -0.1357
 5470TIP3    H137825   3.663   5.933  16.733 -0.2545 -1.1921  0.4364
 5470TIP3    H237826   3.579   5.909  16.856 -0.3276  2.0409  1.1083
 5471TIP3   OH237827   5.512   0.906  17.013 -0.5659  0.1609  0.2180
 5471TIP3    H137828   5.465   0.989  17.018 -0.1494  0.5002 -1.0004
 5471TIP3    H237829   5.455   0.843  17.055 -1.1690  0.9518  0.6125
 5472TIP3   OH237830   1.193   4.899  15.256  0.3846  0.6142 -0.5425
 5472TIP3    H137831   1.190   4.813  15.298  1.2849  0.6760 -0.3186
 5472TIP3    H237832   1.240   4.954  15.319 -1.2051  1.5851 -0.1550
 5473TIP3   OH237833   3.081   3.576  10.573 -0.8606 -0.2867  0.1203
 5473TIP3    H137834   3.008   3.552  10.517 -0.8072  2.1756 -1.1423
 5473TIP3    H237835   3.137   3.498  10.575 -2.6469 -1.6308 -0.2666
 5474TIP3   OH237836   6.254   1.712  10.972 -0.3686  0.3019 -0.0443
 5474TIP3    H137837   6.276   1.704  10.880  0.6903  0.8423  0.1400
 5474TIP3    H237838   6.227   1.803  10.982 -3.3012 -0.4486 -0.3550
 5475TIP3   OH237839   3.926   3.555   0.406  0.2546 -0.0617  0.1337
 5475TIP3    H137840   3.857   3.519   0.351 -1.1428  0.5192  1.4032
 5475TIP3    H237841   3.882   3.572   0.490  2.2339 -0.7502  1.3664
 5476TIP3   OH237842   3.331   2.201   4.724  0.6055 -0.1136  0.1086
 5476TIP3    H137843   3.416   2.210   4.767  0.2794  0.4888  0.6505
 5476TIP3    H237844   3.307   2.290   4.698  0.4995 -0.3831 -0.7621
 5477TIP3   OH237845   2.308   4.849  14.612 -0.1855  0.0151  0.4878
 5477TIP3    H137846   2.377   4.913  14.628 -0.8572  0.9058 -0.0480
 5477TIP3    H237847   2.230   4.887  14.653 -0.4317 -0.8177  0.8087
 5478TIP3   OH237848   4.252   2.873   5.476 -0.5427  0.1538  0.6590
 5478TIP3    H137849   4.273   2.780   5.470  3.2049  0.9060 -3.0150
 5478TIP3    H237850   4.182   2.885   5.412 -0.4915 -0.0233  0.5686
 5479TIP3   OH237851   6.744   2.793   1.227  0.6859  0.1390  0.3315
 5479TIP3    H137852   6.662   2.784   1.177 -1.1409 -2.1098  3.3584
 5479TIP3    H237853   6.762   2.887   1.227 -0.7234  0.5067 -2.1104
 5480TIP3   OH237854   4.499   2.081   5.658  0.0997  0.6534 -0.3077
 5480TIP3    H137855   4.427   2.018   5.664  0.5454  0.2327  1.2042
 5480TIP3    H237856   4.522   2.098   5.750  1.9597  0.7359 -0.7637
 5481TIP3   OH237857   0.394   4.436   1.186  0.2604  0.2795  0.5280
 5481TIP3    H137858   0.339   4.505   1.224  1.7402  1.1988  1.0548
 5481TIP3    H237859   0.341   4.401   1.114  0.0969  3.1060 -0.8672
 5482TIP3   OH237860   0.964   1.062   3.163  0.4221  0.0349 -0.1675
 5482TIP3    H137861   0.955   1.023   3.250 -0.3397  0.8823  0.1565
 5482TIP3    H237862   0.893   1.126   3.158  0.3029 -0.1721 -1.5179
 5483TIP3   OH237863   0.265   6.313  13.500  0.3654 -0.5480  0.5416
 5483TIP3    H137864   0.185   6.351  13.463  1.2356  0.4847 -0.3128
 5483TIP3    H237865   0.260   6.333  13.594 -0.4568 -0.6562  0.5273
 5484TIP3   OH237866   1.041   1.110   1.624 -0.1582  0.5317  0.8147
 5484TIP3    H137867   1.024   1.027   1.579  2.8718  0.3647 -0.2610
 5484TIP3    H237868   0.976   1.114   1.693  0.3735 -3.4455  1.7610
 5485TIP3   OH237869   0.758   1.970  13.858 -0.0069  0.1620  0.4493
 5485TIP3    H137870   0.721   1.987  13.772  1.7570 -1.7701 -0.7813
 5485TIP3    H237871   0.819   2.042  13.873  0.9767 -0.3615 -0.7774
 5486TIP3   OH237872   4.894   1.332  11.925 -0.0253 -1.0451  0.3021
 5486TIP3    H137873   4.872   1.404  11.984  1.3839  0.3976 -0.8778
 5486TIP3    H237874   4.815   1.317  11.875 -0.4035 -0.4791  0.7159
 5487TIP3   OH237875   0.318   6.302   0.594  0.4323  0.4623 -0.1376
 5487TIP3    H137876   0.228   6.299   0.560  0.0558  2.5730  0.4921
 5487TIP3    H237877   0.309   6.344   0.680  2.0726  1.1913 -0.2875
 5488TIP3   OH237878   1.867   5.555   0.753 -0.3846  0.5006 -0.2120
 5488TIP3    H137879   1.891   5.527   0.842  1.4615 -1.4983 -1.2466
 5488TIP3    H237880   1.813   5.484   0.719 -0.9570  1.1818 -0.7617
 5489TIP3   OH237881   5.696   1.491  16.212  0.0136 -0.0681 -0.6819
 5489TIP3    H137882   5.784   1.525  16.198 -0.6348  1.8986 -0.3068
 5489TIP3    H237883   5.671   1.453  16.128  1.7728 -2.1650 -0.3653
 5490TIP3   OH237884   6.566   4.350   5.259  0.2953  0.3193  0.0115
 5490TIP3    H137885   6.494   4.323   5.316  0.3892 -2.8118 -1.1314
 5490TIP3    H237886   6.643   4.307   5.296  0.8048  0.3175 -1.0211
 5491TIP3   OH237887   6.594   3.746   0.792 -0.2339  0.0869  0.3209
 5491TIP3    H137888   6.577   3.840   0.785 -2.7277 -0.1208  1.9921
 5491TIP3    H237889   6.636   3.736   0.877  2.8054 -0.1167 -1.0833
 5492TIP3   OH237890   1.942   6.812   1.755  0.2534  0.2497  0.4286
 5492TIP3    H137891   1.893   6.736   1.722  2.4021 -0.6055 -1.0026
 5492TIP3    H237892   1.968   6.787   1.844  0.2335 -0.3259  0.2737
 5493TIP3   OH237893   1.844   5.761  16.745 -0.2086 -0.2149 -0.2658
 5493TIP3    H137894   1.783   5.790  16.678 -0.3059  0.5586  0.1435
 5493TIP3    H237895   1.789   5.730  16.817 -0.1199  0.1350 -0.0457
 5494TIP3   OH237896   5.433   1.653  16.586 -0.1375  0.0142 -0.4326
 5494TIP3    H137897   5.523   1.678  16.569 -0.8227  0.7123 -3.5901
 5494TIP3    H237898   5.401   1.719  16.648  0.5741  1.9183 -1.9883
 5495TIP3   OH237899   0.628   5.216   2.802 -0.5341  0.3229  0.1746
 5495TIP3    H137900   0.574   5.164   2.861 -0.8992  1.9050  1.2753
 5495TIP3    H237901   0.717   5.187   2.819 -0.8820 -1.5736 -0.9179
 5496TIP3   OH237902   2.979   2.683   6.495 -0.0034 -0.3201 -0.4757
 5496TIP3    H137903   3.007   2.627   6.567  0.8609  2.0885  1.1762
 5496TIP3    H237904   3.032   2.654   6.420  0.9017 -1.2609  0.4922
 5497TIP3   OH237905   1.428   0.231   3.180 -0.0656  0.1831  0.2707
 5497TIP3    H137906   1.386   0.290   3.243  1.6317  0.4811  1.1806
 5497TIP3    H237907   1.459   0.289   3.111  0.5068  0.2129  0.5478
 5498TIP3   OH237908   5.680   1.972  11.143 -0.2233  0.3885 -0.0515
 5498TIP3    H137909   5.698   2.062  11.118  2.1928 -0.1642 -0.4759
 5498TIP3    H237910   5.717   1.919  11.073  1.4519 -1.0095  1.7614
 5499TIP3   OH237911   6.363   0.617  15.805  0.4511  0.0656  0.7347
 5499TIP3    H137912   6.366   0.537  15.857  2.2430 -0.7911 -0.5746
 5499TIP3    H237913   6.333   0.589  15.719 -1.7817  1.3403  1.0342
 5500TIP3   OH237914   6.249   6.443   4.163 -0.0245 -0.2029 -0.4151
 5500TIP3    H137915   6.322   6.383   4.176  1.3093  1.1583 -1.2744
 5500TIP3    H237916   6.250   6.461   4.069  0.4570  2.1091 -0.0379
 5501TIP3   OH237917   3.085   4.071  16.332  0.0417 -0.5859  0.1308
 5501TIP3    H137918   3.054   4.036  16.415 -1.0431 -0.6475 -0.2881
 5501TIP3    H237919   3.177   4.043  16.327  0.1075 -0.6131  1.2780
 5502TIP3   OH237920   0.176   5.873  14.433  0.0875 -0.4271  0.1580
 5502TIP3    H137921   0.131   5.810  14.489  1.1367 -1.1778  0.1831
 5502TIP3    H237922   0.259   5.830  14.410  0.5321  0.6756 -0.3628
 5503TIP3   OH237923   5.403   4.864   4.756  0.1460 -0.0196 -0.3642
 5503TIP3    H137924   5.473   4.901   4.810  1.6921 -0.3696 -2.0468
 5503TIP3    H237925   5.437   4.868   4.667 -2.2651  0.4188 -1.3381
 5504TIP3   OH237926   0.719   5.903   2.222  0.8296  0.4320 -0.2474
 5504TIP3    H137927   0.651   5.838   2.202  0.0056  1.4077 -0.7045
 5504TIP3    H237928   0.773   5.907   2.144  1.6384 -0.5876  0.2383
 5505TIP3   OH237929   6.207   0.590  13.208  0.0931  0.2571 -0.3614
 5505TIP3    H137930   6.124   0.543  13.216  0.7742 -1.0631 -0.6560
 5505TIP3    H237931   6.265   0.546  13.270  0.3306  1.7670  0.5245
 5506TIP3   OH237932   6.573   5.465  14.344 -0.6293 -0.0724 -0.2335
 5506TIP3    H137933   6.572   5.527  14.272 -2.9128 -0.8178 -0.9233
 5506TIP3    H237934   6.545   5.515  14.421 -2.5555 -0.2229 -0.8052
 5507TIP3   OH237935   1.988   6.344  13.347  0.0546 -0.1804 -0.3325
 5507TIP3    H137936   1.982   6.291  13.426  1.9784  1.2644  0.8739
 5507TIP3    H237937   2.080   6.338  13.321 -0.1647  0.7799 -1.4333
 5508TIP3   OH237938   4.697   3.246   3.337 -0.0095  0.0900 -0.5050
 5508TIP3    H137939   4.672   3.192   3.262 -0.2493  1.8875 -1.7894
 5508TIP3    H237940   4.614   3.280   3.370  0.2078  0.4957 -0.3708
 5509TIP3   OH237941   6.304   1.412  16.667 -0.3844  0.3852  0.2384
 5509TIP3    H137942   6.330   1.324  16.693  0.5830  0.8792  1.0260
 5509TIP3    H237943   6.377   1.444  16.614 -1.2856  0.2683 -1.1047
 5510TIP3   OH237944   0.271   3.181  13.953  0.1773  0.0230  0.1881
 5510TIP3    H137945   0.329   3.168  14.028 -0.2568  2.0315  0.9290
 5510TIP3    H237946   0.315   3.247  13.899 -1.7002  2.2330  1.1917
 5511TIP3   OH237947   3.232   6.772  14.644  0.3160 -0.6599 -0.1075
 5511TIP3    H137948   3.261   6.724  14.567 -0.5601 -0.0434 -0.8343
 5511TIP3    H237949   3.169   6.837  14.611 -0.1870 -0.4778  1.1285
 5512TIP3   OH237950   6.756   3.954   3.419  0.4212  0.2008  0.1916
 5512TIP3    H137951   6.832   3.943   3.475  1.0081  1.4690 -0.3028
 5512TIP3    H237952   6.773   3.896   3.344  0.4488 -0.2124  0.5141
 5513TIP3   OH237953   4.554   1.029   5.126  0.1331 -0.6927 -0.2423
 5513TIP3    H137954   4.602   0.951   5.155  0.7845 -0.4864 -0.7419
 5513TIP3    H237955   4.513   1.002   5.044  0.4388 -0.4831 -0.4653
 5514TIP3   OH237956   2.279   4.082   4.142 -0.1286  0.1587  0.3361
 5514TIP3    H137957   2.230   4.056   4.220  0.4654  2.0006  1.3815
 5514TIP3    H237958   2.227   4.049   4.069 -0.6485 -1.6998  1.4942
 5515TIP3   OH237959   4.235   5.398   0.011 -0.0180  0.4559 -1.0711
 5515TIP3    H137960   4.295   5.389  -0.062  0.4749 -0.3450 -0.5815
 5515TIP3    H237961   4.291   5.400   0.089 -0.5839  0.3055 -0.6454
 5516TIP3   OH237962   3.602   0.123   0.048  0.3264  0.5458 -0.6405
 5516TIP3    H137963   3.577   0.102   0.138  1.5208  0.7387 -0.2393
 5516TIP3    H237964   3.519   0.131   0.001 -0.3329  0.8052  0.5238
 5517TIP3   OH237965   1.455   0.382  15.483 -0.1027  0.1954 -0.4413
 5517TIP3    H137966   1.399   0.455  15.509 -0.5776 -0.5676  0.7759
 5517TIP3    H237967   1.514   0.369  15.556  0.3997 -0.2386 -0.9118
 5518TIP3   OH237968   5.920   2.775  14.350  0.2272  0.3561  0.2546
 5518TIP3    H137969   5.923   2.740  14.439 -0.9202  0.5587  0.3928
 5518TIP3    H237970   5.832   2.753  14.319  0.4614  0.6922 -0.6592
 5519TIP3   OH237971   1.862   4.499  16.927  0.4714  0.1447 -0.1119
 5519TIP3    H137972   1.898   4.427  16.979 -1.1669 -0.5184  0.1715
 5519TIP3    H237973   1.795   4.538  16.983  1.0059  1.6225 -0.4492
 5520TIP3   OH237974   4.198   1.043  14.694 -0.1738 -0.4309  0.0248
 5520TIP3    H137975   4.281   1.089  14.682  0.8410 -2.1334  0.1021
 5520TIP3    H237976   4.196   1.021  14.787 -1.3270  0.6473  0.2828
 5521TIP3   OH237977   0.255   5.325  15.423  0.3854  0.3349  0.0915
 5521TIP3    H137978   0.311   5.352  15.495  0.3464  0.6111  0.0196
 5521TIP3    H237979   0.175   5.377  15.434  0.7913  1.1768 -0.7661
 5522TIP3   OH237980   4.017   2.716  14.564 -0.2865  0.4386  0.1868
 5522TIP3    H137981   4.094   2.770  14.543 -0.5553  1.3116  1.3172
 5522TIP3    H237982   3.945   2.779  14.568 -0.2944  0.3626  3.3620
 5523TIP3   OH237983   6.216   4.341  14.861 -0.4668  0.3805 -0.1459
 5523TIP3    H137984   6.216   4.386  14.777 -2.0351  1.7213  0.5047
 5523TIP3    H237985   6.207   4.412  14.926 -0.0927 -0.6713  1.0943
 5524TIP3   OH237986   1.772   3.372  13.486  0.0246 -0.3229 -0.4788
 5524TIP3    H137987   1.771   3.355  13.580  0.7945  0.6674 -0.2721
 5524TIP3    H237988   1.685   3.405  13.466  0.0058 -0.0841 -0.0185
 5525TIP3   OH237989   3.539   2.910   3.932  0.4463 -0.6678 -0.0204
 5525TIP3    H137990   3.607   2.976   3.919 -0.4265  0.1944 -0.2633
 5525TIP3    H237991   3.505   2.927   4.020 -0.9328  0.3039 -0.7162
 5526TIP3   OH237992   6.260   3.405  14.904 -0.4384 -0.6872  0.6106
 5526TIP3    H137993   6.324   3.414  14.835 -1.0803 -1.0473 -0.0446
 5526TIP3    H237994   6.243   3.495  14.933  0.3025 -0.5878  0.7450
 5527TIP3   OH237995   6.396   6.017  16.482  0.3063 -0.3526 -0.2895
 5527TIP3    H137996   6.407   6.108  16.510  1.2022 -0.5662  0.0945
 5527TIP3    H237997   6.467   5.970  16.526 -1.8334 -1.7893  1.8877
 5528TIP3   OH237998   1.644   5.451   1.955 -0.1002 -0.3694  0.1388
 5528TIP3    H137999   1.603   5.380   2.005  0.7699 -0.0544  1.3495
 5528TIP3    H238000   1.733   5.457   1.991 -0.0017  0.9977 -0.2785
 5529TIP3   OH238001   1.474   3.842  14.081 -0.3027 -0.1913  0.2255
 5529TIP3    H138002   1.507   3.923  14.120 -0.8797 -0.3199  1.0204
 5529TIP3    H238003   1.511   3.841  13.993 -1.2539  1.5513 -0.2488
 5530TIP3   OH238004   5.729   4.760  11.481  0.0110  0.0115 -0.5501
 5530TIP3    H138005   5.671   4.835  11.481 -0.0058  0.0165  0.9219
 5530TIP3    H238006   5.671   4.684  11.490  0.0505 -0.1875 -1.7423
 5531TIP3   OH238007   0.175   4.645   1.242 -0.0475 -0.5721  0.4367
 5531TIP3    H138008   0.154   4.563   1.286  0.5725 -0.1177  1.6294
 5531TIP3    H238009   0.189   4.708   1.313 -0.4953  0.5706 -0.4466
 5532TIP3   OH238010   2.752   4.943   0.187 -0.0520 -0.3526 -0.1955
 5532TIP3    H138011   2.737   4.913   0.097  0.5949 -1.4354  0.0407
 5532TIP3    H238012   2.816   4.881   0.222  0.9090  0.9863  0.5126
 5533TIP3   OH238013   3.482   1.070  10.854 -0.0361  0.2308 -0.1181
 5533TIP3    H138014   3.530   0.991  10.831  0.3436  0.0069  1.3530
 5533TIP3    H238015   3.544   1.141  10.838  0.8810 -0.0620  1.8489
 5534TIP3   OH238016   1.428   4.820  12.733 -0.2092  0.3677  0.2062
 5534TIP3    H138017   1.464   4.796  12.648  0.6367 -1.4942  1.0341
 5534TIP3    H238018   1.338   4.786  12.731  0.1790 -0.7215  0.4440
 5535TIP3   OH238019   1.935   6.806   2.401 -0.3022  0.0451  0.3512
 5535TIP3    H138020   1.971   6.817   2.489  0.2007 -1.1004  0.3024
 5535TIP3    H238021   1.982   6.732   2.364 -0.9209  0.1370 -0.6788
 5536TIP3   OH238022   6.057   6.079  13.007  0.2291  0.1170 -0.0311
 5536TIP3    H138023   5.990   6.036  12.953  0.9841 -0.4111 -0.5686
 5536TIP3    H238024   6.137   6.076  12.954  0.3966  1.9144  0.0411
 5537TIP3   OH238025   6.125   0.985   4.431  0.5298 -0.1461 -0.3512
 5537TIP3    H138026   6.090   1.073   4.414 -1.1146 -0.9057 -1.1660
 5537TIP3    H238027   6.110   0.937   4.349  1.1061 -1.2835  0.1891
 5538TIP3   OH238028   3.993   0.318  12.557 -0.1613  0.7186  1.0044
 5538TIP3    H138029   4.057   0.259  12.518 -0.0358  1.5102 -0.0326
 5538TIP3    H238030   3.997   0.300  12.651  1.2114  0.3915  0.8967
 5539TIP3   OH238031   6.761   3.905  10.976 -0.3714 -0.0916  0.7965
 5539TIP3    H138032   6.688   3.929  10.918  1.0126  0.9766 -0.5960
 5539TIP3    H238033   6.755   3.810  10.983 -1.0113 -0.1843 -0.5487
 5540TIP3   OH238034   3.627   5.073   0.783  0.4467 -0.1379  0.1998
 5540TIP3    H138035   3.641   5.049   0.875  1.5188 -2.1987 -0.4203
 5540TIP3    H238036   3.713   5.059   0.743  0.1177  1.2509 -1.0188
 5541TIP3   OH238037   0.890   4.003  11.669  0.4417  0.0070  0.0359
 5541TIP3    H138038   0.896   4.078  11.728  2.0334  0.0143 -0.0834
 5541TIP3    H238039   0.892   4.042  11.581  1.4364 -0.1566 -0.0280
 5542TIP3   OH238040   4.214   5.618  13.211 -0.1179 -0.6409  0.4642
 5542TIP3    H138041   4.248   5.532  13.186 -3.1840 -1.7799 -0.1623
 5542TIP3    H238042   4.217   5.670  13.130  0.2841 -0.6671  0.4617
 5543TIP3   OH238043   0.653   5.286   4.768  0.4936 -0.2746 -0.2641
 5543TIP3    H138044   0.576   5.229   4.775 -1.0413  1.5829 -0.9593
 5543TIP3    H238045   0.712   5.241   4.708 -1.5337 -0.3048 -2.3760
 5544TIP3   OH238046   6.289   4.389   5.592  0.1664 -0.0554  0.0665
 5544TIP3    H138047   6.369   4.341   5.610  2.0270  3.1395  1.2115
 5544TIP3    H238048   6.317   4.460   5.534 -2.4560 -0.4007 -1.8161
 5545TIP3   OH238049   1.144   6.358   2.312  0.2859  0.0382  0.5543
 5545TIP3    H138050   1.090   6.324   2.384  0.9057  0.5840  1.3018
 5545TIP3    H238051   1.151   6.452   2.330 -1.1838  0.5806 -1.3213
 5546TIP3   OH238052   5.570   4.797  14.167  0.0702 -0.4934  0.0979
 5546TIP3    H138053   5.480   4.808  14.197  0.4404  0.6529  0.8511
 5546TIP3    H238054   5.593   4.881  14.128  1.3957 -0.1193  1.5692
 5547TIP3   OH238055   4.725   3.861  13.570 -0.4966 -0.3029 -0.1997
 5547TIP3    H138056   4.632   3.838  13.573 -0.2250 -1.8350 -1.6813
 5547TIP3    H238057   4.738   3.895  13.481  0.3103  0.1727  0.0898
 5548TIP3   OH238058   1.421   4.675  17.183 -0.1251  0.3041 -0.1390
 5548TIP3    H138059   1.467   4.729  17.247 -1.1168  0.6826  0.2826
 5548TIP3    H238060   1.391   4.599  17.234  0.7768 -0.3801 -0.6037
 5549TIP3   OH238061   3.657   4.495   2.010  0.1921  0.0450  0.1829
 5549TIP3    H138062   3.639   4.579   1.967 -1.1251 -0.3026  0.0139
 5549TIP3    H238063   3.618   4.503   2.097 -0.0804 -0.4431  0.1104
 5550TIP3   OH238064   2.659   3.595   2.603  0.1955  0.3283  0.0580
 5550TIP3    H138065   2.582   3.651   2.594  0.5415  0.5354 -2.5182
 5550TIP3    H238066   2.694   3.616   2.689 -3.6174 -1.1859  2.2176
 5551TIP3   OH238067   5.766   6.590  11.097 -0.4913 -0.3960 -0.0883
 5551TIP3    H138068   5.815   6.531  11.041  2.2722  1.2960  0.3353
 5551TIP3    H238069   5.786   6.561  11.186 -2.7309 -1.4620  0.1251
 5552TIP3   OH238070   5.542   3.222   0.915 -0.3198 -0.0060 -0.4956
 5552TIP3    H138071   5.560   3.148   0.973  0.7291  0.6714  0.0709
 5552TIP3    H238072   5.599   3.292   0.947 -0.6335  0.7715 -1.5870
 5553TIP3   OH238073   4.359   3.482  13.416  0.5053  0.5723  0.0343
 5553TIP3    H138074   4.284   3.524  13.457  0.3553  0.8536 -0.5053
 5553TIP3    H238075   4.413   3.453  13.488 -0.9650 -1.2076  0.4857
 5554TIP3   OH238076   4.359   0.053  12.786  0.1901 -0.6497 -0.0748
 5554TIP3    H138077   4.351   0.138  12.830 -1.4499 -0.8067 -0.0271
 5554TIP3    H238078   4.374  -0.009  12.857  0.7852 -0.4899 -0.0539
 5555TIP3   OH238079   5.767   2.497  13.750  0.0599 -0.2628 -0.1226
 5555TIP3    H138080   5.758   2.579  13.702  0.1032  1.1679  2.1672
 5555TIP3    H238081   5.853   2.464  13.726  0.3449  0.7429 -0.5095
 5556TIP3   OH238082   4.225   2.202  12.007 -0.1204  0.5276  0.1437
 5556TIP3    H138083   4.278   2.217  11.929 -0.8517 -0.2926 -0.5448
 5556TIP3    H238084   4.142   2.247  11.988 -0.5314 -0.2096  0.1714
 5557TIP3   OH238085   5.883   3.202  13.127 -0.2126 -0.4971  0.3787
 5557TIP3    H138086   5.934   3.283  13.138  1.5985 -1.4565 -0.6292
 5557TIP3    H238087   5.906   3.170  13.041 -3.5347 -0.3847 -0.7166
 5558TIP3   OH238088   5.551   0.053  11.482  0.5507 -0.7615  0.5500
 5558TIP3    H138089   5.487   0.078  11.548  0.6863  1.3919 -0.0375
 5558TIP3    H238090   5.499   0.021  11.408  0.0720  1.1972 -0.0176
 5559TIP3   OH238091   5.810   4.074  11.916 -0.3663 -0.6769 -0.4904
 5559TIP3    H138092   5.718   4.072  11.942 -0.2938  1.5171  0.0756
 5559TIP3    H238093   5.858   4.075  11.998  0.1885 -1.4612 -0.7896
 5560TIP3   OH238094   1.375   4.619  14.129 -0.0997  0.0857 -0.7446
 5560TIP3    H138095   1.312   4.622  14.057 -1.9620  1.9055  0.8631
 5560TIP3    H238096   1.453   4.661  14.093  0.0264 -1.4941 -2.5146
 5561TIP3   OH238097   5.289   5.113   3.957  0.2353 -0.1603  1.3337
 5561TIP3    H138098   5.373   5.070   3.940  0.2868 -0.6310  2.7035
 5561TIP3    H238099   5.228   5.042   3.975 -0.6379  0.1433 -0.2727
 5562TIP3   OH238100   0.381   0.501  16.031 -0.7886  0.3135 -0.3006
 5562TIP3    H138101   0.359   0.584  16.074 -2.9957 -0.1688 -0.3802
 5562TIP3    H238102   0.412   0.445  16.103  2.5939  1.7025 -0.5188
 5563TIP3   OH238103   3.867   1.918   4.530 -0.2132  0.1630 -0.2295
 5563TIP3    H138104   3.837   1.928   4.439 -1.4159  0.4753  0.1869
 5563TIP3    H238105   3.962   1.924   4.524 -0.2586 -0.1678 -1.5144
 5564TIP3   OH238106   1.514   2.563   3.311  0.2318  0.3276  0.6252
 5564TIP3    H138107   1.523   2.517   3.228 -1.0174  1.4277 -0.1618
 5564TIP3    H238108   1.423   2.594   3.312 -0.7453 -2.0778  3.7120
 5565TIP3   OH238109   4.456   4.331  15.144 -0.0842 -0.0548 -0.5128
 5565TIP3    H138110   4.446   4.425  15.129 -2.9108 -0.4181 -1.4161
 5565TIP3    H238111   4.462   4.322  15.239  1.4206  1.0713 -0.4589
 5566TIP3   OH238112   1.251   1.487   3.555  0.4682  0.2666  1.0369
 5566TIP3    H138113   1.225   1.578   3.563 -1.3913  0.0938 -1.7102
 5566TIP3    H238114   1.311   1.486   3.480  0.8146 -0.7287  1.3105
 5567TIP3   OH238115   4.802   3.026  13.396 -0.0151  0.8176  0.3397
 5567TIP3    H138116   4.770   2.938  13.377  0.9575  0.6965 -0.8487
 5567TIP3    H238117   4.891   3.027  13.361 -1.1526  3.3455 -3.0765
 5568TIP3   OH238118   1.044   2.910  14.892  0.2563  0.1470  0.5990
 5568TIP3    H138119   1.066   2.830  14.940  0.1659  0.3863  1.0428
 5568TIP3    H238120   0.959   2.891  14.852  0.3088 -0.0331  0.5677
 5569TIP3   OH238121   0.323   6.728  16.139 -0.2095  0.2661 -0.1306
 5569TIP3    H138122   0.378   6.724  16.217 -0.3974  0.7050  0.0285
 5569TIP3    H238123   0.260   6.797  16.158 -1.5800 -1.0164  0.1896
 5570TIP3   OH238124   1.816   3.322   3.613  0.0566  0.3657  0.8435
 5570TIP3    H138125   1.818   3.240   3.563  1.7253  0.9047 -0.0554
 5570TIP3    H238126   1.756   3.304   3.686 -0.6736 -1.1899 -0.0888
 5571TIP3   OH238127   5.504   5.915  12.053  0.1417  0.0173 -0.1480
 5571TIP3    H138128   5.526   5.973  12.126 -0.6964 -0.9835  0.9372
 5571TIP3    H238129   5.574   5.850  12.052 -0.0015 -0.1401 -0.0379
 5572TIP3   OH238130   3.974   2.629   0.146  0.1415 -0.0174  0.1017
 5572TIP3    H138131   4.016   2.580   0.217  0.3586  0.8833  0.6088
 5572TIP3    H238132   3.886   2.591   0.140 -0.0071  0.1237  1.1048
 5573TIP3   OH238133   1.443   0.619  11.350  0.2459  0.2256 -0.0573
 5573TIP3    H138134   1.422   0.534  11.311 -1.5060  0.5359  0.1217
 5573TIP3    H238135   1.414   0.613  11.441 -2.7232  1.8832 -0.7387
 5574TIP3   OH238136   0.567   2.827  11.656  0.1121  0.4550 -0.0714
 5574TIP3    H138137   0.602   2.750  11.700  1.0287 -1.4035 -3.6108
 5574TIP3    H238138   0.488   2.795  11.612  0.1399  1.7049 -1.0914
 5575TIP3   OH238139   4.288   3.473   4.959  0.1918  0.0187  0.3894
 5575TIP3    H138140   4.247   3.406   4.904 -1.2040  1.1986 -0.0533
 5575TIP3    H238141   4.338   3.423   5.024 -0.4896 -1.4443 -0.1697
 5576TIP3   OH238142   0.034   3.010  11.108 -0.1627 -0.3626  0.4699
 5576TIP3    H138143  -0.054   3.027  11.074 -0.3130 -2.2325 -0.2346
 5576TIP3    H238144   0.065   3.094  11.140 -0.5780  1.3043 -3.0402
 5577TIP3   OH238145   5.112   6.806  16.973 -0.0177  0.3078  0.0382
 5577TIP3    H138146   5.098   6.770  17.061 -2.7285 -0.0530 -0.4566
 5577TIP3    H238147   5.129   6.730  16.918 -1.3750  0.1783 -0.2399
 5578TIP3   OH238148   3.739   4.254  11.727  0.2293 -0.0790 -0.1557
 5578TIP3    H138149   3.644   4.242  11.737  0.4702 -0.1148  2.9881
 5578TIP3    H238150   3.747   4.320  11.658 -2.0550 -0.2677 -0.7072
 5579TIP3   OH238151   3.872   3.609   5.366 -0.0499 -0.2464  0.0189
 5579TIP3    H138152   3.881   3.681   5.303  0.5750 -0.2232  0.1259
 5579TIP3    H238153   3.902   3.532   5.318  2.7147  0.1220  0.9486
 5580TIP3   OH238154   0.255   5.447  14.017  0.0193 -0.6776  0.3435
 5580TIP3    H138155   0.278   5.377  14.078  0.1292 -1.2624 -0.3665
 5580TIP3    H238156   0.226   5.519  14.074 -2.1204 -2.0061  1.0398
 5581TIP3   OH238157   1.855   1.321  14.112  0.1077 -0.0677  0.7083
 5581TIP3    H138158   1.833   1.411  14.088  0.0364  0.0693  1.2724
 5581TIP3    H238159   1.779   1.270  14.084  0.5671 -0.1108 -0.5293
 5582TIP3   OH238160   4.362   4.760   5.095 -0.0214  0.1606  0.1760
 5582TIP3    H138161   4.457   4.751   5.091  0.1992  2.3746 -1.2566
 5582TIP3    H238162   4.347   4.828   5.160 -0.6264 -0.1220  0.3404
 5583TIP3   OH238163   6.400   6.183   6.022 -0.1781  0.0192  0.7575
 5583TIP3    H138164   6.491   6.204   6.045 -0.5460  1.6642  0.8037
 5583TIP3    H238165   6.347   6.235   6.082 -1.1512  1.5784 -1.3288
 5584TIP3   OH238166   4.014   6.677  13.233 -0.2626 -0.5058  0.0474
 5584TIP3    H138167   3.986   6.742  13.168  0.4974 -0.6493 -0.4389
 5584TIP3    H238168   3.995   6.592  13.191 -1.0187 -0.6076  0.5750
 5585TIP3   OH238169   2.978   0.135  15.619  0.1062 -0.4101 -0.0721
 5585TIP3    H138170   2.971   0.168  15.530 -0.0134 -1.1318 -0.3397
 5585TIP3    H238171   3.006   0.210  15.671 -0.2941  0.1319 -0.6352
 5586TIP3   OH238172   4.206   6.195  12.075  0.5768 -0.4528  0.2323
 5586TIP3    H138173   4.129   6.246  12.051 -0.4938 -2.0895  0.0289
 5586TIP3    H238174   4.239   6.236  12.155 -0.7599  0.0072  0.5605
 5587TIP3   OH238175   6.304   3.143   3.155  0.0464  0.4927 -0.6232
 5587TIP3    H138176   6.294   3.049   3.172  2.1915  0.2409 -0.5166
 5587TIP3    H238177   6.298   3.184   3.241  2.3246  0.0825 -0.2117
 5588TIP3   OH238178   5.699   3.164   2.062 -0.0109 -0.1955 -0.6152
 5588TIP3    H138179   5.609   3.188   2.041  0.2366  0.4002 -1.0339
 5588TIP3    H238180   5.753   3.224   2.010  0.6600  1.4938  1.8318
 5589TIP3   OH238181   2.608   2.232   5.823  0.6429  0.0591  0.0489
 5589TIP3    H138182   2.514   2.237   5.811  0.6105  1.8293  0.7303
 5589TIP3    H238183   2.619   2.187   5.907  0.4343 -0.5953 -0.2697
 5590TIP3   OH238184   6.445   6.493  14.555  0.0277  0.5845  0.0500
 5590TIP3    H138185   6.469   6.563  14.616  0.2827 -0.1526  0.8102
 5590TIP3    H238186   6.528   6.452  14.533  0.0102  1.1877 -1.2557
 5591TIP3   OH238187   4.528   5.650   0.126 -0.5511  0.0464  1.0446
 5591TIP3    H138188   4.496   5.574   0.175 -0.9422 -0.1703  0.4773
 5591TIP3    H238189   4.546   5.716   0.192  0.5353 -0.7919  1.6293
 5592TIP3   OH238190   1.155   4.841  15.841 -0.0987  0.0006  0.1090
 5592TIP3    H138191   1.199   4.762  15.871 -0.4557  0.0331  0.7524
 5592TIP3    H238192   1.224   4.908  15.839 -0.1539  0.1242  1.4024
 5593TIP3   OH238193   2.257   5.040   5.351  0.4281 -0.1778 -0.2971
 5593TIP3    H138194   2.250   5.001   5.439 -1.7494 -0.1129 -0.3880
 5593TIP3    H238195   2.262   5.134   5.367  0.8544 -0.2119 -0.2226
 5594TIP3   OH238196   3.509   5.192  12.412 -0.2707  0.3053  0.0213
 5594TIP3    H138197   3.500   5.125  12.479 -0.9685 -0.8946 -1.2074
 5594TIP3    H238198   3.423   5.235  12.411 -0.0478  0.7623  0.3351
 5595TIP3   OH238199   3.459   1.790  17.013  0.3537  0.8224  0.0820
 5595TIP3    H138200   3.474   1.712  17.066 -0.6176  1.3909  1.2133
 5595TIP3    H238201   3.483   1.763  16.924 -1.5877 -1.2945  0.1331
 5596TIP3   OH238202   6.518   3.506  14.521 -0.5599  0.0340 -0.0717
 5596TIP3    H138203   6.554   3.466  14.600 -1.8652 -0.3625  0.3450
 5596TIP3    H238204   6.588   3.498  14.456 -0.4761 -2.1441  0.2375
 5597TIP3   OH238205   4.182   3.099   0.276  0.0599  0.5141  0.7322
 5597TIP3    H138206   4.168   3.119   0.183 -1.0200  0.9078  0.9663
 5597TIP3    H238207   4.174   3.184   0.320  1.1267  0.4162  1.1354
 5598TIP3   OH238208   4.305   6.102   3.315  0.4167  0.4697 -0.1305
 5598TIP3    H138209   4.295   6.113   3.409  0.7447  2.2771 -0.2805
 5598TIP3    H238210   4.270   6.183   3.277  0.8797  0.0453 -1.5245
 5599TIP3   OH238211   0.815   1.343   0.062  0.3081  0.0953 -0.2653
 5599TIP3    H138212   0.735   1.300   0.033  1.1884 -1.5545 -0.4105
 5599TIP3    H238213   0.839   1.402  -0.010  0.7152 -1.5272 -1.5285
 5600TIP3   OH238214   2.430   5.566   5.815 -0.3238  0.8647  0.3695
 5600TIP3    H138215   2.339   5.537   5.826  0.4669 -1.1379  2.5981
 5600TIP3    H238216   2.441   5.634   5.882 -0.0659  0.7890  0.4027
 5601TIP3   OH238217   5.956   3.190   1.641  0.0852  0.5711 -0.4258
 5601TIP3    H138218   5.916   3.251   1.579 -1.5873  0.4799  0.4997
 5601TIP3    H238219   5.882   3.142   1.678  0.8670  1.3047  2.3656
 5602TIP3   OH238220   6.195   2.987   0.032 -0.1844  0.3037 -0.6122
 5602TIP3    H138221   6.108   2.946   0.033  0.3069 -0.7767 -0.2689
 5602TIP3    H238222   6.186   3.062  -0.027 -2.6312  3.2068  3.0152
 5603TIP3   OH238223   0.863   6.653  16.683  0.2665 -0.0173 -0.8600
 5603TIP3    H138224   0.889   6.667  16.774 -1.0641 -0.0261 -0.4666
 5603TIP3    H238225   0.921   6.711  16.633 -0.0259  1.1611  0.1201
 5604TIP3   OH238226   0.582   4.597   5.448 -0.1011  0.1293 -0.3743
 5604TIP3    H138227   0.585   4.685   5.486  0.8593  1.2224 -2.7977
 5604TIP3    H238228   0.672   4.567   5.449 -0.4064 -0.8309  0.3175
 5605TIP3   OH238229   6.615   3.884   2.144 -0.0420  0.3046 -0.4152
 5605TIP3    H138230   6.672   3.939   2.200 -0.8135  0.1259  0.5724
 5605TIP3    H238231   6.541   3.940   2.124  0.2583  0.3843 -1.3384
 5606TIP3   OH238232   0.459   1.115  13.226  0.1877 -0.5174  0.0976
 5606TIP3    H138233   0.487   1.053  13.159  2.3275  0.2799  0.1766
 5606TIP3    H238234   0.449   1.198  13.178 -1.8784 -0.6943  0.1371
 5607TIP3   OH238235   4.819   0.733   3.392 -0.3584 -0.2404  0.6196
 5607TIP3    H138236   4.897   0.753   3.443 -0.3151  1.1925  0.0433
 5607TIP3    H238237   4.836   0.646   3.355  1.7341  0.7426 -0.8947
 5608TIP3   OH238238   4.890   5.016  11.880 -0.1300 -0.1952  0.3326
 5608TIP3    H138239   4.911   5.045  11.791 -1.2202  0.2794  0.2154
 5608TIP3    H238240   4.953   5.063  11.936 -0.0406  0.2264 -0.1131
 5609TIP3   OH238241   0.761   6.156  15.686  0.1413 -0.2602  0.6679
 5609TIP3    H138242   0.680   6.190  15.648  0.5489  0.9091  0.8249
 5609TIP3    H238243   0.810   6.122  15.611  0.1994  0.4787  0.3717
 5610TIP3   OH238244   2.684   1.967   2.051 -0.5481 -0.2108  0.5442
 5610TIP3    H138245   2.751   1.899   2.055 -0.2581 -0.0389 -0.8932
 5610TIP3    H238246   2.604   1.920   2.029 -0.4295 -0.1392 -0.0453
 5611TIP3   OH238247   1.716   6.243   5.309  0.0419  0.2633  0.3576
 5611TIP3    H138248   1.757   6.191   5.377  0.8606  1.1690  0.5773
 5611TIP3    H238249   1.624   6.250   5.335 -0.2264 -1.5406  0.0111
 5612TIP3   OH238250   4.373   4.252   4.155  0.4201  0.3598  0.1272
 5612TIP3    H138251   4.453   4.264   4.104  0.8695  1.1050  0.9772
 5612TIP3    H238252   4.311   4.315   4.119 -0.2263 -1.0456 -1.3434
 5613TIP3   OH238253   1.803   1.110   3.698 -0.2645  0.5342 -0.2374
 5613TIP3    H138254   1.796   1.123   3.604  1.2719  2.0170 -0.2180
 5613TIP3    H238255   1.769   1.191   3.736 -0.4954  0.1157  0.4783
 5614TIP3   OH238256   2.997   2.833  12.916 -0.0357 -0.1240  0.3313
 5614TIP3    H138257   3.070   2.895  12.920 -0.0916  0.0561 -1.1089
 5614TIP3    H238258   2.942   2.857  12.991  0.3158  1.0955  0.2273
 5615TIP3   OH238259   2.944   1.287  13.328 -0.3343  0.0766  0.0949
 5615TIP3    H138260   2.862   1.243  13.348 -0.1694 -0.8783 -1.2366
 5615TIP3    H238261   2.958   1.271  13.235  2.0076 -0.8935  0.5563
 5616TIP3   OH238262   0.647   5.323  12.159 -0.1888  0.1985 -0.2223
 5616TIP3    H138263   0.675   5.276  12.237 -0.0948  1.2754  0.4126
 5616TIP3    H238264   0.560   5.357  12.181  0.0807  1.0056 -0.3432
 5617TIP3   OH238265   1.426   6.465  15.986 -0.1219  0.2868  0.2598
 5617TIP3    H138266   1.374   6.425  16.055 -0.6800  1.3278  0.4742
 5617TIP3    H238267   1.393   6.555  15.980 -0.2240  0.1755 -1.4928
 5618TIP3   OH238268   2.813   4.272   4.024 -0.0202 -0.0793  0.5662
 5618TIP3    H138269   2.904   4.268   3.997 -0.2775  0.8624 -0.5305
 5618TIP3    H238270   2.768   4.208   3.968 -0.2945  0.7323 -0.1765
 5619TIP3   OH238271   6.714   3.407  16.159  0.2406 -0.0652 -0.5473
 5619TIP3    H138272   6.721   3.345  16.088 -0.1797 -0.6968 -0.0501
 5619TIP3    H238273   6.690   3.490  16.117 -2.2860 -0.9365 -0.9753
 5620TIP3   OH238274   5.454   3.914   1.345  0.1241  0.2956 -0.1483
 5620TIP3    H138275   5.425   3.998   1.382 -0.4938  0.3878 -0.8185
 5620TIP3    H238276   5.523   3.938   1.284  0.9382  0.1711  0.7024
 5621TIP3   OH238277   5.976   5.889   5.176 -0.4141  0.3296  0.0242
 5621TIP3    H138278   6.040   5.942   5.129  0.8274 -0.4875  0.7048
 5621TIP3    H238279   5.913   5.861   5.109 -1.1025  2.5968 -0.3343
 5622TIP3   OH238280   3.330   0.491  15.076  0.1271  0.0032 -0.3357
 5622TIP3    H138281   3.389   0.458  15.144  0.8001 -0.6903 -1.2356
 5622TIP3    H238282   3.387   0.513  15.003 -0.6787 -0.3316 -1.0923
 5623TIP3   OH238283   1.484   2.706   3.020  0.2031  0.1381 -0.3486
 5623TIP3    H138284   1.489   2.611   3.024  1.0042  0.2138  1.3994
 5623TIP3    H238285   1.541   2.730   2.948 -0.0744 -0.7101 -0.8594
 5624TIP3   OH238286   6.443   3.735   3.624 -0.2529  0.2127  0.2201
 5624TIP3    H138287   6.349   3.724   3.606 -0.4828  0.3088  1.2912
 5624TIP3    H238288   6.455   3.830   3.631  0.1086  0.2505 -0.7934
 5625TIP3   OH238289   0.215   0.191   1.355 -0.0288 -0.1190 -0.1828
 5625TIP3    H138290   0.310   0.202   1.349  0.2810 -1.2313  1.5874
 5625TIP3    H238291   0.202   0.096   1.347 -0.7486 -0.1991  1.4309
 5626TIP3   OH238292   2.126   6.228   4.204 -0.1103  0.5280 -0.0399
 5626TIP3    H138293   2.100   6.320   4.203  0.2095  0.6200  0.2502
 5626TIP3    H238294   2.165   6.214   4.118  0.9078  0.9690  0.3378
 5627TIP3   OH238295   1.864   6.618  17.110 -0.1901  0.1999  0.1686
 5627TIP3    H138296   1.870   6.523  17.114  0.3756  0.2461  0.5367
 5627TIP3    H238297   1.948   6.646  17.071 -0.6298  0.5090 -0.5788
 5628TIP3   OH238298   0.442   4.171  12.157 -0.6063 -0.4563 -0.2487
 5628TIP3    H138299   0.399   4.188  12.073  0.4163  0.5223 -0.6040
 5628TIP3    H238300   0.499   4.247  12.170 -0.2029 -0.9468  0.9827
 5629TIP3   OH238301   5.400   4.184   3.769  0.0268 -0.1312 -0.5580
 5629TIP3    H138302   5.353   4.129   3.831  0.7652  0.1518  0.2727
 5629TIP3    H238303   5.376   4.149   3.683 -2.2153  0.4113 -0.2159
 5630TIP3   OH238304   5.075   6.197   0.353 -0.1498 -0.5784  0.1130
 5630TIP3    H138305   5.025   6.261   0.302 -1.5128 -1.2933  0.4903
 5630TIP3    H238306   5.123   6.249   0.417  0.1106  0.1805 -0.6841
 5631TIP3   OH238307   5.460   6.007   2.210  0.2157  0.4071  0.2371
 5631TIP3    H138308   5.529   5.950   2.176  0.2233  0.6320 -0.1283
 5631TIP3    H238309   5.470   6.003   2.305  1.3606  1.2154  0.1671
 5632TIP3   OH238310   3.320   4.952   4.877  0.5195  0.2252 -0.2342
 5632TIP3    H138311   3.266   5.010   4.932  1.2507  1.2676 -0.5800
 5632TIP3    H238312   3.294   4.864   4.903  0.6168  0.6769  1.5841
 5633TIP3   OH238313   4.086   4.335  13.523 -0.6501  0.1717 -0.7065
 5633TIP3    H138314   4.150   4.405  13.509 -2.8849  1.9630 -3.0850
 5633TIP3    H238315   4.021   4.374  13.582 -0.9293 -0.6172 -0.4902
 5634TIP3   OH238316   1.801   1.229   0.600  0.2342  0.0432  0.0546
 5634TIP3    H138317   1.849   1.260   0.523  1.5310  0.0175  0.8270
 5634TIP3    H238318   1.791   1.135   0.586 -0.3379  0.1754 -0.4912
 5635TIP3   OH238319   4.410   5.932  16.183 -0.2325  0.3117 -0.0763
 5635TIP3    H138320   4.493   5.893  16.156  0.6110  0.7539  1.6909
 5635TIP3    H238321   4.431   6.024  16.201 -0.8959  0.2593  1.1147
 5636TIP3   OH238322   2.483   4.331  16.832 -0.5811 -0.1112  0.1293
 5636TIP3    H138323   2.417   4.333  16.762 -0.6891 -0.9973  0.1924
 5636TIP3    H238324   2.525   4.245  16.822  0.5611  0.4372  0.0999
 5637TIP3   OH238325   6.723   5.327   2.566  0.0960  0.4100  0.3239
 5637TIP3    H138326   6.801   5.279   2.540  0.0903  1.8087 -2.6412
 5637TIP3    H238327   6.711   5.393   2.498 -3.1769  0.8257  1.1216
 5638TIP3   OH238328   4.187   6.310  10.851  0.0431  0.4087 -0.9552
 5638TIP3    H138329   4.109   6.272  10.890 -0.3370  1.7336 -0.3607
 5638TIP3    H238330   4.155   6.360  10.776  0.2274  1.4210 -0.3807
 5639TIP3   OH238331   4.207   4.597  14.709 -0.0658 -0.1510  0.2279
 5639TIP3    H138332   4.124   4.549  14.717 -0.3031  0.3559  0.8435
 5639TIP3    H238333   4.208   4.657  14.783  0.7016  0.0898  0.0340
 5640TIP3   OH238334   5.908   5.745  12.072  0.1664  1.0095 -0.1143
 5640TIP3    H138335   5.985   5.800  12.089  0.5590  0.1356  1.1145
 5640TIP3    H238336   5.855   5.795  12.011  1.4357  1.8943 -0.5220
 5641TIP3   OH238337   3.059   5.642   3.955  0.1338  0.5610 -0.4487
 5641TIP3    H138338   3.114   5.673   4.027 -0.9018 -0.9244  1.0494
 5641TIP3    H238339   3.038   5.721   3.906  1.1796  1.5704  0.6585
 5642TIP3   OH238340   1.770   2.451  17.214  0.1199  0.7683 -0.0905
 5642TIP3    H138341   1.829   2.415  17.281  1.0757  1.6374 -0.4336
 5642TIP3    H238342   1.812   2.532  17.187 -1.6990  1.8879  0.2783
 5643TIP3   OH238343   4.576   3.762   1.965 -0.6247  0.5889  0.3574
 5643TIP3    H138344   4.611   3.717   2.042 -1.1058 -1.9529 -0.8173
 5643TIP3    H238345   4.523   3.834   2.002  0.7597  0.6894  2.3021
 5644TIP3   OH238346   1.751   1.614  14.015  0.1413 -0.1923  0.3117
 5644TIP3    H138347   1.662   1.586  13.992  0.5350 -0.4491 -0.9767
 5644TIP3    H238348   1.755   1.706  13.988  0.6670 -0.5474 -0.8709
 5645TIP3   OH238349   4.244   3.237   0.892 -0.5147 -0.4062  0.0818
 5645TIP3    H138350   4.288   3.152   0.906 -0.2014 -0.2782 -0.1190
 5645TIP3    H238351   4.191   3.224   0.814  0.7010  0.0282 -0.8474
 5646TIP3   OH238352   0.506   0.334  12.294  0.3163  0.4993  0.1314
 5646TIP3    H138353   0.427   0.317  12.243  1.4025 -2.2764 -0.8421
 5646TIP3    H238354   0.564   0.382  12.235 -0.2936  1.8007  0.5626
 5647TIP3   OH238355   5.576   2.531   5.484  0.1310  0.2622  0.0742
 5647TIP3    H138356   5.624   2.558   5.406 -1.1159 -0.3704 -0.9490
 5647TIP3    H238357   5.560   2.437   5.471 -0.9345  0.3556  0.6321
 5648TIP3   OH238358   5.065   4.151   0.403 -0.4331 -0.6520  0.9082
 5648TIP3    H138359   5.081   4.093   0.477  1.1310  0.3744  1.4394
 5648TIP3    H238360   5.153   4.172   0.370 -1.0580 -0.3740 -0.6735
 5649TIP3   OH238361   2.928   4.267  17.178  0.3868  0.3781 -0.6246
 5649TIP3    H138362   2.896   4.285  17.090 -0.7335 -0.9486 -0.5434
 5649TIP3    H238363   2.872   4.195  17.209  1.9384 -0.4291  0.4684
 5650TIP3   OH238364   2.903   1.162  11.719  0.0570  0.3573 -0.0193
 5650TIP3    H138365   2.958   1.181  11.644 -0.2737 -2.1551 -1.0095
 5650TIP3    H238366   2.814   1.170  11.687 -0.0957  0.3301  0.3910
 5651TIP3   OH238367   6.663   0.330   2.335 -0.4459  0.4264 -0.6274
 5651TIP3    H138368   6.646   0.236   2.332 -0.6537  0.4792 -1.3950
 5651TIP3    H238369   6.594   0.365   2.392 -0.2367  0.0878 -0.1703
 5652TIP3   OH238370   0.920   6.305   5.277 -0.7032  0.3591 -0.0699
 5652TIP3    H138371   0.954   6.375   5.221  0.3738  0.8295  1.1054
 5652TIP3    H238372   0.981   6.303   5.351 -0.0452 -2.5270 -0.5444
 5653TIP3   OH238373   6.147   4.416   4.277 -0.1902 -0.3364 -0.5595
 5653TIP3    H138374   6.128   4.328   4.308 -1.1668  0.1451  0.3059
 5653TIP3    H238375   6.241   4.417   4.260  0.0045 -1.2579  0.3727
 5654TIP3   OH238376   5.329   5.507   1.927 -0.8937 -0.1799 -0.4428
 5654TIP3    H138377   5.364   5.568   1.992  0.6111 -0.1823 -1.1892
 5654TIP3    H238378   5.264   5.557   1.879  0.9305  1.1994 -1.6220
 5655TIP3   OH238379   1.026   3.765  16.539  0.5469  0.1948  0.7398
 5655TIP3    H138380   1.119   3.748  16.551  0.6352  1.5230  2.2865
 5655TIP3    H238381   1.021   3.820  16.462  0.7124 -2.2240 -1.1316
 5656TIP3   OH238382   0.554   6.306   4.448 -0.0526  0.1130  0.6209
 5656TIP3    H138383   0.615   6.378   4.429  0.4936 -0.7557 -1.1741
 5656TIP3    H238384   0.493   6.343   4.512 -0.0015  2.3122 -0.4805
 5657TIP3   OH238385   6.729   1.175   3.913  0.0475 -0.9017  0.2346
 5657TIP3    H138386   6.684   1.214   3.838 -0.0219 -0.3868  0.5409
 5657TIP3    H238387   6.777   1.101   3.876  0.9325  0.0143 -0.5278
 5658TIP3   OH238388   6.658   1.561  10.996 -0.3043  0.5126 -0.1875
 5658TIP3    H138389   6.672   1.645  10.952  1.1664 -0.4370 -1.6596
 5658TIP3    H238390   6.599   1.513  10.937  1.0775 -0.4948 -0.7846
 5659TIP3   OH238391   4.275   2.816  15.013  0.5328 -0.6313 -0.1640
 5659TIP3    H138392   4.259   2.764  14.934 -2.3851 -1.0751  0.6013
 5659TIP3    H238393   4.224   2.896  15.000 -0.3367 -0.8922  1.3993
 5660TIP3   OH238394   3.348   3.681  14.648 -0.1622 -0.2868  0.5316
 5660TIP3    H138395   3.359   3.651  14.558  0.2811 -0.3195  0.5945
 5660TIP3    H238396   3.273   3.740  14.645  0.4428  0.4609 -0.0389
 5661TIP3   OH238397   3.392   3.149  12.837 -0.0785  0.3634 -0.4466
 5661TIP3    H138398   3.390   3.244  12.849 -0.9761  0.2787  0.1931
 5661TIP3    H238399   3.391   3.137  12.742 -1.4331  0.9886 -0.5377
 5662TIP3   OH238400   5.887   0.011   6.359  0.0310 -0.5867  0.0778
 5662TIP3    H138401   5.870  -0.066   6.304  0.6991  0.1586 -1.1906
 5662TIP3    H238402   5.808   0.064   6.350  0.2130 -0.3815 -0.2931
 5663TIP3   OH238403   0.225   4.172  13.738 -0.1835  0.1429 -0.7604
 5663TIP3    H138404   0.163   4.100  13.723 -0.8647  0.5142  0.1351
 5663TIP3    H238405   0.205   4.236  13.670 -2.7603  1.5123  1.0778
 5664TIP3   OH238406   3.620   4.646  11.604  0.1232 -0.1216 -0.4418
 5664TIP3    H138407   3.567   4.707  11.656  0.0012 -0.2726 -0.3885
 5664TIP3    H238408   3.701   4.636  11.654  0.4825  0.6321 -0.8563
 5665TIP3   OH238409   5.713   2.102   4.646  0.0050  0.0735 -0.3520
 5665TIP3    H138410   5.800   2.129   4.675 -0.3619  1.5767 -0.5979
 5665TIP3    H238411   5.711   2.121   4.552 -0.2640 -0.8673 -0.5498
 5666TIP3   OH238412   0.651   3.411   1.933  0.4616  0.0166 -0.1484
 5666TIP3    H138413   0.683   3.331   1.892  0.4099  0.5288 -1.2150
 5666TIP3    H238414   0.586   3.445   1.872  0.7755  1.0775  0.0881
 5667TIP3   OH238415   1.861   4.729  15.506  0.3628 -0.3232 -0.2794
 5667TIP3    H138416   1.873   4.651  15.560 -1.0312 -0.5889 -0.3212
 5667TIP3    H238417   1.822   4.696  15.425  0.2070  0.3572 -0.4848
 5668TIP3   OH238418   1.735   0.619   3.070 -0.3926  0.3522  0.6762
 5668TIP3    H138419   1.782   0.588   3.147  0.2869  2.0258  0.9896
 5668TIP3    H238420   1.797   0.606   2.998 -0.4136  0.2406  0.6785
 5669TIP3   OH238421   3.002   4.785  13.501  0.7354  0.0134  0.2973
 5669TIP3    H138422   2.998   4.871  13.542 -0.9867 -1.6861  4.1367
 5669TIP3    H238423   2.913   4.749  13.510  1.1982 -1.9617 -1.8249
 5670TIP3   OH238424   6.693   4.911  17.080  0.5993 -0.0442  0.6483
 5670TIP3    H138425   6.732   4.957  17.155  0.5990  3.6305 -1.3795
 5670TIP3    H238426   6.769   4.882  17.029  0.7290  1.6137 -0.1784
 5671TIP3   OH238427   1.340   3.245   2.668  0.2899 -0.0444  0.0092
 5671TIP3    H138428   1.346   3.339   2.651  1.0861  0.0582  0.7545
 5671TIP3    H238429   1.295   3.209   2.592 -0.7081  1.0458  0.0625
 5672TIP3   OH238430   1.250   6.177   1.504 -0.3566  0.0568  0.8137
 5672TIP3    H138431   1.254   6.264   1.464  0.3933 -0.7565 -0.9660
 5672TIP3    H238432   1.329   6.171   1.557 -0.4643  0.4751  1.0323
 5673TIP3   OH238433   6.122   0.726   2.208 -0.3455  0.4425 -0.4654
 5673TIP3    H138434   6.061   0.798   2.188 -2.3841 -0.7208  1.1265
 5673TIP3    H238435   6.089   0.689   2.290  0.7461 -2.1845 -1.1152
 5674TIP3   OH238436   5.077   5.963  16.977 -0.3272 -0.4983  0.5613
 5674TIP3    H138437   5.161   5.972  16.933 -0.9797  0.5379 -0.5263
 5674TIP3    H238438   5.074   5.871  17.004  0.9769 -0.6420  0.2860
 5675TIP3   OH238439   3.443   2.823  14.444 -0.3639 -0.4398  0.3473
 5675TIP3    H138440   3.504   2.753  14.469 -0.8269 -1.1757 -0.5549
 5675TIP3    H238441   3.444   2.824  14.349 -2.1471 -0.8226  0.2854
 5676TIP3   OH238442   3.306   2.966   4.671  0.2066 -0.1615  0.2129
 5676TIP3    H138443   3.386   3.001   4.712 -1.0759  0.5169  2.2668
 5676TIP3    H238444   3.252   3.043   4.655 -0.4497 -0.7169 -0.2754
 5677TIP3   OH238445   4.007   1.625  13.022  0.3386 -0.1925 -0.4958
 5677TIP3    H138446   3.921   1.661  13.005  0.0470 -0.8275 -0.4175
 5677TIP3    H238447   4.002   1.590  13.111  0.8015  0.1272 -0.3396
 5678TIP3   OH238448   2.742   5.925   0.716 -0.3029 -0.4943 -0.2899
 5678TIP3    H138449   2.767   5.872   0.791 -0.2502 -0.1749 -0.0804
 5678TIP3    H238450   2.650   5.902   0.700 -0.7386  0.4206  0.7241
 5679TIP3   OH238451   2.281   4.555   2.556 -0.1249 -0.2175 -0.2558
 5679TIP3    H138452   2.222   4.613   2.507  0.2769  0.1278 -0.3314
 5679TIP3    H238453   2.231   4.531   2.634  0.0721  1.0305  0.2763
 5680TIP3   OH238454   4.011   5.501   2.825 -0.1275 -0.3032 -0.2749
 5680TIP3    H138455   4.034   5.410   2.806 -1.1122 -0.6864  0.3015
 5680TIP3    H238456   3.966   5.531   2.746  0.7208 -0.1040 -0.7048
 5681TIP3   OH238457   2.824   1.517  12.132 -0.2880 -0.2680 -0.4838
 5681TIP3    H138458   2.829   1.431  12.174  0.3435  0.0598  0.1426
 5681TIP3    H238459   2.734   1.546  12.145 -0.0624 -0.0958  0.8270
 5682TIP3   OH238460   3.470   0.299   4.993 -0.5098  0.3467 -0.0586
 5682TIP3    H138461   3.554   0.283   4.950  0.1349  0.3158  1.1775
 5682TIP3    H238462   3.435   0.377   4.949  0.4618  0.7401 -0.1469
 5683TIP3   OH238463   2.224   5.446  12.829 -0.3713  0.2805  0.2354
 5683TIP3    H138464   2.195   5.518  12.774  2.6455  0.8545 -0.7634
 5683TIP3    H238465   2.258   5.487  12.908 -1.3129 -0.3058  0.9779
 5684TIP3   OH238466   1.960   4.519  11.533  0.3562  0.3112 -0.3732
 5684TIP3    H138467   1.967   4.477  11.447 -0.0200  0.0596 -0.2821
 5684TIP3    H238468   1.962   4.613  11.513 -1.8409  0.3030 -0.8769
 5685TIP3   OH238469   0.421   6.534   0.305 -0.2700 -0.9440 -0.1489
 5685TIP3    H138470   0.444   6.454   0.257  2.6649  0.2016 -0.9107
 5685TIP3    H238471   0.476   6.531   0.383 -1.1099 -0.2913  0.4790
 5686TIP3   OH238472   5.053   2.176   4.035  0.1402  0.4581 -0.4374
 5686TIP3    H138473   4.996   2.108   3.998 -0.3458  0.5817  0.0732
 5686TIP3    H238474   4.993   2.245   4.063  0.5144  0.4635  0.3704
 5687TIP3   OH238475   6.554   4.148   4.972 -0.1164  0.1024 -0.1857
 5687TIP3    H138476   6.616   4.129   5.042 -1.1066 -0.7714  0.4836
 5687TIP3    H238477   6.553   4.068   4.919 -0.8953 -0.0180 -0.0005
 5688TIP3   OH238478   3.039   2.375   0.130  0.3297 -0.3184  0.0863
 5688TIP3    H138479   2.976   2.416   0.189 -0.0160 -0.5972 -0.0850
 5688TIP3    H238480   3.104   2.335   0.187  2.3568  2.9537  0.2939
 5689TIP3   OH238481   4.739   3.091  16.302  0.9375 -0.2704  0.0610
 5689TIP3    H138482   4.683   3.152  16.351 -1.2833 -1.9713 -0.2030
 5689TIP3    H238483   4.718   3.107  16.210  1.3474 -0.5167 -0.0778
 5690TIP3   OH238484   4.265   0.349   2.954 -0.2248  0.2795 -0.4568
 5690TIP3    H138485   4.221   0.274   2.914  1.0042  0.6671 -2.7313
 5690TIP3    H238486   4.357   0.325   2.956 -0.1524  0.5196  1.7894
 5691TIP3   OH238487   4.235   2.840  12.068  0.2730  0.0472  0.0290
 5691TIP3    H138488   4.238   2.899  12.143 -2.3108 -0.2209  0.4541
 5691TIP3    H238489   4.234   2.897  11.992  0.6114  0.4137  0.2957
 5692TIP3   OH238490   6.156   6.614   4.383  0.1098  0.1851  0.0861
 5692TIP3    H138491   6.209   6.551   4.335  1.8625  1.7846 -0.1917
 5692TIP3    H238492   6.104   6.561   4.443  1.9309 -1.4921  0.2766
 5693TIP3   OH238493   6.082   4.604  12.600 -0.2337 -0.1863  0.1175
 5693TIP3    H138494   6.047   4.655  12.674 -0.9367  0.3121 -0.5475
 5693TIP3    H238495   6.065   4.659  12.524  1.9554  0.0573 -0.2603
 5694TIP3   OH238496   3.231   4.771   6.561 -0.1877  0.2606  0.0366
 5694TIP3    H138497   3.294   4.842   6.578  0.7496  0.0070 -2.0846
 5694TIP3    H238498   3.286   4.695   6.543 -1.1800 -0.7550  1.1173
 5695TIP3   OH238499   2.853   4.976  13.255  0.6643  0.2833  0.1969
 5695TIP3    H138500   2.798   4.934  13.321  0.3390  0.4774  0.0503
 5695TIP3    H238501   2.863   4.909  13.187 -1.0538  0.9104 -0.7206
 5696TIP3   OH238502   6.438   1.764  15.682 -0.3709 -0.3961  0.0018
 5696TIP3    H138503   6.418   1.684  15.732  0.2390 -0.7593 -0.3220
 5696TIP3    H238504   6.463   1.828  15.749  0.3040 -0.8353  0.1746
 5697TIP3   OH238505   4.356   1.081  14.353 -0.1791  0.8698 -0.3064
 5697TIP3    H138506   4.335   1.072  14.446  2.3269  2.3234  0.4966
 5697TIP3    H238507   4.281   1.129  14.316 -1.2449  0.1885  0.8933
 5698TIP3   OH238508   4.654   4.254  16.652 -0.7630 -0.1831 -0.0265
 5698TIP3    H138509   4.602   4.329  16.680 -0.5709  0.2238 -0.7129
 5698TIP3    H238510   4.727   4.293  16.602  0.8690 -0.6464  1.8646
 5699TIP3   OH238511   2.828   4.264   1.090  0.1897 -0.4483 -0.4742
 5699TIP3    H138512   2.847   4.211   1.013  2.1531 -1.9800  0.9722
 5699TIP3    H238513   2.858   4.211   1.164 -2.1086  0.7121  1.4269
 5700TIP3   OH238514   6.625   0.058  15.535 -0.0852 -0.2345 -0.1158
 5700TIP3    H138515   6.660   0.103  15.458  0.2240 -1.9646 -1.0405
 5700TIP3    H238516   6.701   0.040  15.590  0.2136 -1.8583 -0.9869
 5701TIP3   OH238517   0.731   6.426  16.381 -0.0031  0.3440 -0.4159
 5701TIP3    H138518   0.712   6.341  16.341 -0.4159  0.1654  0.1457
 5701TIP3    H238519   0.648   6.455  16.418  1.1182 -1.7592  4.6176
 5702TIP3   OH238520   6.447   4.966   5.459 -0.1412  0.0407  0.1105
 5702TIP3    H138521   6.412   4.939   5.543  0.9254 -2.7251 -0.2195
 5702TIP3    H238522   6.541   4.955   5.467 -0.0295 -0.5302 -1.4884
 5703TIP3   OH238523   2.103   0.605  11.748  0.0865 -0.2258  0.0072
 5703TIP3    H138524   2.041   0.565  11.686  1.3190 -0.7263 -0.9514
 5703TIP3    H238525   2.105   0.697  11.724  0.1466 -0.3173 -0.3415
 5704TIP3   OH238526   1.000   4.578  12.219 -0.0827 -0.3909  0.0926
 5704TIP3    H138527   1.049   4.605  12.141 -0.3366 -0.1711  0.0069
 5704TIP3    H238528   0.912   4.561  12.187 -0.5892  1.1532  0.5745
 5705TIP3   OH238529   1.946   5.467   6.231  0.3345  0.1498  0.1841
 5705TIP3    H138530   1.900   5.432   6.307  0.6393 -0.4673  0.0892
 5705TIP3    H238531   1.891   5.446   6.156 -0.1703  1.1246  0.2671
 5706TIP3   OH238532   1.320   2.742   2.524  0.7719 -0.2019 -0.0834
 5706TIP3    H138533   1.238   2.718   2.480  1.5763 -1.6293 -0.8766
 5706TIP3    H238534   1.356   2.659   2.555  1.8804  0.4111  0.3328
 5707TIP3   OH238535   4.046   2.025  13.031  0.1347 -0.1628 -0.4817
 5707TIP3    H138536   3.994   1.968  13.087  0.5190 -0.2198 -0.1798
 5707TIP3    H238537   4.062   1.974  12.952 -3.1167  1.0277 -2.0810
 5708TIP3   OH238538   3.495   1.035   0.699 -0.3540 -0.0423  0.0094
 5708TIP3    H138539   3.577   1.079   0.677  0.3373 -0.9396  0.7451
 5708TIP3    H238540   3.490   1.038   0.795 -1.5006  0.5564 -0.0459
 5709TIP3   OH238541   1.497   3.946  14.847 -0.2382 -0.3014 -0.1003
 5709TIP3    H138542   1.556   3.986  14.912 -0.3880  1.8369 -1.1865
 5709TIP3    H238543   1.555   3.894  14.791  0.7515  1.8770 -1.2374
 5710TIP3   OH238544   3.266   4.148  15.630  0.7195 -0.3153 -0.7208
 5710TIP3    H138545   3.190   4.163  15.686 -0.7848  0.9242 -2.9462
 5710TIP3    H238546   3.256   4.057  15.601  1.7595 -1.1274  1.2212
 5711TIP3   OH238547   0.802   0.100   0.658  0.7846 -0.1648  0.3010
 5711TIP3    H138548   0.712   0.131   0.667  0.4416 -0.0243 -2.5858
 5711TIP3    H238549   0.852   0.179   0.638  1.4535 -0.3465  1.2044
 5712TIP3   OH238550   5.085   2.304   3.772 -0.0047  0.0352  0.1068
 5712TIP3    H138551   5.144   2.321   3.846  0.9805 -0.7227 -0.4839
 5712TIP3    H238552   5.032   2.230   3.800 -0.4592  0.5025  0.5057
 5713TIP3   OH238553   3.334   6.613   4.299 -0.1043 -0.3553  0.1311
 5713TIP3    H138554   3.418   6.578   4.329 -0.6522 -2.6221 -0.7462
 5713TIP3    H238555   3.307   6.673   4.368  1.6409 -0.5324  1.0290
 5714TIP3   OH238556   2.766   3.955  11.684  0.1820 -0.2496  0.3252
 5714TIP3    H138557   2.823   3.894  11.637  1.4369  1.1072  0.0067
 5714TIP3    H238558   2.678   3.932  11.655  0.6833 -1.3891 -0.3742
 5715TIP3   OH238559   3.592   3.264  13.405  0.0439  0.6495 -0.1566
 5715TIP3    H138560   3.611   3.225  13.491  4.2342  0.6625 -0.8565
 5715TIP3    H238561   3.650   3.340  13.400  0.9865 -0.1307 -3.4902
 5716TIP3   OH238562   0.959   6.800   6.365  0.1513  0.0369 -0.0476
 5716TIP3    H138563   0.880   6.854   6.357  0.7771  0.9010 -0.5876
 5716TIP3    H238564   1.021   6.856   6.412  0.2665 -0.8423  0.8606
 5717TIP3   OH238565   1.682   0.688   2.059  0.1967  0.5401 -0.6356
 5717TIP3    H138566   1.722   0.713   1.976  1.2327 -0.2965 -0.4053
 5717TIP3    H238567   1.693   0.593   2.064  0.0335  0.5639  0.3983
 5718TIP3   OH238568   4.941   6.639   3.683  0.3141  0.6794 -0.2669
 5718TIP3    H138569   5.026   6.608   3.716 -0.2362 -0.9132 -0.2974
 5718TIP3    H238570   4.942   6.619   3.590 -1.4875 -2.8850  0.3067
 5719TIP3   OH238571   4.341   3.606   2.930 -1.1032  0.2180 -0.7185
 5719TIP3    H138572   4.431   3.588   2.959 -1.2884  1.1461  0.5021
 5719TIP3    H238573   4.288   3.539   2.973 -1.5319  2.2419  2.2304
 5720TIP3   OH238574   2.574   1.407  12.995 -0.4010 -0.1818 -0.4361
 5720TIP3    H138575   2.532   1.478  12.946  1.1229  1.2590  0.2376
 5720TIP3    H238576   2.661   1.441  13.017 -0.5664 -1.1947  2.1924
 5721TIP3   OH238577   0.077   2.972  13.226 -0.2033 -0.0702  0.3470
 5721TIP3    H138578   0.056   2.951  13.135 -1.7601  2.2265  0.1063
 5721TIP3    H238579   0.162   3.015  13.222 -1.5145  2.6574 -0.5066
 5722TIP3   OH238580   5.596   1.677   2.517 -0.0943  0.4702  0.3135
 5722TIP3    H138581   5.631   1.751   2.568  0.9019 -0.8986  1.7217
 5722TIP3    H238582   5.544   1.627   2.581  2.5840 -2.2469  0.5663
 5723TIP3   OH238583   2.712   1.667  16.885 -0.6092  0.3634  0.4990
 5723TIP3    H138584   2.674   1.747  16.921  2.0751  1.9538  0.0599
 5723TIP3    H238585   2.751   1.693  16.802 -0.9108 -1.7608 -0.3920
 5724TIP3   OH238586   2.691   4.085  12.580 -0.3764 -0.1191  0.7198
 5724TIP3    H138587   2.766   4.081  12.639 -0.2035  0.8210  0.5845
 5724TIP3    H238588   2.704   4.166  12.531 -0.3284 -1.0638 -0.8766
 5725TIP3   OH238589   6.360   6.067  12.715  0.5986 -0.6011  0.6271
 5725TIP3    H138590   6.455   6.061  12.724  0.8295 -2.0609 -1.8266
 5725TIP3    H238591   6.328   5.982  12.743  0.1752 -0.6681 -0.0456
 5726TIP3   OH238592   3.453   4.475   3.719  0.1393  0.1797 -0.0896
 5726TIP3    H138593   3.508   4.492   3.796 -0.4144  2.3454 -0.1053
 5726TIP3    H238594   3.508   4.495   3.644  0.2615 -0.6428 -0.2307
 5727TIP3   OH238595   2.094   4.404  10.731  0.0909  0.1010  0.1886
 5727TIP3    H138596   2.015   4.451  10.759  0.2702  0.3167  0.3305
 5727TIP3    H238597   2.062   4.342  10.665 -0.6180 -1.5811  2.0077
 5728TIP3   OH238598   3.341   5.458   5.078 -0.1147 -0.5802  0.2215
 5728TIP3    H138599   3.330   5.456   5.173 -2.3026  3.8125  0.3185
 5728TIP3    H238600   3.252   5.462   5.044  0.6275 -1.7580 -2.0936
 5729TIP3   OH238601   6.457   5.133  11.337  0.1076  0.6674  0.0679
 5729TIP3    H138602   6.403   5.177  11.403 -1.6437 -2.4447  0.9327
 5729TIP3    H238603   6.529   5.095  11.386  0.5106  0.8966 -0.3408
 5730TIP3   OH238604   0.343   5.981   0.845  0.1787 -0.1046 -0.4682
 5730TIP3    H138605   0.257   6.019   0.861  0.4707 -0.4869  2.6228
 5730TIP3    H238606   0.328   5.886   0.848  0.4711 -0.1994 -1.6091
 5731TIP3   OH238607   1.603   2.824  16.323  0.7765  0.0587  0.5345
 5731TIP3    H138608   1.605   2.748  16.380  0.3993 -0.4985 -0.1674
 5731TIP3    H238609   1.511   2.832  16.297  0.5486  1.5875  1.6687
 5732TIP3   OH238610   0.671   3.746  16.214  0.3512  0.4726  0.0914
 5732TIP3    H138611   0.651   3.837  16.193 -1.5473  0.1810  0.4109
 5732TIP3    H238612   0.611   3.695  16.159  1.2731 -0.5925  0.0346
 5733TIP3   OH238613   5.880   4.102   1.704 -0.3792 -0.0238 -0.1491
 5733TIP3    H138614   5.918   4.149   1.778  1.7297 -0.8510 -0.6143
 5733TIP3    H238615   5.786   4.114   1.713 -0.1954 -0.0367  2.6317
 5734TIP3   OH238616   5.326   1.243   4.458 -0.2557  0.3658  0.0151
 5734TIP3    H138617   5.305   1.335   4.442 -0.3382  0.1323 -1.2715
 5734TIP3    H238618   5.256   1.195   4.415  1.3288 -0.3586 -1.8525
 5735TIP3   OH238619   0.043   6.020  14.960  0.1762 -0.3121 -0.2709
 5735TIP3    H138620   0.075   6.080  15.027 -0.7309 -0.3066  0.1791
 5735TIP3    H238621  -0.049   6.046  14.948  0.2632 -0.4733 -1.3394
 5736TIP3   OH238622   0.626   5.153  15.540 -0.0208 -0.3969 -0.6200
 5736TIP3    H138623   0.585   5.072  15.569  0.2103 -0.8692 -1.5948
 5736TIP3    H238624   0.719   5.132  15.533  0.5403  0.7983  2.0405
 5737TIP3   OH238625   2.918   4.685   5.629 -0.4733 -0.6433  0.0721
 5737TIP3    H138626   2.907   4.676   5.535 -0.9706 -0.4363  0.1108
 5737TIP3    H238627   3.010   4.710   5.640 -0.9025  1.3719 -0.5019
 5738TIP3   OH238628   3.427   6.328   3.341 -0.0483  0.2412  0.4051
 5738TIP3    H138629   3.482   6.259   3.377 -0.8369  0.8406  3.0657
 5738TIP3    H238630   3.483   6.405   3.339  0.1588  0.0752 -0.2184
 5739TIP3   OH238631   6.785   0.446  10.516  0.0080 -0.2629 -0.2543
 5739TIP3    H138632   6.725   0.374  10.494  0.7148 -1.0105  0.2135
 5739TIP3    H238633   6.813   0.480  10.431 -1.0226  0.0648 -0.4818
 5740TIP3   OH238634   2.942   0.942  12.808 -0.4575  0.2186  0.1009
 5740TIP3    H138635   2.914   1.018  12.859 -3.0877  0.5330 -1.5822
 5740TIP3    H238636   2.941   0.973  12.717 -2.0695 -1.8816 -0.6873
 5741TIP3   OH238637   3.334   4.007  15.018 -0.0294  0.2470 -0.5136
 5741TIP3    H138638   3.321   3.966  15.104 -0.8161 -0.6781 -1.0544
 5741TIP3    H238639   3.428   4.019  15.011  0.0457  0.3520  0.4860
 5742TIP3   OH238640   1.140   0.881  16.409 -0.1471  0.3343  0.6576
 5742TIP3    H138641   1.170   0.802  16.365 -2.2789 -0.1402 -0.0873
 5742TIP3    H238642   1.216   0.940  16.409  0.4437 -0.3002 -2.1106
 5743TIP3   OH238643   4.689   1.811   3.271 -0.6033 -0.4514  0.1689
 5743TIP3    H138644   4.624   1.816   3.341  0.7071  0.9072  1.3578
 5743TIP3    H238645   4.659   1.876   3.207  0.3880  1.4129  1.4987
 5744TIP3   OH238646   2.659   6.749  13.807 -0.0839 -0.7424 -0.0043
 5744TIP3    H138647   2.731   6.809  13.827  0.8987 -1.8878  0.0329
 5744TIP3    H238648   2.595   6.802  13.760  1.8482 -0.2094 -2.1824
 5745TIP3   OH238649   3.055   6.670  16.420  0.0584 -0.2302  0.2908
 5745TIP3    H138650   3.079   6.746  16.366 -0.1967  1.0141  1.8440
 5745TIP3    H238651   2.963   6.684  16.440 -0.7737 -2.4371 -1.6465
 5746TIP3   OH238652   0.439   5.627   4.572  0.2488  0.1408  0.3778
 5746TIP3    H138653   0.465   5.537   4.553  1.1614  0.0857  1.7410
 5746TIP3    H238654   0.444   5.672   4.488 -1.0275 -1.2508 -0.4815
 5747TIP3   OH238655   2.349   1.953  16.839 -0.1515  0.0767  0.1642
 5747TIP3    H138656   2.277   1.893  16.819 -0.6356  1.0258 -1.1379
 5747TIP3    H238657   2.427   1.898  16.841 -0.7673 -0.7985  0.4051
 5748TIP3   OH238658   4.738   6.630  13.925 -0.0963  0.0770 -0.0596
 5748TIP3    H138659   4.689   6.646  13.844 -2.0924  2.1277  1.4276
 5748TIP3    H238660   4.687   6.563  13.971  0.1249  0.1063  0.2325
 5749TIP3   OH238661   5.309   4.310   5.410  0.1526 -0.0065  0.4434
 5749TIP3    H138662   5.304   4.405   5.418 -0.8385 -0.0293  0.2959
 5749TIP3    H238663   5.282   4.292   5.319 -1.2113 -0.5097  0.9269
 5750TIP3   OH238664   6.582   5.770   0.338 -0.3194  0.3899  0.4397
 5750TIP3    H138665   6.646   5.709   0.302 -1.2299 -0.3623  0.0501
 5750TIP3    H238666   6.583   5.752   0.433 -0.3723 -0.0361  0.3634
 5751TIP3   OH238667   3.267   1.339  17.232  0.1648 -0.4587  0.5164
 5751TIP3    H138668   3.241   1.372  17.318 -0.4293 -0.2561  0.2608
 5751TIP3    H238669   3.297   1.249  17.250  1.2518 -0.0044  1.1204
 5752TIP3   OH238670   3.535   5.945  11.428 -0.1209  0.4378 -0.0444
 5752TIP3    H138671   3.469   5.882  11.458  1.0875 -1.7827 -1.7026
 5752TIP3    H238672   3.608   5.933  11.488 -0.3118  1.0942  0.3177
 5753TIP3   OH238673   3.496   0.580  16.497 -0.4916 -0.1320 -0.0621
 5753TIP3    H138674   3.449   0.664  16.493 -1.7814 -0.6435  2.4688
 5753TIP3    H238675   3.529   0.568  16.408 -4.5867  0.6497 -1.9729
 5754TIP3   OH238676   4.169   3.988  11.694 -0.0153 -0.0828 -0.0076
 5754TIP3    H138677   4.081   3.968  11.725  0.2478  0.4963  1.1606
 5754TIP3    H238678   4.223   3.987  11.773  1.1028 -0.7883 -0.7550
 5755TIP3   OH238679   2.158   3.927   5.484  0.2426 -0.1258 -0.3780
 5755TIP3    H138680   2.151   3.987   5.410 -1.2180 -0.8257 -0.8438
 5755TIP3    H238681   2.197   3.980   5.554  0.2679  0.9648 -1.1869
 5756TIP3   OH238682   3.502   5.158   5.004  0.4078 -0.2376  0.0566
 5756TIP3    H138683   3.461   5.098   4.942 -0.0889  0.1980 -0.0441
 5756TIP3    H238684   3.528   5.103   5.077 -3.0502 -0.1618  1.5088
 5757TIP3   OH238685   4.964   5.198   5.121 -0.2276  0.1778  0.1677
 5757TIP3    H138686   4.952   5.229   5.211  1.1607 -1.3090  0.9245
 5757TIP3    H238687   5.016   5.266   5.079 -0.1996  0.5155  0.7411
 5758TIP3   OH238688   1.096   3.195  16.559  0.4522 -0.1650  0.6559
 5758TIP3    H138689   1.007   3.190  16.525  0.3697  0.7015  0.7125
 5758TIP3    H238690   1.102   3.283  16.597  1.9231  0.5296 -1.0249
 5759TIP3   OH238691   6.494   5.810   5.646  0.8281  0.0158  0.3021
 5759TIP3    H138692   6.561   5.823   5.712  0.5116 -0.6774  0.7685
 5759TIP3    H238693   6.473   5.717   5.651 -0.6301  0.3341  0.6132
 5760TIP3   OH238694   0.597   2.447   4.525 -0.0909 -0.7772 -0.1464
 5760TIP3    H138695   0.545   2.519   4.489  0.0482 -1.1244 -1.0688
 5760TIP3    H238696   0.577   2.372   4.469  1.3457 -0.9316 -0.4802
 5761TIP3   OH238697   5.292   1.151   1.586  0.5369  0.3342  0.2330
 5761TIP3    H138698   5.327   1.218   1.527  0.2248  0.8713  0.6506
 5761TIP3    H238699   5.201   1.140   1.559  0.9734 -1.0430 -0.8350
 5762TIP3   OH238700   5.541   3.551   4.558 -0.2567 -0.5173 -0.2828
 5762TIP3    H138701   5.509   3.542   4.647 -0.3495  0.6244 -0.1888
 5762TIP3    H238702   5.633   3.577   4.568 -0.9291  2.2423 -0.4242
 5763TIP3   OH238703   2.882   5.101  11.874 -0.3466  0.3390 -0.4737
 5763TIP3    H138704   2.811   5.042  11.901  0.8499 -1.5831 -1.3309
 5763TIP3    H238705   2.870   5.179  11.929 -2.1437 -0.5787  0.5410
 5764TIP3   OH238706   5.170   1.631  11.570 -0.7301  0.0784 -0.2198
 5764TIP3    H138707   5.163   1.630  11.665 -0.2425 -1.2726 -0.1847
 5764TIP3    H238708   5.135   1.717  11.545  0.1019  0.8862  1.2306
 5765TIP3   OH238709   6.487   4.130   3.383 -0.2070  0.1234 -0.4495
 5765TIP3    H138710   6.557   4.181   3.424 -0.6102 -0.3551  0.8833
 5765TIP3    H238711   6.427   4.196   3.348  0.2111  0.5462 -0.3840
 5766TIP3   OH238712   4.536   0.301  14.893 -0.2964 -0.2336  0.2085
 5766TIP3    H138713   4.487   0.229  14.932 -0.9261  0.7650  1.3336
 5766TIP3    H238714   4.606   0.319  14.955 -1.5337  1.6275  1.1496
 5767TIP3   OH238715   6.439   0.350  12.843 -0.5623  0.6310 -0.5610
 5767TIP3    H138716   6.518   0.379  12.796 -0.5925 -1.5722 -2.1593
 5767TIP3    H238717   6.384   0.428  12.848  1.0128  1.8283 -0.8848
 5768TIP3   OH238718   4.465   3.694  12.817 -0.1740 -0.5846 -0.5461
 5768TIP3    H138719   4.384   3.685  12.868  0.2853 -0.0846  0.2898
 5768TIP3    H238720   4.508   3.772  12.852  1.1387 -1.3728 -0.3060
 5769TIP3   OH238721   2.038   4.362   3.289 -0.3435  1.0390 -0.0482
 5769TIP3    H138722   2.018   4.360   3.383 -1.3396  0.1529 -0.2624
 5769TIP3    H238723   2.058   4.271   3.267 -0.2660  1.2167 -0.7346
 5770TIP3   OH238724   2.587   5.867  14.506  0.4532  0.1142  0.3993
 5770TIP3    H138725   2.676   5.886  14.535  1.3012 -0.5030 -1.5877
 5770TIP3    H238726   2.588   5.774  14.484 -0.5843  0.1777  0.0320
 5771TIP3   OH238727   4.957   4.414   5.521  0.3973 -0.5541 -0.6573
 5771TIP3    H138728   4.986   4.353   5.589  0.9019 -0.5051 -0.8255
 5771TIP3    H238729   5.038   4.454   5.488  0.0178  0.8100  0.0020
 5772TIP3   OH238730   0.267   6.299  10.972  0.4520  0.2130  0.6938
 5772TIP3    H138731   0.338   6.295  11.035 -0.0361 -0.7990  1.2062
 5772TIP3    H238732   0.282   6.380  10.923  1.9796 -0.0232  0.7409
 5773TIP3   OH238733   2.888   0.773  14.189  0.3651  0.8713  0.1407
 5773TIP3    H138734   2.932   0.835  14.130  1.6998 -1.1090 -1.0482
 5773TIP3    H238735   2.960   0.726  14.232 -0.6050 -0.2034  0.6323
 5774TIP3   OH238736   0.249   0.918  12.407 -0.2488  0.3723  0.5694
 5774TIP3    H138737   0.246   0.854  12.478  2.2319  0.2409  0.6253
 5774TIP3    H238738   0.233   1.002  12.450 -2.1166  0.0011  0.7034
 5775TIP3   OH238739   5.493   4.137   5.779 -0.0370 -0.1989 -0.5158
 5775TIP3    H138740   5.511   4.230   5.789  1.0974 -0.4236 -0.2760
 5775TIP3    H238741   5.428   4.117   5.847  1.5822 -0.0672  1.1643
 5776TIP3   OH238742   1.527   1.116  13.305 -0.6835 -0.5025 -0.6769
 5776TIP3    H138743   1.621   1.102  13.295 -0.6243 -0.7235  0.1212
 5776TIP3    H238744   1.506   1.076  13.389 -1.4525 -0.2585 -0.7486
 5777TIP3   OH238745   1.508   0.005  14.129 -0.0868  0.1099 -0.1928
 5777TIP3    H138746   1.417   0.002  14.100 -0.4770  1.3897  0.8134
 5777TIP3    H238747   1.546  -0.077  14.098 -2.2523 -1.6633  1.5269
 5778TIP3   OH238748   3.519   2.157   6.145 -0.4634  0.2239  0.2867
 5778TIP3    H138749   3.580   2.086   6.124  0.3652  1.1146 -0.4112
 5778TIP3    H238750   3.558   2.201   6.221 -0.4836  0.4948  0.1422
 5779TIP3   OH238751   3.514   1.871  12.655  0.0283  0.4714 -0.1281
 5779TIP3    H138752   3.576   1.907  12.719  1.2274  1.8419 -1.9583
 5779TIP3    H238753   3.535   1.777  12.653  0.0235  0.4072  1.3780
 5780TIP3   OH238754   3.524   5.380  15.528  0.2606  0.1482 -0.3367
 5780TIP3    H138755   3.603   5.422  15.495  0.6617 -0.2093  0.1551
 5780TIP3    H238756   3.552   5.292  15.554  0.0747  0.5416  1.3428
 5781TIP3   OH238757   3.656   4.812   6.680 -0.1724  0.1785  0.5881
 5781TIP3    H138758   3.570   4.838   6.647  0.5628  1.4401 -0.4026
 5781TIP3    H238759   3.642   4.796   6.774 -1.9106 -1.6919  0.0733
 5782TIP3   OH238760   3.294   1.272  16.276 -0.0959 -0.0975 -0.2413
 5782TIP3    H138761   3.295   1.367  16.261 -0.0695 -0.1322 -0.4612
 5782TIP3    H238762   3.244   1.262  16.357 -0.0746  0.1072 -0.2009
 5783TIP3   OH238763   0.438   1.487  10.720  0.0665 -0.2482  0.3371
 5783TIP3    H138764   0.458   1.537  10.641  0.6553  2.2528  1.9272
 5783TIP3    H238765   0.397   1.407  10.689  2.6301 -0.6003 -2.6031
 5784TIP3   OH238766   2.441   1.020   1.385  0.1055  0.3732  0.3569
 5784TIP3    H138767   2.498   1.041   1.459 -0.3495  0.3028  0.7301
 5784TIP3    H238768   2.401   0.937   1.408  0.4178  0.0498 -0.2448
 5785TIP3   OH238769   6.732   3.519  12.848 -0.3543 -0.2453  0.2910
 5785TIP3    H138770   6.755   3.552  12.761  0.3455 -0.3538  0.4241
 5785TIP3    H238771   6.686   3.591  12.890 -1.5287 -0.5173 -0.4941
 5786TIP3   OH238772   2.753   4.512   1.205 -0.3458 -0.1130 -0.0951
 5786TIP3    H138773   2.761   4.567   1.127 -0.0720  0.9394  0.6518
 5786TIP3    H238774   2.801   4.432   1.184  0.0369  0.3127 -0.8655
 5787TIP3   OH238775   6.715   1.947  12.927 -0.1627 -0.2750 -0.2021
 5787TIP3    H138776   6.706   1.895  12.848 -0.9660  1.6138 -1.4330
 5787TIP3    H238777   6.809   1.968  12.931 -0.3515  1.0278 -1.6671
 5788TIP3   OH238778   4.228   4.898  14.106 -0.2569  0.3307 -0.3491
 5788TIP3    H138779   4.282   4.920  14.182  0.8823 -3.3427  0.0720
 5788TIP3    H238780   4.155   4.848  14.143 -0.7516  0.1782 -1.5012
 5789TIP3   OH238781   3.868   2.318  14.129  0.0198  0.5230 -0.3210
 5789TIP3    H138782   3.849   2.409  14.153 -1.9742  0.0739 -0.0204
 5789TIP3    H238783   3.862   2.270  14.212  0.2650  0.0067 -0.6000
 5790TIP3   OH238784   3.782   0.570   1.046 -0.2938  0.7031  0.4891
 5790TIP3    H138785   3.727   0.494   1.066  0.5097  0.2525  1.0540
 5790TIP3    H238786   3.746   0.605   0.965 -1.3377  0.3586  0.7904
 5791TIP3   OH238787   5.308   6.352  11.656 -0.0903  0.2478 -0.1811
 5791TIP3    H138788   5.352   6.335  11.739  1.3422  2.5715 -0.3749
 5791TIP3    H238789   5.270   6.267  11.631  0.4267 -0.7793  2.2311
 5792TIP3   OH238790   1.231   1.589  14.647  0.4367 -0.0956  0.6864
 5792TIP3    H138791   1.183   1.507  14.654  1.2148 -0.7031 -0.6164
 5792TIP3    H238792   1.218   1.632  14.731 -0.5219 -1.2578  1.1613
 5793TIP3   OH238793   1.183   4.642  13.946  0.2857 -0.3000  0.4553
 5793TIP3    H138794   1.151   4.729  13.921  2.6930  0.7879  0.9123
 5793TIP3    H238795   1.187   4.594  13.864  2.5781  1.3481 -0.5244
 5794TIP3   OH238796   5.292   0.213  14.777 -0.5532 -0.1362  0.5875
 5794TIP3    H138797   5.358   0.236  14.843  1.5032 -1.0905 -0.9895
 5794TIP3    H238798   5.208   0.225  14.821  0.6708  0.6337  2.8879
 5795TIP3   OH238799   0.970   3.330  15.269  0.6486 -0.4826  0.5170
 5795TIP3    H138800   1.005   3.399  15.213 -0.4366  0.2163  0.6859
 5795TIP3    H238801   0.876   3.332  15.255  0.2468  0.1814  2.8798
 5796TIP3   OH238802   1.301   1.473  16.689  0.2394 -0.6249  0.5404
 5796TIP3    H138803   1.338   1.439  16.608  0.6868  0.3310  0.3280
 5796TIP3    H238804   1.261   1.557  16.664 -1.9053 -1.4976  0.7997
 5797TIP3   OH238805   2.821   0.247   3.300  0.2591  0.3318 -0.1490
 5797TIP3    H138806   2.726   0.234   3.308  0.1450  1.7652  1.2502
 5797TIP3    H238807   2.857   0.158   3.301 -1.0191 -0.2147 -0.0931
 5798TIP3   OH238808   3.365   3.708  11.925 -0.0446 -0.4313  0.6141
 5798TIP3    H138809   3.394   3.693  12.015 -1.2348  0.2940  1.1387
 5798TIP3    H238810   3.369   3.621  11.884  0.0232 -0.8646  1.5146
 5799TIP3   OH238811   4.175   3.948   0.002  0.0453 -0.3661 -0.2463
 5799TIP3    H138812   4.236   3.981  -0.064 -0.0832 -0.0975 -0.2278
 5799TIP3    H238813   4.230   3.893   0.059  0.3171  0.0343 -0.1129
 5800TIP3   OH238814   2.741   5.581  16.382 -0.5343 -0.0163  0.1804
 5800TIP3    H138815   2.695   5.530  16.315  1.1721 -0.9040 -0.3950
 5800TIP3    H238816   2.830   5.590  16.348  0.2809 -0.1289  2.1276
 5801TIP3   OH238817   0.119   0.830  13.986  0.0416  0.0703 -0.8520
 5801TIP3    H138818   0.087   0.785  13.908  0.1260  1.4042 -1.6693
 5801TIP3    H238819   0.166   0.762  14.035 -2.8653 -1.6434 -0.2436
 5802TIP3   OH238820   6.728   3.491   5.564 -0.6255 -0.0796  0.0533
 5802TIP3    H138821   6.638   3.514   5.586 -1.0927 -0.9162 -0.9543
 5802TIP3    H238822   6.771   3.576   5.549 -0.8688  0.4015  1.8261
 5803TIP3   OH238823   6.325   4.982   4.713 -0.2026 -0.2229 -0.1468
 5803TIP3    H138824   6.378   4.946   4.784  0.3175 -1.4762 -1.1117
 5803TIP3    H238825   6.250   4.923   4.708  0.0259 -0.4561 -0.9541
 5804TIP3   OH238826   1.036   1.377  12.530 -0.6023  0.3919  0.8677
 5804TIP3    H138827   0.968   1.444  12.531 -2.1691 -1.0973 -0.0537
 5804TIP3    H238828   0.995   1.302  12.488  1.4042 -0.8273  0.9499
 5805TIP3   OH238829   1.099   0.281   2.749 -0.0384  0.5759  0.1303
 5805TIP3    H138830   1.028   0.331   2.788 -0.1116  0.2538  0.4180
 5805TIP3    H238831   1.169   0.345   2.736 -0.1102  0.7407  0.5475
 5806TIP3   OH238832   2.060   3.891   5.911 -0.0944  0.4805 -0.1175
 5806TIP3    H138833   2.115   3.835   5.966 -2.1285 -1.7892 -0.2447
 5806TIP3    H238834   2.050   3.972   5.962  0.3512 -0.4831  1.5820
 5807TIP3   OH238835   5.715   5.164   6.383  0.3505 -0.4821 -0.1895
 5807TIP3    H138836   5.776   5.179   6.455  0.0300  0.1008 -0.0223
 5807TIP3    H238837   5.762   5.109   6.321  1.3540  0.6365 -0.4609
 5808TIP3   OH238838   4.241   6.038   1.306  0.5460  0.8404  0.6531
 5808TIP3    H138839   4.285   6.123   1.299  1.0493  0.6390  1.2563
 5808TIP3    H238840   4.263   6.007   1.393  1.3601 -0.4613  0.0105
 5809TIP3   OH238841   5.361   4.535   0.159 -0.3852  0.0681 -0.5418
 5809TIP3    H138842   5.322   4.612   0.199  0.1028  0.4675 -0.8278
 5809TIP3    H238843   5.444   4.523   0.205 -0.1462  0.1177 -0.9509
 5810TIP3   OH238844   0.062   5.668  14.602 -0.1096  0.1073 -0.3205
 5810TIP3    H138845   0.152   5.637  14.601  0.1763  0.8873 -2.4477
 5810TIP3    H238846   0.009   5.589  14.594  0.2869 -0.4223  1.5954
 5811TIP3   OH238847   5.418   0.559   3.090  0.1054  0.1771  0.0323
 5811TIP3    H138848   5.334   0.598   3.066 -0.7152 -0.5555  1.5832
 5811TIP3    H238849   5.402   0.465   3.094  0.5958  0.1289  1.7272
 5812TIP3   OH238850   3.791   3.993   1.363 -0.0236 -0.1155  0.1005
 5812TIP3    H138851   3.853   4.026   1.298 -0.8475  0.7985 -0.2399
 5812TIP3    H238852   3.796   4.056   1.434  0.5806 -0.8983  0.7813
 5813TIP3   OH238853   1.255   4.950  13.658  0.2296  0.1180  0.5844
 5813TIP3    H138854   1.180   4.890  13.660 -0.2753  0.6924 -0.6008
 5813TIP3    H238855   1.301   4.932  13.740 -0.2455 -1.4649  0.5391
 5814TIP3   OH238856   6.546   4.893  12.748 -0.0148  0.1276 -0.3223
 5814TIP3    H138857   6.631   4.934  12.763  0.4109 -0.8840  0.1651
 5814TIP3    H238858   6.532   4.899  12.653 -0.2361  1.8654 -0.1994
 5815TIP3   OH238859   2.968   1.270   3.256 -0.3137  0.2999 -0.1510
 5815TIP3    H138860   2.896   1.284   3.195 -1.0769 -0.4622  0.5515
 5815TIP3    H238861   2.971   1.351   3.308  0.0977  0.7960 -0.9181
 5816TIP3   OH238862   6.763   3.232   1.158 -0.0380 -0.0359  0.3161
 5816TIP3    H138863   6.688   3.189   1.199  0.5748 -0.5902  0.8786
 5816TIP3    H238864   6.746   3.224   1.064  0.4495 -2.2845  0.3713
 5817TIP3   OH238865   2.122   0.610   0.045  0.2976 -0.1943 -0.5733
 5817TIP3    H138866   2.161   0.620  -0.041 -0.8725 -0.1718 -1.1308
 5817TIP3    H238867   2.163   0.533   0.082  1.1615  0.0746 -0.9470
 5818TIP3   OH238868   1.605   6.089  15.703 -0.1824  0.4531 -0.3745
 5818TIP3    H138869   1.634   6.147  15.774 -0.7734  0.2170  0.0701
 5818TIP3    H238870   1.567   6.148  15.638  0.1014  0.6477 -0.3668
 5819TIP3   OH238871   6.185   0.044   5.904  0.5969 -0.4102  0.0772
 5819TIP3    H138872   6.218   0.071   5.990 -0.0052  1.2645 -0.1866
 5819TIP3    H238873   6.193   0.121   5.849 -2.2898 -0.3419 -0.4227
 5820TIP3   OH238874   3.485   5.197  13.498 -0.1665 -0.3057 -0.4012
 5820TIP3    H138875   3.428   5.172  13.571  0.3947  0.7247  0.4337
 5820TIP3    H238876   3.509   5.115  13.456 -0.3784 -0.9396  0.6824
 5821TIP3   OH238877   0.581   3.116   1.213 -0.0070  0.1610 -0.2224
 5821TIP3    H138878   0.530   3.041   1.244  1.8661 -0.7243  0.9192
 5821TIP3    H238879   0.583   3.106   1.118  2.1474 -2.7008 -0.0244
 5822TIP3   OH238880   6.664   5.770  14.455 -0.3842  0.5836 -0.6980
 5822TIP3    H138881   6.620   5.806  14.531 -0.1562 -2.3779  0.9677
 5822TIP3    H238882   6.753   5.750  14.485 -0.5859 -1.6015 -1.3213
 5823TIP3   OH238883   5.189   1.226   2.720 -0.0303 -0.3491 -0.3916
 5823TIP3    H138884   5.147   1.234   2.634 -1.1219  2.0677  0.2874
 5823TIP3    H238885   5.124   1.179   2.773  0.7869 -2.1550 -0.9106
 5824TIP3   OH238886   3.283   3.252   1.080  1.0640 -0.4671  0.0647
 5824TIP3    H138887   3.305   3.237   1.172 -0.3501 -0.7566  0.3815
 5824TIP3    H238888   3.326   3.335   1.059 -1.0215  1.2150  1.9087
 5825TIP3   OH238889   5.390   5.311  12.496 -0.3452  0.4976 -0.2826
 5825TIP3    H138890   5.387   5.234  12.439  0.8288  0.5713 -0.4706
 5825TIP3    H238891   5.314   5.363  12.470 -1.9286 -1.1815  0.7162
 5826TIP3   OH238892   0.531   2.230   5.284  0.3223  0.0196 -0.6862
 5826TIP3    H138893   0.517   2.270   5.198  0.3383 -1.0984 -1.2228
 5826TIP3    H238894   0.518   2.302   5.346 -0.6441  0.6286 -1.5664
 5827TIP3   OH238895   1.804   5.230  11.270 -0.7771 -0.5975 -0.6317
 5827TIP3    H138896   1.891   5.229  11.229  0.3110  0.4099  1.4874
 5827TIP3    H238897   1.768   5.315  11.249 -0.1389 -0.0055  0.5748
 5828TIP3   OH238898   5.402   2.740  16.961 -0.0571 -0.7156 -0.8914
 5828TIP3    H138899   5.363   2.826  16.978  2.9833  0.5532  0.3878
 5828TIP3    H238900   5.403   2.732  16.866 -0.0745  0.8396 -1.0427
 5829TIP3   OH238901   5.021   5.718  12.713 -0.1261 -0.6997  0.3659
 5829TIP3    H138902   5.092   5.733  12.776 -0.1328 -1.1371  0.4832
 5829TIP3    H238903   5.012   5.800  12.666 -0.1696 -0.3381  0.9941
 5830TIP3   OH238904   1.610   6.016  14.405  0.2912 -0.2844  0.5381
 5830TIP3    H138905   1.659   6.079  14.458  0.0540  3.0199 -2.7568
 5830TIP3    H238906   1.550   5.974  14.467  1.6602  1.4654  3.2395
 5831TIP3   OH238907   1.575   2.807  13.140  0.2367  1.0663 -0.1972
 5831TIP3    H138908   1.658   2.819  13.095 -0.3081 -0.0319 -1.5705
 5831TIP3    H238909   1.523   2.883  13.116  0.3778  1.0881 -0.4323
 5832TIP3   OH238910   1.513   2.712  12.000 -0.3191  0.0656 -0.2275
 5832TIP3    H138911   1.435   2.709  12.056 -1.7022 -1.3852 -2.0991
 5832TIP3    H238912   1.509   2.797  11.957 -0.7911  0.0539 -0.2092
 5833TIP3   OH238913   3.720   4.629  15.324 -0.6924 -0.0162  0.1691
 5833TIP3    H138914   3.706   4.570  15.250  0.6039 -0.4401  0.2300
 5833TIP3    H238915   3.815   4.630  15.336 -0.4904  3.2525 -0.7752
 5834TIP3   OH238916   6.436   0.019  13.983  0.5582 -0.3181 -0.0482
 5834TIP3    H138917   6.401  -0.047  14.043 -0.0286  0.0160 -0.0166
 5834TIP3    H238918   6.442   0.099  14.036  1.0318 -0.2826 -0.1541
 5835TIP3   OH238919   4.273   6.566   2.605 -0.3296  0.3187 -0.2279
 5835TIP3    H138920   4.250   6.573   2.513 -0.2232 -1.3918 -0.4138
 5835TIP3    H238921   4.193   6.588   2.652 -0.8232 -0.3182 -0.7618
 5836TIP3   OH238922   5.346   4.393  15.629 -0.2912  0.2082  0.1946
 5836TIP3    H138923   5.387   4.445  15.698  0.1788 -0.4530  0.4124
 5836TIP3    H238924   5.271   4.447  15.602  0.2035  1.0220  0.3858
 5837TIP3   OH238925   1.406   1.024   2.311 -0.5264 -0.1043  0.2618
 5837TIP3    H138926   1.395   1.112   2.347  0.5376 -0.3452  1.2367
 5837TIP3    H238927   1.374   1.031   2.221  1.2432  1.7841 -0.3074
 5838TIP3   OH238928   5.298   2.473   1.519  0.4304  0.0129  0.1937
 5838TIP3    H138929   5.270   2.487   1.610 -2.1095 -1.0711 -0.3178
 5838TIP3    H238930   5.316   2.380   1.513 -0.7771 -0.1992 -0.6838
 5839TIP3   OH238931   0.872   3.170  13.743 -0.0017  0.7191  0.3454
 5839TIP3    H138932   0.795   3.152  13.689 -0.5937  1.7606  0.8178
 5839TIP3    H238933   0.865   3.263  13.765  2.2495  1.3064 -0.9584
 5840TIP3   OH238934   1.243   2.050   2.149  0.4153  0.4509  0.0378
 5840TIP3    H138935   1.209   2.086   2.231 -0.2352 -1.6687  0.7762
 5840TIP3    H238936   1.308   1.986   2.177  1.5615  1.0358 -1.2103
 5841TIP3   OH238937   5.652   1.359   0.699  0.8989 -0.6069 -0.1478
 5841TIP3    H138938   5.677   1.313   0.780  0.2323  0.2300  0.5463
 5841TIP3    H238939   5.573   1.314   0.670  0.3296 -0.0092  0.4515
 5842TIP3   OH238940   4.401   6.293   1.646  0.5073 -0.4845  0.5635
 5842TIP3    H138941   4.496   6.281   1.639  0.5105 -0.0833 -0.2823
 5842TIP3    H238942   4.364   6.225   1.590  0.2459 -1.2018  1.5747
 5843TIP3   OH238943   0.090   2.163  14.703 -0.3447 -0.0194  0.1390
 5843TIP3    H138944   0.092   2.098  14.773 -1.7753 -0.3575 -0.1019
 5843TIP3    H238945   0.057   2.115  14.627 -0.1703  0.6793 -0.3820
 5844TIP3   OH238946   1.258   3.251   4.397 -0.2036 -0.1736 -0.5850
 5844TIP3    H138947   1.309   3.286   4.469 -1.7601 -0.1290  0.5539
 5844TIP3    H238948   1.232   3.327   4.345 -0.6989  0.0092 -0.0752
 5845TIP3   OH238949   5.153   3.983  10.748 -0.7058 -0.5411  0.0985
 5845TIP3    H138950   5.246   3.967  10.739 -0.9478 -1.4597 -0.9603
 5845TIP3    H238951   5.113   3.895  10.749 -1.6479 -0.1354 -0.6019
 5846TIP3   OH238952   4.026   5.703   6.260 -0.1468 -0.7823 -0.2727
 5846TIP3    H138953   4.027   5.733   6.169  0.1481 -0.4573 -0.1616
 5846TIP3    H238954   4.117   5.711   6.289 -0.6308  1.3619  0.7939
 5847TIP3   OH238955   0.868   2.108   1.834 -0.2231 -0.0011 -0.1464
 5847TIP3    H138956   0.835   2.177   1.776  1.6349  0.7630 -0.3792
 5847TIP3    H238957   0.959   2.133   1.851 -0.8354  0.2296  3.7385
 5848TIP3   OH238958   3.462   1.384   1.870 -0.1786  0.4212 -0.3578
 5848TIP3    H138959   3.500   1.405   1.955  0.9045  0.1094 -0.7378
 5848TIP3    H238960   3.368   1.374   1.886 -0.0625  0.9379  0.6819
 5849TIP3   OH238961   0.669   2.049  11.446 -0.5038 -0.0188  0.4793
 5849TIP3    H138962   0.738   1.985  11.465  0.4798  1.2405  1.3244
 5849TIP3    H238963   0.694   2.086  11.361 -1.0082 -0.6380  0.0476
 5850TIP3   OH238964   4.570   0.097   4.944  0.3784 -0.1145 -0.2171
 5850TIP3    H138965   4.603   0.032   5.006  1.0729  0.6147  0.1968
 5850TIP3    H238966   4.475   0.093   4.953  0.4842  0.4918  1.4509
 5851TIP3   OH238967   4.942   2.055   3.180  0.0205  0.0763  0.2925
 5851TIP3    H138968   4.846   2.057   3.176 -0.0124  1.3880  1.1436
 5851TIP3    H238969   4.970   2.132   3.131  0.7095 -0.9267 -0.9297
 5852TIP3   OH238970   4.165   2.442  13.474 -0.0741 -0.0569 -0.0985
 5852TIP3    H138971   4.152   2.408  13.563 -0.3957  0.8718  0.2203
 5852TIP3    H238972   4.085   2.491  13.455 -0.8937 -1.8855 -1.6893
 5853TIP3   OH238973   1.553   3.083  16.032  0.2280  0.7464 -0.2898
 5853TIP3    H138974   1.590   2.997  16.049 -0.2000  0.5228 -0.4651
 5853TIP3    H238975   1.596   3.113  15.952  1.2467  1.2143  0.4074
 5854TIP3   OH238976   0.251   0.407   5.017 -0.1565 -0.3270  0.3759
 5854TIP3    H138977   0.314   0.407   5.089 -0.7403  0.3722  0.9066
 5854TIP3    H238978   0.205   0.490   5.026  0.1420  0.0450 -1.1522
 5855TIP3   OH238979   1.420   4.163   0.152 -0.2613 -0.2077 -0.1829
 5855TIP3    H138980   1.447   4.245   0.193 -0.2249  0.3640 -1.2961
 5855TIP3    H238981   1.500   4.111   0.147  0.2614  0.6541 -1.5881
 5856TIP3   OH238982   6.029   1.501   1.965 -0.5076 -0.5995 -0.1112
 5856TIP3    H138983   6.089   1.575   1.968  1.1239 -1.8027 -1.2147
 5856TIP3    H238984   5.942   1.541   1.966  0.3097  1.4193 -1.8884
 5857TIP3   OH238985   4.044   3.712   4.645  0.0682 -0.8467  0.8157
 5857TIP3    H138986   3.966   3.747   4.602 -0.2172 -2.7851 -0.3453
 5857TIP3    H238987   4.115   3.769   4.615 -0.6658 -0.0272  0.6079
 5858TIP3   OH238988   5.044   6.303  12.612  0.0043 -0.2048  0.4463
 5858TIP3    H138989   4.958   6.341  12.597  0.1253 -0.3932 -0.8990
 5858TIP3    H238990   5.093   6.321  12.531  1.4331  0.4333  1.4134
 5859TIP3   OH238991   6.007   1.420   3.212  0.8498  0.0384 -0.1571
 5859TIP3    H138992   6.046   1.504   3.238  1.2762 -0.6074  1.4169
 5859TIP3    H238993   6.074   1.378   3.158  0.2163  1.1165 -1.8817
 5860TIP3   OH238994   1.684   0.342   3.722  0.4419  0.3532 -0.1462
 5860TIP3    H138995   1.779   0.338   3.732  0.5532  1.5967 -0.4845
 5860TIP3    H238996   1.668   0.428   3.683 -0.7147 -0.4067 -1.4566
 5861TIP3   OH238997   1.950   5.835  14.702 -0.0427 -0.0768 -0.0223
 5861TIP3    H138998   1.970   5.744  14.727  0.7922 -0.4596 -1.8590
 5861TIP3    H238999   1.862   5.850  14.735  0.5723 -0.8304  2.1342
 5862TIP3   OH239000   4.127   6.690  15.608 -0.5621  0.2150  0.2352
 5862TIP3    H139001   4.164   6.611  15.569  1.5769 -0.0589  2.5807
 5862TIP3    H239002   4.087   6.737  15.534  1.1512 -1.3691 -1.8149
 5863TIP3   OH239003   6.306   2.077   3.545  0.2606  0.2471 -0.6773
 5863TIP3    H139004   6.298   2.125   3.627 -1.8639  0.7905 -1.1443
 5863TIP3    H239005   6.392   2.103   3.510  1.0201  0.3030  1.1542
 5864TIP3   OH239006   1.580   2.812  12.542 -0.0797  0.3320 -0.9210
 5864TIP3    H139007   1.492   2.787  12.513 -0.3513  0.9719 -0.6464
 5864TIP3    H239008   1.588   2.774  12.629 -0.1925  0.5335 -0.8243
 5865TIP3   OH239009   0.309   6.580  17.063 -0.3025 -0.6267  0.6980
 5865TIP3    H139010   0.307   6.537  17.148 -2.7440 -1.3036  0.3714
 5865TIP3    H239011   0.221   6.614  17.051  0.5983  1.4820 -0.6062
 5866TIP3   OH239012   6.765   4.345  17.034  0.2271  0.3121 -0.2309
 5866TIP3    H139013   6.706   4.358  17.108  1.7940  0.8127  0.9908
 5866TIP3    H239014   6.837   4.407  17.050  1.2392 -0.4850 -1.4957
 5867TIP3   OH239015   1.284   3.657   3.257  0.0259 -0.5119  0.9030
 5867TIP3    H139016   1.246   3.722   3.199 -1.1620 -1.5504  0.4866
 5867TIP3    H239017   1.379   3.664   3.242 -0.2745 -1.7410 -2.2800
 5868TIP3   OH239018   1.762   2.361  13.214  0.3862  0.0191  0.1999
 5868TIP3    H139019   1.811   2.417  13.275  0.4385 -1.6277  1.7535
 5868TIP3    H239020   1.811   2.279  13.213 -0.4850 -0.5092 -0.9117
 5869TIP3   OH239021   0.200   2.852  16.690  0.0015  0.0489  0.4514
 5869TIP3    H139022   0.261   2.913  16.649 -1.1106  0.2048 -1.0371
 5869TIP3    H239023   0.239   2.833  16.776  1.8356  0.5602 -0.2276
 5870TIP3   OH239024   2.096   0.661   4.667  0.4494 -0.0069 -0.2428
 5870TIP3    H139025   2.141   0.724   4.611 -0.0150  2.0476  1.5119
 5870TIP3    H239026   2.052   0.716   4.733  0.3397 -2.2130  1.6499
 5871TIP3   OH239027   6.556   0.032   4.101  0.3614 -0.0765  0.1833
 5871TIP3    H139028   6.598   0.111   4.067  1.3411 -0.3755  0.6587
 5871TIP3    H239029   6.466   0.058   4.117  0.1003  0.3422 -1.6997
 5872TIP3   OH239030   5.344   4.011   3.144 -0.6055 -0.3294 -0.6667
 5872TIP3    H139031   5.265   4.064   3.155  0.8561  1.7003  0.6457
 5872TIP3    H239032   5.349   3.995   3.050 -3.2386 -1.6455 -0.6590
 5873TIP3   OH239033   0.449   3.009   1.892  0.7901 -0.2429 -0.9256
 5873TIP3    H139034   0.453   3.058   1.974 -1.8632  0.0270 -0.8671
 5873TIP3    H239035   0.453   2.917   1.918  1.8361 -0.1422 -0.6936
 5874TIP3   OH239036   3.790   4.993  16.905 -0.5174  0.1415  0.1171
 5874TIP3    H139037   3.807   4.977  16.998  1.3967  0.3775 -0.1497
 5874TIP3    H239038   3.759   5.084  16.902 -1.9886 -0.3118  0.6385
 5875TIP3   OH239039   2.584   1.321   2.639 -0.2955  0.4775  0.0054
 5875TIP3    H139040   2.644   1.369   2.582  0.3029 -0.7584 -0.4439
 5875TIP3    H239041   2.638   1.252   2.678  0.0240  2.7203  4.1188
 5876TIP3   OH239042   6.395   0.843   4.117  0.1213 -0.4261  0.5800
 5876TIP3    H139043   6.433   0.812   4.199  0.6971 -1.4123 -0.0356
 5876TIP3    H239044   6.343   0.769   4.084  0.6873 -0.4038 -0.4128
 5877TIP3   OH239045   6.236   0.137  14.337 -0.3598 -0.2988 -1.0008
 5877TIP3    H139046   6.171   0.194  14.377  0.3686 -1.6438  2.4206
 5877TIP3    H239047   6.194   0.107  14.256 -3.0991  0.5784 -0.0322
 5878TIP3   OH239048   1.389   3.512  16.358  0.4357 -0.2362  0.7825
 5878TIP3    H139049   1.360   3.491  16.270 -1.4773 -0.8702  1.5057
 5878TIP3    H239050   1.481   3.533  16.349 -0.0184  1.0424 -1.5656
 5879TIP3   OH239051   3.501   4.746   6.903  0.3955  0.3470 -0.0370
 5879TIP3    H139052   3.460   4.659   6.905 -1.1086  0.6330 -4.8687
 5879TIP3    H239053   3.448   4.800   6.961 -0.5278 -1.2633  0.6701
 5880TIP3   OH239054   1.849   6.166  11.982 -0.1783 -0.5950 -0.4768
 5880TIP3    H139055   1.801   6.218  12.046 -1.5301 -1.1062 -1.0499
 5880TIP3    H239056   1.862   6.225  11.908 -1.3770 -0.9145 -0.9718
 5881TIP3   OH239057   1.159   5.758  14.627 -0.4310  0.4770 -0.6349
 5881TIP3    H139058   1.095   5.820  14.592 -1.7975  0.5104  1.6447
 5881TIP3    H239059   1.116   5.672  14.619 -1.5834  0.6586  2.2843
 5882TIP3   OH239060   5.719   5.313   5.537 -0.1615 -0.3288 -0.9894
 5882TIP3    H139061   5.665   5.296   5.615 -0.7767 -0.7741 -1.5036
 5882TIP3    H239062   5.681   5.391   5.499  0.4882  0.2142 -0.5488
 5883TIP3   OH239063   0.443   0.032  11.942 -0.3663  0.2702  0.3683
 5883TIP3    H139064   0.434   0.101  11.877  0.9846  0.8090  0.7212
 5883TIP3    H239065   0.354   0.016  11.973 -1.1831 -0.5702 -2.1633
 5884TIP3   OH239066   4.918   4.832   2.056  0.2999 -0.1518 -0.0083
 5884TIP3    H139067   4.854   4.770   2.092 -0.2084 -0.4544 -1.3708
 5884TIP3    H239068   4.969   4.860   2.132 -0.7771 -0.6941  0.9552
 5885TIP3   OH239069   1.084   6.665   5.792  0.1348  0.3220  0.5453
 5885TIP3    H139070   0.996   6.678   5.828 -0.0259  1.2957 -0.1442
 5885TIP3    H239071   1.141   6.666   5.869 -0.5431 -1.6150  1.1356
 5886TIP3   OH239072   1.351   0.585  13.907  0.2929  0.5432 -0.1108
 5886TIP3    H139073   1.333   0.520  13.975 -0.6572 -1.0845 -1.8201
 5886TIP3    H239074   1.441   0.613  13.923  0.4492 -0.5864  1.1492
 5887TIP3   OH239075   4.496   1.357   3.102  0.0887 -0.8814  0.0682
 5887TIP3    H139076   4.422   1.339   3.161 -1.3877 -1.4439 -1.8545
 5887TIP3    H239077   4.573   1.327   3.151 -0.9934 -0.8346  1.9103
 5888TIP3   OH239078   3.747   5.357   1.268 -0.0345 -0.5830  0.3599
 5888TIP3    H139079   3.761   5.426   1.332 -2.5443 -0.7704  1.2279
 5888TIP3    H239080   3.725   5.280   1.321  0.5050 -1.4618 -0.6601
 5889TIP3   OH239081   2.620   6.621   0.773  0.1239  0.1795 -0.2080
 5889TIP3    H139082   2.587   6.533   0.792 -0.5651  0.5965  0.5816
 5889TIP3    H239083   2.585   6.642   0.686  0.2969 -0.3190 -0.4031
 5890TIP3   OH239084   1.858   6.692  14.572  0.4474  0.1855  0.2299
 5890TIP3    H139085   1.837   6.607  14.611  0.0678 -0.2226 -0.8042
 5890TIP3    H239086   1.844   6.678  14.478 -2.0513  2.0648  0.2079
 5891TIP3   OH239087   3.281   4.920   0.330  0.7711 -0.2638 -0.2218
 5891TIP3    H139088   3.301   4.840   0.379  1.0968  0.3150  0.6133
 5891TIP3    H239089   3.359   4.936   0.277  0.3566 -0.9777 -1.0819
 5892TIP3   OH239090   4.787   5.795  14.003  0.5345 -0.0318  0.1192
 5892TIP3    H139091   4.816   5.713  14.044  0.5139  0.1664  0.5262
 5892TIP3    H239092   4.692   5.793  14.011  0.6367  1.0701  2.1349
 5893TIP3   OH239093   4.754   1.095  12.067 -0.3565 -0.4681  0.2567
 5893TIP3    H139094   4.803   1.058  11.994 -0.8074 -0.1548 -0.2059
 5893TIP3    H239095   4.719   1.177  12.034 -0.4165 -0.2348  0.8848
 5894TIP3   OH239096   3.877   3.584  10.375  0.3116 -0.0769  0.4082
 5894TIP3    H139097   3.808   3.624  10.429 -1.9353 -0.1697 -2.1424
 5894TIP3    H239098   3.906   3.508  10.425 -2.3532 -0.7304  1.1281
 5895TIP3   OH239099   3.417   2.428   4.579 -0.0228  0.1335  0.8735
 5895TIP3    H139100   3.367   2.444   4.499  0.6515 -2.2387 -0.1117
 5895TIP3    H239101   3.509   2.428   4.550  0.2015 -1.3172  1.4870
 5896TIP3   OH239102   0.013   4.505   1.696  0.1706  0.2757 -0.0486
 5896TIP3    H139103   0.098   4.469   1.720  0.5200  1.4896  0.5893
 5896TIP3    H239104  -0.050   4.440   1.728  0.7677  0.4477  1.5840
 5897TIP3   OH239105   6.499   0.425   1.368  0.4055 -0.2139  0.1350
 5897TIP3    H139106   6.466   0.365   1.434  2.4789  0.7802  2.1998
 5897TIP3    H239107   6.526   0.369   1.295 -2.0271 -1.3142 -0.0202
 5898TIP3   OH239108   4.097   5.782   1.710  0.0416  0.3242  0.4966
 5898TIP3    H139109   4.154   5.787   1.787  1.6169  1.2507 -0.6882
 5898TIP3    H239110   4.144   5.727   1.648 -0.4748  0.8857 -0.4096
 5899TIP3   OH239111   1.924   1.136  11.227 -0.0288  0.4261  0.1278
 5899TIP3    H139112   1.989   1.199  11.258 -0.1267 -0.1526  1.5711
 5899TIP3    H239113   1.903   1.165  11.138  0.6992  1.8024  0.3801
 5900TIP3   OH239114   0.917   5.564  16.064 -0.4813  0.3063  0.0243
 5900TIP3    H139115   0.877   5.483  16.033 -1.8478  2.1114 -3.4799
 5900TIP3    H239116   1.011   5.545  16.064 -0.6516 -0.8880 -2.2558
 5901TIP3   OH239117   0.425   0.953  12.713 -0.4222  0.0973 -0.6555
 5901TIP3    H139118   0.343   0.934  12.666  0.3086 -0.1897 -1.8579
 5901TIP3    H239119   0.494   0.935  12.649  0.5475  1.4754 -0.0382
 5902TIP3   OH239120   0.002   1.782  16.489  0.1423  0.2418  0.2063
 5902TIP3    H139121   0.071   1.796  16.423  1.9770 -0.5435  1.8416
 5902TIP3    H239122  -0.022   1.869  16.518  0.0151  0.5537 -0.8036
 5903TIP3   OH239123   5.136   1.352   4.934  0.1278 -0.4249  0.2932
 5903TIP3    H139124   5.149   1.447   4.936 -1.4690 -0.1473 -0.5300
 5903TIP3    H239125   5.169   1.322   5.018  0.8150  0.8333  0.5102
 5904TIP3   OH239126   2.598   3.819   5.506 -0.8086 -0.5137  0.2991
 5904TIP3    H139127   2.568   3.805   5.416  1.3715 -2.6786 -0.1994
 5904TIP3    H239128   2.688   3.787   5.506  0.0550  1.5589  2.7369
 5905TIP3   OH239129   1.240   3.229   1.916 -0.5013  0.2937 -0.1732
 5905TIP3    H139130   1.320   3.253   1.963  0.5687  0.6937 -2.1077
 5905TIP3    H239131   1.187   3.309   1.915  0.1924  0.7538 -1.0225
 5906TIP3   OH239132   2.222   0.132   0.204 -0.1320  0.0605  0.2435
 5906TIP3    H139133   2.312   0.111   0.229 -0.6930 -1.2525  1.2644
 5906TIP3    H239134   2.221   0.124   0.108  1.4768  2.8617 -0.1114
 5907TIP3   OH239135   5.837   1.254  16.700 -0.3655  0.0299  0.8652
 5907TIP3    H139136   5.843   1.214  16.614 -3.6146 -0.2429  0.6515
 5907TIP3    H239137   5.920   1.234  16.742  1.9691  1.4318 -2.6614
 5908TIP3   OH239138   1.268   5.728  11.502 -0.0411  0.1611 -0.1016
 5908TIP3    H139139   1.252   5.634  11.492 -1.4707  0.2462  1.0523
 5908TIP3    H239140   1.324   5.750  11.428  1.3057 -1.8179  0.2368
 5909TIP3   OH239141   0.971   4.394   3.695  0.7019 -0.3333  0.1509
 5909TIP3    H139142   0.956   4.322   3.756  1.1965 -0.1479  0.4911
 5909TIP3    H239143   0.900   4.456   3.713 -0.1047 -1.0151 -0.5814
 5910TIP3   OH239144   2.616   0.380   3.956  0.4510  0.6124 -0.0102
 5910TIP3    H139145   2.643   0.438   4.027  2.8207 -0.8326  0.4004
 5910TIP3    H239146   2.579   0.303   3.999  1.3513 -0.0183 -0.3265
 5911TIP3   OH239147   0.940   1.494   3.321 -0.3400 -0.5992 -0.3766
 5911TIP3    H139148   0.999   1.566   3.342  0.0163 -1.2687  1.0056
 5911TIP3    H239149   0.866   1.505   3.381 -0.2993 -1.3680 -0.1797
 5912TIP3   OH239150   4.308   2.968  13.833 -0.0550  0.1665  0.1867
 5912TIP3    H139151   4.325   2.889  13.884 -0.4506  0.3288  0.5782
 5912TIP3    H239152   4.317   3.039  13.896  0.5412  0.4589 -0.2175
 5913TIP3   OH239153   4.302   1.712   1.529 -0.1133  0.3746  0.3337
 5913TIP3    H139154   4.260   1.674   1.606 -1.3379 -0.4540 -0.7094
 5913TIP3    H239155   4.354   1.785   1.564  0.3999 -0.7504  2.1009
 5914TIP3   OH239156   6.344   4.199   5.354  0.3672 -0.0658 -0.5292
 5914TIP3    H139157   6.287   4.133   5.394  3.1266 -3.0979 -1.1153
 5914TIP3    H239158   6.309   4.211   5.266 -0.6714 -0.0815 -0.1276
 5915TIP3   OH239159   3.811   5.273   5.440  0.1474  0.7975 -0.5865
 5915TIP3    H139160   3.865   5.227   5.504  0.1376  1.1872 -0.2906
 5915TIP3    H239161   3.867   5.284   5.364  0.4070  0.9790 -0.3706
 5916TIP3   OH239162   5.274   6.777  16.706 -0.1493  0.7989 -0.2435
 5916TIP3    H139163   5.356   6.729  16.691 -0.5620 -0.2472  0.6765
 5916TIP3    H239164   5.296   6.843  16.771  0.3581  1.7010 -1.3005
 5917TIP3   OH239165   6.078   6.526   0.369 -0.3754 -0.7522 -0.4896
 5917TIP3    H139166   6.126   6.501   0.448  0.8583 -1.1544 -1.3493
 5917TIP3    H239167   6.074   6.621   0.373 -1.4751 -0.8098  0.6949
 5918TIP3   OH239168   6.098   0.315  14.507  0.6228  0.4125 -0.5084
 5918TIP3    H139169   6.024   0.269  14.546  1.6209 -0.6578  0.1877
 5918TIP3    H239170   6.159   0.329  14.580  1.6905  0.0655 -1.3075
 5919TIP3   OH239171   4.534   2.588  16.703  0.4149 -0.0037 -0.3207
 5919TIP3    H139172   4.536   2.548  16.790 -0.0315 -0.0191 -0.3168
 5919TIP3    H239173   4.601   2.541  16.654 -0.1449 -0.8119 -0.3318
 5920TIP3   OH239174   4.106   4.448  16.613  0.0228 -0.1616  0.0559
 5920TIP3    H139175   4.189   4.413  16.581  0.4132  0.1444  0.7343
 5920TIP3    H239176   4.086   4.521  16.554 -0.2908 -0.8718 -0.7415
 5921TIP3   OH239177   5.536   4.695   3.171 -0.6222 -0.2882 -0.4318
 5921TIP3    H139178   5.527   4.620   3.112  2.5730 -0.0215 -1.4479
 5921TIP3    H239179   5.530   4.772   3.113 -2.4553  0.2416  0.3909
 5922TIP3   OH239180   2.184   5.239   1.280  0.0744  0.0020 -0.4298
 5922TIP3    H139181   2.276   5.235   1.309  0.0097  0.1100 -0.2041
 5922TIP3    H239182   2.177   5.172   1.213 -0.0953 -1.1856  0.7286
 5923TIP3   OH239183   1.362   3.382   6.469  0.0674 -0.4888  0.2528
 5923TIP3    H139184   1.430   3.446   6.490 -0.5206 -0.0938  1.0066
 5923TIP3    H239185   1.310   3.375   6.549  0.3573 -2.2240  0.3305
 5924TIP3   OH239186   3.686   6.052   6.306 -0.7782 -0.3525  0.3570
 5924TIP3    H139187   3.660   6.052   6.399 -1.8221 -0.4894  0.0785
 5924TIP3    H239188   3.697   5.959   6.285 -0.0273 -0.2940  0.4758
 5925TIP3   OH239189   2.555   6.310  12.178 -0.1160 -0.5747 -0.0209
 5925TIP3    H139190   2.597   6.224  12.183  0.6348 -0.2083  0.0785
 5925TIP3    H239191   2.464   6.290  12.156  0.2504 -1.3617 -0.9596
 5926TIP3   OH239192   4.956   5.648   6.874 -0.4302 -0.7710 -0.2833
 5926TIP3    H139193   4.889   5.702   6.833 -1.9171  0.2144  3.0782
 5926TIP3    H239194   4.911   5.566   6.896  0.0219 -0.9107  0.1462
 5927TIP3   OH239195   5.073   5.298   5.958  0.1894 -0.1432  0.7578
 5927TIP3    H139196   5.155   5.250   5.967  0.5432 -0.4673 -2.8759
 5927TIP3    H239197   5.097   5.390   5.970  1.6948  0.0076 -2.4158
 5928TIP3   OH239198   6.514   0.372   4.778 -0.1389  0.2716  0.5762
 5928TIP3    H139199   6.504   0.279   4.757  0.8043  0.2434  0.2049
 5928TIP3    H239200   6.583   0.374   4.844  0.9748  0.8235 -0.5645
 5929TIP3   OH239201   4.182   0.817   1.664  0.1669  0.2687  0.0321
 5929TIP3    H139202   4.275   0.820   1.642  0.5097  1.5770  1.5216
 5929TIP3    H239203   4.139   0.786   1.584  2.1038 -2.9137  0.0742
 5930TIP3   OH239204   4.074   6.370   1.655 -0.3163  0.4120  0.2902
 5930TIP3    H139205   4.088   6.278   1.678 -1.1651 -0.3297 -1.8437
 5930TIP3    H239206   4.148   6.416   1.694  1.0198 -1.4413  0.0945
 5931TIP3   OH239207   4.572   0.903   1.594  0.6797  0.6368 -0.2032
 5931TIP3    H139208   4.564   0.880   1.687  0.6076  3.0546  0.4831
 5931TIP3    H239209   4.664   0.890   1.574  0.8922  0.9664  0.5135
 5932TIP3   OH239210   1.953   4.373  14.819  0.2405  0.1582  0.2799
 5932TIP3    H139211   1.885   4.433  14.849  1.7348  1.9448  0.2424
 5932TIP3    H239212   1.936   4.362  14.726 -0.0269  0.5481  0.2801
 5933TIP3   OH239213   0.569   4.700   2.286  0.0811  0.2776  0.0319
 5933TIP3    H139214   0.618   4.700   2.368 -0.8778 -0.8017  0.6312
 5933TIP3    H239215   0.559   4.608   2.264 -0.1583  0.5433 -1.0147
 5934TIP3   OH239216   2.710   4.721   0.693  0.7437 -0.1198 -0.0856
 5934TIP3    H139217   2.734   4.813   0.683  0.5408 -0.1015 -0.3981
 5934TIP3    H239218   2.676   4.695   0.608 -0.1195 -0.2179  0.2812
 5935TIP3   OH239219   1.650   0.185  13.882  0.6983 -0.1522  0.3429
 5935TIP3    H139220   1.567   0.159  13.843  0.4687 -0.0909  0.7890
 5935TIP3    H239221   1.632   0.195  13.975  1.0414  0.5241  0.3460
 5936TIP3   OH239222   6.050   6.290  11.105 -0.0457 -0.2529 -0.3003
 5936TIP3    H139223   6.110   6.266  11.175  0.0878 -1.0024 -0.6615
 5936TIP3    H239224   6.058   6.385  11.098  0.4248 -0.2471  0.2583
 5937TIP3   OH239225   6.790   6.784  15.217 -0.1110 -0.9468 -0.3287
 5937TIP3    H139226   6.857   6.768  15.150  0.5760  0.7339 -0.0974
 5937TIP3    H239227   6.709   6.753  15.177  0.6119 -1.8940 -1.1067
 5938TIP3   OH239228   3.896   2.990  11.842 -0.2032  0.5024 -0.3245
 5938TIP3    H139229   3.893   3.055  11.772 -2.0030  0.4128 -0.3936
 5938TIP3    H239230   3.849   3.031  11.915 -1.0176 -0.5422 -0.2361
 5939TIP3   OH239231   1.357   1.128  14.442  0.3305 -0.1603  1.0377
 5939TIP3    H139232   1.330   1.183  14.368  0.8323  0.1243  1.0604
 5939TIP3    H239233   1.451   1.144  14.450  0.3904 -0.6506  1.3579
 5940TIP3   OH239234   1.441   3.927  13.688  0.0827  0.1771 -0.2753
 5940TIP3    H139235   1.376   3.996  13.681 -0.5527  0.0872  3.0668
 5940TIP3    H239236   1.404   3.854  13.639 -2.4853  0.0895  1.5873
 5941TIP3   OH239237   6.642   2.784  11.211 -0.6960  0.2072  0.1201
 5941TIP3    H139238   6.620   2.850  11.145 -0.9965 -0.9475 -0.9714
 5941TIP3    H239239   6.620   2.701  11.170  0.0117 -0.6060  1.3310
 5942TIP3   OH239240   2.594   5.533  15.814 -0.1907 -0.0958 -0.3824
 5942TIP3    H139241   2.578   5.555  15.722 -0.5943 -0.6951 -0.4577
 5942TIP3    H239242   2.529   5.584  15.863  0.8745  1.2617 -0.3091
 5943TIP3   OH239243   5.051   2.867   1.935 -0.8713 -0.1680  0.0445
 5943TIP3    H139244   5.082   2.879   2.024  1.4678  2.3797 -0.9706
 5943TIP3    H239245   5.057   2.954   1.895 -1.1578 -1.3294 -2.7702
 5944TIP3   OH239246   4.810   4.356  14.567  0.7618  0.0408  0.1075
 5944TIP3    H139247   4.749   4.399  14.628  1.1804 -0.2755  0.7618
 5944TIP3    H239248   4.884   4.416  14.561  0.7126  0.0801 -0.1113
 5945TIP3   OH239249   1.644   2.168  14.894  0.3231 -0.4760 -0.2594
 5945TIP3    H139250   1.675   2.077  14.900 -1.7524 -1.2625 -0.6048
 5945TIP3    H239251   1.674   2.209  14.975  2.0603 -1.1960 -0.4899
 5946TIP3   OH239252   1.452   4.644  15.721 -0.2115 -0.2965 -0.5585
 5946TIP3    H139253   1.528   4.694  15.750 -0.8461  0.8189 -0.7664
 5946TIP3    H239254   1.477   4.610  15.635 -0.8716  2.3207 -1.8778
 5947TIP3   OH239255   5.934   0.019  13.477 -0.3136  0.1848 -0.1771
 5947TIP3    H139256   5.862   0.017  13.414  0.3111  0.2265 -0.9134
 5947TIP3    H239257   5.963  -0.072  13.482  1.7050  0.5933 -2.4453
 5948TIP3   OH239258   3.913   2.228   0.860 -0.2121 -0.0299  0.2563
 5948TIP3    H139259   3.883   2.191   0.777  2.3487 -1.3819 -0.1641
 5948TIP3    H239260   3.979   2.293   0.835  0.6735 -0.5284  1.2168
 5949TIP3   OH239261   5.946   5.020  15.225  0.0017  0.0307 -0.2001
 5949TIP3    H139262   5.990   5.084  15.281  0.9189  0.9262 -1.8534
 5949TIP3    H239263   5.986   5.032  15.139 -0.4499 -2.1562 -0.7911
 5950TIP3   OH239264   0.631   2.483   5.850  0.4631 -0.3233 -0.2315
 5950TIP3    H139265   0.579   2.430   5.791 -0.7145  0.7325 -0.1853
 5950TIP3    H239266   0.689   2.533   5.793 -1.0794  1.1386 -0.6195
 5951TIP3   OH239267   5.163   1.823   1.464 -0.1278 -0.2822  0.0672
 5951TIP3    H139268   5.130   1.861   1.383 -2.5874 -2.8190 -0.2814
 5951TIP3    H239269   5.121   1.873   1.533  1.1747  1.2211 -0.1653
 5952TIP3   OH239270   1.995   0.572   2.405 -0.4144  0.2643  0.2359
 5952TIP3    H139271   1.987   0.570   2.310  0.7685 -0.7051  0.1299
 5952TIP3    H239272   2.040   0.654   2.424  1.0013 -0.3829 -0.2133
 5953TIP3   OH239273   4.872   2.255   2.637 -0.1559 -0.1626  0.6898
 5953TIP3    H139274   4.827   2.212   2.710  0.7913 -0.8708  0.8673
 5953TIP3    H239275   4.826   2.339   2.627  1.1488  1.0051  3.6308
 5954TIP3   OH239276   4.977   5.253  12.155  0.1451 -0.1674 -0.0355
 5954TIP3    H139277   5.067   5.281  12.138  0.1736 -0.0399  0.3050
 5954TIP3    H239278   4.931   5.266  12.072  0.3572  0.1044 -0.1117
 5955TIP3   OH239279   6.724   2.949   2.879 -0.7081  0.2802 -0.3769
 5955TIP3    H139280   6.646   2.969   2.827 -0.6191  1.7092 -0.0230
 5955TIP3    H239281   6.701   2.978   2.968 -0.6807 -1.6432  0.2890
 5956TIP3   OH239282   4.827   0.352   4.606 -0.6938  0.0489  0.0463
 5956TIP3    H139283   4.781   0.433   4.628 -0.3162  0.2310  0.1780
 5956TIP3    H239284   4.768   0.305   4.547  0.3701  1.8561 -2.6302
 5957TIP3   OH239285   3.944   4.039  11.426  0.2657 -0.5226 -0.0548
 5957TIP3    H139286   4.010   4.035  11.496 -0.8124  1.9696  1.2668
 5957TIP3    H239287   3.862   4.018  11.470 -0.3449  0.4810 -0.6736
 5958TIP3   OH239288   2.924   3.913   6.001  0.2518  0.1264 -0.2393
 5958TIP3    H139289   2.987   3.856   5.955 -1.4736 -1.2745 -1.0102
 5958TIP3    H239290   2.977   3.961   6.064  2.1744 -0.5846 -1.2104
 5959TIP3   OH239291   0.665   3.440  11.242  0.0086  0.3409 -0.1959
 5959TIP3    H139292   0.725   3.506  11.275  1.1722 -0.2656 -1.0496
 5959TIP3    H239293   0.606   3.422  11.315  2.0305 -0.4089  1.3130
 5960TIP3   OH239294   0.512   3.182   2.952 -0.2782 -0.9409 -0.4299
 5960TIP3    H139295   0.593   3.132   2.962  1.3318  1.5324  0.0936
 5960TIP3    H239296   0.476   3.187   3.040  0.9441  0.7889  0.0471
 5961TIP3   OH239297   0.004   5.442  15.562  0.0065  0.0958  0.0998
 5961TIP3    H139298  -0.087   5.462  15.540 -0.6218 -0.8570  1.6457
 5961TIP3    H239299   0.026   5.505  15.631  0.0209 -0.6005  0.7426
 5962TIP3   OH239300   5.219   4.749  13.498  0.1324 -0.7225 -0.0448
 5962TIP3    H139301   5.148   4.743  13.562  0.2119  0.2246  0.1501
 5962TIP3    H239302   5.192   4.691  13.426 -3.5836  3.4116 -2.5177
 5963TIP3   OH239303   0.366   2.858   5.785  0.4784 -0.5123 -0.8791
 5963TIP3    H139304   0.370   2.774   5.829  2.1009  0.5219  1.1007
 5963TIP3    H239305   0.274   2.886   5.795  0.6771 -0.5209  1.5605
 5964TIP3   OH239306   1.101   4.736   1.674 -0.3079  0.0043 -0.2501
 5964TIP3    H139307   1.113   4.803   1.606  1.7915 -0.8783 -0.8345
 5964TIP3    H239308   1.153   4.767   1.748 -1.5205  0.3065  0.4988
 5965TIP3   OH239309   3.585   6.640  17.234  0.0048 -0.5287  0.2158
 5965TIP3    H139310   3.508   6.695  17.247 -0.4675 -1.2993  0.7801
 5965TIP3    H239311   3.659   6.701  17.236 -0.4952  0.0664  0.9309
 5966TIP3   OH239312   4.858   4.516   4.858 -0.4337  0.1730  0.1067
 5966TIP3    H139313   4.845   4.435   4.809  0.1060 -1.5689  2.6307
 5966TIP3    H239314   4.786   4.518   4.921 -1.4431  2.6357 -1.0040
 5967TIP3   OH239315   3.724   0.524   6.233 -0.3702 -0.2409  0.1915
 5967TIP3    H139316   3.819   0.517   6.230 -0.4268 -0.8890 -1.5680
 5967TIP3    H239317   3.697   0.455   6.293  0.1900 -1.7840 -1.2418
 5968TIP3   OH239318   4.505   1.718  13.243 -0.2311  0.4900 -0.9447
 5968TIP3    H139319   4.521   1.810  13.225  0.7025  0.4662 -0.2804
 5968TIP3    H239320   4.426   1.717  13.298  0.0204  0.9206 -0.5753
 5969TIP3   OH239321   5.617   0.877  16.022 -0.2346 -0.6703 -0.0832
 5969TIP3    H139322   5.663   0.950  15.980 -0.1477  0.6131  2.0760
 5969TIP3    H239323   5.671   0.801  16.003 -0.2795 -0.2121 -2.3440
 5970TIP3   OH239324   2.313   3.515  13.634  0.4082 -0.0282  0.1636
 5970TIP3    H139325   2.391   3.556  13.673 -0.1711 -0.0461  1.3746
 5970TIP3    H239326   2.244   3.530  13.698 -0.4183 -0.6729 -0.5626
 5971TIP3   OH239327   3.884   5.335  13.924 -0.4205 -0.0972  0.0415
 5971TIP3    H139328   3.950   5.314  13.858  1.2084 -2.3523  2.2038
 5971TIP3    H239329   3.812   5.274  13.907 -0.4428  0.0079 -0.2380
 5972TIP3   OH239330   6.360   5.321  15.718 -0.4547 -0.7551 -0.1950
 5972TIP3    H139331   6.286   5.371  15.684 -0.3597 -0.0994  0.5468
 5972TIP3    H239332   6.346   5.232  15.684 -0.6203 -0.2483 -1.5373
 5973TIP3   OH239333   4.475   1.532   1.918 -0.3198 -0.2243  0.0031
 5973TIP3    H139334   4.477   1.436   1.919 -1.6243 -0.3120 -1.2096
 5973TIP3    H239335   4.428   1.553   1.837 -1.8916  1.3773  1.2522
 5974TIP3   OH239336   0.447   5.034   0.924 -0.2816  0.1183  0.3462
 5974TIP3    H139337   0.385   4.963   0.943 -1.5637  0.6237 -1.6894
 5974TIP3    H239338   0.479   5.061   1.011 -0.8677 -1.9405  1.2693
 5975TIP3   OH239339   5.424   5.839  15.248 -0.1383  0.1879  0.2045
 5975TIP3    H139340   5.513   5.874  15.241 -0.4109  1.0313  0.7686
 5975TIP3    H239341   5.434   5.745  15.236  0.7383  0.3559 -0.4562
 5976TIP3   OH239342   3.762   5.634   3.801 -0.1086 -0.6903 -0.1659
 5976TIP3    H139343   3.839   5.580   3.816 -0.5736 -1.4955 -0.6150
 5976TIP3    H239344   3.739   5.619   3.709 -1.4019 -1.2836  0.2199
 5977TIP3   OH239345   5.586   4.006   4.610  0.1115 -0.3252 -0.5097
 5977TIP3    H139346   5.642   4.030   4.683  1.3970  0.1009 -1.6009
 5977TIP3    H239347   5.541   3.926   4.639  0.6621 -0.2074  0.6967
 5978TIP3   OH239348   5.092   5.693  16.766 -0.0096 -0.0056 -0.2758
 5978TIP3    H139349   5.095   5.601  16.740 -0.7895  0.0656 -0.6543
 5978TIP3    H239350   4.999   5.710  16.782  0.2152  0.5107  0.5408
 5979TIP3   OH239351   5.424   0.681  16.384 -0.2326  0.4027 -0.4888
 5979TIP3    H139352   5.448   0.770  16.358  0.0108  1.3265  2.4812
 5979TIP3    H239353   5.330   0.685  16.401 -0.1567  0.2155  0.0054
 5980TIP3   OH239354   3.242   3.957   4.087 -0.3762 -0.4298  0.3077
 5980TIP3    H139355   3.225   3.933   3.996 -0.6305 -0.5482  0.3861
 5980TIP3    H239356   3.161   3.938   4.132  0.6096 -3.0747  1.1258
 5981TIP3   OH239357   5.116   6.594  12.314 -0.4794 -0.4533  0.0416
 5981TIP3    H139358   5.144   6.503  12.323 -1.4989 -0.7667  0.0900
 5981TIP3    H239359   5.198   6.643  12.304  0.0527 -1.4198 -0.4308
 5982TIP3   OH239360   6.496   1.823   3.714 -0.6572  0.0474 -0.4879
 5982TIP3    H139361   6.555   1.781   3.651 -1.5601 -1.1953 -0.5429
 5982TIP3    H239362   6.409   1.814   3.675 -1.1417 -0.0751  0.5990
 5983TIP3   OH239363   1.458   4.772  11.796  0.2135 -0.4106  0.4177
 5983TIP3    H139364   1.488   4.772  11.887  1.4625  1.0950  0.0528
 5983TIP3    H239365   1.537   4.750  11.746 -0.5854 -1.7703 -0.3069
 5984TIP3   OH239366   3.321   1.173   4.842 -0.0847 -0.5685 -0.0229
 5984TIP3    H139367   3.332   1.081   4.864 -1.3774 -0.8612 -0.5142
 5984TIP3    H239368   3.299   1.173   4.748  0.9427  0.3250 -0.2910
 5985TIP3   OH239369   3.166   4.565   2.052  0.2412  0.1004 -0.5110
 5985TIP3    H139370   3.231   4.582   1.983 -0.5806 -1.3864 -1.7051
 5985TIP3    H239371   3.149   4.471   2.047  1.6118 -0.5333  3.0744
 5986TIP3   OH239372   2.765   3.587   0.030  0.0381 -0.4566 -0.1829
 5986TIP3    H139373   2.764   3.680   0.054  1.2200 -0.5534  0.3327
 5986TIP3    H239374   2.711   3.544   0.097 -0.3384 -0.1694 -0.3005
 5987TIP3   OH239375   3.758   4.025   4.337  0.1091  0.4178  0.3246
 5987TIP3    H139376   3.773   4.114   4.305 -1.0930 -0.3081 -2.4964
 5987TIP3    H239377   3.663   4.020   4.351  0.1713 -0.4321  0.4798
 5988TIP3   OH239378   4.022   1.242  16.870  0.0789 -0.3433 -0.0739
 5988TIP3    H139379   4.054   1.297  16.799  0.1117  0.2811  0.4166
 5988TIP3    H239380   4.098   1.189  16.895  0.5281  0.5705  0.5524
 5989TIP3   OH239381   4.766   3.228  14.999 -0.2922 -0.1425  0.0316
 5989TIP3    H139382   4.724   3.284  14.934 -1.2913 -0.9160 -0.0060
 5989TIP3    H239383   4.753   3.274  15.083 -1.4905 -0.5230  0.0632
 5990TIP3   OH239384   3.672   1.236  13.528 -0.0386 -0.2094 -0.1211
 5990TIP3    H139385   3.762   1.258  13.505 -0.2744  0.4342 -0.4870
 5990TIP3    H239386   3.645   1.305  13.588  0.3341 -1.4876  1.5703
 5991TIP3   OH239387   2.236   6.294   1.499  0.2646  0.4039  0.8800
 5991TIP3    H139388   2.325   6.320   1.522 -0.3708  1.8915  1.8072
 5991TIP3    H239389   2.228   6.313   1.405  0.9860  0.0163  0.7351
 5992TIP3   OH239390   5.082   3.575  16.261 -0.1962 -0.4025 -0.0467
 5992TIP3    H139391   5.012   3.586  16.196  0.2019 -2.0726 -0.8108
 5992TIP3    H239392   5.061   3.492  16.304 -1.5806  1.5471  3.4590
 5993TIP3   OH239393   6.512   3.830  11.847 -0.0411 -0.4510  0.8285
 5993TIP3    H139394   6.551   3.872  11.924 -0.3360  0.9966  0.2349
 5993TIP3    H239395   6.418   3.847  11.857 -0.2705 -1.7744  1.0115
 5994TIP3   OH239396   1.829   4.311  10.940 -0.5164 -0.1912 -0.3756
 5994TIP3    H139397   1.822   4.354  10.855  0.4061  1.8203  0.4863
 5994TIP3    H239398   1.745   4.329  10.983 -0.3197  0.3651 -0.2091
 5995TIP3   OH239399   3.596   4.440   0.719  0.2742 -0.7104  0.3558
 5995TIP3    H139400   3.634   4.524   0.695 -1.6091  0.2380  0.5098
 5995TIP3    H239401   3.540   4.417   0.645 -2.7412  0.4488  2.1075
 5996TIP3   OH239402   1.555   0.918  14.290  0.5488  0.0923  0.0230
 5996TIP3    H139403   1.524   0.942  14.377 -0.0378 -2.6955  0.6808
 5996TIP3    H239404   1.486   0.946  14.231 -0.8637 -1.3837  0.9110
 5997TIP3   OH239405   2.151   3.887  14.222 -0.1257 -0.5278  0.9072
 5997TIP3    H139406   2.062   3.891  14.189 -0.4099  1.5897  1.7686
 5997TIP3    H239407   2.203   3.934  14.157 -0.3750  1.8804  2.2952
 5998TIP3   OH239408   0.259   5.380   4.253 -1.0849 -0.3535 -0.1751
 5998TIP3    H139409   0.211   5.459   4.279 -1.4512 -0.5309 -0.2904
 5998TIP3    H239410   0.292   5.400   4.165  0.2742  0.2982  0.4619
 5999TIP3   OH239411   3.811   5.080   3.240 -0.0547  0.7772  0.5317
 5999TIP3    H139412   3.754   5.012   3.204  2.1278 -0.6558 -0.4385
 5999TIP3    H239413   3.796   5.076   3.334  0.0283 -1.1124  0.5046
 6000TIP3   OH239414   1.033   0.955  16.935  0.8003 -0.1879 -0.3380
 6000TIP3    H139415   1.052   0.937  16.843 -0.9872  2.9941 -1.4933
 6000TIP3    H239416   0.946   0.918  16.950  1.2864 -1.1273  0.2671
 6001TIP3   OH239417   4.466   3.014  10.811  0.1160  0.3061 -0.7040
 6001TIP3    H139418   4.392   3.074  10.798 -0.8962 -0.4601  1.1002
 6001TIP3    H239419   4.537   3.070  10.843 -0.6181  0.6667  0.3550
 6002TIP3   OH239420   2.293   2.058   3.972  0.7337  0.1882  0.3623
 6002TIP3    H139421   2.382   2.092   3.967  1.0089 -0.6224 -2.3174
 6002TIP3    H239422   2.241   2.118   3.919 -0.4500  0.8861  2.2265
 6003TIP3   OH239423   3.514   0.133   2.702 -0.8603  0.2910  0.4769
 6003TIP3    H139424   3.444   0.165   2.644  0.6844  1.9748 -0.5608
 6003TIP3    H239425   3.519   0.199   2.771  0.0348  0.4939  0.2356
 6004TIP3   OH239426   4.517   3.082  12.961  0.5024 -0.0735 -0.5257
 6004TIP3    H139427   4.545   3.029  13.036 -1.1108  2.5803  2.1895
 6004TIP3    H239428   4.579   3.154  12.957 -1.3312  1.6839  0.6277
 6005TIP3   OH239429   2.077   2.783   4.183  0.4106  0.0667 -0.1448
 6005TIP3    H139430   2.169   2.801   4.202  0.5707 -0.5325 -0.3368
 6005TIP3    H239431   2.063   2.693   4.213 -0.1691  0.2226  0.0758
 6006TIP3   OH239432   6.540   4.817  13.025 -0.4788 -0.1756  0.1619
 6006TIP3    H139433   6.568   4.841  12.937 -1.2108 -3.4183 -1.0964
 6006TIP3    H239434   6.445   4.826  13.023 -0.4708  0.1308  0.7908
 6007TIP3   OH239435   1.359   5.745   4.297 -0.2333 -0.0317 -0.2279
 6007TIP3    H139436   1.275   5.756   4.340 -0.3184 -1.4961  0.0233
 6007TIP3    H239437   1.342   5.764   4.205 -0.5102  1.0537  0.0370
 6008TIP3   OH239438   4.654   2.967   4.773  0.4838 -0.0958 -0.4610
 6008TIP3    H139439   4.675   3.050   4.731 -0.7114 -0.5580 -2.0483
 6008TIP3    H239440   4.651   2.989   4.867 -0.4647  1.8080 -0.8802
 6009TIP3   OH239441   0.399   4.735  11.227  0.2667  0.1010  0.3805
 6009TIP3    H139442   0.438   4.818  11.200  2.7351 -1.0053  0.2527
 6009TIP3    H239443   0.386   4.687  11.145  0.8504 -0.4308  0.5893
 6010TIP3   OH239444   1.681   5.252   0.061  0.2926  0.3440  0.2455
 6010TIP3    H139445   1.686   5.342   0.094 -0.6527  1.5685 -2.6691
 6010TIP3    H239446   1.711   5.258  -0.029 -0.6736 -2.1406 -0.3143
 6011TIP3   OH239447   1.947   6.435  11.359  0.2343 -0.4687  0.4004
 6011TIP3    H139448   1.864   6.483  11.350  0.0807 -0.3129  2.1699
 6011TIP3    H239449   1.995   6.484  11.425  0.6699 -1.9551  1.2296
 6012TIP3   OH239450   3.294   1.213  12.014 -0.2439 -0.0656  0.3077
 6012TIP3    H139451   3.350   1.184  11.943 -1.9733 -0.1419 -1.0878
 6012TIP3    H239452   3.327   1.167  12.091  1.0823 -0.7183 -0.6180
 6013TIP3   OH239453   1.052   5.009   5.700 -0.4502 -0.1727  0.0975
 6013TIP3    H139454   0.983   5.072   5.722 -0.0544  0.1791  0.3516
 6013TIP3    H239455   1.017   4.925   5.728 -0.2054  0.1875  1.5881
 6014TIP3   OH239456   1.063   0.010   5.292  0.1126  0.3473  0.3103
 6014TIP3    H139457   0.973   0.007   5.260  0.2762  0.7723 -0.2018
 6014TIP3    H239458   1.064  -0.049   5.368  0.0023 -1.6396 -1.1452
 6015TIP3   OH239459   0.784   4.886   6.727  1.0076 -0.6519 -0.0632
 6015TIP3    H139460   0.703   4.891   6.675  1.3856 -0.3630 -0.6408
 6015TIP3    H239461   0.852   4.917   6.667  1.4877 -0.5205  0.5443
 6016TIP3   OH239462   3.204   3.453   6.062  0.5111 -0.2146  0.1841
 6016TIP3    H139463   3.173   3.409   5.982  2.1047 -0.3951 -0.3584
 6016TIP3    H239464   3.124   3.487   6.102 -0.5654 -1.8936 -0.4098
 6017TIP3   OH239465   3.901   1.526  11.656 -0.1581  0.0416  0.5052
 6017TIP3    H139466   3.839   1.537  11.728 -0.7496  0.0290  0.0015
 6017TIP3    H239467   3.861   1.571  11.582 -0.1832 -1.0646 -0.1743
 6018TIP3   OH239468   6.735   6.628  12.906  0.4730 -0.3155 -0.6654
 6018TIP3    H139469   6.673   6.659  12.840  1.1235 -0.2739 -1.2585
 6018TIP3    H239470   6.682   6.619  12.986 -0.8796 -2.6050 -1.7170
 6019TIP3   OH239471   1.149   3.589   1.353 -0.1279 -0.2306  0.5827
 6019TIP3    H139472   1.084   3.572   1.285  0.8335 -0.8489 -0.1956
 6019TIP3    H239473   1.234   3.578   1.310  0.5392  1.6022  1.3096
 6020TIP3   OH239474   5.636   3.921   5.815  0.3630 -0.3164 -0.3050
 6020TIP3    H139475   5.571   3.857   5.787 -1.2197  1.4631 -0.8711
 6020TIP3    H239476   5.590   4.005   5.814  2.6295  1.0113 -0.5869
 6021TIP3   OH239477   4.232   5.252   1.573 -0.1299 -1.2016 -0.1343
 6021TIP3    H139478   4.202   5.335   1.610 -0.7939  0.2151 -3.5351
 6021TIP3    H239479   4.325   5.249   1.594  0.2261  1.1459 -1.1294
 6022TIP3   OH239480   0.958   5.945   3.980 -0.6013 -0.2628  0.0544
 6022TIP3    H139481   0.869   5.916   3.999 -0.7976  0.8681  0.9575
 6022TIP3    H239482   0.982   5.898   3.899 -1.1001 -2.4181  1.0866
 6023TIP3   OH239483   5.376   3.679   3.530  0.4627 -0.0329  0.1833
 6023TIP3    H139484   5.304   3.717   3.579  1.9364  2.0525  0.8568
 6023TIP3    H239485   5.386   3.736   3.453  0.6219 -1.0231 -0.5591
 6024TIP3   OH239486   0.015   5.044  13.923  0.3154 -0.1331 -0.1201
 6024TIP3    H139487  -0.045   4.996  13.980  1.8742 -0.1865  1.5622
 6024TIP3    H239488  -0.027   5.041  13.837 -0.8993 -2.2520  0.4628
 6025TIP3   OH239489   1.153   3.219  14.748  0.6608  1.0794 -0.6264
 6025TIP3    H139490   1.144   3.193  14.839 -0.9052  1.8436 -0.5222
 6025TIP3    H239491   1.205   3.150  14.707  0.4557  0.1841  0.6012
 6026TIP3   OH239492   1.328   1.854   3.371 -0.1348 -0.5416 -0.0183
 6026TIP3    H139493   1.379   1.845   3.451 -0.8669 -0.9688  0.4089
 6026TIP3    H239494   1.352   1.940   3.337 -1.5426  0.6841  1.8923
 6027TIP3   OH239495   2.572   4.308  16.117  0.3455 -0.4257 -0.0392
 6027TIP3    H139496   2.611   4.351  16.193 -0.5571 -1.4773  1.0684
 6027TIP3    H239497   2.513   4.373  16.080 -0.5805 -0.4723  1.2793
 6028TIP3   OH239498   2.693   0.164   2.366  0.1909 -0.3103  0.5366
 6028TIP3    H139499   2.609   0.170   2.412  0.0959  1.9614  0.2204
 6028TIP3    H239500   2.670   0.175   2.273  0.8556  1.2336  0.5221
 6029TIP3   OH239501   4.356   4.218  13.252  0.1954  0.5955  0.4464
 6029TIP3    H139502   4.286   4.174  13.301  1.0682 -0.4569  0.8118
 6029TIP3    H239503   4.436   4.193  13.299  0.7106  3.1076  1.0378
 6030TIP3   OH239504   5.257   2.448   6.317  0.1579  0.4442  0.6266
 6030TIP3    H139505   5.286   2.428   6.406  1.6070 -0.4007  0.0044
 6030TIP3    H239506   5.247   2.544   6.316  1.0111  0.5585  1.4445
 6031TIP3   OH239507   3.457   5.504  13.954 -0.1091 -0.0975 -0.6648
 6031TIP3    H139508   3.548   5.529  13.940 -0.4008  0.8167 -0.9377
 6031TIP3    H239509   3.422   5.570  14.013 -0.0238 -1.6348  1.2211
 6032TIP3   OH239510   5.416   0.961   5.534  0.1976 -0.1590 -0.3227
 6032TIP3    H139511   5.436   1.054   5.525 -3.0178  0.8314  1.3022
 6032TIP3    H239512   5.347   0.945   5.469 -2.4341 -0.1675  2.2850
 6033TIP3   OH239513   3.910   4.002  16.281 -0.1880  0.1894  0.1869
 6033TIP3    H139514   3.875   3.999  16.371  0.3836  0.5217  0.4242
 6033TIP3    H239515   3.998   4.038  16.291  0.1040 -0.3538 -0.4448
 6034TIP3   OH239516   3.892   2.461   6.206 -0.3736 -0.3264 -0.1653
 6034TIP3    H139517   3.936   2.477   6.289 -0.1000 -0.0778 -0.3568
 6034TIP3    H239518   3.799   2.458   6.228 -0.4088  1.0282 -0.0424
 6035TIP3   OH239519   2.161   0.841  10.322 -0.4141  0.0720 -0.7015
 6035TIP3    H139520   2.195   0.777  10.384  0.8072  0.7195 -0.6783
 6035TIP3    H239521   2.073   0.862  10.356 -0.3031 -0.5889  0.0277
 6036TIP3   OH239522   1.068   2.408   2.649 -0.0339  0.0517  0.1104
 6036TIP3    H139523   1.043   2.499   2.662  0.9499  0.2175  0.9626
 6036TIP3    H239524   1.140   2.410   2.587 -1.5388 -0.3738 -1.7679
 6037TIP3   OH239525   1.034   6.186  13.732  0.5813  0.0977 -0.6423
 6037TIP3    H139526   0.958   6.132  13.712 -0.3724  0.3319  1.9639
 6037TIP3    H239527   1.049   6.237  13.652 -0.1378 -2.0181 -2.2221
 6038TIP3   OH239528   1.972   0.296  16.431 -0.1412 -0.3502 -0.1116
 6038TIP3    H139529   1.970   0.391  16.429  0.8998 -0.3342 -0.8072
 6038TIP3    H239530   2.006   0.274  16.517 -0.9644 -0.1235  0.2872
 6039TIP3   OH239531   4.836   2.070   1.423 -0.4865 -0.0242  0.0474
 6039TIP3    H139532   4.763   2.131   1.411 -1.6294 -1.4517 -0.5740
 6039TIP3    H239533   4.856   2.038   1.334  3.7879  3.4030 -0.5629
 6040TIP3   OH239534   4.984   6.081   4.653 -0.3452  0.4167  0.0672
 6040TIP3    H139535   4.968   6.164   4.698  1.1328  1.3227 -0.9769
 6040TIP3    H239536   4.919   6.079   4.583 -0.7596  0.4129  0.4489
 6041TIP3   OH239537   2.841   4.397   2.952 -0.2088 -0.2856  0.1690
 6041TIP3    H139538   2.862   4.304   2.957  0.9654 -0.0944 -0.6406
 6041TIP3    H239539   2.894   4.438   3.020 -0.1985 -0.1406  0.0764
 6042TIP3   OH239540   2.651   3.687   3.390  0.3650  0.0507 -0.5372
 6042TIP3    H139541   2.724   3.682   3.328 -0.8146  2.0472 -2.2226
 6042TIP3    H239542   2.666   3.768   3.439 -0.2870  0.0874 -0.3784
 6043TIP3   OH239543   5.422   1.792   2.302 -0.6845 -0.0478 -0.3377
 6043TIP3    H139544   5.385   1.740   2.230 -0.0683 -0.3528 -0.4375
 6043TIP3    H239545   5.490   1.736   2.339  0.7361  1.1019 -1.1310
 6044TIP3   OH239546   4.536   0.868  14.264  0.4107 -0.1196 -0.5911
 6044TIP3    H139547   4.474   0.915  14.320  0.6377  0.7027 -1.0262
 6044TIP3    H239548   4.513   0.894  14.175  0.8381 -0.4702 -0.8059
 6045TIP3   OH239549   3.549   4.468  13.832  0.1359 -0.1219 -0.0235
 6045TIP3    H139550   3.576   4.546  13.880  1.3047  0.1471 -1.0945
 6045TIP3    H239551   3.630   4.425  13.808 -0.4881 -1.9572  0.9413
 6046TIP3   OH239552   0.234   3.793  11.532  0.0195  0.0491 -0.5944
 6046TIP3    H139553   0.241   3.835  11.446 -0.1690 -0.8273 -1.0507
 6046TIP3    H239554   0.324   3.773  11.557 -0.0117 -1.0651 -1.2999
 6047TIP3   OH239555   6.206   6.274  13.711 -0.2851  0.8970 -0.6338
 6047TIP3    H139556   6.231   6.309  13.625  1.7082  1.1402 -0.0091
 6047TIP3    H239557   6.173   6.350  13.759 -2.4770  0.5567 -1.5025
 6048TIP3   OH239558   0.239   4.224   0.248  0.0896 -0.2590 -0.8415
 6048TIP3    H139559   0.297   4.172   0.302 -0.2565  1.8962  1.8145
 6048TIP3    H239560   0.167   4.165   0.226  0.4353 -1.3420  0.7505
 6049TIP3   OH239561   6.602   1.723   5.370  0.0420 -0.3634 -0.4245
 6049TIP3    H139562   6.542   1.780   5.418 -0.4208 -0.3737 -0.9877
 6049TIP3    H239563   6.565   1.635   5.382  2.2061 -1.0068  2.7502
 6050TIP3   OH239564   2.211   0.810   4.167 -0.3982 -0.7940 -0.6366
 6050TIP3    H139565   2.165   0.740   4.213 -1.7064  0.1621 -0.4351
 6050TIP3    H239566   2.147   0.881   4.161  0.6089  0.0680 -1.6100
 6051TIP3   OH239567   2.417   6.257  16.756  0.0191  0.7143 -0.1355
 6051TIP3    H139568   2.465   6.208  16.822  2.3546  2.7246 -0.2350
 6051TIP3    H239569   2.325   6.239  16.775  0.7011 -1.4152  1.5153
 6052TIP3   OH239570   4.429   3.235   3.340 -0.4535 -0.1016  0.7794
 6052TIP3    H139571   4.450   3.257   3.249 -0.0420 -0.1706  0.8588
 6052TIP3    H239572   4.342   3.195   3.335 -0.5386  0.1240  0.4456
 6053TIP3   OH239573   4.115   1.184  17.220 -0.3220 -0.3915 -0.2783
 6053TIP3    H139574   4.153   1.140  17.144  2.8391  0.3911  0.6973
 6053TIP3    H239575   4.189   1.200  17.278 -2.3448  0.5570  2.2445
 6054TIP3   OH239576   4.000   6.681   1.867  0.0306  0.1048 -0.6999
 6054TIP3    H139577   4.028   6.671   1.776 -0.4208  1.4473 -1.0008
 6054TIP3    H239578   3.964   6.595   1.890 -1.2268  0.1664 -2.2734
 6055TIP3   OH239579   3.663   1.516  13.190  0.3467  0.2692 -0.2130
 6055TIP3    H139580   3.637   1.553  13.106  1.5111  1.6870  0.0186
 6055TIP3    H239581   3.755   1.541  13.200  1.3266 -2.9099 -0.1479
 6056TIP3   OH239582   2.494   5.913  15.721 -0.2916 -0.2739  0.3126
 6056TIP3    H139583   2.433   5.935  15.651 -0.7171  0.3871  0.8854
 6056TIP3    H239584   2.450   5.844  15.771 -0.1205 -0.5231  0.1264
 6057TIP3   OH239585   0.712   1.217  11.883  0.4689  0.1157 -0.2041
 6057TIP3    H139586   0.639   1.168  11.845 -0.5510  0.0527  1.7393
 6057TIP3    H239587   0.759   1.252  11.807 -2.8710  2.0970 -1.5877
 6058TIP3   OH239588   1.508   0.553  15.052 -0.5045  0.1466 -0.2483
 6058TIP3    H139589   1.556   0.613  15.109  0.5933 -0.7612 -0.1895
 6058TIP3    H239590   1.452   0.503  15.112 -3.7670  3.0145 -0.5203
 6059TIP3   OH239591   5.801   0.548   4.270  0.2812 -0.8917  0.1295
 6059TIP3    H139592   5.723   0.540   4.325 -0.9173 -1.1461 -1.5439
 6059TIP3    H239593   5.861   0.603   4.321 -1.9295  1.3508  0.5105
 6060TIP3   OH239594   3.673   3.635   4.363  0.0207 -0.5285  0.1098
 6060TIP3    H139595   3.579   3.618   4.351 -0.0516 -1.3043  1.5871
 6060TIP3    H239596   3.693   3.703   4.299 -1.5414 -0.3772 -0.2625
 6061TIP3   OH239597   4.864   5.818  11.003 -0.5786  0.1539  0.3324
 6061TIP3    H139598   4.835   5.763  11.077  1.5114 -1.0714  0.3150
 6061TIP3    H239599   4.949   5.783  10.979 -0.2952  1.8482 -1.3732
 6062TIP3   OH239600   5.583   0.459  16.679  0.1730 -0.1306 -0.2784
 6062TIP3    H139601   5.659   0.418  16.639  0.2796 -1.2247  0.9803
 6062TIP3    H239602   5.601   0.553  16.672  1.2750 -0.3501 -0.6837
 6063TIP3   OH239603   0.409   5.268  14.194 -0.2957  0.5675  0.0916
 6063TIP3    H139604   0.329   5.216  14.205  0.9490 -1.1649  1.5225
 6063TIP3    H239605   0.453   5.227  14.120  0.6672 -0.4282  1.1903
 6064TIP3   OH239606   4.351   1.586   3.975  0.1387  0.4304 -0.4057
 6064TIP3    H139607   4.385   1.673   3.955 -1.0210  0.8039 -0.7911
 6064TIP3    H239608   4.390   1.564   4.060  0.3249  1.3786 -0.2358
 6065TIP3   OH239609   4.803   5.544  14.112 -0.4183 -0.0822  0.1575
 6065TIP3    H139610   4.786   5.474  14.049 -0.2606 -0.5727  0.6479
 6065TIP3    H239611   4.888   5.522  14.150 -0.9061 -0.3047  1.1765
 6066TIP3   OH239612   2.719   4.867  12.960  0.6084 -0.3570  0.1271
 6066TIP3    H139613   2.765   4.950  12.949  1.9173 -1.0300  0.3290
 6066TIP3    H239614   2.763   4.825  13.034  1.4638 -2.1889 -1.3278
 6067TIP3   OH239615   1.751   5.081   3.834 -0.1853 -0.0906  0.2825
 6067TIP3    H139616   1.666   5.059   3.871 -0.0069  1.1997  1.5600
 6067TIP3    H239617   1.746   5.175   3.816  0.2589 -0.3862 -1.6732
 6068TIP3   OH239618   6.170   1.656   0.258  0.2477 -0.0724 -0.0148
 6068TIP3    H139619   6.083   1.695   0.247  0.4002 -0.1407 -1.7075
 6068TIP3    H239620   6.231   1.728   0.241  0.5699  0.1895  1.9968
 6069TIP3   OH239621   6.272   2.844   2.760 -0.6512 -0.3065 -0.7526
 6069TIP3    H139622   6.333   2.915   2.740 -0.0820 -0.3827  0.6557
 6069TIP3    H239623   6.328   2.771   2.787 -1.3013 -0.8328 -0.8133
 6070TIP3   OH239624   3.908   1.307   1.803 -0.2707 -0.2326 -0.3569
 6070TIP3    H139625   3.893   1.399   1.825 -3.0695 -0.6325 -0.1782
 6070TIP3    H239626   3.837   1.260   1.847  0.2708 -2.3138 -1.5608
 6071TIP3   OH239627   5.509   0.678   3.323 -0.0910 -0.0090  0.1138
 6071TIP3    H139628   5.538   0.593   3.358 -1.4653 -0.3932  0.3793
 6071TIP3    H239629   5.479   0.659   3.234 -0.7429  0.1080  0.2983
 6072TIP3   OH239630   1.636   0.368   3.423 -0.4520 -0.0878 -0.3506
 6072TIP3    H139631   1.675   0.398   3.505  0.5297 -0.5185 -0.6493
 6072TIP3    H239632   1.678   0.421   3.356 -1.2298  0.2414 -0.5867
 6073TIP3   OH239633   1.199   1.872   5.506  0.2306 -0.2956  0.4280
 6073TIP3    H139634   1.163   1.808   5.446  2.1472 -1.2863  0.2442
 6073TIP3    H239635   1.172   1.842   5.593 -1.8948  0.7140  0.1800
 6074TIP3   OH239636   2.645   5.244   0.757  0.1606 -0.7055 -0.6050
 6074TIP3    H139637   2.577   5.291   0.806  0.4574 -1.5699  0.6671
 6074TIP3    H239638   2.704   5.313   0.727 -0.7952 -0.0278 -1.0090
 6075TIP3   OH239639   2.716   5.318   5.062  0.0609 -0.3629  0.4476
 6075TIP3    H139640   2.681   5.309   5.151 -2.7686  0.7336 -0.4554
 6075TIP3    H239641   2.752   5.407   5.060  2.4940 -1.2575  1.1708
 6076TIP3   OH239642   4.288   1.022   3.039 -0.3959  0.2687  0.1133
 6076TIP3    H139643   4.361   1.004   2.980 -2.5167 -0.8017 -2.4275
 6076TIP3    H239644   4.286   0.947   3.099  0.5029  0.2554  0.1338
 6077TIP3   OH239645   2.298   5.749   2.157 -0.0380  0.0249  0.3188
 6077TIP3    H139646   2.296   5.705   2.242  1.7469 -0.3311  0.1979
 6077TIP3    H239647   2.379   5.799   2.157  0.6886 -1.0198 -1.6586
 6078TIP3   OH239648   4.803   4.041  15.037  0.1344 -0.0366 -0.2624
 6078TIP3    H139649   4.807   3.957  14.992 -0.3474  0.8102 -1.9570
 6078TIP3    H239650   4.865   4.032  15.110 -1.1623 -2.4309  0.6766
 6079TIP3   OH239651   2.351   3.151  15.525  0.1989  0.3555 -0.1551
 6079TIP3    H139652   2.432   3.101  15.530 -0.4519 -0.6622  0.4164
 6079TIP3    H239653   2.333   3.179  15.614 -1.2058 -1.2930  0.1291
 6080TIP3   OH239654   0.865   1.962   4.389 -0.5548 -0.0009 -0.1441
 6080TIP3    H139655   0.949   1.999   4.418  0.0605  0.1260 -1.9440
 6080TIP3    H239656   0.824   1.931   4.469  1.3213 -0.2831  0.7725
 6081TIP3   OH239657   1.322   4.653  11.229  0.5974  0.6670 -0.0312
 6081TIP3    H139658   1.364   4.738  11.221 -1.2423  1.5651 -0.5696
 6081TIP3    H239659   1.263   4.647  11.154  1.8123 -1.8001 -0.9324
 6082TIP3   OH239660   3.685   1.948   4.726 -0.6319 -0.4635  1.0964
 6082TIP3    H139661   3.636   2.024   4.695  0.2278  0.5126  2.0259
 6082TIP3    H239662   3.768   1.953   4.678 -1.3905 -2.1245 -0.5052
 6083TIP3   OH239663   5.282   3.660  12.063  0.2568 -0.0108 -0.7465
 6083TIP3    H139664   5.303   3.572  12.034  0.3687 -0.2512  0.0207
 6083TIP3    H239665   5.189   3.670  12.046  0.2789 -0.2218 -0.9874
 6084TIP3   OH239666   0.011   4.051   2.317 -0.3304  0.0435  0.1353
 6084TIP3    H139667   0.070   4.127   2.320 -0.1187 -0.1429  1.0570
 6084TIP3    H239668  -0.069   4.081   2.360 -0.0479 -0.4067  1.0038
 6085TIP3   OH239669   0.949   2.411   0.870  0.5323 -0.1947 -0.1526
 6085TIP3    H139670   0.932   2.354   0.945 -1.2544 -0.0157 -0.3701
 6085TIP3    H239671   0.965   2.350   0.797 -2.9828 -0.5913 -0.7595
 6086TIP3   OH239672   3.985   1.335   1.130 -0.0907  0.3063 -0.0873
 6086TIP3    H139673   3.934   1.401   1.082 -1.1553  0.0622  0.6760
 6086TIP3    H239674   4.030   1.286   1.061 -1.6443 -0.0756 -0.8871
 6087TIP3   OH239675   1.070   0.305  11.999  0.2631 -0.0488 -0.4755
 6087TIP3    H139676   0.982   0.317  12.035  0.1580 -1.5178 -0.1765
 6087TIP3    H239677   1.127   0.347  12.064 -0.0893 -0.7518  0.3155
 6088TIP3   OH239678   2.968   1.614   4.374 -0.0461 -0.0012 -1.0156
 6088TIP3    H139679   3.038   1.675   4.352 -0.6083  0.9258 -0.2788
 6088TIP3    H239680   2.935   1.583   4.290 -0.3610  1.4115 -1.4305
 6089TIP3   OH239681   3.259   0.541  16.937 -0.2188 -0.5359 -0.4694
 6089TIP3    H139682   3.166   0.542  16.961 -0.0958  3.1051  0.5324
 6089TIP3    H239683   3.258   0.546  16.841 -1.2010  1.4245 -0.4196
 6090TIP3   OH239684   2.320   3.210  12.650 -0.4517 -0.5986  0.1416
 6090TIP3    H139685   2.357   3.265  12.580 -0.5432 -0.5953  0.0953
 6090TIP3    H239686   2.242   3.171  12.610 -0.1037 -1.1674  0.0107
 6091TIP3   OH239687   0.806   6.578   6.215  0.0577 -0.2261  0.4215
 6091TIP3    H139688   0.777   6.519   6.284 -1.1254 -0.5591 -0.3242
 6091TIP3    H239689   0.808   6.524   6.136 -0.2155  0.5217 -0.1104
 6092TIP3   OH239690   3.844   4.086  14.986 -0.2250 -0.2439  0.1323
 6092TIP3    H139691   3.838   4.116  14.896  0.8253  1.7828  0.6854
 6092TIP3    H239692   3.796   4.152  15.037  0.7470 -0.3646  1.2413
 6093TIP3   OH239693   5.825   5.136  11.665 -0.0804 -0.0285  0.5261
 6093TIP3    H139694   5.840   5.056  11.715 -0.1738  0.2477  1.0015
 6093TIP3    H239695   5.835   5.207  11.728 -0.7553  0.2990  0.2836
 6094TIP3   OH239696   3.556   0.249  11.759 -0.6373  0.2932  0.2149
 6094TIP3    H139697   3.498   0.199  11.816 -0.6004  1.1471  1.0286
 6094TIP3    H239698   3.638   0.256  11.807 -0.2497  0.1283 -0.4044
 6095TIP3   OH239699   0.021   0.458  14.151  0.4324 -0.4557  0.0268
 6095TIP3    H139700   0.018   0.373  14.194  0.0422  0.0981  1.1393
 6095TIP3    H239701   0.029   0.521  14.223  0.2879  0.4734 -0.7481
 6096TIP3   OH239702   1.794   6.175  13.789  0.0841 -0.5129 -0.0313
 6096TIP3    H139703   1.706   6.139  13.802  0.0542 -0.7818 -0.9103
 6096TIP3    H239704   1.794   6.257  13.838 -1.7501  1.1849 -2.5966
 6097TIP3   OH239705   1.839   1.289   5.300 -0.6379  0.0918  0.1483
 6097TIP3    H139706   1.848   1.382   5.282  0.3130 -0.2178 -1.0713
 6097TIP3    H239707   1.892   1.274   5.378 -2.9226  1.0120  2.0354
 6098TIP3   OH239708   6.723   3.792  13.333 -0.6240  0.1675  0.4869
 6098TIP3    H139709   6.791   3.854  13.356  0.5339  0.0962 -2.2958
 6098TIP3    H239710   6.678   3.832  13.258 -1.2971 -1.3346  0.0424
 6099TIP3   OH239711   6.688   5.804  16.325  0.2281 -0.5112 -0.2358
 6099TIP3    H139712   6.656   5.854  16.250  0.0798  0.0233  0.1705
 6099TIP3    H239713   6.636   5.724  16.324 -2.1059  0.8260  1.0859
 6100TIP3   OH239714   1.300   1.372   6.331  0.3585 -0.3622 -0.3243
 6100TIP3    H139715   1.288   1.453   6.281 -0.1959  1.1684  2.1286
 6100TIP3    H239716   1.281   1.396   6.421  0.0107 -3.2933  0.5030
 6101TIP3   OH239717   2.304   2.760   2.845 -0.2893 -0.2598 -0.1176
 6101TIP3    H139718   2.285   2.693   2.911 -0.1769  0.1293  0.3124
 6101TIP3    H239719   2.308   2.842   2.894  0.8439 -0.1035 -0.4445
 6102TIP3   OH239720   2.052   5.227  11.117  0.6187  0.0181  0.5006
 6102TIP3    H139721   2.093   5.190  11.195 -0.0779 -1.4293  0.2127
 6102TIP3    H239722   2.124   5.239  11.055  1.2807  1.7708  1.5367
 6103TIP3   OH239723   1.753   6.451   1.297 -0.4460  0.1858  0.1562
 6103TIP3    H139724   1.814   6.477   1.228 -0.3639 -1.2523 -0.3439
 6103TIP3    H239725   1.722   6.365   1.270  0.3988 -0.9021  2.4562
 6104TIP3   OH239726   1.223   4.898   2.807  0.1432 -0.5940  0.0584
 6104TIP3    H139727   1.274   4.856   2.738 -0.8969 -0.9458 -0.5177
 6104TIP3    H239728   1.241   4.846   2.886 -0.3352 -1.5201 -0.4261
 6105TIP3   OH239729   5.997   0.544  15.591 -0.0183 -0.4645  0.1838
 6105TIP3    H139730   6.048   0.589  15.524  1.4688 -0.2659  1.3745
 6105TIP3    H239731   5.908   0.541  15.557  0.2169  1.6894 -0.7671
 6106TIP3   OH239732   3.124   3.485   4.391  0.1647  0.0474 -0.1832
 6106TIP3    H139733   3.167   3.477   4.476 -0.8096  1.2655  0.4612
 6106TIP3    H239734   3.178   3.549   4.344  0.6788 -0.5932 -0.4683
 6107TIP3   OH239735   6.080   3.470  12.004 -0.6385  0.1556 -0.4125
 6107TIP3    H139736   6.037   3.475  12.089 -0.8065  0.2617 -0.5027
 6107TIP3    H239737   6.164   3.514  12.017 -0.4421 -0.2769 -0.1685
 6108TIP3   OH239738   0.732   3.240  14.104  0.0938  0.4414  0.1375
 6108TIP3    H139739   0.818   3.255  14.066 -0.3097 -1.0237 -1.4633
 6108TIP3    H239740   0.674   3.298  14.055 -0.1171  0.0777 -0.0429
 6109TIP3   OH239741   3.849   0.430  14.063 -0.9142 -0.0871  0.1270
 6109TIP3    H139742   3.865   0.387  13.979 -0.6708 -2.8152  1.4702
 6109TIP3    H239743   3.898   0.378  14.126 -2.0885  1.1336  2.1330
 6110TIP3   OH239744   2.679   1.984   6.339  0.0917 -0.5853 -0.7148
 6110TIP3    H139745   2.647   1.965   6.427 -0.9136  0.3913 -0.8450
 6110TIP3    H239746   2.667   1.903   6.291 -1.5731 -0.4543 -0.5650
 6111TIP3   OH239747   6.288   2.372  15.880 -0.3116 -0.0082  0.2309
 6111TIP3    H139748   6.276   2.450  15.826 -1.3140 -0.2481  0.0756
 6111TIP3    H239749   6.302   2.301  15.818 -0.9511 -0.1989  0.2916
 6112TIP3   OH239750   5.622   5.510  14.038 -0.8456  0.0874 -0.4745
 6112TIP3    H139751   5.618   5.482  13.946  1.0095 -1.6631 -0.1031
 6112TIP3    H239752   5.637   5.604  14.034 -2.0693  0.2520 -1.9330
 6113TIP3   OH239753   2.399   5.704  11.648  0.5876  0.0013  0.0331
 6113TIP3    H139754   2.410   5.669  11.559  1.8880  1.3863 -0.3997
 6113TIP3    H239755   2.449   5.786  11.648 -0.7967  0.9124  1.5516
 6114TIP3   OH239756   5.147   2.582  10.839 -0.3190 -0.2117 -0.3920
 6114TIP3    H139757   5.090   2.512  10.872 -0.3733 -0.2189 -0.5005
 6114TIP3    H239758   5.132   2.581  10.744 -0.9465  0.4993 -0.3089
 6115TIP3   OH239759   1.969   5.335  12.033 -0.6021 -0.2331  0.1553
 6115TIP3    H139760   1.960   5.240  12.027  0.9883 -0.3325 -1.9185
 6115TIP3    H239761   1.886   5.365  12.071 -2.0068 -2.2717 -1.1109
 6116TIP3   OH239762   2.811   0.014   6.383  0.5615  0.1973  0.2927
 6116TIP3    H139763   2.806  -0.064   6.439  1.8532  0.0664  0.2532
 6116TIP3    H239764   2.859   0.077   6.436  1.4699  0.2017 -0.5069
 6117TIP3   OH239765   2.959   1.042  16.074 -0.2886  0.9825 -0.6232
 6117TIP3    H139766   3.025   1.029  16.143  0.5064  0.6765 -1.4258
 6117TIP3    H239767   3.009   1.041  15.993 -1.0626  2.5235 -1.1484
 6118TIP3   OH239768   2.439   1.190  10.850  0.5116 -0.0664  0.1710
 6118TIP3    H139769   2.535   1.195  10.855  0.4611 -0.0536  1.4654
 6118TIP3    H239770   2.422   1.159  10.762  1.6180  2.2259 -0.9310
 6119TIP3   OH239771   0.526   0.745  13.808 -0.2062 -0.0301  0.1314
 6119TIP3    H139772   0.510   0.825  13.859  0.2336 -0.4140  0.8877
 6119TIP3    H239773   0.619   0.749  13.786 -0.0157 -0.6566  0.7665
 6120TIP3   OH239774   0.421   5.029  16.174 -0.1291 -0.2123  0.5368
 6120TIP3    H139775   0.392   4.939  16.155  0.4362 -0.0840 -1.0840
 6120TIP3    H239776   0.352   5.084  16.138  0.3029  0.0228  0.0586
 6121TIP3   OH239777   2.718   1.953  14.133  0.5526 -0.0904  0.2665
 6121TIP3    H139778   2.808   1.961  14.103  0.3827  1.1991  0.0435
 6121TIP3    H239779   2.667   1.934  14.054  0.5520 -0.2706  0.3091
 6122TIP3   OH239780   6.661   1.532   5.697  0.4693 -0.1461  0.0713
 6122TIP3    H139781   6.637   1.538   5.790 -0.1335 -0.5600 -0.0471
 6122TIP3    H239782   6.582   1.559   5.650  1.6333  2.8885 -0.3452
 6123TIP3   OH239783   3.967   2.931   1.259  0.3086 -0.0405  0.1611
 6123TIP3    H139784   3.942   2.985   1.184 -2.3257  0.3352  1.1938
 6123TIP3    H239785   3.971   2.842   1.223 -2.5921 -0.1167 -0.2046
 6124TIP3   OH239786   4.792   5.272  17.204  0.2388  0.4260 -0.3345
 6124TIP3    H139787   4.818   5.276  17.112 -1.2870  1.4456 -0.7543
 6124TIP3    H239788   4.711   5.322  17.209 -1.2332 -1.9052  1.0531
 6125TIP3   OH239789   3.662   3.308   3.373 -0.4626  0.1102 -0.3771
 6125TIP3    H139790   3.618   3.224   3.361 -2.4514  0.9087  0.8100
 6125TIP3    H239791   3.627   3.342   3.455  0.4901  1.9886 -0.6826
 6126TIP3   OH239792   6.662   0.894  15.017 -0.1248 -0.2302 -0.2641
 6126TIP3    H139793   6.680   0.871  15.108  0.4334 -0.4744 -0.4326
 6126TIP3    H239794   6.606   0.824  14.985  0.3052 -0.5475 -0.3275
 6127TIP3   OH239795   2.003   0.292   3.150  0.2712 -0.1128  0.7104
 6127TIP3    H139796   1.964   0.273   3.065  0.2301  0.0932  0.6838
 6127TIP3    H239797   2.097   0.278   3.137  0.0423 -2.8089  1.3488
 6128TIP3   OH239798   0.464   5.048   1.804 -0.9721  0.5245  0.1237
 6128TIP3    H139799   0.467   4.978   1.868 -0.1068  0.2210 -0.2386
 6128TIP3    H239800   0.502   5.123   1.848  2.3565 -0.4148 -0.8853
 6129TIP3   OH239801   1.828   3.180   0.629 -0.3144  0.0738 -0.1310
 6129TIP3    H139802   1.762   3.153   0.565 -0.3964  2.2596 -1.0378
 6129TIP3    H239803   1.782   3.240   0.687  0.3881  0.0119  0.5051
 6130TIP3   OH239804   0.798   0.846   2.243  0.5605  0.2984 -0.1043
 6130TIP3    H139805   0.709   0.824   2.215  0.1618  0.7974  0.7360
 6130TIP3    H239806   0.840   0.881   2.164 -0.2817  0.9413 -0.2849
 6131TIP3   OH239807   0.216   3.863   2.225 -0.2330 -0.3507  0.7772
 6131TIP3    H139808   0.265   3.881   2.305 -0.9626 -0.4051  1.2391
 6131TIP3    H239809   0.127   3.890   2.244 -0.1959  0.7371 -0.4172
 6132TIP3   OH239810   0.309   2.206   6.306 -0.1976 -0.2501  0.1890
 6132TIP3    H139811   0.328   2.298   6.325  1.4986 -0.0513 -1.9875
 6132TIP3    H239812   0.216   2.205   6.284 -0.1163  1.1009 -0.3617
 6133TIP3   OH239813   5.941   5.539  14.371  0.0695 -0.4669  0.0326
 6133TIP3    H139814   6.034   5.548  14.351 -0.1884 -0.6078 -1.3400
 6133TIP3    H239815   5.939   5.518  14.464  1.3605  0.3271  0.2697
 6134TIP3   OH239816   1.797   3.916   5.829 -0.2711 -0.1287 -0.4322
 6134TIP3    H139817   1.884   3.889   5.857  0.1002  1.1280 -0.3118
 6134TIP3    H239818   1.742   3.901   5.906 -0.1857 -0.9288 -0.5110
 6135TIP3   OH239819   4.992   0.123  11.793  0.0925 -0.2269  0.1311
 6135TIP3    H139820   4.965   0.058  11.728  1.0922 -1.0657  0.5404
 6135TIP3    H239821   5.028   0.072  11.865 -0.1832  0.7339  0.9773
 6136TIP3   OH239822   5.976   0.086   3.679 -0.4469 -0.1585 -0.1783
 6136TIP3    H139823   6.010   0.082   3.769  0.6251 -0.1062 -0.5566
 6136TIP3    H239824   5.996   0.000   3.642  2.2315  0.8663 -1.3879
 6137TIP3   OH239825   5.096   1.940   4.932  0.6661 -0.1219  0.9233
 6137TIP3    H139826   5.063   1.992   4.859  0.6144 -0.5275  0.6511
 6137TIP3    H239827   5.018   1.918   4.983  0.6847  0.0442  1.0239
 6138TIP3   OH239828   0.690   5.675   4.282  0.5704 -0.0093 -0.2418
 6138TIP3    H139829   0.726   5.586   4.283  0.1885 -0.1643  0.0055
 6138TIP3    H239830   0.749   5.725   4.339  1.4904  0.1866 -1.3367
 6139TIP3   OH239831   3.110   6.427  12.174  0.5287  0.1197 -0.1884
 6139TIP3    H139832   3.091   6.361  12.241 -1.1722  0.2591 -0.4777
 6139TIP3    H239833   3.063   6.505  12.203  0.2791  0.3674 -1.2087
 6140TIP3   OH239834   6.467   3.876   2.987  0.3906 -0.9981  0.3064
 6140TIP3    H139835   6.491   3.807   2.924  0.1589 -1.9325  1.2152
 6140TIP3    H239836   6.378   3.854   3.014 -0.9451  1.4739 -1.7407
 6141TIP3   OH239837   1.501   3.279   2.026 -0.3474  0.1866 -0.4726
 6141TIP3    H139838   1.526   3.187   2.040 -1.4260 -0.1184 -0.4700
 6141TIP3    H239839   1.584   3.323   2.004  0.0082 -1.0387 -1.7543
 6142TIP3   OH239840   1.928   2.088  13.508 -0.2710 -0.1369 -0.2553
 6142TIP3    H139841   1.990   2.083  13.581  0.3782 -2.2689 -0.8838
 6142TIP3    H239842   1.870   2.160  13.531  1.1121  0.5118  1.4107
 6143TIP3   OH239843   5.936   0.338   3.562 -0.0588  0.7656  0.9982
 6143TIP3    H139844   5.946   0.259   3.614  1.2792 -0.1961 -0.6182
 6143TIP3    H239845   6.025   0.373   3.554 -0.5616  2.1783  1.2727
 6144TIP3   OH239846   2.171   5.369   5.623 -0.1394 -0.0178  0.0196
 6144TIP3    H139847   2.141   5.425   5.695 -0.0269  2.4281 -1.7052
 6144TIP3    H239848   2.104   5.380   5.555 -0.0215 -1.9175 -0.4635
 6145TIP3   OH239849   1.148   4.563  12.451 -0.8454 -0.1888 -1.0883
 6145TIP3    H139850   1.117   4.564  12.360 -2.0315 -1.6301 -0.7496
 6145TIP3    H239851   1.097   4.493  12.493  2.1958 -2.1065 -0.2079
 6146TIP3   OH239852   1.250   2.611   0.174 -0.0302 -0.0285 -0.2566
 6146TIP3    H139853   1.199   2.559   0.237  1.5700  0.0596  1.1683
 6146TIP3    H239854   1.308   2.548   0.133  0.0280  0.1899 -0.5081
 6147TIP3   OH239855   2.499   4.531   3.290 -0.4298  0.4531 -0.3939
 6147TIP3    H139856   2.415   4.566   3.260  0.4156  4.2337  0.9962
 6147TIP3    H239857   2.500   4.551   3.384  1.1756 -1.5107  0.0548
 6148TIP3   OH239858   1.010   1.391  13.743 -0.1977 -0.0462 -0.3477
 6148TIP3    H139859   0.915   1.398  13.737 -0.0330  2.1777 -1.2094
 6148TIP3    H239860   1.029   1.394  13.837 -0.9499 -0.0747 -0.1922
 6149TIP3   OH239861   1.810   0.630  13.457  0.0169  0.4194  0.4629
 6149TIP3    H139862   1.718   0.637  13.484 -0.6866  1.8236 -1.9743
 6149TIP3    H239863   1.835   0.540  13.478 -1.9717 -0.0528  1.0056
 6150TIP3   OH239864   5.806   3.257  16.323  0.4080 -0.2785  0.0709
 6150TIP3    H139865   5.890   3.214  16.343 -0.0421 -0.6432  1.2611
 6150TIP3    H239866   5.744   3.218  16.385 -0.4503  0.6422 -0.1908
 6151TIP3   OH239867   3.405   2.643   4.290 -0.1576  0.0898 -0.4044
 6151TIP3    H139868   3.476   2.692   4.248 -1.2145  3.7305  1.6235
 6151TIP3    H239869   3.354   2.609   4.216  1.9321  0.0027 -1.9186
 6152TIP3   OH239870   4.787   3.110  12.181  0.0639  0.2219 -0.3243
 6152TIP3    H139871   4.783   3.171  12.256 -0.2389  0.0114 -0.1670
 6152TIP3    H239872   4.843   3.039  12.212  0.1576  0.2674 -0.3926
 6153TIP3   OH239873   5.995   6.218   0.224  0.4171 -1.2046 -0.2594
 6153TIP3    H139874   6.088   6.224   0.247  0.6392 -1.8984 -0.9161
 6153TIP3    H239875   5.988   6.136   0.174 -0.4533 -0.9015 -0.6612
 6154TIP3   OH239876   3.987   2.415  12.120  0.0783 -0.2332 -0.6313
 6154TIP3    H139877   3.983   2.492  12.176 -3.9591  0.3897 -1.4582
 6154TIP3    H239878   4.016   2.449  12.035  1.8010 -0.3726 -0.1403
 6155TIP3   OH239879   2.464   3.347  11.451  0.1495 -0.1604  0.2186
 6155TIP3    H139880   2.425   3.355  11.364  0.3163 -0.7327  0.0856
 6155TIP3    H239881   2.513   3.428  11.463  0.8256 -0.4497 -0.5741
 6156TIP3   OH239882   3.679   1.787  13.304  0.4433  0.0532 -0.0775
 6156TIP3    H139883   3.595   1.788  13.258  0.4846  1.0143 -0.1633
 6156TIP3    H239884   3.667   1.723  13.373  0.7496 -2.2834 -2.0551
 6157TIP3   OH239885   0.148   1.092  12.586 -0.7898 -0.2210 -0.2992
 6157TIP3    H139886   0.053   1.088  12.576 -0.7365 -0.2716 -0.8148
 6157TIP3    H239887   0.163   1.172  12.636 -1.1612 -0.7333  0.6659
 6158TIP3   OH239888   6.236   1.020   0.240  0.2882 -0.1246 -0.5090
 6158TIP3    H139889   6.243   1.025   0.335 -0.1589  0.4266 -0.4978
 6158TIP3    H239890   6.277   0.936   0.217  1.4301  0.2578  0.0505
 6159TIP3   OH239891   5.993   3.097   0.465  0.1434  0.0635  0.2117
 6159TIP3    H139892   6.060   3.158   0.495  0.7846 -0.9514  0.9000
 6159TIP3    H239893   5.911   3.146   0.472  0.6303  0.7978  0.8790
 6160TIP3   OH239894   3.489   0.246  13.333 -1.0879  1.0050 -0.1251
 6160TIP3    H139895   3.446   0.312  13.387 -2.7837  0.6013 -0.9162
 6160TIP3    H239896   3.417   0.196  13.294  0.1005 -1.5505  0.7072
 6161TIP3   OH239897   4.037   3.604   3.012  0.0510 -0.0308  0.4731
 6161TIP3    H139898   4.019   3.687   3.057  2.1711  1.2885 -0.9076
 6161TIP3    H239899   4.095   3.556   3.072  0.4285  0.3944  0.4552
 6162TIP3   OH239900   0.703   3.553   1.053  0.3701  0.4203  0.2880
 6162TIP3    H139901   0.662   3.467   1.051  2.8606 -0.8342 -0.1324
 6162TIP3    H239902   0.744   3.558   1.139 -0.1358  1.4167  0.4883
 6163TIP3   OH239903   3.745   5.054   2.945  0.1800 -0.0613 -0.1378
 6163TIP3    H139904   3.684   5.028   2.875  0.3682 -0.9967  0.0341
 6163TIP3    H239905   3.745   4.979   3.005 -1.4249  1.4530  1.8744
 6164TIP3   OH239906   6.573   1.113   0.582 -0.1248  0.1252 -0.4921
 6164TIP3    H139907   6.659   1.071   0.576  0.0522  0.6962 -3.0126
 6164TIP3    H239908   6.589   1.193   0.632  0.7745  0.1101 -0.7380
 6165TIP3   OH239909   5.341   3.098   1.196  0.0136 -0.1415 -0.3499
 6165TIP3    H139910   5.378   3.057   1.118  0.3694 -1.1381  0.3226
 6165TIP3    H239911   5.309   3.025   1.249  0.2401  0.4732  0.6731
 6166TIP3   OH239912   4.238   5.574  15.063  0.5520  0.2332 -0.1139
 6166TIP3    H139913   4.326   5.538  15.052  0.4627  0.4752 -1.8668
 6166TIP3    H239914   4.181   5.511  15.018 -0.1240  0.3093  0.6226
 6167TIP3   OH239915   2.317   0.292  12.139 -0.4034  0.1403 -0.2034
 6167TIP3    H139916   2.300   0.255  12.052  0.9606  0.7942 -0.7721
 6167TIP3    H239917   2.289   0.223  12.200 -2.5048  0.1327 -1.0988
 6168TIP3   OH239918   2.384   1.128   2.313  0.6057 -0.1164  0.3113
 6168TIP3    H139919   2.454   1.064   2.323 -0.9661 -1.9298  0.3843
 6168TIP3    H239920   2.316   1.099   2.374 -0.8615  0.5832 -0.8952
 6169TIP3   OH239921   3.191   1.226   3.958  0.9545 -0.4675  0.3473
 6169TIP3    H139922   3.211   1.186   4.043  4.2106 -0.3454 -0.2140
 6169TIP3    H239923   3.267   1.206   3.904 -0.3771  0.6931 -2.1209
 6170TIP3   OH239924   0.779   3.811   3.917  0.5095  0.7229 -0.8465
 6170TIP3    H139925   0.721   3.736   3.903  1.6236  0.1849 -2.9862
 6170TIP3    H239926   0.721   3.887   3.915 -0.7117 -0.0173  1.7891
 6171TIP3   OH239927   4.693   3.390  14.793 -0.1303  0.3515  0.0221
 6171TIP3    H139928   4.602   3.413  14.777  0.0487 -0.4764 -2.5488
 6171TIP3    H239929   4.742   3.436  14.725  1.1961 -0.5189  0.3471
 6172TIP3   OH239930   0.859   6.659   3.321  0.2587 -0.3273 -0.1605
 6172TIP3    H139931   0.890   6.712   3.395  1.8081  0.3280 -1.2415
 6172TIP3    H239932   0.830   6.577   3.362  1.0879  0.0129  1.1885
 6173TIP3   OH239933   5.153   4.253  11.581  1.0463  0.0269  0.3863
 6173TIP3    H139934   5.071   4.254  11.630  1.1794  0.5732  0.6164
 6173TIP3    H239935   5.146   4.178  11.522  0.1120  0.4601 -0.0695
 6174TIP3   OH239936   5.849   4.293   5.079  0.4665  0.0941 -0.5004
 6174TIP3    H139937   5.866   4.329   4.992 -0.1975 -0.6088 -0.9406
 6174TIP3    H239938   5.783   4.352   5.116  1.6103  1.0802  0.0148
 6175TIP3   OH239939   5.201   3.944  13.159  0.6761  0.0930 -0.3599
 6175TIP3    H139940   5.169   4.034  13.165  2.6132  0.8774 -1.0954
 6175TIP3    H239941   5.156   3.898  13.230  0.0387  1.7552  0.3697
 6176TIP3   OH239942   6.209   1.747   5.456  0.7842 -0.2223  1.0896
 6176TIP3    H139943   6.161   1.804   5.516 -1.2110 -0.9588  0.2616
 6176TIP3    H239944   6.171   1.660   5.469  0.5416 -0.4729 -0.9686
 6177TIP3   OH239945   2.984   1.431   5.239 -0.8628 -0.0234  0.1550
 6177TIP3    H139946   3.039   1.387   5.174  1.0392 -0.6694  2.1018
 6177TIP3    H239947   2.907   1.375   5.248 -0.4014 -0.7615 -0.3921
 6178TIP3   OH239948   4.521   4.665   1.075 -0.1096  0.0681  0.0431
 6178TIP3    H139949   4.557   4.644   0.989 -0.1022 -1.1665  0.3194
 6178TIP3    H239950   4.555   4.596   1.132 -4.4149 -2.5519 -0.0692
 6179TIP3   OH239951   3.579   5.809  15.628 -0.3823  1.0285 -0.3471
 6179TIP3    H139952   3.535   5.808  15.543 -2.4950 -1.3487  0.6585
 6179TIP3    H239953   3.661   5.763  15.613 -0.5196  1.0340 -1.1701
 6180TIP3   OH239954   2.146   4.736  15.944  0.3776 -0.5609  0.3080
 6180TIP3    H139955   2.225   4.698  15.905  1.2155  0.0835  1.3134
 6180TIP3    H239956   2.153   4.830  15.926 -0.5970 -0.5961 -0.3143
 6181TIP3   OH239957   3.186   0.482   3.177  0.3397  0.3726  0.1719
 6181TIP3    H139958   3.218   0.499   3.089 -0.4865 -2.0494 -0.6851
 6181TIP3    H239959   3.094   0.507   3.175  0.3524  0.4421  0.3986
 6182TIP3   OH239960   2.146   3.236  15.079 -0.3124  0.3979  0.0356
 6182TIP3    H139961   2.082   3.211  15.145 -2.1454 -2.2810 -2.4767
 6182TIP3    H239962   2.111   3.316  15.040 -0.5501  0.5903  0.6421
 6183TIP3   OH239963   5.786   0.727   3.439  0.0780 -0.3996 -0.4024
 6183TIP3    H139964   5.705   0.694   3.400 -0.5483  0.6797 -0.0206
 6183TIP3    H239965   5.793   0.817   3.409  0.3701 -0.0167  0.7742
 6184TIP3   OH239966   5.205   2.140  15.720  0.3587  0.1051  0.0475
 6184TIP3    H139967   5.266   2.085  15.672  0.5465 -0.5112  0.9637
 6184TIP3    H239968   5.185   2.090  15.799  0.0713  1.0963  0.6201
 6185TIP3   OH239969   0.744   1.306   3.718 -0.1673  0.0169 -0.0681
 6185TIP3    H139970   0.692   1.385   3.706  0.2142  0.4235  0.9099
 6185TIP3    H239971   0.783   1.315   3.805 -2.0246 -2.3521  1.1346
 6186TIP3   OH239972   5.446   2.982   4.382  0.1623 -0.0192  0.0135
 6186TIP3    H139973   5.440   3.076   4.398  2.9659  0.5504 -1.6589
 6186TIP3    H239974   5.471   2.974   4.290 -1.4855 -2.5145 -0.3322
 6187TIP3   OH239975   1.790   4.114  16.609  0.4490 -0.0206  0.4435
 6187TIP3    H139976   1.850   4.068  16.668  0.0166 -0.0071  0.8995
 6187TIP3    H239977   1.725   4.153  16.667  0.6020  0.8610  0.0239
 6188TIP3   OH239978   4.800   6.527   1.819 -0.4711 -0.1794 -0.3422
 6188TIP3    H139979   4.744   6.522   1.896  0.1641 -0.4076  0.1091
 6188TIP3    H239980   4.798   6.619   1.794 -0.9391 -0.1616 -0.2506
 6189TIP3   OH239981   3.089   1.720  13.540 -0.1277  0.0463  0.0558
 6189TIP3    H139982   3.080   1.646  13.479  0.7016 -0.0462  0.0433
 6189TIP3    H239983   3.162   1.697  13.596 -0.9376  0.0934  1.1683
 6190TIP3   OH239984   2.343   1.403   6.327  0.1793  0.2885  0.3784
 6190TIP3    H139985   2.318   1.468   6.262 -0.7380  0.4088  0.8382
 6190TIP3    H239986   2.434   1.425   6.349  0.2217  0.7539 -0.2491
 6191TIP3   OH239987   3.269   1.563  13.691  0.2834  0.1061  0.6869
 6191TIP3    H139988   3.299   1.613  13.767 -0.1293  3.4288 -1.1456
 6191TIP3    H239989   3.348   1.526  13.653  0.4333 -2.2101  2.9765
 6192TIP3   OH239990   3.194   2.270  11.657 -0.5620 -0.1141 -0.1713
 6192TIP3    H139991   3.260   2.219  11.705  1.9001  1.3806 -1.7848
 6192TIP3    H239992   3.111   2.227  11.678  0.4919 -0.5722  4.0485
 6193TIP3   OH239993   3.585   3.430  14.872  0.0476 -0.0655  0.3223
 6193TIP3    H139994   3.556   3.389  14.954  0.8904  1.2628  1.3253
 6193TIP3    H239995   3.522   3.400  14.806 -0.8364 -0.9095  1.5147
 6194TIP3   OH239996   6.584   4.928   3.006 -0.6561  0.3547  0.4747
 6194TIP3    H139997   6.531   4.941   2.927 -2.1780 -1.1414  1.1735
 6194TIP3    H239998   6.674   4.920   2.974 -1.0962  0.8940 -0.9741
 6195TIP3   OH239999   3.541   1.465   4.492  0.3501  0.4824  0.8030
 6195TIP3    H140000   3.623   1.504   4.462  2.1421 -0.9854  3.3664
 6195TIP3    H240001   3.524   1.505   4.577 -1.8270  0.9515  0.2245
 6196TIP3   OH240002   6.695   0.852  14.596  0.2752  0.4211 -0.4647
 6196TIP3    H140003   6.747   0.922  14.557  1.9191  0.3414  1.4318
 6196TIP3    H240004   6.734   0.838  14.682 -2.1080 -0.5734  0.5341
 6197TIP3   OH240005   6.675   5.013  11.495  0.1508 -0.7928 -0.3470
 6197TIP3    H140006   6.747   4.975  11.545 -0.1934  1.3361  1.9733
 6197TIP3    H240007   6.677   5.106  11.517 -1.1497 -0.0342 -3.0150
 6198TIP3   OH240008   6.788   4.910   0.405  0.2111  0.2501  0.2170
 6198TIP3    H140009   6.882   4.912   0.421  0.5081 -0.0502 -1.3561
 6198TIP3    H240010   6.767   4.997   0.373 -0.5026  1.0645  2.6708
 6199TIP3   OH240011   3.689   4.140  13.449 -0.0206 -0.2910 -0.4376
 6199TIP3    H140012   3.715   4.230  13.432 -2.3598  0.2781 -1.3763
 6199TIP3    H240013   3.699   4.130  13.544 -0.3350  1.1617 -0.2295
 6200TIP3   OH240014   5.574   6.696   4.589 -0.3579 -0.0020 -0.1830
 6200TIP3    H140015   5.645   6.650   4.634  1.5032  2.5327 -0.2681
 6200TIP3    H240016   5.564   6.778   4.638 -1.9134  0.5325 -1.3141
 6201TIP3   OH240017   4.600   6.350   1.377  0.2850 -0.2496  0.7532
 6201TIP3    H140018   4.607   6.441   1.348 -2.3775 -0.1665  0.1105
 6201TIP3    H240019   4.623   6.353   1.470  2.8612  0.5502  0.1823
 6202TIP3   OH240020   3.577   4.698  10.488  0.1267  0.1955 -0.0843
 6202TIP3    H140021   3.604   4.752  10.562  1.1772 -0.3549 -0.0476
 6202TIP3    H240022   3.615   4.612  10.507  3.1770  0.7574 -2.7411
 6203TIP3   OH240023   4.436   6.676  12.199 -0.2833  0.2361  0.3997
 6203TIP3    H140024   4.513   6.624  12.179 -0.6747  0.3452 -1.5324
 6203TIP3    H240025   4.454   6.713  12.286  0.8113 -1.5671  0.9831
 6204TIP3   OH240026   1.263   4.232   5.505  0.2735 -0.2891  0.3515
 6204TIP3    H140027   1.280   4.196   5.592  0.9281  0.0907  0.3935
 6204TIP3    H240028   1.168   4.227   5.494  0.2512 -0.9895  0.8011
 6205TIP3   OH240029   1.695   2.981   6.846  0.0042 -0.1537 -0.3056
 6205TIP3    H140030   1.776   2.995   6.896  1.4350 -1.1376 -2.2029
 6205TIP3    H240031   1.672   3.068   6.813 -0.4879  0.3595  1.3207
 6206TIP3   OH240032   1.098   4.074  16.789 -0.5830  0.3426  0.1981
 6206TIP3    H140033   1.059   4.052  16.874  0.2242  0.7481  0.6857
 6206TIP3    H240034   1.150   3.997  16.767 -0.3054  0.4825  0.3647
 6207TIP3   OH240035   6.349   5.996  12.446 -0.3209 -0.1193  0.8086
 6207TIP3    H140036   6.347   6.050  12.525 -0.4302  0.4347  0.4336
 6207TIP3    H240037   6.277   6.031  12.392 -0.1016 -0.3434  0.3691
 6208TIP3   OH240038   2.500   6.053  14.329 -0.1103  0.0106 -0.1955
 6208TIP3    H140039   2.509   6.007  14.412  1.4547 -0.9135 -0.8374
 6208TIP3    H240040   2.430   6.117  14.345  1.4381  1.2537  2.4505
 6209TIP3   OH240041   4.338   2.441   4.595  0.2496 -0.0246 -0.1216
 6209TIP3    H140042   4.313   2.348   4.599  0.5640 -0.1000  0.1816
 6209TIP3    H240043   4.405   2.450   4.663 -0.0740  0.5193  0.1223
 6210TIP3   OH240044   1.347   2.036  13.765  0.3380  0.1329  0.1452
 6210TIP3    H140045   1.421   2.021  13.706  1.1158 -1.3345  1.4151
 6210TIP3    H240046   1.361   2.124  13.800  0.5191  0.5465 -0.9326
 6211TIP3   OH240047   4.007   6.410  13.087  0.3423 -0.4181  0.5386
 6211TIP3    H140048   4.041   6.327  13.053 -1.1414 -0.0572 -2.0052
 6211TIP3    H240049   3.921   6.388  13.122  0.2760 -0.0666  0.5991
 6212TIP3   OH240050   1.423   0.591  13.265 -0.3341 -0.2702 -0.3510
 6212TIP3    H140051   1.452   0.657  13.201 -1.0041 -1.4497 -1.9424
 6212TIP3    H240052   1.478   0.607  13.342  0.6828  1.0597 -1.2938
 6213TIP3   OH240053   4.287   4.116  12.657  0.1756 -0.6046  0.2932
 6213TIP3    H140054   4.259   4.028  12.634  0.6395 -0.6019 -0.3140
 6213TIP3    H240055   4.280   4.119  12.753 -0.0832 -1.2115  0.3000
 6214TIP3   OH240056   3.301   1.484  15.028  0.1808 -0.8185  0.6000
 6214TIP3    H140057   3.338   1.455  14.944 -1.0196 -0.5408 -0.0512
 6214TIP3    H240058   3.305   1.406  15.083  1.4105 -0.8812  0.4509
 6215TIP3   OH240059   0.483   4.103   4.114  0.0004 -0.0236  0.6262
 6215TIP3    H140060   0.508   4.074   4.026  1.1039 -0.4631  1.0711
 6215TIP3    H240061   0.419   4.038   4.143 -0.5085  0.2262  0.0868
 6216TIP3   OH240062   4.019   6.461   3.785  0.3776  0.1985  0.0067
 6216TIP3    H140063   4.046   6.505   3.866  0.0585 -1.0175  0.8020
 6216TIP3    H240064   4.083   6.489   3.719  1.3554  0.2723  0.9630
 6217TIP3   OH240065   3.117   5.357  12.889  0.2777  0.0627  0.0008
 6217TIP3    H140066   3.034   5.355  12.842  0.3570 -1.3520 -0.1213
 6217TIP3    H240067   3.112   5.436  12.944 -1.0831  0.0656 -0.0978
 6218TIP3   OH240068   6.122   6.444  12.825 -0.5885  0.6620 -0.7380
 6218TIP3    H140069   6.193   6.384  12.845 -0.3952  1.3134  0.7131
 6218TIP3    H240070   6.149   6.489  12.745  0.1975  0.2343 -0.7191
 6219TIP3   OH240071   4.445   5.492  11.985 -0.3510 -0.1508  0.2027
 6219TIP3    H140072   4.468   5.407  11.947  1.0016  0.1871  0.1957
 6219TIP3    H240073   4.356   5.481  12.018 -0.9107 -1.0010 -1.4630
 6220TIP3   OH240074   0.175   5.140  11.355 -0.2205 -0.0250  0.0200
 6220TIP3    H140075   0.178   5.174  11.445  1.6794 -1.2980  0.5015
 6220TIP3    H240076   0.134   5.054  11.363 -1.2456  0.4001 -0.5513
 6221TIP3   OH240077   1.276   5.924  10.523 -0.2673  0.2129 -0.2873
 6221TIP3    H140078   1.195   5.965  10.493 -0.8679 -0.6024  0.1588
 6221TIP3    H240079   1.256   5.830  10.527  0.7272 -0.0173 -0.2493
 6222TIP3   OH240080   5.774   1.904  15.429 -0.1841 -0.5059 -0.4870
 6222TIP3    H140081   5.682   1.876  15.427 -0.6671  1.0127 -1.1542
 6222TIP3    H240082   5.816   1.842  15.488 -1.9283 -0.3622  0.9957
 6223TIP3   OH240083   5.927   5.847  12.871 -0.1180 -0.4647  0.3176
 6223TIP3    H140084   5.988   5.808  12.935  1.1042  0.4576 -0.2527
 6223TIP3    H240085   5.964   5.825  12.786  0.1724  1.2311 -0.0312
 6224TIP3   OH240086   2.604   5.363  11.579  0.4101  0.5957  0.0288
 6224TIP3    H140087   2.545   5.385  11.652  0.9456  1.8937  0.0956
 6224TIP3    H240088   2.637   5.448  11.549  1.9728 -0.0909 -0.2412
 6225TIP3   OH240089   1.187   2.024  11.482 -0.0503 -0.2730  0.3374
 6225TIP3    H140090   1.173   1.945  11.535 -0.3477 -0.3111  0.2071
 6225TIP3    H240091   1.280   2.023  11.460  0.6212  0.9225  2.7489
 6226TIP3   OH240092   1.967   5.797  12.004 -0.3463 -0.1811 -0.2285
 6226TIP3    H140093   2.010   5.754  11.929  1.2197  0.5084  0.2311
 6226TIP3    H240094   1.968   5.731  12.073 -0.0053 -0.1762 -0.2245
 6227TIP3   OH240095   2.898   3.830   0.657 -0.9049  0.6478 -0.1251
 6227TIP3    H140096   2.978   3.868   0.621  0.0557 -0.9318  0.2511
 6227TIP3    H240097   2.919   3.807   0.747 -0.8535 -2.1763 -0.7501
 6228TIP3   OH240098   5.198   2.728  12.668  0.0947  0.0924  0.0019
 6228TIP3    H140099   5.209   2.641  12.629 -0.8591  0.2161 -0.5837
 6228TIP3    H240100   5.243   2.786  12.607 -0.1279  0.1151 -0.1442
 6229TIP3   OH240101   5.798   0.432  11.354  0.9708  0.2726 -0.1598
 6229TIP3    H140102   5.720   0.407  11.404  1.1424  0.2056  0.0774
 6229TIP3    H240103   5.824   0.353  11.308  2.0112 -0.2472  1.2524
 6230TIP3   OH240104   3.723   4.119  15.417 -1.2151  0.1219  0.6640
 6230TIP3    H140105   3.655   4.171  15.461 -1.2693 -1.0247  1.9880
 6230TIP3    H240106   3.677   4.041  15.386 -0.5453 -0.6093  1.4727
 6231TIP3   OH240107   6.261   4.053  13.025  0.2340 -0.2207  0.1914
 6231TIP3    H140108   6.321   4.115  13.067  0.4859  0.0258 -0.5140
 6231TIP3    H240109   6.174   4.092  13.037  0.3630  0.1274 -0.0120
 6232TIP3   OH240110   3.282   3.138  13.863  0.3733  0.3143 -0.0061
 6232TIP3    H140111   3.323   3.131  13.777  1.9490 -0.0587  0.7507
 6232TIP3    H240112   3.343   3.189  13.916  0.1572 -0.7329  1.3186
 6233TIP3   OH240113   0.133   3.285   3.454  0.4312 -0.5769  0.4949
 6233TIP3    H140114   0.096   3.226   3.520 -0.7499 -0.5304 -0.0981
 6233TIP3    H240115   0.201   3.232   3.411  0.4673 -0.9652  1.0120
 6234TIP3   OH240116   6.518   0.609   0.072  0.5661  0.7616  0.4070
 6234TIP3    H140117   6.535   0.555   0.150  2.1280  0.5359 -0.0484
 6234TIP3    H240118   6.605   0.622   0.033 -0.3994 -1.4068 -2.8191
 6235TIP3   OH240119   6.771   4.179   0.705 -0.3123 -0.2360  0.0624
 6235TIP3    H140120   6.860   4.169   0.738  0.4821  1.4819 -1.4062
 6235TIP3    H240121   6.725   4.225   0.774 -0.0933 -1.1423  0.8361
 6236TIP3   OH240122   5.474   0.386   1.806  0.1897  1.4795 -0.1266
 6236TIP3    H140123   5.433   0.333   1.874  0.4701  1.8837  0.3642
 6236TIP3    H240124   5.490   0.325   1.734  0.0264  1.0177  0.2249
 6237TIP3   OH240125   4.744   4.567   2.919  0.6791 -0.4533  0.3979
 6237TIP3    H140126   4.840   4.560   2.922  0.7226 -0.7099 -1.0888
 6237TIP3    H240127   4.714   4.480   2.895  0.1509 -0.0566 -0.3991
 6238TIP3   OH240128   4.696   3.227  13.243 -0.5389 -0.1742 -0.7926
 6238TIP3    H140129   4.653   3.292  13.299 -1.1120 -0.9607 -0.2986
 6238TIP3    H240130   4.708   3.150  13.299 -1.3901 -1.0877 -1.7997
 6239TIP3   OH240131   4.212   0.368  15.182  0.7425  0.4540 -0.2116
 6239TIP3    H140132   4.288   0.311  15.170  0.6400  0.0108  1.1172
 6239TIP3    H240133   4.248   0.446  15.225  0.8818  1.4492 -2.0013
 6240TIP3   OH240134   3.648   4.413  12.662 -0.0808 -0.0566  0.6481
 6240TIP3    H140135   3.727   4.387  12.710  0.1591  0.8597  0.7606
 6240TIP3    H240136   3.593   4.456  12.728 -1.4758 -2.2254  1.0011
 6241TIP3   OH240137   4.453   0.288   3.486  0.1082  0.3571 -0.2241
 6241TIP3    H140138   4.477   0.229   3.415 -0.6891  0.8605 -0.9408
 6241TIP3    H240139   4.524   0.352   3.489  0.2282  0.2357 -0.4515
 6242TIP3   OH240140   1.131   5.845   4.417  0.4259  0.0607  0.4909
 6242TIP3    H140141   1.136   5.940   4.404 -0.1600  0.1222  0.6987
 6242TIP3    H240142   1.042   5.830   4.446  0.4662 -0.5787  0.2866
 6243TIP3   OH240143   4.365   5.149   2.271  0.3566 -0.3051  0.2099
 6243TIP3    H140144   4.272   5.132   2.257 -0.0147  0.4424  1.5884
 6243TIP3    H240145   4.393   5.196   2.192 -0.7365  0.5329  0.2879
 6244TIP3   OH240146   5.727   1.461   1.974 -0.1640  0.4210 -0.3298
 6244TIP3    H140147   5.645   1.425   1.941  0.5592 -0.2983 -1.4321
 6244TIP3    H240148   5.761   1.394   2.033 -0.0754  0.4377 -0.3609
 6245TIP3   OH240149   6.032   5.795  16.404  0.0426  0.7832  0.4167
 6245TIP3    H140150   6.123   5.807  16.378 -0.2399  3.3020  0.2893
 6245TIP3    H240151   5.982   5.820  16.326 -0.8080 -1.5784  0.1312
 6246TIP3   OH240152   0.807   2.504  12.838  0.3515 -0.0374  0.5379
 6246TIP3    H140153   0.726   2.544  12.806 -0.3550 -1.9551 -0.2223
 6246TIP3    H240154   0.874   2.569  12.821 -0.7606  0.8915 -0.4651
 6247TIP3   OH240155   1.082   1.487  16.059  0.5815 -0.7248 -0.4096
 6247TIP3    H140156   1.162   1.514  16.103 -0.5638  2.4375 -0.0437
 6247TIP3    H240157   1.012   1.512  16.119 -0.7710 -3.9544 -0.4338
 6248TIP3   OH240158   4.098   4.985  15.063  0.1668 -0.2357  0.0039
 6248TIP3    H140159   4.159   5.053  15.092 -1.0217  0.1433  1.7795
 6248TIP3    H240160   4.031   5.033  15.014 -0.1021 -0.2741  0.3335
 6249TIP3   OH240161   4.398   4.581  15.134  0.4864  0.5256 -0.1605
 6249TIP3    H140162   4.462   4.634  15.181  0.3854  0.7217 -0.2451
 6249TIP3    H240163   4.315   4.596  15.179  0.6668 -0.4755  0.5562
 6250TIP3   OH240164   5.641   2.941  16.179  0.3265 -0.2219 -0.4701
 6250TIP3    H140165   5.646   2.872  16.113 -0.2119  0.3093 -1.0768
 6250TIP3    H240166   5.732   2.957  16.204  0.4360 -1.4134 -0.0406
 6251TIP3   OH240167   4.121   0.759   5.516  0.0344 -0.3899 -0.1642
 6251TIP3    H140168   4.050   0.695   5.506 -0.3504 -0.5423  2.6360
 6251TIP3    H240169   4.094   0.812   5.591  1.3894  1.6802 -1.0843
 6252TIP3   OH240170   4.855   1.867   1.821  0.2192  0.3799  0.4260
 6252TIP3    H140171   4.892   1.785   1.856 -0.7327  0.0185  0.6236
 6252TIP3    H240172   4.824   1.913   1.899  3.1911  2.2402  0.6406
 6253TIP3   OH240173   4.821   6.102  13.013 -0.2753  0.0184 -0.0616
 6253TIP3    H140174   4.899   6.111  12.957  1.4962  1.0799  2.3689
 6253TIP3    H240175   4.792   6.192  13.027  0.3666 -0.0469  1.9889
 6254TIP3   OH240176   6.554   6.342  12.004 -0.1703 -0.5700  0.1196
 6254TIP3    H140177   6.552   6.315  12.096 -0.1127 -0.3998  0.1718
 6254TIP3    H240178   6.608   6.275  11.961 -0.8644 -1.1006  0.0555
 6255TIP3   OH240179   4.084   4.439   0.152 -0.3394  0.4705 -0.1050
 6255TIP3    H140180   4.089   4.357   0.201 -2.2816  0.7367  0.6190
 6255TIP3    H240181   3.995   4.440   0.116  0.0258  1.7452 -1.0567
 6256TIP3   OH240182   0.329   3.325  12.680 -0.2206  0.6165  0.3675
 6256TIP3    H140183   0.305   3.415  12.656  0.7178  0.7010 -0.2982
 6256TIP3    H240184   0.297   3.314  12.769 -0.3695  1.6056  0.4399
 6257TIP3   OH240185   3.085   5.694   2.236  0.4532 -0.4065  0.6652
 6257TIP3    H140186   3.089   5.747   2.156  0.1054  0.1937  1.0444
 6257TIP3    H240187   3.044   5.751   2.301 -0.4128 -1.3184  0.9340
 6258TIP3   OH240188   6.551   6.674  15.176  0.5224 -0.0598 -0.3755
 6258TIP3    H140189   6.558   6.680  15.271  0.3787  2.4676 -0.4597
 6258TIP3    H240190   6.457   6.666  15.160  0.2604  2.1817 -0.3150
 6259TIP3   OH240191   5.919   3.453   4.897 -0.1724  0.8569 -0.2875
 6259TIP3    H140192   5.931   3.444   4.992 -1.5588  0.7346 -0.0919
 6259TIP3    H240193   5.964   3.535   4.875 -2.9304  2.9628  1.1754
 6260TIP3   OH240194   3.924   4.396  12.074  0.3364 -0.1010  0.5963
 6260TIP3    H140195   3.962   4.469  12.025 -1.4813  1.2626  1.1043
 6260TIP3    H240196   3.956   4.317  12.030 -0.5881  1.0199 -2.3291
 6261TIP3   OH240197   5.829   4.964  13.684  0.1166  0.1390  0.1285
 6261TIP3    H140198   5.836   5.051  13.646  0.2313  0.4014  0.7251
 6261TIP3    H240199   5.776   4.914  13.623 -1.4383  1.1278  0.6214
 6262TIP3   OH240200   0.743   3.742   5.826  0.0857  0.3623 -0.0382
 6262TIP3    H140201   0.750   3.647   5.830  0.0721  0.3848  0.5131
 6262TIP3    H240202   0.832   3.772   5.809 -0.0313  0.2150 -0.9631
 6263TIP3   OH240203   4.068   4.873   5.686 -0.4315  0.0024  0.0961
 6263TIP3    H140204   4.160   4.848   5.681 -0.6007 -0.6285  0.0541
 6263TIP3    H240205   4.059   4.947   5.626  0.7035  2.1054  2.3479
 6264TIP3   OH240206   0.832   2.069  14.285  0.1202 -0.5992 -0.4336
 6264TIP3    H140207   0.896   1.999  14.272  0.5851 -0.0963 -0.8467
 6264TIP3    H240208   0.754   2.038  14.237 -0.2758 -1.6122  0.7846
 6265TIP3   OH240209   3.332   4.851   1.531  0.8269  0.0842  0.3525
 6265TIP3    H140210   3.398   4.858   1.601 -0.4555 -2.2065  1.9343
 6265TIP3    H240211   3.351   4.768   1.489 -1.3388 -0.9261  1.2417
 6266TIP3   OH240212   5.242   2.467  17.011  0.1910 -0.2712  0.6245
 6266TIP3    H140213   5.180   2.476  16.939  0.4281 -1.6831  0.2243
 6266TIP3    H240214   5.298   2.544  17.004 -0.7949  0.4395  0.3058
 6267TIP3   OH240215   6.380   3.307  13.463 -0.0904 -0.0853 -1.0722
 6267TIP3    H140216   6.316   3.371  13.432 -0.8598  0.3048  1.0863
 6267TIP3    H240217   6.383   3.320  13.558  1.5683 -1.6111 -0.8430
 6268TIP3   OH240218   5.114   4.189  17.033 -0.3560 -0.4700  0.1885
 6268TIP3    H140219   5.059   4.185  17.111 -1.7164 -2.2855 -0.7879
 6268TIP3    H240220   5.188   4.245  17.058 -1.5331  0.2461  2.2478
 6269TIP3   OH240221   3.331   0.858  15.410 -0.4886 -1.4349  0.1269
 6269TIP3    H140222   3.343   0.871  15.504  2.0400  0.2564 -0.3293
 6269TIP3    H240223   3.313   0.945  15.375  2.0913 -1.3534 -1.2843
 6270TIP3   OH240224   3.527   3.915   0.938  0.2392  0.2528 -0.5261
 6270TIP3    H140225   3.577   3.986   0.897 -1.9000  1.5072 -1.1039
 6270TIP3    H240226   3.498   3.951   1.022  1.0290 -0.7971  0.2321
 6271TIP3   OH240227   2.608   6.620   3.661  0.0207  0.4164 -0.2692
 6271TIP3    H140228   2.606   6.635   3.756 -1.0820  0.1759 -0.2427
 6271TIP3    H240229   2.555   6.691   3.625  1.8252  1.5299 -0.8799
 6272TIP3   OH240230   6.663   1.869   0.647 -0.2760 -0.1306  0.1585
 6272TIP3    H140231   6.727   1.928   0.608 -0.6093 -0.2235 -0.5364
 6272TIP3    H240232   6.615   1.832   0.573 -1.5282  0.3744  0.6845
 6273TIP3   OH240233   3.178   4.193  11.364  0.0097 -0.1841 -0.4421
 6273TIP3    H140234   3.146   4.229  11.447  2.6097  0.7043  0.2617
 6273TIP3    H240235   3.156   4.259  11.299  1.3321  0.9422  0.2109
 6274TIP3   OH240236   1.308   1.442  12.626  0.1845 -0.0005 -0.0527
 6274TIP3    H140237   1.361   1.516  12.654  0.7852 -0.0705 -0.9780
 6274TIP3    H240238   1.233   1.481  12.582  0.5297  0.0649 -0.5910
 6275TIP3   OH240239   2.150   5.238  15.336  0.4776 -0.2517  0.3139
 6275TIP3    H140240   2.082   5.303  15.318 -0.0711 -0.9305 -0.0988
 6275TIP3    H240241   2.230   5.276  15.300 -0.2896 -0.8720 -2.2130
 6276TIP3   OH240242   5.058   6.601   3.360  0.9024 -0.0167  0.2823
 6276TIP3    H140243   4.986   6.659   3.334  0.3503 -0.7385  0.1406
 6276TIP3    H240244   5.137   6.651   3.342  0.5426 -0.2078 -2.2614
 6277TIP3   OH240245   2.657   3.544   1.002  0.3841 -0.0200 -0.3954
 6277TIP3    H140246   2.699   3.604   0.941  1.4495  0.3436  0.6653
 6277TIP3    H240247   2.663   3.458   0.959 -0.1321  0.4312 -1.4053
 6278TIP3   OH240248   5.199   2.853   2.209  0.0295 -0.1795  0.0935
 6278TIP3    H140249   5.291   2.874   2.227  0.1204 -0.7004  0.2784
 6278TIP3    H240250   5.157   2.857   2.295  0.5106 -2.9041  0.5501
 6279TIP3   OH240251   2.065   6.598  15.954 -0.3343 -0.0975 -0.1443
 6279TIP3    H140252   2.081   6.528  16.017 -2.0466 -1.1688 -0.8113
 6279TIP3    H240253   1.994   6.650  15.993 -2.0743 -1.3204 -1.4990
 6280TIP3   OH240254   0.813   3.980  14.559  0.3933  0.1338 -0.1427
 6280TIP3    H140255   0.750   4.053  14.566 -0.2065 -0.5093  1.8717
 6280TIP3    H240256   0.775   3.922  14.492 -0.7533  0.1591  0.4585
 6281TIP3   OH240257   3.583   0.194   1.539 -0.2320 -0.2620 -1.1568
 6281TIP3    H140258   3.588   0.175   1.633 -0.8813  0.6133 -0.9235
 6281TIP3    H240259   3.557   0.111   1.499  0.9763 -0.8905 -0.6871
 6282TIP3   OH240260   1.050   5.799   1.213  0.4427 -0.1446  0.0805
 6282TIP3    H140261   0.985   5.740   1.177  2.4874 -1.8548 -1.0700
 6282TIP3    H240262   1.087   5.844   1.137  0.9372  0.3845  0.6248
 6283TIP3   OH240263   3.204   5.715   0.157 -0.1572  0.5514 -1.1144
 6283TIP3    H140264   3.289   5.675   0.176  0.0123 -0.0135 -2.8262
 6283TIP3    H240265   3.218   5.809   0.166 -0.4307  0.3816  2.5205
 6284TIP3   OH240266   1.545   5.432  16.179 -0.1083 -0.3381 -0.0909
 6284TIP3    H140267   1.461   5.392  16.159 -0.7921 -0.1047  2.0256
 6284TIP3    H240268   1.544   5.443  16.274  1.9402  0.5194 -0.1147
 6285TIP3   OH240269   0.416   6.754  13.099  0.0688  0.6457 -0.0026
 6285TIP3    H140270   0.412   6.801  13.016  0.0619 -0.5289 -0.6750
 6285TIP3    H240271   0.498   6.782  13.138 -0.1682  1.5952 -0.1518
 6286TIP3   OH240272   1.522   5.042  16.278 -0.0055 -0.1177  0.4370
 6286TIP3    H140273   1.574   4.965  16.299 -0.1920 -0.4334 -0.2348
 6286TIP3    H240274   1.576   5.116  16.307  0.5821 -0.4639  0.2456
 6287TIP3   OH240275   5.305   5.612  17.035  0.5960  0.3353 -0.1973
 6287TIP3    H140276   5.210   5.616  17.048  0.5968 -0.6140  0.1576
 6287TIP3    H240277   5.323   5.682  16.972 -0.8158 -1.6374 -2.9987
 6288TIP3   OH240278   4.580   1.471  16.758  0.2227 -0.0587  1.0402
 6288TIP3    H140279   4.524   1.434  16.827 -0.0448 -2.2203 -0.2417
 6288TIP3    H240280   4.641   1.401  16.736  0.0260  0.4054 -1.2136
 6289TIP3   OH240281   0.303   3.656   3.762 -0.1950  0.6941 -0.0730
 6289TIP3    H140282   0.296   3.582   3.702  0.9554  0.4611  0.0704
 6289TIP3    H240283   0.270   3.622   3.846 -2.1300  1.1179 -0.6059
 6290TIP3   OH240284   1.807   0.293  15.108 -0.1973  0.1960  0.0025
 6290TIP3    H140285   1.720   0.274  15.143  0.1126 -1.1745  0.0639
 6290TIP3    H240286   1.825   0.383  15.137 -1.5285  0.4619  0.0909
 6291TIP3   OH240287   1.151   4.586   5.328  0.1199  0.4899  0.0654
 6291TIP3    H140288   1.158   4.545   5.241 -0.6326 -0.3157  0.3713
 6291TIP3    H240289   1.062   4.566   5.357 -0.7529  3.4127 -0.2733
 6292TIP3   OH240290   1.131   6.331  14.758  0.1132  0.0449 -0.3354
 6292TIP3    H140291   1.143   6.339  14.852  0.0479  0.5985 -0.3695
 6292TIP3    H240292   1.219   6.313  14.724  0.1804  0.1134 -0.1964
 6293TIP3   OH240293   2.016   6.573  15.291  0.1124 -0.1215  0.8817
 6293TIP3    H140294   1.945   6.565  15.354 -2.0189 -0.4587 -1.3856
 6293TIP3    H240295   1.995   6.652  15.241  0.0702 -1.3705 -1.2117
 6294TIP3   OH240296   1.210   6.503  17.036  0.0753 -0.1736 -0.0915
 6294TIP3    H140297   1.132   6.548  17.003 -1.3881 -2.3632  0.1487
 6294TIP3    H240298   1.263   6.486  16.958 -0.8831 -0.7843 -0.6348
 6295TIP3   OH240299   5.674   4.618   2.760  0.1663  0.0595  0.5087
 6295TIP3    H140300   5.735   4.690   2.775  1.3034 -0.5667 -0.8865
 6295TIP3    H240301   5.652   4.586   2.848  0.1918  1.6195  1.1110
 6296TIP3   OH240302   4.693   0.609   4.418 -0.0580  0.2499  0.1603
 6296TIP3    H140303   4.681   0.652   4.503 -0.6218  0.5235 -0.0507
 6296TIP3    H240304   4.625   0.542   4.414  0.4632 -0.2850  0.2495
 6297TIP3   OH240305   1.963   3.958   4.226  0.0409  0.0678 -0.4234
 6297TIP3    H140306   1.996   4.043   4.256 -0.6553 -0.3152  1.5639
 6297TIP3    H240307   1.871   3.973   4.208 -0.1781 -0.3260  0.3139
 6298TIP3   OH240308   5.155   4.878   5.790 -0.2022 -0.0823  0.2872
 6298TIP3    H140309   5.111   4.927   5.720 -0.5734  0.2923  0.7712
 6298TIP3    H240310   5.240   4.920   5.799  0.2073 -0.7075 -0.5460
 6299TIP3   OH240311   5.989   5.151   2.878  0.0943  0.0296  0.5651
 6299TIP3    H140312   5.920   5.212   2.851 -0.3565 -0.9882 -0.7009
 6299TIP3    H240313   6.069   5.203   2.872 -0.1933  0.3529 -1.1853
 6300TIP3   OH240314   1.509   4.582   4.957 -0.1529 -0.4458 -0.2945
 6300TIP3    H140315   1.594   4.595   4.914 -0.4906  1.0401 -0.5665
 6300TIP3    H240316   1.510   4.644   5.030 -0.2486 -1.7895  0.9022
 6301TIP3   OH240317   0.630   3.198   4.378 -0.1466  0.3705  0.3688
 6301TIP3    H140318   0.568   3.235   4.314 -0.3993  0.3828  0.6199
 6301TIP3    H240319   0.683   3.137   4.326 -0.0830  0.6789  0.0640
 6302TIP3   OH240320   0.200   1.278  14.916  0.1141 -0.2797 -0.1899
 6302TIP3    H140321   0.252   1.206  14.879 -0.1827 -0.8259  0.4431
 6302TIP3    H240322   0.111   1.243  14.919 -0.4804  0.9104 -1.9854
 6303TIP3   OH240323   5.906   1.076  15.270 -0.1360  0.6720  0.3777
 6303TIP3    H140324   5.845   1.140  15.233  0.3625  0.9018 -0.0565
 6303TIP3    H240325   5.851   1.000  15.291 -0.2601  0.0298 -2.0317
 6304TIP3   OH240326   1.651   5.689  14.466 -0.3377  0.3757 -0.0413
 6304TIP3    H140327   1.743   5.662  14.467 -0.9130 -1.8900  1.9476
 6304TIP3    H240328   1.612   5.642  14.393 -0.2457  0.0576  0.1157
 6305TIP3   OH240329   3.887   0.766   2.029  0.0953 -0.3824 -0.3483
 6305TIP3    H140330   3.881   0.672   2.045  1.4250 -0.5095 -0.5707
 6305TIP3    H240331   3.809   0.786   1.976  0.1160 -1.4513 -0.7979
 6306TIP3   OH240332   5.191   6.507  13.135  0.2365  0.1642 -0.0477
 6306TIP3    H140333   5.112   6.471  13.177  2.1011  0.4880  4.3204
 6306TIP3    H240334   5.239   6.430  13.105 -1.7142 -0.0228 -3.0350
 6307TIP3   OH240335   5.233   3.692   5.843  0.1045 -0.3155 -0.3467
 6307TIP3    H140336   5.205   3.695   5.935 -1.7042 -0.4883 -0.8484
 6307TIP3    H240337   5.211   3.779   5.810 -0.4693 -0.6695 -0.9212
 6308TIP3   OH240338   4.442   5.074   0.656 -0.1495  0.1025 -0.1785
 6308TIP3    H140339   4.433   5.160   0.696 -2.5945  0.2237 -0.8240
 6308TIP3    H240340   4.518   5.035   0.700 -0.2164  1.7809  1.5707
 6309TIP3   OH240341   5.963   3.272  16.678  0.1837 -0.3358 -0.4024
 6309TIP3    H140342   5.885   3.250  16.730 -1.3910 -1.9119 -3.1589
 6309TIP3    H240343   5.942   3.357  16.640 -0.0816 -0.6334 -0.9276
 6310TIP3   OH240344   4.013   0.307   5.832  0.2171 -0.2181 -0.2507
 6310TIP3    H140345   4.061   0.361   5.895  0.4495 -2.4070  1.6164
 6310TIP3    H240346   3.922   0.314   5.858  0.3720 -1.5863  0.8254
 6311TIP3   OH240347   0.271   1.271   5.360  0.8612  0.3986 -0.2970
 6311TIP3    H140348   0.252   1.351   5.310  0.3853 -0.1568 -1.0283
 6311TIP3    H240349   0.331   1.300   5.429 -0.6577  1.7146  0.5358
 6312TIP3   OH240350   4.583   0.184  14.610  0.9694 -0.5055  0.7707
 6312TIP3    H140351   4.535   0.108  14.578  0.8690 -0.0936 -0.0935
 6312TIP3    H240352   4.530   0.217  14.683 -0.3150  0.1912 -0.4338
 6313TIP3   OH240353   1.922   4.637   1.620 -0.0276  0.3118  0.4693
 6313TIP3    H140354   1.882   4.639   1.534 -0.6276 -0.6292  0.7109
 6313TIP3    H240355   2.016   4.630   1.603 -0.1700 -0.2737 -0.1106
 6314TIP3   OH240356   0.807   1.419  14.529 -0.2010 -0.3371  0.0974
 6314TIP3    H140357   0.740   1.355  14.502 -0.1533 -0.4641  0.2771
 6314TIP3    H240358   0.809   1.412  14.624  1.2060 -1.5151  0.0234
 6315TIP3   OH240359   3.979   4.527  15.267 -0.3450  0.1976  0.4933
 6315TIP3    H140360   4.024   4.488  15.192  0.9082 -1.0959  1.8533
 6315TIP3    H240361   3.981   4.621  15.250  1.6427  0.0847 -0.2013
 6316TIP3   OH240362   2.975   0.174   2.347  0.1206 -0.2610 -0.0415
 6316TIP3    H140363   2.881   0.164   2.363  0.3687 -1.4896  0.7715
 6316TIP3    H240364   3.016   0.116   2.411  1.4030 -0.4892 -1.0529
 6317TIP3   OH240365   0.918   2.877  16.903  0.8746  0.1057 -0.2235
 6317TIP3    H140366   0.894   2.794  16.946  0.2559 -0.0509 -0.8510
 6317TIP3    H240367   0.889   2.945  16.964 -1.7263 -0.0520 -1.1519
 6318TIP3   OH240368   0.944   3.822   4.153 -0.6445  0.2903  0.2900
 6318TIP3    H140369   0.986   3.740   4.180 -0.2899  0.4907  0.3568
 6318TIP3    H240370   0.904   3.802   4.068 -1.4778 -0.2506  0.7949
 6319TIP3   OH240371   2.858   4.362   3.459 -0.5039 -0.1722  0.0962
 6319TIP3    H140372   2.809   4.318   3.529 -2.1631  0.5319 -0.5736
 6319TIP3    H240373   2.867   4.295   3.392 -1.0847 -0.1567 -0.0088
 6320TIP3   OH240374   2.174   5.144   1.616 -0.7050  0.1597 -0.4778
 6320TIP3    H140375   2.113   5.210   1.649  0.3849  1.4776 -0.9977
 6320TIP3    H240376   2.163   5.146   1.521 -0.3400 -0.0600 -0.5298
 6321TIP3   OH240377   4.351   6.170  15.356  0.5602  0.6056 -0.0697
 6321TIP3    H140378   4.372   6.113  15.282 -3.4050 -1.9562  0.4056
 6321TIP3    H240379   4.303   6.243  15.317 -0.9430 -0.4038 -0.2376
 6322TIP3   OH240380   6.672   1.478   4.519 -0.3506 -0.0317  0.4527
 6322TIP3    H140381   6.637   1.415   4.583  0.4376 -0.3427  0.5923
 6322TIP3    H240382   6.611   1.474   4.446 -0.3493 -0.9204  0.4863
 6323TIP3   OH240383   3.262   2.330   5.612 -0.2484  0.2096  0.1065
 6323TIP3    H140384   3.352   2.331   5.646 -0.2038  0.4931 -0.0127
 6323TIP3    H240385   3.261   2.258   5.549 -0.3772 -0.4219  0.8170
 6324TIP3   OH240386   5.031   6.634   6.263  0.1081  0.3966  0.2771
 6324TIP3    H140387   5.053   6.662   6.352 -1.5353  0.5941  0.6616
 6324TIP3    H240388   4.935   6.634   6.261  0.0733 -1.6483 -0.8559
 6325TIP3   OH240389   0.065   2.347  16.274  0.3759  0.5151 -0.2125
 6325TIP3    H140390  -0.021   2.369  16.241  0.1804  0.0005 -0.0628
 6325TIP3    H240391   0.054   2.261  16.315  0.3112  1.6318  2.3234
 6326TIP3   OH240392   5.235   0.102  13.127 -0.5231  0.6685  0.4763
 6326TIP3    H140393   5.224   0.036  13.196  0.0753 -0.0907 -0.1275
 6326TIP3    H240394   5.323   0.086  13.093 -0.4402  1.6695  0.1860
 6327TIP3   OH240395   2.926   3.685  13.382  0.3100  0.0094 -0.6217
 6327TIP3    H140396   2.907   3.596  13.355  1.0944 -0.9297  1.6562
 6327TIP3    H240397   2.841   3.725  13.398 -0.0458 -0.2765 -1.7256
 6328TIP3   OH240398   4.909   6.439  12.012 -0.0525  0.3504  0.2103
 6328TIP3    H140399   4.866   6.407  11.933  0.0770 -0.7408  0.5607
 6328TIP3    H240400   4.960   6.364  12.043 -0.0943  0.7620  1.3142
 6329TIP3   OH240401   0.737   0.870   0.576 -0.0853 -0.3616  0.0363
 6329TIP3    H140402   0.800   0.924   0.527  1.2445 -1.1903  0.7680
 6329TIP3    H240403   0.744   0.903   0.666 -0.7377 -0.4440  0.1195
 6330TIP3   OH240404   6.772   4.287   0.964 -0.2991 -0.5027 -0.7645
 6330TIP3    H140405   6.732   4.374   0.973 -1.2266 -0.9014 -0.9136
 6330TIP3    H240406   6.866   4.303   0.971 -0.4636  0.5034 -0.7045
 6331TIP3   OH240407   1.179   5.678  11.870  0.1946 -0.0018  0.0242
 6331TIP3    H140408   1.121   5.655  11.798 -1.0401  0.4354  0.8432
 6331TIP3    H240409   1.188   5.597  11.920 -0.2228  0.0799  0.2362
 6332TIP3   OH240410   1.598   0.031  16.013 -0.3911 -0.1820 -0.1522
 6332TIP3    H140411   1.594  -0.041  16.076 -0.7670 -0.8072 -0.8701
 6332TIP3    H240412   1.557   0.105  16.058  1.0223 -0.0741  1.0153
 6333TIP3   OH240413   3.412   3.196   3.057  0.3594 -0.0419 -0.9599
 6333TIP3    H140414   3.423   3.110   3.017  1.1631 -0.9215  1.0096
 6333TIP3    H240415   3.441   3.258   2.990  1.1203 -1.3788 -1.9114
 6334TIP3   OH240416   1.408   0.443   1.469 -0.1004  0.2615 -0.1498
 6334TIP3    H140417   1.389   0.488   1.387  0.1085 -1.9532 -1.5095
 6334TIP3    H240418   1.498   0.467   1.490 -0.6979  2.1745  0.3959
 6335TIP3   OH240419   4.426   5.133   6.457 -0.3070 -0.0903  0.4036
 6335TIP3    H140420   4.407   5.175   6.541 -0.8649 -0.4871  0.4782
 6335TIP3    H240421   4.350   5.077   6.440  0.5931 -1.3765  0.5005
 6336TIP3   OH240422   6.779   2.181   0.433  0.0080  0.0996  0.4206
 6336TIP3    H140423   6.839   2.109   0.452  0.6154  0.0420 -1.5104
 6336TIP3    H240424   6.835   2.257   0.417 -0.5918  0.8193  1.5674
 6337TIP3   OH240425   3.295   1.778   3.575 -0.1929 -0.6712 -0.8698
 6337TIP3    H140426   3.312   1.872   3.585 -0.9402 -0.6964  1.2174
 6337TIP3    H240427   3.379   1.736   3.591 -0.3689 -0.4340  0.8779
 6338TIP3   OH240428   0.153   2.412  16.519  0.0137  0.5629  0.3675
 6338TIP3    H140429   0.101   2.386  16.443  0.3999 -0.9366  0.5868
 6338TIP3    H240430   0.237   2.369  16.507 -0.1611 -0.3335  1.9978
 6339TIP3   OH240431   5.710   1.614   0.990  0.1820  0.4188  0.1147
 6339TIP3    H140432   5.738   1.632   1.080  1.7998  1.8254 -0.6064
 6339TIP3    H240433   5.651   1.685   0.968 -2.0816 -1.1686  0.7696
 6340TIP3   OH240434   6.029   6.710   3.276 -0.3357  0.0890 -0.1843
 6340TIP3    H140435   5.981   6.786   3.309 -0.6031 -0.0488 -0.2607
 6340TIP3    H240436   5.970   6.636   3.289 -0.1350 -0.0845 -0.2539
 6341TIP3   OH240437   5.905   3.994   0.044  0.5060  0.0116 -0.1436
 6341TIP3    H140438   5.880   3.933   0.113 -0.0856 -0.3221 -0.6494
 6341TIP3    H240439   5.864   4.077   0.068 -0.6877 -0.4007 -0.6977
 6342TIP3   OH240440   4.190   2.076  14.635  0.7220  0.0153 -0.3210
 6342TIP3    H140441   4.106   2.102  14.674  1.4118 -0.5212  1.6532
 6342TIP3    H240442   4.168   2.048  14.546 -1.0321  0.8366 -0.1845
 6343TIP3   OH240443   4.382   5.233   3.404  0.3749  1.0776  0.2709
 6343TIP3    H140444   4.414   5.302   3.345  0.2145  0.2911 -0.7597
 6343TIP3    H240445   4.321   5.182   3.351  2.7619 -1.7280 -0.0238
 6344TIP3   OH240446   3.871   5.735  15.723  0.3203 -0.5540  0.5573
 6344TIP3    H140447   3.951   5.783  15.741  0.0018 -0.1786  0.9869
 6344TIP3    H240448   3.876   5.715  15.629 -0.7817  2.7168 -0.3348
 6345TIP3   OH240449   3.144   3.662   2.832 -0.1910  0.4682 -0.5533
 6345TIP3    H140450   3.234   3.666   2.802 -0.1358 -0.2482 -0.4848
 6345TIP3    H240451   3.094   3.633   2.755 -0.1207 -0.8455 -0.1267
 6346TIP3   OH240452   1.956   6.258   5.846 -0.7703  0.7305  0.2080
 6346TIP3    H140453   1.947   6.163   5.857  0.8561  0.4496 -0.5183
 6346TIP3    H240454   1.988   6.289   5.930  2.2516  0.0400 -0.5738
 6347TIP3   OH240455   5.169   1.232  13.209  0.2562  0.2173  0.2218
 6347TIP3    H140456   5.180   1.318  13.168  0.5551 -0.2294 -0.6603
 6347TIP3    H240457   5.234   1.177  13.166 -0.4499 -0.6409  0.2292
 6348TIP3   OH240458   4.539   4.009   5.626 -0.2846 -0.3708  0.0081
 6348TIP3    H140459   4.465   3.963   5.587 -0.6524 -0.3457  0.6625
 6348TIP3    H240460   4.513   4.025   5.717  1.0685 -1.5930  0.6573
 6349TIP3   OH240461   3.172   6.395   3.396 -0.0657 -0.0783 -0.1756
 6349TIP3    H140462   3.172   6.490   3.408 -0.6951 -0.0145 -0.6223
 6349TIP3    H240463   3.257   6.375   3.356  0.3045  0.2206  0.4578
 6350TIP3   OH240464   0.791   5.039   4.995  0.1462  0.1844 -0.5691
 6350TIP3    H140465   0.808   5.017   5.087 -3.8072  0.6094  0.4896
 6350TIP3    H240466   0.820   5.130   4.986  2.6220 -0.5358 -0.4944
 6351TIP3   OH240467   2.932   4.342   0.583 -0.1718 -0.0023 -0.3456
 6351TIP3    H140468   2.972   4.277   0.641  1.7334  1.0604 -0.3557
 6351TIP3    H240469   2.933   4.423   0.634  0.0480  0.5985 -1.2779
 6352TIP3   OH240470   6.113   1.005   5.491  0.9179  0.0258  0.1452
 6352TIP3    H140471   6.096   0.931   5.551  0.0625 -0.6150 -0.8578
 6352TIP3    H240472   6.078   1.081   5.537  0.4905 -0.4195  0.5785
 6353TIP3   OH240473   4.569   2.924  11.891  0.0246  0.4445 -0.1106
 6353TIP3    H140474   4.494   2.940  11.835 -0.1078  0.4758  0.0734
 6353TIP3    H240475   4.556   2.983  11.966 -1.0422 -1.2531  1.1201
 6354TIP3   OH240476   1.682   1.950   1.192 -0.4649  0.5739  0.0490
 6354TIP3    H140477   1.756   1.934   1.134  0.1781  1.3812  0.6152
 6354TIP3    H240478   1.671   1.868   1.240 -0.3823  0.2218 -0.5242
 6355TIP3   OH240479   4.751   3.862   5.207 -0.0194  0.2673 -0.4337
 6355TIP3    H140480   4.661   3.881   5.180 -0.1397  1.2713  0.6001
 6355TIP3    H240481   4.766   3.772   5.178 -0.7786  0.6287 -2.0873
 6356TIP3   OH240482   1.572   4.251   2.305 -0.1095 -0.0619 -0.1604
 6356TIP3    H140483   1.633   4.213   2.368 -0.9576 -0.5169  0.4205
 6356TIP3    H240484   1.549   4.336   2.342 -0.3789 -0.2030  0.0041
 6357TIP3   OH240485   0.663   3.688   4.236 -0.2982 -0.1796  0.0734
 6357TIP3    H140486   0.599   3.746   4.277 -0.9886 -0.9700  0.1312
 6357TIP3    H240487   0.618   3.655   4.158  0.4114  0.0345 -0.4396
 6358TIP3   OH240488   4.788   4.345  16.045 -0.0920 -0.2907 -0.4267
 6358TIP3    H140489   4.781   4.321  16.137  2.1983 -0.6411 -0.2691
 6358TIP3    H240490   4.817   4.264  16.002 -0.1873  0.1240 -1.2882
 6359TIP3   OH240491   2.497   1.447  17.226 -0.1581 -0.5060 -0.7040
 6359TIP3    H140492   2.591   1.441  17.248 -0.6871 -1.4022  1.5880
 6359TIP3    H240493   2.455   1.466  17.310 -2.2607 -2.4487 -1.2483
 6360TIP3   OH240494   3.179   3.780   5.422  0.1307  0.3784  0.8611
 6360TIP3    H140495   3.194   3.793   5.515 -2.4720  0.1188  1.3815
 6360TIP3    H240496   3.086   3.800   5.409  0.0504 -1.0571 -1.4016
 6361TIP3   OH240497   6.797   3.573  15.757 -0.2192  0.2523 -0.2567
 6361TIP3    H140498   6.872   3.531  15.800  1.1123  1.8044 -0.9670
 6361TIP3    H240499   6.783   3.653  15.807 -2.4349 -0.7224  0.8050
 6362TIP3   OH240500   4.904   3.782  15.840  0.1622  0.0730  0.0455
 6362TIP3    H140501   4.972   3.848  15.855 -0.6438  0.7096  1.0435
 6362TIP3    H240502   4.822   3.828  15.858 -0.5385 -0.7216 -0.9928
 6363TIP3   OH240503   2.502   5.165  11.942 -0.7951 -0.3177  0.0214
 6363TIP3    H140504   2.433   5.161  11.876 -2.2540  1.3215  1.3401
 6363TIP3    H240505   2.456   5.154  12.026  0.4498  1.2362  0.9694
 6364TIP3   OH240506   6.723   5.468  16.553 -0.3378  0.1697  0.8616
 6364TIP3    H140507   6.733   5.385  16.505 -0.2298  1.2768 -1.1823
 6364TIP3    H240508   6.631   5.490  16.544 -0.1179  0.8980  0.1826
 6365TIP3   OH240509   0.494   1.619  16.925 -0.8895 -0.8825  0.1191
 6365TIP3    H140510   0.575   1.592  16.882 -0.8918  1.1175 -1.2656
 6365TIP3    H240511   0.428   1.558  16.891 -0.4844 -0.7072 -1.0152
 6366TIP3   OH240512   3.568   2.088   2.091  0.1322  0.4917 -0.3767
 6366TIP3    H140513   3.593   2.137   2.169 -0.1132 -1.3286  0.9278
 6366TIP3    H240514   3.647   2.038   2.068 -0.3493 -0.4102 -0.1251
 6367TIP3   OH240515   2.376   1.054  11.282 -0.8275 -0.2847 -0.6630
 6367TIP3    H140516   2.295   1.002  11.278 -1.5332  0.4764  1.6952
 6367TIP3    H240517   2.423   1.018  11.357 -0.3221  1.0803 -0.3039
 6368TIP3   OH240518   1.362   1.659  17.013  0.4638  0.0599  0.1977
 6368TIP3    H140519   1.423   1.607  17.066  0.1685 -1.1368 -0.5856
 6368TIP3    H240520   1.411   1.679  16.934  0.2372  0.1049  0.0705
 6369TIP3   OH240521   1.391   5.087  12.072  0.1677  0.0248 -0.0733
 6369TIP3    H140522   1.372   4.999  12.105 -0.7839  0.2208 -0.0785
 6369TIP3    H240523   1.342   5.092  11.990  1.2770  0.0989 -0.7556
 6370TIP3   OH240524   2.457   4.254   3.277  0.7047  0.2268 -0.0704
 6370TIP3    H140525   2.524   4.234   3.211  0.6673  0.4687 -0.1814
 6370TIP3    H240526   2.456   4.350   3.281 -0.6036  0.2748 -1.0693
 6371TIP3   OH240527   1.861   0.387  12.406  0.1917  0.5573  0.4485
 6371TIP3    H140528   1.951   0.358  12.421  0.4417  0.3353 -1.2730
 6371TIP3    H240529   1.869   0.475  12.369 -0.1098 -0.3720 -2.0217
 6372TIP3   OH240530   3.802   3.682   1.323 -0.0485 -0.4375 -0.3513
 6372TIP3    H140531   3.762   3.730   1.250  1.9158  0.6913 -0.7368
 6372TIP3    H240532   3.851   3.748   1.371 -1.0656 -1.2170  1.8841
 6373TIP3   OH240533   2.275   3.920   1.724  0.2512  0.5393  0.3048
 6373TIP3    H140534   2.263   4.015   1.736  3.2457  0.8758  1.6607
 6373TIP3    H240535   2.356   3.901   1.771  0.8026 -2.3746 -1.6017
 6374TIP3   OH240536   3.404   2.872  15.624  0.3533  0.0347  0.0878
 6374TIP3    H140537   3.343   2.876  15.551  0.0960  1.2562  0.3502
 6374TIP3    H240538   3.443   2.959  15.628 -0.1895  0.2322  1.8702
 6375TIP3   OH240539   5.562   3.883   2.105  0.3493  0.0605  0.1121
 6375TIP3    H140540   5.590   3.974   2.115 -1.7813  0.9581 -1.2478
 6375TIP3    H240541   5.619   3.847   2.037 -0.6302  1.3295 -1.4474
 6376TIP3   OH240542   4.261   1.091  11.143  0.1088 -0.7693  0.5207
 6376TIP3    H140543   4.321   1.033  11.190 -0.4470 -0.6200  1.4354
 6376TIP3    H240544   4.265   1.174  11.191 -0.3084 -0.5445  0.1730
 6377TIP3   OH240545   1.742   5.430  17.008 -0.4201 -0.3153  0.0070
 6377TIP3    H140546   1.648   5.427  17.025 -0.3510 -0.0511  0.4479
 6377TIP3    H240547   1.763   5.342  16.976 -0.8697 -0.2766 -0.4141
 6378TIP3   OH240548   3.859   1.946   3.174 -0.0222 -0.1708  0.3554
 6378TIP3    H140549   3.835   1.978   3.261 -1.3138  2.7384 -0.9187
 6378TIP3    H240550   3.790   1.980   3.117  1.0520 -1.5458 -1.8949
 6379TIP3   OH240551   3.507   3.078   3.286 -0.2841 -0.0213 -0.8776
 6379TIP3    H140552   3.470   3.129   3.215 -1.1373 -1.2576 -1.3448
 6379TIP3    H240553   3.459   2.995   3.284 -0.7554  0.1205  1.4998
 6380TIP3   OH240554   6.309   0.959   2.010  0.3448 -0.2277 -0.3196
 6380TIP3    H140555   6.342   0.995   2.093  1.4445  0.7037 -1.1221
 6380TIP3    H240556   6.297   0.866   2.027  1.7097 -0.2781  0.5598
 6381TIP3   OH240557   2.834   2.167   4.733 -0.7349  0.2003  0.1474
 6381TIP3    H140558   2.839   2.108   4.657 -2.0889  1.5560 -1.0606
 6381TIP3    H240559   2.915   2.151   4.781  0.1004 -0.8227 -1.5079
 6382TIP3   OH240560   6.091   1.450  15.838 -0.2095  0.4998 -0.1049
 6382TIP3    H140561   6.147   1.380  15.873 -1.7755 -1.0942 -0.6412
 6382TIP3    H240562   6.127   1.470  15.752 -1.2768 -1.6032 -1.1028
 6383TIP3   OH240563   1.325   3.650  15.675  0.3982 -0.2327  0.0036
 6383TIP3    H140564   1.418   3.660  15.656  0.5228 -1.7784 -0.3502
 6383TIP3    H240565   1.282   3.711  15.615  1.2632  3.8462  3.1094
 6384TIP3   OH240566   0.510   3.031  14.924 -0.5466 -0.1914  0.0473
 6384TIP3    H140567   0.584   3.048  14.865  0.4439  2.0880  1.7535
 6384TIP3    H240568   0.518   3.099  14.991 -2.9521 -1.2455  1.5230
 6385TIP3   OH240569   4.224   4.586  15.673  0.1565  0.0776 -0.4706
 6385TIP3    H140570   4.268   4.501  15.670  1.1431  0.5762 -1.1080
 6385TIP3    H240571   4.258   4.628  15.752 -0.2340 -0.0769 -0.2221
 6386TIP3   OH240572   2.718   5.413  12.425  0.6521 -0.8852  0.0474
 6386TIP3    H140573   2.747   5.459  12.346  1.1005 -1.4927 -0.1459
 6386TIP3    H240574   2.650   5.469  12.461 -0.0286 -0.9272 -1.1300
 6387TIP3   OH240575   5.446   3.270  14.771 -0.1021 -0.3870  0.2977
 6387TIP3    H140576   5.500   3.247  14.696  0.4082  0.2927  0.4503
 6387TIP3    H240577   5.502   3.326  14.825 -0.5401 -0.6813  1.0712
 6388TIP3   OH240578   4.068   1.727  17.016 -0.2233  0.2226  0.7455
 6388TIP3    H140579   4.032   1.643  16.987 -0.5930  0.3135  0.9338
 6388TIP3    H240580   4.017   1.749  17.094 -1.7100  1.7333 -0.5705
 6389TIP3   OH240581   1.741   3.929  14.951  0.2683 -0.0333  0.1415
 6389TIP3    H140582   1.788   4.010  14.970  0.3254 -0.2294  0.8806
 6389TIP3    H240583   1.736   3.884  15.035  0.3465 -0.8595 -0.2871
 6390TIP3   OH240584   4.429   3.626   1.781 -0.0388  0.1088 -0.1774
 6390TIP3    H140585   4.464   3.709   1.814  0.4430 -0.4426  0.7583
 6390TIP3    H240586   4.339   3.624   1.813 -0.5331  0.9088 -1.4320
 6391TIP3   OH240587   5.141   4.362  10.560  0.1019  0.1813 -0.2986
 6391TIP3    H140588   5.090   4.411  10.495  0.0380  0.2444 -0.2025
 6391TIP3    H240589   5.081   4.292  10.588  0.2493 -0.0490 -0.5511
 6392TIP3   OH240590   3.161   6.236  16.049  0.0296  0.1759 -0.1103
 6392TIP3    H140591   3.153   6.198  16.137 -2.3732  1.5494  0.3708
 6392TIP3    H240592   3.219   6.311  16.060 -1.2457  1.0867  0.6291
 6393TIP3   OH240593   1.974   2.419  10.825 -0.0852 -0.3338 -0.8809
 6393TIP3    H140594   2.025   2.358  10.772 -1.2678 -1.1600 -1.1232
 6393TIP3    H240595   1.909   2.364  10.869  1.7256  0.1089  2.6271
 6394TIP3   OH240596   1.635   1.610   1.060  0.3260  0.1799 -0.1658
 6394TIP3    H140597   1.563   1.656   1.017 -0.4836 -0.1577  0.7783
 6394TIP3    H240598   1.652   1.534   1.005 -0.6686 -0.2305  0.0569
 6395TIP3   OH240599   5.124   2.030  15.947 -0.5669  0.0040 -0.6324
 6395TIP3    H140600   5.065   2.061  16.016 -1.6231  0.4241 -1.6909
 6395TIP3    H240601   5.183   1.969  15.991 -1.9312 -0.5956  0.4201
 6396TIP3   OH240602   5.357   6.123  11.905 -0.3679 -0.2969  0.2844
 6396TIP3    H140603   5.384   6.052  11.963  2.1659  0.3288 -0.0253
 6396TIP3    H240604   5.320   6.078  11.829 -0.0845 -1.2567  0.6882
 6397TIP3   OH240605   4.872   2.543   0.560  0.8506  0.6695 -0.3127
 6397TIP3    H140606   4.872   2.455   0.598  1.1803  0.7626 -0.1026
 6397TIP3    H240607   4.932   2.537   0.485 -0.2129  0.3386 -1.1654
 6398TIP3   OH240608   2.329   3.092   5.698  0.0128 -0.6176 -0.8522
 6398TIP3    H140609   2.424   3.077   5.694  0.0048 -0.5195 -1.6468
 6398TIP3    H240610   2.292   3.016   5.652 -0.3720 -1.2806  0.5065
 6399TIP3   OH240611   2.039   4.429  12.530 -0.5353 -0.3884  0.2729
 6399TIP3    H140612   2.086   4.411  12.611 -0.6399 -2.5453 -0.0694
 6399TIP3    H240613   2.108   4.439  12.464 -0.4740 -0.3506  0.3437
 6400TIP3   OH240614   4.826   5.630   5.936  0.2977 -0.5236 -0.2968
 6400TIP3    H140615   4.775   5.632   6.017  2.8178 -2.1161  1.4701
 6400TIP3    H240616   4.801   5.710   5.890 -1.7040  0.1111  1.7351
 6401TIP3   OH240617   6.524   2.097  13.157 -0.0248  0.4911 -0.1451
 6401TIP3    H140618   6.479   2.179  13.137  0.2227  0.4870 -0.7540
 6401TIP3    H240619   6.617   2.122  13.162  0.0153  0.3080 -0.0026
 6402TIP3   OH240620   4.428   2.767   1.788 -0.1540  0.2181 -0.0203
 6402TIP3    H140621   4.435   2.673   1.777  0.5636 -0.0051  1.9969
 6402TIP3    H240622   4.445   2.803   1.701  0.0584 -1.4719 -0.7103
 6403TIP3   OH240623   5.928   5.122  10.665  0.5457 -0.3378  0.1729
 6403TIP3    H140624   5.971   5.046  10.703  1.1609 -0.3545 -0.5568
 6403TIP3    H240625   5.861   5.086  10.607  0.8302 -0.3304 -0.1649
 6404TIP3   OH240626   3.065   4.014   3.188  0.2902  0.2087  0.4169
 6404TIP3    H140627   3.104   3.955   3.253 -1.3347  0.5200  1.7458
 6404TIP3    H240628   3.038   3.956   3.116 -0.2962 -0.5495  1.2254
 6405TIP3   OH240629   4.537   1.479   5.192  0.5215 -0.0778  0.5536
 6405TIP3    H140630   4.450   1.440   5.187  0.2368  0.6015  0.1986
 6405TIP3    H240631   4.591   1.424   5.135  0.0355  0.2815 -0.2621
 6406TIP3   OH240632   5.969   5.033  12.519  0.3881  0.4880  0.3863
 6406TIP3    H140633   5.984   5.125  12.541 -1.7723  0.5850  1.6345
 6406TIP3    H240634   5.996   4.984  12.597  1.3085  0.0515 -0.1833
 6407TIP3   OH240635   6.792   2.430  14.872  0.0889 -0.4210  0.1636
 6407TIP3    H140636   6.879   2.467  14.857  0.7724 -0.3503  3.5210
 6407TIP3    H240637   6.797   2.342  14.835  1.4395 -0.2680 -0.0719
 6408TIP3   OH240638   4.774   0.199   1.207  0.5715  0.4100 -0.0601
 6408TIP3    H140639   4.822   0.195   1.290 -1.7279 -1.1436  1.2944
 6408TIP3    H240640   4.792   0.116   1.164  1.5590  1.1127 -1.0656
 6409TIP3   OH240641   6.734   1.449   4.132  0.1958 -0.2211  0.3125
 6409TIP3    H140642   6.737   1.357   4.158  0.8080 -0.2581  0.1191
 6409TIP3    H240643   6.824   1.471   4.109 -0.2049 -0.0139 -1.1714
 6410TIP3   OH240644   3.326   3.341  11.437  0.1712  0.4467 -0.4948
 6410TIP3    H140645   3.362   3.406  11.376  2.9813  1.0744  1.5980
 6410TIP3    H240646   3.265   3.390  11.491  2.2667  1.4686  1.0647
 6411TIP3   OH240647   1.127   3.079  12.383  0.1203  0.2120  0.2340
 6411TIP3    H140648   1.100   3.153  12.329  1.1861  0.4732  0.0449
 6411TIP3    H240649   1.221   3.091  12.397  0.2793 -0.9885  0.3748
 6412TIP3   OH240650   2.999   5.944   2.788  0.6476 -0.1760 -0.4020
 6412TIP3    H140651   3.064   5.975   2.851  0.0850 -0.0376  0.1229
 6412TIP3    H240652   2.915   5.967   2.828  0.2716 -0.6334 -0.9228
 6413TIP3   OH240653   6.207   4.099  15.723 -0.2379  0.9132  0.4161
 6413TIP3    H140654   6.162   4.118  15.640  0.5246 -0.0846 -0.2400
 6413TIP3    H240655   6.237   4.185  15.753  2.7027  0.9869 -2.2282
 6414TIP3   OH240656   4.323   1.656  17.011 -0.2505 -0.1634 -0.6529
 6414TIP3    H140657   4.234   1.676  16.982 -1.3438 -1.8569  1.2755
 6414TIP3    H240658   4.336   1.564  16.985  0.8674  0.0120 -0.7434
 6415TIP3   OH240659   5.355   0.997   0.429 -0.3880 -0.1793  0.6947
 6415TIP3    H140660   5.284   0.978   0.367 -0.5581 -2.1049  1.4032
 6415TIP3    H240661   5.435   0.976   0.381 -0.4368 -0.1654  0.6071
 6416TIP3   OH240662   2.777   6.149  14.243 -0.0578 -0.2289 -0.8518
 6416TIP3    H140663   2.793   6.178  14.332 -1.3043  2.2495 -1.3359
 6416TIP3    H240664   2.682   6.136  14.239 -0.0719  0.0947 -1.8988
 6417TIP3   OH240665   4.783   4.220  13.617 -0.0408 -0.4060  0.2603
 6417TIP3    H140666   4.758   4.203  13.708 -1.2440  0.8915  0.1994
 6417TIP3    H240667   4.714   4.179  13.565  1.5323 -2.6715 -0.1876
 6418TIP3   OH240668   1.280   3.089  12.015 -0.0871  0.0864 -0.5283
 6418TIP3    H140669   1.219   3.139  12.069 -0.3473 -0.8622  0.0851
 6418TIP3    H240670   1.367   3.113  12.048 -0.2287 -0.2154  0.0783
 6419TIP3   OH240671   6.684   4.399   4.921  0.0505 -0.0833 -0.0358
 6419TIP3    H140672   6.650   4.417   4.834 -1.1502  0.3763  0.5036
 6419TIP3    H240673   6.626   4.332   4.956 -0.7076  1.1369  1.1298
 6420TIP3   OH240674   5.828   4.868   1.796 -0.5254 -0.2688 -0.2569
 6420TIP3    H140675   5.866   4.905   1.875  0.1528  1.3296 -1.2779
 6420TIP3    H240676   5.733   4.881   1.806 -0.4370 -0.0123  0.2515
 6421TIP3   OH240677   2.924   2.428  14.217  0.1925 -0.2763  0.8668
 6421TIP3    H140678   2.903   2.395  14.304  0.9535 -0.6687  0.9164
 6421TIP3    H240679   2.978   2.505  14.234  0.9666 -0.7819  0.7531
 6422TIP3   OH240680   6.635   1.769  14.112  0.1955 -0.6535 -0.2523
 6422TIP3    H140681   6.573   1.831  14.074  1.2479 -0.3753 -1.5890
 6422TIP3    H240682   6.715   1.821  14.127  0.3696 -1.1781  0.7101
 6423TIP3   OH240683   2.118   1.209   1.178 -0.0614  0.5620 -0.3779
 6423TIP3    H140684   2.181   1.235   1.111  0.8912  1.0511  0.6774
 6423TIP3    H240685   2.154   1.244   1.260 -1.3562  0.2559  0.3508
 6424TIP3   OH240686   5.853   4.556   2.562  0.0915 -0.8249 -0.0082
 6424TIP3    H140687   5.904   4.636   2.568  1.3312 -1.6520  1.0014
 6424TIP3    H240688   5.780   4.569   2.622 -0.2633 -0.0968 -0.5754
 6425TIP3   OH240689   6.242   0.251  11.428 -0.8045 -0.1700  0.1135
 6425TIP3    H140690   6.237   0.347  11.426 -0.3024 -0.1527 -1.0470
 6425TIP3    H240691   6.335   0.232  11.415 -0.6357 -0.7967  2.0122
 6426TIP3   OH240692   2.652   1.097   0.661 -0.2984 -0.1278 -0.3475
 6426TIP3    H140693   2.676   1.015   0.618  0.4836 -0.2510  0.3027
 6426TIP3    H240694   2.592   1.071   0.730  0.8172 -0.3048  0.5810
 6427TIP3   OH240695   5.236   4.751   4.943 -0.2431 -0.5381  0.1971
 6427TIP3    H140696   5.303   4.759   4.874 -1.0151 -0.6038 -0.5720
 6427TIP3    H240697   5.285   4.762   5.025  0.6664 -0.2949 -0.3637
 6428TIP3   OH240698   2.536   2.678  10.798 -0.3126 -0.6032 -0.8099
 6428TIP3    H140699   2.488   2.606  10.840  0.5615 -1.4595 -1.2267
 6428TIP3    H240700   2.606   2.634  10.749  0.8799  0.5933 -0.2328
 6429TIP3   OH240701   4.605   3.857   4.309  0.0555 -0.0458 -0.4674
 6429TIP3    H140702   4.537   3.860   4.241 -0.7214 -0.2329  0.2721
 6429TIP3    H240703   4.566   3.803   4.378 -0.4605  2.5765  1.4424
 6430TIP3   OH240704   6.615   5.959  15.215  0.2260  0.4305 -0.0634
 6430TIP3    H140705   6.675   5.892  15.183  0.7759  0.5478  0.7205
 6430TIP3    H240706   6.671   6.029  15.249 -0.3488  0.5359  0.6863
 6431TIP3   OH240707   0.822   1.905   1.459  0.4677 -0.4659 -0.0326
 6431TIP3    H140708   0.732   1.918   1.431  1.3429 -1.4671 -3.9643
 6431TIP3    H240709   0.839   1.812   1.443  1.8157 -0.6460  2.0784
 6432TIP3   OH240710   0.975   4.277  12.117  0.1503  0.3758  0.0746
 6432TIP3    H140711   0.903   4.333  12.089 -0.0683  0.1049  0.0893
 6432TIP3    H240712   1.038   4.282  12.045  0.4020  1.1035  0.3334
 6433TIP3   OH240713   4.326   5.720   2.409  0.3505  0.3057  0.1245
 6433TIP3    H140714   4.362   5.635   2.435  1.0568  0.9567  1.3213
 6433TIP3    H240715   4.243   5.727   2.456 -0.9344 -0.7385 -1.8367
 6434TIP3   OH240716   2.823   0.672   2.772  0.5313  0.0527 -0.6017
 6434TIP3    H140717   2.768   0.653   2.848 -0.3029  0.6367 -1.0383
 6434TIP3    H240718   2.890   0.731   2.804 -0.5971  1.3606 -0.5796
 6435TIP3   OH240719   0.931   0.432   2.464 -0.4505 -0.2001 -0.0169
 6435TIP3    H140720   0.932   0.442   2.369 -0.9474  0.2755  0.0208
 6435TIP3    H240721   0.918   0.521   2.497  2.9046  0.1942  0.6155
 6436TIP3   OH240722   0.423   5.979  12.870  0.4056 -0.3970 -0.0915
 6436TIP3    H140723   0.444   5.993  12.963 -0.0647  0.5875 -0.1164
 6436TIP3    H240724   0.428   5.884  12.858  2.5590 -0.4011  0.4349
 6437TIP3   OH240725   6.682   2.932  15.611 -0.1389 -0.6449  0.6163
 6437TIP3    H140726   6.636   2.976  15.683 -0.2392 -0.5385  0.4876
 6437TIP3    H240727   6.652   2.977  15.532  0.9487  0.0987  0.6089
 6438TIP3   OH240728   5.099   1.331  16.262 -0.0863  0.2249  0.0350
 6438TIP3    H140729   5.037   1.325  16.334 -1.5253 -0.1657 -1.1791
 6438TIP3    H240730   5.044   1.335  16.183  1.3907  1.5992 -0.9999
 6439TIP3   OH240731   2.943   1.749   1.749 -0.5693  0.5499  0.0705
 6439TIP3    H140732   2.943   1.676   1.687 -2.6422  1.3797 -0.9858
 6439TIP3    H240733   2.927   1.709   1.834 -0.4665 -0.3357 -0.3187
 6440TIP3   OH240734   4.442   2.046   0.100 -0.1505  0.2245 -0.0091
 6440TIP3    H140735   4.456   1.997   0.182  3.1641  2.4452  0.9571
 6440TIP3    H240736   4.467   1.984   0.031  2.0632 -0.1771  1.0528
 6441TIP3   OH240737   5.292   0.404   3.750  0.5075  0.7122 -0.2560
 6441TIP3    H140738   5.347   0.332   3.718  0.4510  1.3456 -1.8912
 6441TIP3    H240739   5.265   0.377   3.838  1.3553 -0.7637 -0.4188
 6442TIP3   OH240740   3.649   2.623   5.366 -0.3941 -0.3861  0.3234
 6442TIP3    H140741   3.565   2.607   5.408 -0.8494 -0.4105 -0.5684
 6442TIP3    H240742   3.657   2.719   5.364 -0.9920 -0.3422 -0.6928
 6443TIP3   OH240743   1.817   0.941   0.128  0.6767  0.0782  0.0512
 6443TIP3    H140744   1.823   0.870   0.064  1.1750 -0.0332  0.2214
 6443TIP3    H240745   1.723   0.948   0.146  0.5423  0.0193 -0.5865
 6444TIP3   OH240746   4.744   3.920  11.036 -0.8119  0.0470  0.2999
 6444TIP3    H140747   4.742   3.928  11.131 -1.6241 -0.1612  0.3007
 6444TIP3    H240748   4.655   3.895  11.011 -0.5642 -0.0745 -0.4999
 6445TIP3   OH240749   6.296   0.913   4.631 -0.2751  0.0362 -0.1763
 6445TIP3    H140750   6.288   0.974   4.704  1.5258  0.5980 -0.3810
 6445TIP3    H240751   6.228   0.940   4.569 -1.4192 -0.0645  0.9924
 6446TIP3   OH240752   3.437   6.437  16.656 -0.3325  0.1229  0.0175
 6446TIP3    H140753   3.461   6.529  16.657 -0.9647  0.3882 -2.4220
 6446TIP3    H240754   3.519   6.390  16.672  0.2016  1.0981  0.1895
 6447TIP3   OH240755   0.891   1.063   4.706  0.5933  0.6459 -0.1643
 6447TIP3    H140756   0.864   0.995   4.644  1.4216 -0.6942  0.9012
 6447TIP3    H240757   0.887   1.144   4.655  1.2236 -0.3984 -1.9872
 6448TIP3   OH240758   0.810   1.911   0.864  0.3086  0.9635 -0.5194
 6448TIP3    H140759   0.816   1.922   0.959  1.2068  1.5050 -0.6264
 6448TIP3    H240760   0.846   1.823   0.848 -3.4969 -0.9073 -0.0219
 6449TIP3   OH240761   3.323   4.686  13.551 -0.3728 -0.2840  0.3762
 6449TIP3    H140762   3.340   4.592  13.557 -0.1832 -0.3158 -0.5469
 6449TIP3    H240763   3.316   4.715  13.642  1.0164 -0.9274  0.7117
 6450TIP3   OH240764   0.572   6.151   5.584 -0.0574  0.7792 -0.5430
 6450TIP3    H140765   0.478   6.146   5.603  0.0182 -0.0001 -0.3477
 6450TIP3    H240766   0.609   6.198   5.659 -0.1313  0.0176 -0.0110
 6451TIP3   OH240767   2.328   4.335  16.608  0.1286  0.2496  0.1562
 6451TIP3    H140768   2.339   4.343  16.513  1.0705  1.5801  0.3343
 6451TIP3    H240769   2.276   4.412  16.632 -0.8978 -0.5653  0.6311
 6452TIP3   OH240770   2.101   1.594  12.360 -0.0490 -0.2774  0.6565
 6452TIP3    H140771   2.132   1.635  12.441 -0.0557  2.7702 -0.7554
 6452TIP3    H240772   2.034   1.532  12.389 -0.1559  0.8178  2.9602
 6453TIP3   OH240773   2.707   1.767   1.379 -0.1023 -0.4231 -0.1905
 6453TIP3    H140774   2.738   1.688   1.334  1.0652  0.8096 -1.6500
 6453TIP3    H240775   2.627   1.791   1.333  0.1369 -0.1588 -0.4768
 6454TIP3   OH240776   5.073   1.576  12.604  0.0205 -0.2748 -0.2749
 6454TIP3    H140777   4.999   1.565  12.544 -0.6493  0.3944  0.4160
 6454TIP3    H240778   5.068   1.501  12.662  0.9268 -1.1605 -1.2879
 6455TIP3   OH240779   5.307   3.391  11.998  0.7943 -0.4715 -0.0245
 6455TIP3    H140780   5.220   3.355  11.981 -0.2145  2.5197 -1.9417
 6455TIP3    H240781   5.365   3.338  11.943 -0.2178 -0.8152 -0.7991
 6456TIP3   OH240782   3.685   6.173   0.848 -0.1699 -0.5724 -0.8638
 6456TIP3    H140783   3.647   6.089   0.821  2.5736 -1.9744 -0.7138
 6456TIP3    H240784   3.706   6.162   0.941  1.1008 -0.1234 -1.0708
 6457TIP3   OH240785   3.645   6.727  12.513  0.0816  0.0358  0.1394
 6457TIP3    H140786   3.710   6.738  12.583 -0.4873 -0.1792  0.7170
 6457TIP3    H240787   3.569   6.690  12.558  0.7525 -3.1677 -1.0740
 6458TIP3   OH240788   5.398   4.160  14.644 -0.1233  0.5060  0.3970
 6458TIP3    H140789   5.432   4.202  14.565 -0.8891  0.7427  0.1839
 6458TIP3    H240790   5.444   4.076  14.648 -0.4522  0.2698 -0.5897
 6459TIP3   OH240791   5.810   1.275  11.564 -0.7260 -0.1727 -0.0717
 6459TIP3    H140792   5.825   1.363  11.599 -0.6127 -0.3234  0.2643
 6459TIP3    H240793   5.719   1.275  11.536 -0.7152  0.0653 -0.1071
 6460TIP3   OH240794   2.707   1.319   3.950  0.1640  0.6150  0.0210
 6460TIP3    H140795   2.723   1.324   4.044 -1.2241 -1.4806  0.4319
 6460TIP3    H240796   2.792   1.301   3.911  0.5784  0.4264  0.9948
 6461TIP3   OH240797   4.062   3.667   7.024  0.0697  0.1114  0.2953
 6461TIP3    H140798   4.017   3.704   6.948 -0.0131 -0.3092  0.1380
 6461TIP3    H240799   4.155   3.672   7.002 -0.0178 -2.0887 -0.8309
 6462TIP3   OH240800   1.676   2.000  10.987  0.0561 -0.0016 -0.1581
 6462TIP3    H140801   1.768   1.979  10.969  0.6561  0.7118  1.8728
 6462TIP3    H240802   1.658   1.961  11.072 -1.1033  1.0910  0.1266
 6463TIP3   OH240803   6.197   0.516  15.130  0.2875  0.3138 -0.2177
 6463TIP3    H140804   6.136   0.563  15.187  0.8754 -0.2972  0.9532
 6463TIP3    H240805   6.147   0.499  15.050 -0.1861  2.2107 -0.3723
 6464TIP3   OH240806   1.700   0.401   1.571  0.2570 -0.0901  0.0634
 6464TIP3    H140807   1.647   0.466   1.619 -0.5237  0.7295 -1.7865
 6464TIP3    H240808   1.720   0.334   1.636  1.9305  2.4148  2.3635
 6465TIP3   OH240809   1.472   3.058  11.357 -0.4621  0.5302  0.2416
 6465TIP3    H140810   1.490   2.981  11.303  0.0943  1.4825 -0.9616
 6465TIP3    H240811   1.513   3.038  11.441 -2.4651 -1.5350  0.8182
 6466TIP3   OH240812   4.130   4.430  15.049  0.2243  0.4855 -0.0969
 6466TIP3    H140813   4.087   4.440  14.964  0.7430  1.9236 -0.2143
 6466TIP3    H240814   4.211   4.384  15.030  0.4072  0.9322 -0.4026
 6467TIP3   OH240815   3.037   1.833  11.451 -0.1224  0.0651  0.0362
 6467TIP3    H140816   3.100   1.776  11.495 -0.7978 -1.3604 -0.7727
 6467TIP3    H240817   3.080   1.856  11.368 -0.6758 -1.0139 -0.5742
 6468TIP3   OH240818   5.484   1.609  15.852  0.3091  0.1944 -0.3450
 6468TIP3    H140819   5.530   1.544  15.905  0.4514 -0.6171 -1.4285
 6468TIP3    H240820   5.391   1.586  15.862  0.3527 -0.1336 -0.6414
 6469TIP3   OH240821   4.168   1.131   0.651 -0.2141 -0.2816  0.7578
 6469TIP3    H140822   4.120   1.189   0.591  1.9236 -0.8740 -1.7060
 6469TIP3    H240823   4.129   1.045   0.636  1.0208 -0.6310 -0.7087
 6470TIP3   OH240824   6.341   3.699   5.934  0.0442  0.1049  0.3173
 6470TIP3    H140825   6.378   3.712   6.021  0.1030 -1.6540  0.5866
 6470TIP3    H240826   6.398   3.749   5.876  0.1344  1.1144  1.2320
 6471TIP3   OH240827   3.670   0.400   2.825 -0.1293  0.3270 -0.5161
 6471TIP3    H140828   3.739   0.452   2.784 -0.1045 -0.4354 -1.4904
 6471TIP3    H240829   3.636   0.456   2.895 -1.0218  2.2178 -2.3554
 6472TIP3   OH240830   2.243   6.113   5.565 -0.1020  0.2188 -0.1653
 6472TIP3    H140831   2.176   6.052   5.534  0.0379 -1.4618  2.5106
 6472TIP3    H240832   2.325   6.079   5.528 -0.2797 -0.0059 -0.3547
 6473TIP3   OH240833   1.186   1.869   2.559  0.2809 -0.0743 -0.8579
 6473TIP3    H140834   1.222   1.788   2.522 -0.0183 -0.0855 -1.1298
 6473TIP3    H240835   1.188   1.855   2.654  1.9249  0.3259 -0.8032
 6474TIP3   OH240836   2.653   2.032   0.039  0.2008 -0.2981  0.2373
 6474TIP3    H140837   2.633   2.055   0.130 -1.9067 -1.5875  0.1832
 6474TIP3    H240838   2.677   1.939   0.042  0.4995 -0.2513 -0.4769
 6475TIP3   OH240839   6.289   2.845   1.975 -0.5714 -0.0503  0.2177
 6475TIP3    H140840   6.348   2.771   1.960  1.3318  1.4614 -0.1972
 6475TIP3    H240841   6.221   2.835   1.909 -1.0357 -2.0596  0.9475
 6476TIP3   OH240842   2.375   3.621   2.008  0.4360  0.4288  0.0278
 6476TIP3    H140843   2.383   3.654   2.098 -0.8780 -0.7213  0.6010
 6476TIP3    H240844   2.452   3.564   1.997  1.3166  1.5934 -0.0746
 6477TIP3   OH240845   2.558   0.007   5.571 -0.4544 -0.3643  0.2870
 6477TIP3    H140846   2.542  -0.074   5.619 -1.1991 -0.0416  0.5995
 6477TIP3    H240847   2.626   0.052   5.622  0.0599 -0.8545  0.0347
 6478TIP3   OH240848   5.598   1.208  15.189 -0.3446 -0.0527  0.0554
 6478TIP3    H140849   5.565   1.133  15.239  2.7192 -1.7884 -0.2487
 6478TIP3    H240850   5.636   1.170  15.110 -0.0645  2.0115 -0.8722
 6479TIP3   OH240851   3.128   2.447  11.271  0.1442 -0.3335 -0.4139
 6479TIP3    H140852   3.080   2.448  11.188  0.8685  1.4138 -0.8507
 6479TIP3    H240853   3.214   2.482  11.249  0.9517 -1.5181  0.7537
 6480TIP3   OH240854   4.472   6.291  13.476  0.6435 -0.1297  0.2359
 6480TIP3    H140855   4.392   6.259  13.434  1.3770 -0.6649 -0.7925
 6480TIP3    H240856   4.441   6.354  13.541 -0.5399  1.0777 -1.4065
 6481TIP3   OH240857   2.827   6.041  16.845 -0.2205 -0.3637 -0.2276
 6481TIP3    H140858   2.900   5.983  16.824  0.2910 -0.5466  1.8929
 6481TIP3    H240859   2.855   6.127  16.813  1.2919 -0.2823  1.1839
 6482TIP3   OH240860   6.310   2.740  15.479  0.5942 -0.6465  0.3466
 6482TIP3    H140861   6.338   2.664  15.428  3.7810  1.0417 -0.6599
 6482TIP3    H240862   6.242   2.781  15.426  0.1861 -1.7187  0.0037
 6483TIP3   OH240863   3.771   4.319   1.819  0.4613  0.1443 -0.0373
 6483TIP3    H140864   3.815   4.248   1.866 -0.8319 -1.0715 -0.5855
 6483TIP3    H240865   3.721   4.365   1.886 -0.0210 -0.5243  0.0818
 6484TIP3   OH240866   1.526   6.545   2.317 -0.2818 -0.3489  0.1890
 6484TIP3    H140867   1.462   6.589   2.373 -0.5501 -1.8624  1.1234
 6484TIP3    H240868   1.520   6.591   2.233 -1.1417  0.8232  0.8649
 6485TIP3   OH240869   5.418   2.439   5.112 -0.0227  0.1856 -0.1481
 6485TIP3    H140870   5.377   2.426   5.198  1.6861 -0.5127  0.6074
 6485TIP3    H240871   5.347   2.472   5.057 -1.1822  0.6341  1.5139
 6486TIP3   OH240872   1.369   5.773   2.120 -0.2203  0.2293 -0.0258
 6486TIP3    H140873   1.391   5.835   2.190 -3.0303 -1.1592  2.3159
 6486TIP3    H240874   1.274   5.777   2.114 -0.1618 -0.7022 -2.9360
 6487TIP3   OH240875   0.300   6.799  11.359 -0.4768  0.1624  0.4263
 6487TIP3    H140876   0.278   6.883  11.320  0.6488  0.1525 -0.2720
 6487TIP3    H240877   0.257   6.734  11.303 -0.5342  0.2259  0.3979
 6488TIP3   OH240878   6.541   3.773   0.171 -0.0959  0.0346 -0.0885
 6488TIP3    H140879   6.563   3.862   0.144 -2.0717  0.9135  0.9697
 6488TIP3    H240880   6.511   3.730   0.092 -0.9352  0.9293 -0.2739
 6489TIP3   OH240881   4.835   3.546   1.210  0.4239  0.0997 -0.0898
 6489TIP3    H140882   4.846   3.452   1.218  0.5231  0.2748  2.7992
 6489TIP3    H240883   4.898   3.572   1.142  1.6750 -1.6987  0.3183
 6490TIP3   OH240884   1.753   1.520  14.299  0.3607 -0.3052 -0.3390
 6490TIP3    H140885   1.738   1.555  14.211 -0.5173 -0.7705 -0.3793
 6490TIP3    H240886   1.712   1.433  14.298 -0.4292  0.0313  0.8018
 6491TIP3   OH240887   5.294   4.574  13.803  0.4722  0.2127 -0.4348
 6491TIP3    H140888   5.225   4.581  13.736 -1.9562 -0.4808  1.8386
 6491TIP3    H240889   5.322   4.665  13.818  0.1932  0.4914 -1.5101
 6492TIP3   OH240890   4.070   3.971   6.840 -0.5713  0.0551 -0.2208
 6492TIP3    H140891   4.148   3.930   6.803 -0.2602 -1.3043  1.7656
 6492TIP3    H240892   4.104   4.037   6.901 -1.0583  1.5893 -1.5369
 6493TIP3   OH240893   5.621   5.518  13.767  0.1627 -0.4491  0.0753
 6493TIP3    H140894   5.594   5.566  13.689 -0.9997 -0.2534  0.5839
 6493TIP3    H240895   5.717   5.518  13.763  0.1304 -1.8406 -2.1837
 6494TIP3   OH240896   6.417   0.462   1.707  0.0631  0.1336  0.3911
 6494TIP3    H140897   6.483   0.396   1.729  0.2496 -0.1589 -1.0027
 6494TIP3    H240898   6.384   0.437   1.621 -0.6750  1.2245  0.3283
 6495TIP3   OH240899   5.729   6.127   2.350  0.2365 -0.5473 -0.2520
 6495TIP3    H140900   5.661   6.083   2.401  0.2894  1.1968  1.4086
 6495TIP3    H240901   5.684   6.199   2.307  0.5724 -0.8891 -1.2068
 6496TIP3   OH240902   0.579   6.580  14.034  0.0881 -0.4074  0.0308
 6496TIP3    H140903   0.652   6.565  14.094  1.3974 -2.3669 -1.8878
 6496TIP3    H240904   0.543   6.493  14.019 -1.7142  0.3451 -0.2452
 6497TIP3   OH240905   2.443   0.579   2.458  0.0320 -0.1163 -0.7990
 6497TIP3    H140906   2.504   0.635   2.410 -0.0470  0.9076  0.2484
 6497TIP3    H240907   2.471   0.585   2.549 -2.6324  1.8588  0.0282
 6498TIP3   OH240908   1.282   5.094   4.230  0.5637 -0.5620 -0.8667
 6498TIP3    H140909   1.360   5.076   4.176  2.3446  0.1661  1.2998
 6498TIP3    H240910   1.303   5.057   4.315 -1.6116 -0.5405 -0.2599
 6499TIP3   OH240911   1.207   5.144   3.271  0.4465  0.1428 -0.1899
 6499TIP3    H140912   1.296   5.170   3.296  0.1346  1.2137 -0.1434
 6499TIP3    H240913   1.151   5.197   3.327 -0.2255 -0.7518 -0.0059
 6500TIP3   OH240914   5.464   3.966  12.608  0.2984  0.1475 -0.5489
 6500TIP3    H140915   5.470   3.931  12.697  0.0890 -0.7415 -0.8729
 6500TIP3    H240916   5.552   3.957  12.572  0.0281 -1.0006 -0.9671
 6501TIP3   OH240917   2.143   0.471  14.976  0.2151  0.4058 -0.5665
 6501TIP3    H140918   2.100   0.390  14.949 -0.9053 -0.3106  2.8490
 6501TIP3    H240919   2.072   0.533  14.990  0.6042  0.5509  1.0461
 6502TIP3   OH240920   2.218   3.638   1.143 -0.1228  0.0353  0.2696
 6502TIP3    H140921   2.162   3.598   1.210  1.0431  0.3271  1.4683
 6502TIP3    H240922   2.300   3.658   1.189  0.1298  1.7585 -0.8276
 6503TIP3   OH240923   4.079   2.583   5.416  0.0949  0.0978  0.1465
 6503TIP3    H140924   4.074   2.520   5.344 -0.9888 -0.1930  0.4557
 6503TIP3    H240925   4.053   2.666   5.376 -0.8741 -0.1354  0.2729
 6504TIP3   OH240926   3.453   0.691   5.060 -0.1187 -0.0408 -0.4352
 6504TIP3    H140927   3.429   0.650   4.977 -2.2052  1.8048 -0.8441
 6504TIP3    H240928   3.408   0.640   5.127 -1.8419  0.8409 -0.8510
 6505TIP3   OH240929   6.045   5.400  12.243  0.1127 -0.3423  0.1442
 6505TIP3    H140930   6.133   5.438  12.239 -0.2180  0.5053  0.5295
 6505TIP3    H240931   6.059   5.308  12.263  0.9779 -0.6353 -1.6558
 6506TIP3   OH240932   5.896   3.516   1.014 -0.2790  0.2434  0.2276
 6506TIP3    H140933   5.948   3.553   0.943  1.0957  0.6210  1.3785
 6506TIP3    H240934   5.820   3.479   0.971 -0.5519  2.3144 -1.2345
 6507TIP3   OH240935   4.090   5.657   6.796 -0.1652  0.3212  0.6706
 6507TIP3    H140936   4.133   5.738   6.769 -0.7121  0.1662 -0.7342
 6507TIP3    H240937   4.134   5.589   6.744  0.6166 -0.3668  2.1782
 6508TIP3   OH240938   4.145   3.270   4.843 -0.0932  0.6273 -0.2026
 6508TIP3    H140939   4.119   3.212   4.914  0.6644  0.9023  0.3195
 6508TIP3    H240940   4.079   3.339   4.842 -0.0336  0.6946  0.3258
 6509TIP3   OH240941   4.432   2.207  17.076 -0.6420  0.5583 -0.2600
 6509TIP3    H140942   4.457   2.116  17.093 -1.2334  0.8359  2.7794
 6509TIP3    H240943   4.495   2.259  17.126 -1.5935  1.6828 -0.1736
 6510TIP3   OH240944   6.572   5.043   2.564 -0.2048 -0.2946 -0.5082
 6510TIP3    H140945   6.655   5.024   2.608 -1.3842 -2.5422  0.9599
 6510TIP3    H240946   6.591   5.035   2.471  1.4034  0.0697 -0.2336
 6511TIP3   OH240947   6.385   0.058   1.892  0.3486  0.0542 -0.0908
 6511TIP3    H140948   6.333   0.007   1.830 -1.1187 -0.7656  1.7106
 6511TIP3    H240949   6.453  -0.003   1.922  0.1781 -0.0250  0.1424
 6512TIP3   OH240950   0.304   3.819   5.161  0.4535  0.0780 -0.4359
 6512TIP3    H140951   0.320   3.908   5.192 -0.1525  0.0006  0.1127
 6512TIP3    H240952   0.293   3.767   5.240 -1.1080 -0.1235 -0.7455
 6513TIP3   OH240953   2.682   0.804   0.940 -0.1236  0.2976 -0.0502
 6513TIP3    H140954   2.638   0.754   1.009 -0.4170  1.3443  0.5351
 6513TIP3    H240955   2.626   0.880   0.926  0.0895  0.2543 -1.2462
 6514TIP3   OH240956   4.606   0.505   3.201 -0.1030  0.2309  0.2022
 6514TIP3    H140957   4.674   0.480   3.263  0.1380 -0.9003 -0.4831
 6514TIP3    H240958   4.524   0.493   3.249  0.1061 -0.0929  0.4788
 6515TIP3   OH240959   4.078   2.398   4.802  0.0309  0.0305 -0.5188
 6515TIP3    H140960   4.154   2.421   4.749  1.1554  0.4760  1.2325
 6515TIP3    H240961   4.015   2.468   4.786 -0.1406 -0.4410 -2.1285
 6516TIP3   OH240962   3.669   3.110   5.447 -0.1640 -1.1177  0.3579
 6516TIP3    H140963   3.753   3.147   5.419 -0.3727 -1.7521 -1.1956
 6516TIP3    H240964   3.636   3.173   5.511 -0.1141  0.9790 -1.5494
 6517TIP3   OH240965   6.442   4.712   0.781  0.5681  0.0403  0.0667
 6517TIP3    H140966   6.359   4.758   0.788  0.2065 -0.5313 -0.3828
 6517TIP3    H240967   6.494   4.765   0.721  1.1049  1.2146  1.5287
 6518TIP3   OH240968   1.432   5.216  13.703  0.7091  0.1569  0.4030
 6518TIP3    H140969   1.344   5.246  13.728  0.0024 -1.4907  0.0354
 6518TIP3    H240970   1.465   5.170  13.779  0.8477 -0.0665  0.2101
 6519TIP3   OH240971   4.936   0.460   1.094 -0.5868 -0.4448 -0.6920
 6519TIP3    H140972   4.882   0.387   1.124  1.1040 -1.8146 -0.7930
 6519TIP3    H240973   4.942   0.519   1.169  0.5793 -2.0028  0.5110
 6520TIP3   OH240974   0.195   1.616  12.914 -0.0128  0.0790 -0.2017
 6520TIP3    H140975   0.240   1.693  12.949  2.6461 -2.4571  2.6473
 6520TIP3    H240976   0.230   1.605  12.826  1.7471  0.6422  0.3737
 6521TIP3   OH240977   5.044   0.109   3.154 -0.7961 -0.0694  0.0415
 6521TIP3    H140978   5.118   0.057   3.184 -0.6155  0.6452  0.8695
 6521TIP3    H240979   4.968   0.051   3.165 -0.4047 -0.7026 -0.5410
 6522TIP3   OH240980   2.130   2.076   3.390  0.2186 -0.1158  0.2590
 6522TIP3    H140981   2.070   2.097   3.462 -0.1445 -0.9303  0.2122
 6522TIP3    H240982   2.128   2.154   3.334  0.7435  0.6489  1.2737
 6523TIP3   OH240983   4.561   4.794   3.602  0.1747  0.1329  0.3653
 6523TIP3    H140984   4.475   4.817   3.568  0.4977  1.7147  0.5716
 6523TIP3    H240985   4.615   4.779   3.525  0.2921  1.3648  0.2023
 6524TIP3   OH240986   3.795   0.885  14.457  0.0101 -0.1646 -0.5184
 6524TIP3    H140987   3.864   0.944  14.489  0.8713 -1.3177 -0.1871
 6524TIP3    H240988   3.840   0.829  14.394 -0.6828 -0.7866 -0.4611
 6525TIP3   OH240989   3.339   2.085   4.468  0.0190 -0.5202  0.7958
 6525TIP3    H140990   3.315   2.136   4.546 -1.5416  0.3292 -0.1769
 6525TIP3    H240991   3.337   1.994   4.498 -1.0043 -0.2388  1.6583
 6526TIP3   OH240992   3.924   3.307   3.312  0.4328  0.5813 -0.0971
 6526TIP3    H140993   3.917   3.375   3.245  0.9130 -0.9185 -1.7770
 6526TIP3    H240994   3.838   3.305   3.353 -0.0684  1.1795 -1.0779
 6527TIP3   OH240995   2.330   3.440   3.287  1.2348  0.5081 -0.0796
 6527TIP3    H140996   2.424   3.437   3.267  1.0481  1.5913 -1.2837
 6527TIP3    H240997   2.303   3.528   3.260  0.0917  0.6340  1.3603
 6528TIP3   OH240998   1.671   3.061   0.417  0.9346 -0.1876  0.0743
 6528TIP3    H140999   1.668   2.972   0.453  0.4354 -0.4716 -0.6356
 6528TIP3    H241000   1.591   3.068   0.365  2.1671 -0.2459 -1.9538
 6529TIP3   OH241001   0.745   5.480  11.963  0.0242 -0.3705  0.1904
 6529TIP3    H141002   0.693   5.430  12.027 -1.2164  0.4512 -0.1355
 6529TIP3    H241003   0.826   5.502  12.009  0.7215 -2.8296  0.2784
 6530TIP3   OH241004   2.232   1.464  12.634 -0.2206 -0.8180  0.4900
 6530TIP3    H141005   2.326   1.453  12.650  0.5019 -0.1649 -2.6206
 6530TIP3    H241006   2.211   1.396  12.570 -1.5881 -0.2050  0.2613
 6531TIP3   OH241007   6.038   4.287  10.482 -0.2458 -0.3740 -0.0537
 6531TIP3    H141008   6.047   4.371  10.437  1.3776  0.2809  1.4003
 6531TIP3    H241009   5.959   4.298  10.536 -1.7891 -0.9155 -2.0772
 6532TIP3   OH241010   2.390   5.571  14.866 -0.1688 -0.2896 -0.0803
 6532TIP3    H141011   2.313   5.612  14.905 -0.4463 -1.1098  0.2454
 6532TIP3    H241012   2.376   5.477  14.877  1.7799 -0.4289  1.8065
 6533TIP3   OH241013   2.902   4.578  11.945  0.3822  0.0613 -0.0669
 6533TIP3    H141014   2.921   4.663  11.985 -0.5135  0.2006  0.0661
 6533TIP3    H241015   2.949   4.581  11.862 -0.7023  1.2142 -0.6697
 6534TIP3   OH241016   3.575   1.699  13.700 -0.5014 -0.0506  0.1971
 6534TIP3    H141017   3.546   1.756  13.771  0.9737  0.4535  0.4314
 6534TIP3    H241018   3.533   1.735  13.622 -0.3449  0.7706  0.4810
 6535TIP3   OH241019   1.691   6.783  10.366 -0.1526  0.1809  0.2570
 6535TIP3    H141020   1.758   6.754  10.428 -0.1795  0.6227  0.4954
 6535TIP3    H241021   1.682   6.877  10.382 -1.3416  0.0006  0.7149
 6536TIP3   OH241022   6.459   4.742   1.808  0.3978 -0.1458  0.0345
 6536TIP3    H141023   6.446   4.830   1.772 -0.3101 -1.1619 -2.4262
 6536TIP3    H241024   6.388   4.731   1.870 -0.6671  0.3713 -1.0509
 6537TIP3   OH241025   2.807   2.611   1.610  0.1837  0.2810  0.7185
 6537TIP3    H141026   2.824   2.626   1.517 -1.3656 -0.3348  0.3084
 6537TIP3    H241027   2.763   2.526   1.613  1.1814 -0.2333  2.1434
 6538TIP3   OH241028   3.781   2.593  13.100  0.0232 -0.4844 -0.1537
 6538TIP3    H141029   3.809   2.582  13.009  0.1729 -0.4554 -0.1109
 6538TIP3    H241030   3.829   2.669  13.131  0.8300 -1.1512  0.2914
 6539TIP3   OH241031   6.395   6.246   5.040 -0.1411  0.1766 -0.0412
 6539TIP3    H141032   6.405   6.330   4.996  0.7263 -0.0076 -0.2108
 6539TIP3    H241033   6.303   6.223   5.028 -0.5761  1.4677  0.6859
 6540TIP3   OH241034   6.415   2.344  13.152 -0.2990  0.0958 -0.4718
 6540TIP3    H141035   6.383   2.378  13.069  0.5908  0.0725 -0.8252
 6540TIP3    H241036   6.342   2.357  13.213 -0.2762  1.8521 -0.7912
 6541TIP3   OH241037   0.715   0.737  15.348 -0.2638 -0.4334  0.1308
 6541TIP3    H141038   0.699   0.730  15.442 -1.2154  0.6812  0.0708
 6541TIP3    H241039   0.633   0.708  15.307  0.6588 -2.4581 -0.4371
 6542TIP3   OH241040   0.169   0.035  13.795  0.5415 -0.4244  0.2519
 6542TIP3    H141041   0.252  -0.010  13.775  1.3208  1.0340  0.0703
 6542TIP3    H241042   0.188   0.087  13.873 -0.2339 -0.1618  0.2724
 6543TIP3   OH241043   5.307   3.822  11.586 -0.0216 -0.4033 -0.1391
 6543TIP3    H141044   5.357   3.741  11.598 -1.1462 -0.9931  0.7093
 6543TIP3    H241045   5.368   3.892  11.609  1.0882 -0.9646 -1.2587
 6544TIP3   OH241046   3.872   6.322  12.514  0.0630  0.7365  0.0325
 6544TIP3    H141047   3.811   6.340  12.444 -0.9714  1.3974  1.0655
 6544TIP3    H241048   3.891   6.228  12.507 -0.4398  0.6937 -0.7960
 6545TIP3   OH241049   2.078   0.871   0.770  0.8925  0.3276 -0.2530
 6545TIP3    H141050   2.105   0.830   0.688  0.2878 -1.2341  0.2885
 6545TIP3    H241051   1.989   0.838   0.784  1.9299 -1.7079  2.3802
 6546TIP3   OH241052   4.723   5.474  13.569 -0.1539 -0.0635 -0.0139
 6546TIP3    H141053   4.799   5.529  13.592 -1.5982  2.3976 -0.7186
 6546TIP3    H241054   4.662   5.488  13.641 -1.9001  2.1118 -1.7648
 6547TIP3   OH241055   0.950   6.438  11.650  0.2911 -0.2476 -0.0013
 6547TIP3    H141056   0.991   6.417  11.733 -1.0282  2.2818  1.3901
 6547TIP3    H241057   0.869   6.483  11.673  1.2345  3.2132 -2.5753
 6548TIP3   OH241058   0.351   2.019  15.565 -0.2066  0.1714  0.6496
 6548TIP3    H141059   0.293   2.093  15.546  0.9952  0.4711 -2.3744
 6548TIP3    H241060   0.427   2.058  15.608 -1.1015  0.1241  2.3437
 6549TIP3   OH241061   3.103   1.659  12.575 -0.2563 -0.2696 -0.5661
 6549TIP3    H141062   3.100   1.714  12.653  2.0052 -1.5496  0.5402
 6549TIP3    H241063   3.081   1.718  12.503  1.5893  2.0055  0.5924
 6550TIP3   OH241064   4.015   5.831  14.455 -0.4696  0.1492 -0.2826
 6550TIP3    H141065   4.013   5.873  14.541  0.2326 -0.7079  0.1666
 6550TIP3    H241066   3.937   5.776  14.453 -1.7837  1.9438 -1.1513
 6551TIP3   OH241067   1.754   0.273  10.422  0.5994  0.3199  0.7808
 6551TIP3    H141068   1.819   0.275  10.352 -0.0391  0.6304  0.1854
 6551TIP3    H241069   1.755   0.361  10.459 -1.0668  1.0256 -0.7326
 6552TIP3   OH241070   3.146   1.514  14.734 -0.2747 -0.0838 -0.0985
 6552TIP3    H141071   3.230   1.486  14.771 -0.0067 -0.3582 -0.8873
 6552TIP3    H241072   3.085   1.513  14.808  0.7573  1.6988  0.8692
 6553TIP3   OH241073   6.506   2.712   2.969  0.5010  0.1648 -0.0230
 6553TIP3    H141074   6.537   2.723   2.879 -0.5632 -3.8956 -1.0776
 6553TIP3    H241075   6.580   2.673   3.016 -0.1934 -1.5690 -0.3009
 6554TIP3   OH241076   4.664   3.936  14.197 -0.5103 -0.0787 -0.7463
 6554TIP3    H141077   4.593   3.905  14.253 -1.3630  2.0192 -0.5581
 6554TIP3    H241078   4.720   3.987  14.256 -1.2117  1.8384 -1.6293
 6555TIP3   OH241079   1.738   3.817  15.201  0.5179 -0.3408  0.0504
 6555TIP3    H141080   1.817   3.858  15.235  0.3917 -0.0627  0.0098
 6555TIP3    H241081   1.750   3.724  15.219  1.8855 -0.6273 -1.9492
 6556TIP3   OH241082   2.073   0.641  10.713 -0.4437 -0.7073  0.6970
 6556TIP3    H141083   2.107   0.634  10.624 -0.0825 -1.6792  0.8970
 6556TIP3    H241084   1.986   0.680  10.703  0.0870  0.3442  0.0370
 6557TIP3   OH241085   3.107   0.299   5.474  0.1901 -0.3517 -0.6834
 6557TIP3    H141086   3.200   0.294   5.495  0.2005 -1.9381 -0.9665
 6557TIP3    H241087   3.063   0.281   5.557  0.1285  0.4958 -0.5288
 6558TIP3   OH241088   0.179   6.296  16.690  0.4659  0.5312  0.1437
 6558TIP3    H141089   0.204   6.216  16.736 -0.3050  1.5831  2.5227
 6558TIP3    H241090   0.261   6.345  16.681  0.8062 -0.1371 -0.6628
 6559TIP3   OH241091   1.192   5.825  11.075  0.1696  0.2607  0.5809
 6559TIP3    H141092   1.145   5.813  10.993 -0.5249  3.1292  0.4739
 6559TIP3    H241093   1.129   5.800  11.143  0.1650 -0.4657  0.3222
 6560TIP3   OH241094   2.859   0.844   4.293 -0.2363  0.2484 -0.4070
 6560TIP3    H141095   2.787   0.867   4.352 -0.2751  0.3197 -0.4816
 6560TIP3    H241096   2.863   0.917   4.230 -1.7615 -0.9104 -1.9561
 6561TIP3   OH241097   1.014   2.655  13.337  0.0042  0.1636  0.1208
 6561TIP3    H141098   1.061   2.639  13.419 -1.1011 -1.4328  0.4943
 6561TIP3    H241099   0.948   2.721  13.360 -0.7002 -0.7189  0.7090
 6562TIP3   OH241100   4.350   1.231  12.179  0.1894 -0.1233  0.0871
 6562TIP3    H141101   4.425   1.235  12.238  0.6659 -0.7228 -0.4643
 6562TIP3    H241102   4.336   1.322  12.152  1.5098 -0.1499 -0.7781
 6563TIP3   OH241103   3.240   2.328   1.548 -0.1606  0.3023  0.2175
 6563TIP3    H141104   3.284   2.254   1.590  0.4839  0.9237  0.6572
 6563TIP3    H241105   3.310   2.380   1.511 -0.5513  1.0785  0.5420
 6564TIP3   OH241106   3.259   1.627   1.483 -0.2985  0.8882 -0.0374
 6564TIP3    H141107   3.279   1.699   1.423  1.3564  0.7375  0.3114
 6564TIP3    H241108   3.241   1.553   1.425 -0.3177  1.1469 -0.3693
 6565TIP3   OH241109   6.222   4.725  15.707  0.5292  0.1455 -0.1813
 6565TIP3    H141110   6.296   4.674  15.741  0.6750  0.0496 -0.6321
 6565TIP3    H241111   6.155   4.719  15.775  0.0741 -1.6856 -0.7538
 6566TIP3   OH241112   6.417   1.595   2.508  0.6121  0.3129  0.1103
 6566TIP3    H141113   6.369   1.663   2.461 -1.4044  0.5503  2.3347
 6566TIP3    H241114   6.447   1.535   2.439 -1.3839  1.1102 -1.5678
 6567TIP3   OH241115   6.081   6.185   4.799  0.1598  0.5879 -0.4997
 6567TIP3    H141116   6.145   6.256   4.792  1.6980 -0.3309  2.3774
 6567TIP3    H241117   6.090   6.136   4.717  1.6577  1.6826 -1.0369
 6568TIP3   OH241118   0.177   2.884   2.661 -0.4917  0.3154  0.0354
 6568TIP3    H141119   0.126   2.841   2.592 -0.4327  0.8668 -0.3589
 6568TIP3    H241120   0.263   2.897   2.622 -0.0927 -0.4457  0.6333
 6569TIP3   OH241121   4.400   0.099   6.224  0.4686 -0.5022  0.0215
 6569TIP3    H141122   4.410   0.069   6.134  0.5672  1.3359 -0.6209
 6569TIP3    H241123   4.486   0.132   6.249  0.0902  0.3769  0.2360
 6570TIP3   OH241124   2.820   1.771  15.100  0.5827  0.3098 -0.5111
 6570TIP3    H141125   2.857   1.760  15.013 -1.3046  0.0833 -1.3257
 6570TIP3    H241126   2.887   1.736  15.159  1.6419 -0.0802 -1.8966
 6571TIP3   OH241127   0.272   6.450   4.870  0.2491  0.9862  0.2447
 6571TIP3    H141128   0.339   6.509   4.905 -0.5461  3.2173 -1.7371
 6571TIP3    H241129   0.200   6.455   4.933  0.4855  1.5594  0.4788
 6572TIP3   OH241130   6.077   5.616   2.762  0.5451 -0.1136 -0.2661
 6572TIP3    H141131   6.115   5.549   2.819  1.0556 -0.2953 -0.8037
 6572TIP3    H241132   5.989   5.630   2.797 -0.1247 -2.1138 -1.0154
 6573TIP3   OH241133   3.933   2.702   1.099  0.2470 -0.0493  0.1928
 6573TIP3    H141134   3.938   2.607   1.104  0.8099 -0.0417 -0.2442
 6573TIP3    H241135   4.014   2.729   1.056  0.2884  0.6582  0.6942
 6574TIP3   OH241136   3.803   4.030  16.031  0.0095 -0.1528  0.4043
 6574TIP3    H141137   3.847   4.021  16.115 -0.1543 -0.1582  0.4906
 6574TIP3    H241138   3.816   3.946  15.987  1.3958  0.3572 -0.2057
 6575TIP3   OH241139   3.056   2.858   0.727 -0.7516  0.3698  0.4569
 6575TIP3    H141140   3.085   2.850   0.818 -1.0712  1.4542  0.6712
 6575TIP3    H241141   3.023   2.948   0.721  0.9616  0.9360 -1.2173
 6576TIP3   OH241142   4.052   2.675  12.190 -0.0918 -0.9960  0.2478
 6576TIP3    H141143   4.083   2.732  12.119 -0.6142 -2.1158 -0.9381
 6576TIP3    H241144   4.040   2.733  12.264  3.1184 -0.1787  0.2957
 6577TIP3   OH241145   2.401   1.312   1.989  0.9405  0.5344  0.0857
 6577TIP3    H141146   2.321   1.324   2.040  1.2589  0.5321  0.5901
 6577TIP3    H241147   2.370   1.290   1.901  0.3373 -2.3132  0.8892
 6578TIP3   OH241148   3.710   2.302   4.754 -1.0572 -0.0841 -0.0167
 6578TIP3    H141149   3.660   2.231   4.713 -2.0582  0.3589  0.3996
 6578TIP3    H241150   3.722   2.273   4.844  3.0484 -2.0856 -0.9849
 6579TIP3   OH241151   2.367   1.487   5.278 -0.1702  0.5957 -0.1570
 6579TIP3    H141152   2.332   1.573   5.301  1.8205  0.9101  2.0873
 6579TIP3    H241153   2.314   1.426   5.329 -0.9711  0.5573 -1.0205
 6580TIP3   OH241154   2.898   0.215  12.000 -0.3207  0.1219  0.2285
 6580TIP3    H141155   2.849   0.151  11.949  1.1439 -1.0229  0.1781
 6580TIP3    H241156   2.833   0.280  12.026 -2.0881 -1.8428  1.0467
 6581TIP3   OH241157   2.067   6.550  10.722  0.0754 -0.3542 -0.1511
 6581TIP3    H141158   2.154   6.577  10.752 -0.0938  0.0383  0.0023
 6581TIP3    H241159   2.066   6.455  10.734  0.0493 -0.2268  1.0081
 6582TIP3   OH241160   1.864   2.776  13.277  0.5625  0.4672 -0.4858
 6582TIP3    H141161   1.939   2.750  13.222  1.9262  1.5082  0.7979
 6582TIP3    H241162   1.850   2.868  13.255  0.6447  0.6859  0.3670
 6583TIP3   OH241163   4.339   1.835  11.572 -0.2387 -0.2056 -0.1448
 6583TIP3    H141164   4.421   1.822  11.618 -0.7454  0.6809  1.0706
 6583TIP3    H241165   4.360   1.820  11.480  1.2410 -0.1453  0.1665
 6584TIP3   OH241166   3.301   3.986   6.112 -0.0545 -0.0906  0.3910
 6584TIP3    H141167   3.362   4.048   6.071  0.2019 -0.4864  0.1673
 6584TIP3    H241168   3.295   3.914   6.049 -0.7476 -0.0566  0.4174
 6585TIP3   OH241169   1.590   5.804   0.754 -0.4117 -0.5491 -0.1716
 6585TIP3    H141170   1.631   5.883   0.719 -0.9064  0.2688  1.0337
 6585TIP3    H241171   1.564   5.755   0.677  0.7673 -0.0059 -0.9517
 6586TIP3   OH241172   4.123   2.735   3.534 -0.4838 -0.3591  0.2495
 6586TIP3    H141173   4.212   2.701   3.545  0.2579  1.7891  1.4280
 6586TIP3    H241174   4.118   2.759   3.442 -0.2777 -1.5861 -0.1010
 6587TIP3   OH241175   6.310   3.438  13.710 -0.0831 -0.0299  0.3536
 6587TIP3    H141176   6.255   3.516  13.719  1.1062  0.8988 -0.1233
 6587TIP3    H241177   6.301   3.392  13.793 -2.3493 -0.4510 -0.0631
 6588TIP3   OH241178   6.348   3.722  14.030 -0.1199 -0.6515 -0.1595
 6588TIP3    H141179   6.305   3.675  13.959 -0.3733 -0.1903 -0.3124
 6588TIP3    H241180   6.403   3.656  14.072 -0.7204 -1.1671 -0.1662
 6589TIP3   OH241181   3.362   4.011  16.285 -0.1176 -0.1499  0.4565
 6589TIP3    H141182   3.414   3.981  16.360  0.2911  0.3389  0.3767
 6589TIP3    H241183   3.427   4.048  16.224 -0.4702 -0.3326 -0.0375
 6590TIP3   OH241184   3.489   2.642  15.155  0.1690  0.5223 -0.2809
 6590TIP3    H141185   3.570   2.619  15.108 -1.1957 -2.2581 -1.5201
 6590TIP3    H241186   3.505   2.614  15.245  0.2853 -0.9105 -0.7259
 6591TIP3   OH241187   0.370   1.991   0.321 -0.2976  0.3257  0.2419
 6591TIP3    H141188   0.463   2.015   0.328  0.2310 -0.7632 -1.9485
 6591TIP3    H241189   0.330   2.064   0.274  0.0360 -0.2977 -1.0688
 6592TIP3   OH241190   4.427   3.908   6.059  0.2917 -0.1114 -0.0709
 6592TIP3    H141191   4.365   3.981   6.057 -0.6039 -0.8622  0.1460
 6592TIP3    H241192   4.392   3.848   6.124  1.6943 -0.1629  0.6839
 6593TIP3   OH241193   0.056   1.863   5.562  0.2332  0.7175 -0.0447
 6593TIP3    H141194   0.116   1.910   5.504 -0.1495  2.0355  0.5675
 6593TIP3    H241195  -0.015   1.926   5.577 -0.8119 -0.4443  0.0192
 6594TIP3   OH241196   1.204   3.727  14.484  0.2047  0.0033  0.6528
 6594TIP3    H141197   1.133   3.663  14.476  0.5895 -0.7459  2.6145
 6594TIP3    H241198   1.174   3.788  14.551 -0.3155  2.1988 -1.4313
 6595TIP3   OH241199   4.803   3.763  12.999  0.1023 -0.1744 -0.0055
 6595TIP3    H141200   4.805   3.828  12.928 -0.9257 -1.1559 -0.9641
 6595TIP3    H241201   4.787   3.815  13.078  0.3902  0.8480 -0.5886
 6596TIP3   OH241202   0.150   3.062   4.245  0.6969 -0.4382  0.3459
 6596TIP3    H141203   0.065   3.101   4.227  0.4667 -0.4059  1.4884
 6596TIP3    H241204   0.172   3.015   4.164  1.1464  2.2648 -1.2092
 6597TIP3   OH241205   0.975   2.817   5.688 -0.2596 -0.1243 -0.2424
 6597TIP3    H141206   1.066   2.843   5.697 -0.7805  1.3869  1.2595
 6597TIP3    H241207   0.929   2.899   5.669 -1.3558 -0.8206 -0.7310
 6598TIP3   OH241208   4.334   5.130  17.169  0.6179  0.0577  0.5692
 6598TIP3    H141209   4.417   5.126  17.122  0.4204  0.5941  0.1626
 6598TIP3    H241210   4.288   5.204  17.129 -0.0084 -0.1711  0.8608
 6599TIP3   OH241211   3.224   0.456   5.801 -0.2658  0.0929 -0.2870
 6599TIP3    H141212   3.178   0.432   5.882 -0.9176  0.4285 -0.5497
 6599TIP3    H241213   3.161   0.509   5.753  0.7694  1.5091 -0.1627
 6600TIP3   OH241214   1.762   4.685   5.707 -0.0539 -0.8471 -0.9625
 6600TIP3    H141215   1.745   4.633   5.786 -0.3305  1.9478  0.9661
 6600TIP3    H241216   1.852   4.663   5.683  0.7769 -0.3309  1.3901
 6601TIP3   OH241217   4.299   3.997  15.840  0.1879  0.1412  0.1379
 6601TIP3    H141218   4.226   4.055  15.822 -0.8029  0.2742  3.8065
 6601TIP3    H241219   4.375   4.054  15.846  0.0771  0.3977 -0.8418
 6602TIP3   OH241220   5.697   5.603   5.175  0.1058  0.2937 -0.4063
 6602TIP3    H141221   5.694   5.508   5.180  3.0741  0.1279 -0.1474
 6602TIP3    H241222   5.616   5.632   5.218 -0.1124 -2.0786  0.9252
 6603TIP3   OH241223   6.270   0.405   3.544 -0.2067 -0.3048  0.1940
 6603TIP3    H141224   6.361   0.381   3.562  0.2050  0.2085 -1.1337
 6603TIP3    H241225   6.269   0.501   3.548 -0.7539 -0.3149  0.4559
 6604TIP3   OH241226   6.550   2.683  13.327  0.2893  0.4096  0.2759
 6604TIP3    H141227   6.560   2.772  13.359  0.5204  0.1190  1.0578
 6604TIP3    H241228   6.610   2.676  13.253  0.8563  0.6736  0.7025
 6605TIP3   OH241229   6.126   3.836   6.109 -0.4376  0.3706 -0.1460
 6605TIP3    H141230   6.176   3.818   6.029 -1.3079 -2.8909 -0.0986
 6605TIP3    H241231   6.186   3.885   6.165  0.8645  1.0163 -2.0230
 6606TIP3   OH241232   2.710   5.724  13.271 -0.2369  0.5557  0.1866
 6606TIP3    H141233   2.680   5.690  13.355 -1.2894 -1.3215 -0.8670
 6606TIP3    H241234   2.799   5.690  13.262 -0.5621 -0.2934  0.0378
 6607TIP3   OH241235   0.466   5.380   1.085 -0.1676 -0.4481 -0.0192
 6607TIP3    H141236   0.440   5.427   1.164 -1.8003 -1.7177  0.2620
 6607TIP3    H241237   0.488   5.292   1.116  0.8321 -0.4797 -0.7814
 6608TIP3   OH241238   5.951   1.691  10.686 -0.0639 -0.6325 -0.0621
 6608TIP3    H141239   5.874   1.721  10.638  0.1886  0.0631 -0.0380
 6608TIP3    H241240   6.009   1.654  10.619  0.0896 -0.0760 -0.2474
 6609TIP3   OH241241   5.429   4.878  11.722  0.6635 -0.3443  0.6522
 6609TIP3    H141242   5.497   4.866  11.788  1.5100  2.2889  0.3510
 6609TIP3    H241243   5.474   4.915  11.646 -0.6505 -1.2993 -0.6416
 6610TIP3   OH241244   3.089   6.436   1.040  0.2440  0.7121  0.0032
 6610TIP3    H141245   3.131   6.374   0.980 -1.6023 -1.2303  0.6160
 6610TIP3    H241246   3.020   6.478   0.988 -0.2521  0.2738  0.3014
 6611TIP3   OH241247   1.213   2.658  14.237  0.0746 -0.5203  0.1157
 6611TIP3    H141248   1.174   2.738  14.272  1.5480  0.8234 -1.2018
 6611TIP3    H241249   1.276   2.631  14.304 -1.3837 -1.4287  1.2005
 6612TIP3   OH241250   6.618   1.125   6.108  0.0482  0.1410  0.5969
 6612TIP3    H141251   6.566   1.200   6.138 -0.1108 -0.4309  1.7938
 6612TIP3    H241252   6.685   1.114   6.176 -0.4154 -1.2807  0.8538
 6613TIP3   OH241253   6.463   3.601  12.390  0.2934 -0.2720  0.5638
 6613TIP3    H141254   6.559   3.597  12.394  0.4508  1.6295 -0.3045
 6613TIP3    H241255   6.439   3.671  12.451 -0.3599  0.6350 -0.6983
 6614TIP3   OH241256   2.941   5.897   4.584 -0.1855 -0.4294  0.8757
 6614TIP3    H141257   2.984   5.852   4.512  2.7341  0.4158  1.9394
 6614TIP3    H241258   2.920   5.827   4.647  1.6822 -0.7257  1.2506
 6615TIP3   OH241259   4.342   5.452  13.869 -0.2949 -0.3081 -0.5249
 6615TIP3    H141260   4.291   5.520  13.825  0.3492  1.6603  1.6025
 6615TIP3    H241261   4.318   5.460  13.961  3.1715  0.1491  0.4696
 6616TIP3   OH241262   4.319   0.686  13.192 -0.3936 -0.1999  0.0591
 6616TIP3    H141263   4.396   0.693  13.248  0.3933 -1.3713 -0.8164
 6616TIP3    H241264   4.264   0.620  13.235 -0.1074 -0.5940 -0.1630
 6617TIP3   OH241265   2.997   2.493  12.452 -0.2280  0.2800  0.1075
 6617TIP3    H141266   2.906   2.515  12.475 -0.9493  0.6217 -2.7140
 6617TIP3    H241267   3.049   2.533  12.522 -2.1469  1.5583  0.9153
 6618TIP3   OH241268   1.132   6.097   3.794 -0.1931 -0.7709 -0.8299
 6618TIP3    H141269   1.073   6.150   3.740 -1.3106 -0.6560  0.4558
 6618TIP3    H241270   1.109   6.007   3.772 -1.1182 -0.7331 -0.1067
 6619TIP3   OH241271   5.436   3.653   1.185 -0.2743 -0.4653  0.7621
 6619TIP3    H141272   5.402   3.563   1.188  0.7186 -1.0635 -2.3667
 6619TIP3    H241273   5.510   3.653   1.246  0.5726 -2.2176 -0.1994
 6620TIP3   OH241274   6.256   1.907   1.022  0.2744 -0.2716  0.4606
 6620TIP3    H141275   6.276   1.871   0.935 -0.9063 -0.9402  0.4433
 6620TIP3    H241276   6.276   2.000   1.014 -2.3568  0.2410 -1.4058
 6621TIP3   OH241277   3.058   2.039  14.277  0.4408 -0.2378  0.1463
 6621TIP3    H141278   3.002   2.091  14.220  1.2879 -0.1164 -0.6037
 6621TIP3    H241279   3.140   2.088  14.281  0.6515 -0.6287  0.8602
 6622TIP3   OH241280   5.468   6.250   0.359 -0.0423  0.2418 -0.4234
 6622TIP3    H141281   5.545   6.254   0.302 -0.7434  1.9285 -1.3314
 6622TIP3    H241282   5.433   6.162   0.347 -0.0938  0.5018 -2.5663
 6623TIP3   OH241283   2.791   6.267   5.394 -0.4734  0.1539  0.2093
 6623TIP3    H141284   2.807   6.266   5.299  0.0738  1.2170  0.2689
 6623TIP3    H241285   2.827   6.351   5.423 -0.3091 -0.3143  1.4231
 6624TIP3   OH241286   5.271   5.763  12.050 -0.5765  0.8035 -0.1921
 6624TIP3    H141287   5.354   5.808  12.036 -0.3981  0.3795 -0.5089
 6624TIP3    H241288   5.236   5.748  11.963  0.0002 -0.8342 -0.1796
 6625TIP3   OH241289   1.912   3.980   2.380 -0.2563  0.4625 -0.2078
 6625TIP3    H141290   1.859   4.045   2.426 -1.3536 -0.3714 -0.2665
 6625TIP3    H241291   1.849   3.921   2.339  0.6683 -1.1812  0.5796
 6626TIP3   OH241292   3.483   5.568  12.296  0.1569  0.2769 -0.0672
 6626TIP3    H141293   3.485   5.611  12.381  2.5984  1.3338 -0.5940
 6626TIP3    H241294   3.434   5.628  12.239 -0.3579  0.1744  0.2591
 6627TIP3   OH241295   3.937   3.617  15.430  0.3011 -0.0222 -0.4848
 6627TIP3    H141296   3.970   3.681  15.367  1.3220 -0.0045  0.0374
 6627TIP3    H241297   3.874   3.666  15.483  0.6512  0.3954 -0.4511
 6628TIP3   OH241298   4.626   0.377  16.336 -0.9114  0.6105  0.3069
 6628TIP3    H141299   4.721   0.380  16.341 -0.8343 -0.9925  0.0424
 6628TIP3    H241300   4.599   0.339  16.420 -1.4379  2.3967  1.0062
 6629TIP3   OH241301   6.371   3.204  14.746 -0.3271 -0.0012  0.1720
 6629TIP3    H141302   6.429   3.253  14.803 -0.8634  1.0631 -0.1713
 6629TIP3    H241303   6.428   3.166  14.680 -0.0442  1.3714 -0.3998
 6630TIP3   OH241304   3.770   4.312  14.491  0.0509 -0.2388  0.3063
 6630TIP3    H141305   3.726   4.337  14.409 -0.0855  1.1027  0.7688
 6630TIP3    H241306   3.859   4.288  14.464 -0.0443  0.0252 -0.2596
 6631TIP3   OH241307   4.121   5.825  15.345 -0.2669  0.4091  0.1793
 6631TIP3    H141308   4.132   5.759  15.413  1.3718 -0.4031 -0.8054
 6631TIP3    H241309   4.191   5.807  15.282  0.2130  3.0313 -0.1761
 6632TIP3   OH241310   1.416   6.344  14.272 -0.0017 -0.0316 -0.5284
 6632TIP3    H141311   1.411   6.267  14.216 -2.8166 -1.1964  1.1194
 6632TIP3    H241312   1.329   6.383  14.267 -0.1309  0.2433  2.3738
 6633TIP3   OH241313   0.864   1.864  11.582 -0.3054  0.0450  0.5848
 6633TIP3    H141314   0.793   1.826  11.634  0.8234 -1.6210  0.9630
 6633TIP3    H241315   0.878   1.802  11.511  1.8908 -0.5704  1.4814
 6634TIP3   OH241316   2.669   2.069   3.560 -0.6558  0.5235  0.0117
 6634TIP3    H141317   2.690   2.042   3.471 -0.9488 -0.2942  0.1837
 6634TIP3    H241318   2.690   2.163   3.562 -0.2495  0.4611 -0.7883
 6635TIP3   OH241319   5.953   4.422  11.538  0.3577  0.1360 -0.3883
 6635TIP3    H141320   5.921   4.504  11.573  2.1740  0.8149 -0.1894
 6635TIP3    H241321   5.933   4.357  11.605 -3.4466 -0.1929 -1.6289
 6636TIP3   OH241322   1.654   1.503  15.053 -0.0527 -0.7069 -0.3893
 6636TIP3    H141323   1.588   1.570  15.035  0.8012 -0.0630 -1.2712
 6636TIP3    H241324   1.735   1.553  15.064  0.4246 -1.5343 -0.0606
 6637TIP3   OH241325   5.013   4.499  15.986 -0.2820  0.2436  0.1214
 6637TIP3    H141326   4.972   4.561  16.047 -0.6399  0.6024 -0.4824
 6637TIP3    H241327   4.939   4.452  15.948 -0.2529  1.7008 -1.8632
 6638TIP3   OH241328   1.357   0.750   2.020  0.5230 -0.4103 -0.2903
 6638TIP3    H141329   1.430   0.690   2.004 -0.0299 -1.3563  0.5645
 6638TIP3    H241330   1.286   0.717   1.964  0.5960  0.2134 -0.7590
 6639TIP3   OH241331   5.973   2.007   1.088  0.7191  0.2392  1.0772
 6639TIP3    H141332   6.067   2.026   1.095  0.5456  1.4121  0.4863
 6639TIP3    H241333   5.932   2.070   1.148  0.1160  1.8935 -0.9455
 6640TIP3   OH241334   2.197   3.855  11.668  0.1513  0.3441 -0.2662
 6640TIP3    H141335   2.140   3.903  11.729 -0.2507  1.3203 -1.3696
 6640TIP3    H241336   2.195   3.907  11.588  0.8066 -0.8264 -1.0641
 6641TIP3   OH241337   5.926   1.787   0.263 -0.2480  0.0134  0.4072
 6641TIP3    H141338   5.843   1.763   0.223 -0.4929  0.2678  0.7620
 6641TIP3    H241339   5.912   1.775   0.357 -0.0389  0.5320  0.5084
 6642TIP3   OH241340   0.965   2.996   5.050 -0.2094 -0.4364  0.2558
 6642TIP3    H141341   0.946   3.009   4.957 -2.4388  1.4675  0.8889
 6642TIP3    H241342   1.052   3.033   5.062 -0.6256  0.9926 -0.7778
 6643TIP3   OH241343   3.012   2.688   2.752  0.5167  0.0227  0.5869
 6643TIP3    H141344   2.997   2.773   2.794  0.8693  0.6279 -0.4656
 6643TIP3    H241345   2.926   2.662   2.719  0.1924 -0.5590  1.8133
 6644TIP3   OH241346   4.340   4.941   2.523 -0.0640  0.0426 -0.5001
 6644TIP3    H141347   4.336   4.902   2.436 -1.3431 -1.9463  0.3846
 6644TIP3    H241348   4.272   5.008   2.523 -0.3471 -0.2419 -0.8967
 6645TIP3   OH241349   5.483   2.884   3.021 -0.8242 -0.1375 -0.1054
 6645TIP3    H141350   5.430   2.964   3.017 -0.7351 -0.0655  0.1556
 6645TIP3    H241351   5.573   2.916   3.034 -0.8416 -0.2943  0.4200
 6646TIP3   OH241352   6.468   6.202   3.459 -0.0607  0.0314  0.2656
 6646TIP3    H141353   6.503   6.119   3.427  0.1438  0.3841 -0.4411
 6646TIP3    H241354   6.545   6.257   3.473 -0.2943  1.4030 -2.9155
 6647TIP3   OH241355   4.887   1.393   2.000 -1.0315  0.0513 -0.2469
 6647TIP3    H141356   4.909   1.300   2.009 -0.6638  0.1904  0.3206
 6647TIP3    H241357   4.807   1.404   2.052  0.0619  0.4647  1.4392
 6648TIP3   OH241358   6.593   2.093  14.099  0.0126 -0.2804 -0.4075
 6648TIP3    H141359   6.561   2.183  14.112 -0.3404 -0.3246 -0.9258
 6648TIP3    H241360   6.688   2.102  14.093  0.0126  0.0029 -0.0122
 6649TIP3   OH241361   4.456   6.502   5.910  0.0615 -0.2313  0.2554
 6649TIP3    H141362   4.538   6.453   5.911  1.1078  1.4579  1.2929
 6649TIP3    H241363   4.414   6.475   5.828  2.2357 -0.2290 -0.9540
 6650TIP3   OH241364   4.894   0.393  14.353  0.0103  0.5107  0.0186
 6650TIP3    H141365   4.925   0.481  14.331  0.9305 -0.1992 -1.6763
 6650TIP3    H241366   4.962   0.357  14.410  0.0885  0.5704 -0.0373
 6651TIP3   OH241367   0.165   6.235   3.035 -0.0217  0.0942 -0.3766
 6651TIP3    H141368   0.243   6.205   3.082  0.3476  0.6089 -0.6443
 6651TIP3    H241369   0.093   6.220   3.096  0.4445  0.7402  0.3593
 6652TIP3   OH241370   4.863   6.318   0.569  0.1786  0.2462  0.2984
 6652TIP3    H141371   4.872   6.399   0.619  2.8789 -0.8196  1.7229
 6652TIP3    H241372   4.825   6.345   0.485  1.5449  3.0659  0.5063
 6653TIP3   OH241373   3.443   2.027   4.103  0.1465 -0.3232  0.4025
 6653TIP3    H141374   3.401   1.964   4.043  0.7766 -0.7452  0.3991
 6653TIP3    H241375   3.370   2.080   4.136 -0.2231 -0.1541 -0.6492
 6654TIP3   OH241376   3.205   1.432   4.234  0.0425 -0.4081 -0.3765
 6654TIP3    H141377   3.165   1.354   4.272  0.4313 -0.4489 -0.0483
 6654TIP3    H241378   3.175   1.504   4.289 -1.3893 -0.1358 -1.4517
 6655TIP3   OH241379   5.489   6.457  16.151 -0.1727 -0.2418 -0.0610
 6655TIP3    H141380   5.411   6.513  16.147 -1.3073 -1.8275 -2.3170
 6655TIP3    H241381   5.513   6.456  16.244 -0.9365  2.7662  0.2770
 6656TIP3   OH241382   4.857   4.545  11.682  0.2284 -0.2838  1.1604
 6656TIP3    H141383   4.863   4.551  11.777  0.6295  1.1208  1.0675
 6656TIP3    H241384   4.931   4.597  11.650 -2.0503  2.5834  0.0790
 6657TIP3   OH241385   3.627   6.247  16.749 -0.0296 -0.2277  0.6518
 6657TIP3    H141386   3.641   6.153  16.759  0.7375  0.0482  2.4474
 6657TIP3    H241387   3.713   6.282  16.727 -0.6080 -0.0807 -1.7441
 6658TIP3   OH241388   0.947   5.822   5.270 -0.3576 -0.1160  0.2411
 6658TIP3    H141389   0.947   5.906   5.225 -0.1831  0.0221  0.4959
 6658TIP3    H241390   0.871   5.826   5.328 -1.0662 -0.6154 -0.6259
 6659TIP3   OH241391   4.031   0.551   1.766  1.0526 -0.7876  0.1808
 6659TIP3    H141392   4.007   0.618   1.829  0.1477 -0.2702 -0.6731
 6659TIP3    H241393   4.118   0.576   1.736  0.1532  0.9286 -1.2289
 6660TIP3   OH241394   0.318   6.074  13.407 -0.2278  0.2418 -0.1759
 6660TIP3    H141395   0.373   6.036  13.476  0.4320  1.4213 -0.0294
 6660TIP3    H241396   0.315   6.167  13.427  0.0952  0.6355 -1.8177
 6661TIP3   OH241397   3.641   2.570   4.455  0.2679  0.0398 -0.1200
 6661TIP3    H141398   3.583   2.548   4.382 -1.6843  0.2778  1.2851
 6661TIP3    H241399   3.707   2.628   4.416 -0.4923 -0.1472 -1.7654
 6662TIP3   OH241400   2.545   5.409  13.304 -0.0700  0.2997  0.2889
 6662TIP3    H141401   2.453   5.420  13.277  0.1386 -1.0018 -1.0768
 6662TIP3    H241402   2.595   5.457  13.238  0.2592  0.8514  0.9274
 6663TIP3   OH241403   4.444   3.334  11.865  0.0518  0.2556  0.9548
 6663TIP3    H141404   4.407   3.342  11.777 -0.6628  1.9210  1.3617
 6663TIP3    H241405   4.538   3.345  11.853 -0.1384  1.6167  0.4867
 6664TIP3   OH241406   5.525   0.209  16.571 -0.1058 -0.5190 -0.1129
 6664TIP3    H141407   5.547   0.283  16.628 -0.2983 -1.3913  1.1525
 6664TIP3    H241408   5.472   0.151  16.627 -0.4125 -1.3572 -1.2312
 6665TIP3   OH241409   0.025   5.841  17.068  0.1884  0.6387  0.2444
 6665TIP3    H141410  -0.037   5.845  17.141  0.4585  0.9921  0.4531
 6665TIP3    H241411   0.079   5.919  17.077  1.1575 -0.0514  0.5003
 6666TIP3   OH241412   4.222   0.201   4.445 -0.2857  0.4632  0.1972
 6666TIP3    H141413   4.296   0.213   4.387 -1.2282  0.3960 -1.0668
 6666TIP3    H241414   4.199   0.289   4.474 -0.1313  0.5536  0.0478
 6667TIP3   OH241415   0.619   0.504   4.696  0.3240  0.2393  0.0877
 6667TIP3    H141416   0.580   0.429   4.650 -2.0985  1.4782 -0.0449
 6667TIP3    H241417   0.681   0.541   4.633 -1.3523  0.6164 -1.4346
 6668TIP3   OH241418   1.713   1.305  11.489  0.0375 -0.1261 -0.3364
 6668TIP3    H141419   1.693   1.323  11.397  2.2555  0.9712 -0.6871
 6668TIP3    H241420   1.804   1.334  11.499 -0.2939  0.2166  2.3290
 6669TIP3   OH241421   1.681   6.750   1.434 -0.7959  0.0763 -0.3047
 6669TIP3    H141422   1.722   6.834   1.416  0.4839 -0.1312  1.2989
 6669TIP3    H241423   1.655   6.716   1.349  2.7536  0.0831 -1.5795
 6670TIP3   OH241424   3.297   5.531  11.926 -0.5908  0.0397  0.0807
 6670TIP3    H141425   3.236   5.553  11.857 -0.9972 -1.0661  0.0607
 6670TIP3    H241426   3.244   5.490  11.994  0.1282 -1.1496 -0.0343
 6671TIP3   OH241427   1.237   4.158  16.572 -0.0400  0.6316  0.4316
 6671TIP3    H141428   1.199   4.121  16.652 -0.7048 -1.1658 -0.6603
 6671TIP3    H241429   1.311   4.101  16.553  0.8647  1.7905  0.4082
 6672TIP3   OH241430   1.780   3.254  10.922 -0.0567 -0.2076 -0.0091
 6672TIP3    H141431   1.821   3.340  10.923  1.2360 -0.7908  0.9371
 6672TIP3    H241432   1.730   3.250  11.004  0.8143 -0.7512  0.5139
 6673TIP3   OH241433   1.913   2.051  14.106 -0.3282  0.6349  0.0312
 6673TIP3    H141434   1.991   2.058  14.162  0.9209 -2.1879 -1.1475
 6673TIP3    H241435   1.846   2.103  14.151  2.4657  4.2332  0.5140
 6674TIP3   OH241436   4.206   4.966  16.773 -0.3773  0.2505  0.1933
 6674TIP3    H141437   4.176   4.918  16.696  0.3599  0.6192 -0.3369
 6674TIP3    H241438   4.201   4.902  16.845  0.0644 -0.4592 -0.3905
 6675TIP3   OH241439   2.942   3.746  12.915 -0.1323 -0.1224  0.5917
 6675TIP3    H141440   2.977   3.664  12.880  2.2844  1.1038 -0.0674
 6675TIP3    H241441   2.847   3.732  12.920 -0.0394 -2.1277 -1.6927
 6676TIP3   OH241442   2.892   5.773  12.795  0.3421  0.2810  0.3327
 6676TIP3    H141443   2.909   5.805  12.884  1.5942  0.5466  0.0210
 6676TIP3    H241444   2.799   5.788  12.782 -0.1453 -0.9195  2.0514
 6677TIP3   OH241445   1.765   5.527   5.998 -0.2556 -0.2760  0.4855
 6677TIP3    H141446   1.754   5.436   5.970  0.9521 -0.6478  1.1787
 6677TIP3    H241447   1.685   5.571   5.968  0.5927 -0.7934 -2.9354
 6678TIP3   OH241448   4.353   6.552   0.909 -0.2180 -0.1746  0.3238
 6678TIP3    H141449   4.391   6.588   0.829  0.1600  1.9897  1.3800
 6678TIP3    H241450   4.267   6.520   0.883  0.3355 -0.5362 -1.1420
 6679TIP3   OH241451   4.511   3.111   6.013  0.4924  0.1256  0.3595
 6679TIP3    H141452   4.557   3.177   6.066  2.7469  1.0122 -2.4382
 6679TIP3    H241453   4.429   3.154   5.987 -0.1309  0.0840  2.1440
 6680TIP3   OH241454   4.157   3.594  13.603  0.0015 -0.1304  0.2958
 6680TIP3    H141455   4.144   3.600  13.697 -0.5696 -0.8764  0.2755
 6680TIP3    H241456   4.122   3.677  13.568 -3.3736 -1.3393  0.4084
 6681TIP3   OH241457   3.569   2.208   1.642 -0.4748 -0.9973  0.3843
 6681TIP3    H141458   3.537   2.138   1.699  0.5543  0.1171  2.4358
 6681TIP3    H241459   3.572   2.285   1.698  0.8752  0.0956 -1.1102
 6682TIP3   OH241460   4.609   5.511  13.835  0.4643  0.3743 -0.2730
 6682TIP3    H141461   4.601   5.579  13.901 -0.5422  0.5366 -0.5353
 6682TIP3    H241462   4.518   5.482  13.820  0.3976  1.6880 -2.9603
 6683TIP3   OH241463   3.692   0.338   1.802 -0.1370 -0.0879 -0.1021
 6683TIP3    H141464   3.781   0.305   1.789 -0.1085 -0.7058  1.4455
 6683TIP3    H241465   3.699   0.433   1.791  1.4008  0.2948  3.0336
 6684TIP3   OH241466   0.929   2.904  12.439  0.2542  0.0355  0.2857
 6684TIP3    H141467   1.003   2.961  12.416 -0.9045  1.7033  0.4931
 6684TIP3    H241468   0.854   2.963  12.443 -2.1490 -2.1238 -4.5477
 6685TIP3   OH241469   5.930   4.180   2.199  0.4423 -0.9394  0.1955
 6685TIP3    H141470   5.945   4.086   2.197 -0.7335 -1.1269 -0.4402
 6685TIP3    H241471   6.006   4.215   2.246 -0.0970 -2.4022  2.3083
 6686TIP3   OH241472   1.040   3.561   5.699 -0.3239 -0.7334 -0.1846
 6686TIP3    H141473   1.000   3.644   5.724 -1.0143 -0.5953 -1.6758
 6686TIP3    H241474   1.075   3.576   5.611 -0.3350 -1.9845 -0.4172
 6687TIP3   OH241475   1.012   4.360  16.942  0.9609  0.3066  0.2293
 6687TIP3    H141476   0.932   4.409  16.925 -0.4205 -1.4744  1.2107
 6687TIP3    H241477   1.082   4.426  16.938 -0.6504  2.1219  0.4204
 6688TIP3   OH241478   0.979   0.971   2.899  0.4930 -0.5894  0.1568
 6688TIP3    H141479   0.955   0.993   2.989 -0.4777  1.1459 -0.4626
 6688TIP3    H241480   0.914   0.907   2.871  0.4437 -0.6930  0.5147
 6689TIP3   OH241481   3.441   0.474  11.651  0.2127 -0.0823 -0.4609
 6689TIP3    H141482   3.495   0.405  11.689 -2.9086 -1.8723  1.2093
 6689TIP3    H241483   3.422   0.444  11.562 -0.7739 -1.2887  0.1159
 6690TIP3   OH241484   0.037   5.975  11.685  0.2117 -0.0773 -0.7580
 6690TIP3    H141485   0.088   5.926  11.749 -2.5760 -0.9547  0.9275
 6690TIP3    H241486   0.014   5.911  11.618 -0.6859 -0.3143 -0.2399
 6691TIP3   OH241487   0.776   2.747   3.448 -0.5814 -0.6813 -0.1290
 6691TIP3    H141488   0.729   2.671   3.414 -2.3076  1.1362 -2.0558
 6691TIP3    H241489   0.733   2.767   3.530 -1.9766 -0.1885 -0.9500
 6692TIP3   OH241490   5.376   2.857  12.869 -0.0636  0.0647 -0.3419
 6692TIP3    H141491   5.371   2.917  12.794 -1.4802 -0.0713 -0.3838
 6692TIP3    H241492   5.350   2.772  12.834  1.5392 -0.5364 -0.1874
 6693TIP3   OH241493   5.014   2.972  15.467  0.3910  0.0765  0.1035
 6693TIP3    H141494   4.973   2.924  15.395 -2.4308 -0.5725  1.9630
 6693TIP3    H241495   5.044   3.054  15.426  2.8433 -1.9369 -2.5732
 6694TIP3   OH241496   3.035   4.634  14.446 -0.2968 -0.8698 -0.1833
 6694TIP3    H141497   2.949   4.646  14.485 -1.0107 -0.4302 -1.7888
 6694TIP3    H241498   3.071   4.723  14.438 -0.1555 -0.9493 -0.4729
 6695TIP3   OH241499   3.853   2.637   2.906  0.2071  0.0583 -0.4769
 6695TIP3    H141500   3.870   2.731   2.905  1.1773 -0.0277  1.7954
 6695TIP3    H241501   3.795   2.623   2.981  0.2799 -1.2023 -0.6228
 6696TIP3   OH241502   4.727   3.566   6.847 -0.0755  0.1504 -0.5093
 6696TIP3    H141503   4.686   3.651   6.833 -1.5065  0.0202  2.1539
 6696TIP3    H241504   4.803   3.584   6.902 -1.3638 -0.3676  1.5489
 6697TIP3   OH241505   4.771   2.002   4.099  0.4003 -0.6462 -0.3781
 6697TIP3    H141506   4.739   2.088   4.126 -0.2582 -1.5089  1.7735
 6697TIP3    H241507   4.806   2.016   4.011  0.6759  1.8899  0.0765
 6698TIP3   OH241508   2.090   6.468  11.008  0.1477  0.1391  0.8463
 6698TIP3    H141509   2.103   6.493  10.917  0.0112 -0.1306  0.7508
 6698TIP3    H241510   2.046   6.383  11.003  2.1417 -0.9882  1.1422
 6699TIP3   OH241511   0.689   5.187   2.512 -0.1176 -0.4064 -0.0430
 6699TIP3    H141512   0.670   5.274   2.477 -1.7971 -0.3595  0.8594
 6699TIP3    H241513   0.663   5.192   2.604 -1.4400 -2.1811 -0.2527
 6700TIP3   OH241514   5.280   2.301  10.257  0.5319 -0.2493  0.0424
 6700TIP3    H141515   5.216   2.237  10.226 -1.9810  1.8257  0.5404
 6700TIP3    H241516   5.311   2.265  10.341 -1.9216 -0.2385  1.0450
 6701TIP3   OH241517   0.683   4.796   0.192 -0.0776  0.4931  0.0131
 6701TIP3    H141518   0.774   4.822   0.204  0.5452 -1.4290 -0.1426
 6701TIP3    H241519   0.688   4.714   0.142 -1.9607  1.0283 -1.1476
 6702TIP3   OH241520   6.309   5.559   2.615 -0.6405  0.0184  0.9097
 6702TIP3    H141521   6.373   5.627   2.594 -2.5087  1.5379 -0.0664
 6702TIP3    H241522   6.235   5.606   2.654 -1.6142 -1.5701  1.0617
 6703TIP3   OH241523   5.219   0.786  11.079  0.0675 -0.0284 -0.1529
 6703TIP3    H141524   5.152   0.761  11.015 -1.4352  2.1053  0.4780
 6703TIP3    H241525   5.251   0.871  11.049  1.7542 -0.5253  0.1563
 6704TIP3   OH241526   1.228   5.730   3.266 -0.0044  0.2585 -0.6154
 6704TIP3    H141527   1.294   5.722   3.335  0.3679 -0.5944 -1.0554
 6704TIP3    H241528   1.267   5.685   3.190 -1.4440 -1.0682 -0.6196
 6705TIP3   OH241529   6.489   4.862   1.530  0.2498 -0.3360  0.4967
 6705TIP3    H141530   6.523   4.875   1.441 -0.3404  0.1908  0.3491
 6705TIP3    H241531   6.568   4.846   1.583  0.6635  0.0905  0.0196
 6706TIP3   OH241532   2.563   3.794  15.278 -0.4992  0.1922 -0.3631
 6706TIP3    H141533   2.627   3.787  15.208  2.0963 -0.4524  1.9170
 6706TIP3    H241534   2.544   3.704  15.303 -2.1840  0.3833 -0.8385
 6707TIP3   OH241535   2.699   2.497   2.905  1.1271  0.6167  0.0013
 6707TIP3    H141536   2.718   2.556   2.832 -0.3272 -0.2475 -1.1445
 6707TIP3    H241537   2.605   2.509   2.922  1.3843  0.5778  1.5486
 6708TIP3   OH241538   6.422   5.864   0.721 -0.1984  0.2447  0.0272
 6708TIP3    H141539   6.345   5.812   0.698  0.0377 -0.2339  0.3000
 6708TIP3    H241540   6.408   5.948   0.677 -1.8811  0.9260  1.7032
 6709TIP3   OH241541   0.024   6.239   3.936  0.3119  0.0227 -0.2615
 6709TIP3    H141542   0.095   6.303   3.924  0.5210 -0.2863 -0.7087
 6709TIP3    H241543  -0.054   6.293   3.946  0.4021  0.3549 -1.2153
 6710TIP3   OH241544   5.789   4.717  15.966 -0.0405  0.1556  1.0772
 6710TIP3    H141545   5.844   4.795  15.959 -0.3045  0.3132  0.7485
 6710TIP3    H241546   5.701   4.747  15.944  0.1410 -0.5954 -0.8320
 6711TIP3   OH241547   6.142   5.965   4.943  0.0036 -0.4019  0.1181
 6711TIP3    H141548   6.121   6.033   4.879 -2.7013 -2.0162 -0.8892
 6711TIP3    H241549   6.229   5.934   4.917  0.6462  1.6073 -0.2987
 6712TIP3   OH241550   6.645   5.046   3.416 -0.2521  0.2483  0.8075
 6712TIP3    H141551   6.677   5.052   3.506  1.0306 -0.3936  0.4182
 6712TIP3    H241552   6.561   5.091   3.418 -0.7201 -0.5815  2.5437
 6713TIP3   OH241553   1.437   1.983   6.384 -0.3315  0.1008  0.0452
 6713TIP3    H141554   1.420   2.070   6.347 -0.3063  1.1784  2.3645
 6713TIP3    H241555   1.521   1.956   6.346 -1.0539  0.3728 -1.8511
 6714TIP3   OH241556   4.895   6.680  12.936  0.4868 -0.0009  0.1582
 6714TIP3    H141557   4.879   6.688  13.030  0.3913 -1.1232  0.2522
 6714TIP3    H241558   4.972   6.624  12.930 -0.1119 -0.7865 -0.4466
 6715TIP3   OH241559   1.006   4.336   5.161  0.8593 -0.4609  0.0631
 6715TIP3    H141560   0.963   4.377   5.086  2.3301 -0.2457 -0.6848
 6715TIP3    H241561   0.966   4.378   5.237  0.9265  0.9350 -0.6407
 6716TIP3   OH241562   4.890   5.329  11.921 -0.6111  0.0388  0.1885
 6716TIP3    H141563   4.875   5.350  11.829  1.3462  1.2532  0.0807
 6716TIP3    H241564   4.833   5.389  11.969 -0.8924  0.1039 -0.2198
 6717TIP3   OH241565   4.671   0.268  14.369  0.1046 -0.8643 -0.0528
 6717TIP3    H141566   4.758   0.308  14.364 -0.8724  1.2997 -0.6769
 6717TIP3    H241567   4.659   0.248  14.462  0.4095  0.8858  0.3944
 6718TIP3   OH241568   3.357   0.309   2.843  0.2299 -0.0286  0.4349
 6718TIP3    H141569   3.444   0.337   2.874 -0.0671  1.2247  0.1771
 6718TIP3    H241570   3.295   0.359   2.897 -0.3637 -1.1922  0.8786
 6719TIP3   OH241571   2.099   1.741  11.227 -0.8193 -0.2890  0.0762
 6719TIP3    H141572   2.138   1.694  11.153  0.1730  0.4227  0.1145
 6719TIP3    H241573   2.099   1.833  11.199 -0.5967 -0.0342  0.8797
 6720TIP3   OH241574   1.982   0.620   1.231  0.0361 -0.3980 -0.3416
 6720TIP3    H141575   1.998   0.654   1.319  0.1110 -0.5829 -0.2847
 6720TIP3    H241576   1.902   0.666   1.203  1.6567  1.9892 -1.3901
 6721TIP3   OH241577   1.695   1.736   1.953 -0.8970 -0.4833  0.2927
 6721TIP3    H141578   1.694   1.823   1.912  1.5213  0.3887  1.8573
 6721TIP3    H241579   1.608   1.701   1.937 -2.2063  2.5152  0.2021
 6722TIP3   OH241580   4.425   0.739   5.913  0.3960  0.0567 -0.1909
 6722TIP3    H141581   4.372   0.819   5.906 -0.3385 -0.3286  0.8506
 6722TIP3    H241582   4.425   0.718   6.006 -0.3975 -1.8191 -0.5822
 6723TIP3   OH241583   5.100   6.235   4.082 -0.2344 -0.8885  1.1410
 6723TIP3    H141584   5.159   6.197   4.147  0.1436 -1.7482  0.3146
 6723TIP3    H241585   5.129   6.326   4.074 -0.0193 -0.8883  1.8717
 6724TIP3   OH241586   4.383   5.412  16.982  0.0397  0.4143  0.1336
 6724TIP3    H141587   4.386   5.465  16.903  3.1926 -2.0241 -1.6428
 6724TIP3    H241588   4.379   5.322  16.950 -2.9514 -0.6579  2.9299
 6725TIP3   OH241589   0.548   0.137   2.451  0.5054 -0.0872 -0.0951
 6725TIP3    H141590   0.633   0.181   2.441  0.1968  0.3336 -1.0665
 6725TIP3    H241591   0.489   0.189   2.397 -0.6827  0.4067  1.6097
 6726TIP3   OH241592   5.013   2.570   5.049 -0.3816 -0.6299 -0.0572
 6726TIP3    H141593   4.961   2.565   4.968  2.7857  1.0553 -2.4083
 6726TIP3    H241594   4.977   2.645   5.095 -0.3790  0.2517 -1.4217
 6727TIP3   OH241595   5.989   4.086   3.636  0.4718 -0.2214 -0.5823
 6727TIP3    H141596   5.915   4.028   3.616 -1.8611  2.0166  0.9307
 6727TIP3    H241597   6.006   4.132   3.554 -1.4965  0.8930 -0.4516
 6728TIP3   OH241598   5.979   5.463  17.184  0.0098  0.4806 -0.1242
 6728TIP3    H141599   5.886   5.447  17.169  0.1297  1.1021 -1.7388
 6728TIP3    H241600   6.024   5.417  17.113  0.9272  0.4809  0.4254
 6729TIP3   OH241601   6.259   0.163   2.524  0.3242  0.1138 -0.2553
 6729TIP3    H141602   6.276   0.248   2.565 -0.1581  0.4421 -0.7275
 6729TIP3    H241603   6.212   0.184   2.444 -1.2827 -0.6945  0.4325
 6730TIP3   OH241604   1.019   6.776  16.884 -0.8114 -0.1429  0.2881
 6730TIP3    H141605   0.967   6.793  16.962  0.1371 -0.3356  0.9801
 6730TIP3    H241606   1.058   6.861  16.863 -0.2532 -0.3037  0.6426
 6731TIP3   OH241607   0.048   3.011   3.288 -0.0651 -0.5978  0.3602
 6731TIP3    H141608  -0.020   3.055   3.338  0.1956 -0.3959  0.5398
 6731TIP3    H241609   0.049   3.055   3.203  1.2881  0.8363  1.0820
 6732TIP3   OH241610   5.867   3.230  11.974 -0.0161  0.2250 -0.6143
 6732TIP3    H141611   5.959   3.255  11.965 -0.0081  0.1002 -0.8717
 6732TIP3    H241612   5.819   3.311  11.956  0.0633  0.4920  0.3017
 6733TIP3   OH241613   2.183   1.598  11.439 -0.0266  0.7024  0.0098
 6733TIP3    H141614   2.149   1.659  11.505  0.5638  0.4752  0.5272
 6733TIP3    H241615   2.154   1.635  11.356  0.5581  1.8485  0.2954
 6734TIP3   OH241616   2.106   3.611   4.830 -0.5231 -0.9904 -0.7469
 6734TIP3    H141617   2.056   3.670   4.886  1.5436 -0.6774  0.9283
 6734TIP3    H241618   2.104   3.527   4.876 -0.6279 -1.3322 -1.3628
 6735TIP3   OH241619   5.215   3.800   0.095 -0.2767  0.2476  0.1093
 6735TIP3    H141620   5.271   3.774   0.169 -0.9678 -0.4813  0.3864
 6735TIP3    H241621   5.170   3.878   0.126 -0.3301  0.1249  0.3465
 6736TIP3   OH241622   4.154   2.846   0.413  0.5095 -0.6933 -0.6362
 6736TIP3    H141623   4.146   2.920   0.352 -0.6179 -0.2723 -0.0024
 6736TIP3    H241624   4.118   2.771   0.365 -0.6981 -0.2921 -0.3972
 6737TIP3   OH241625   6.510   2.227  10.424  0.1331 -0.4406  0.1178
 6737TIP3    H141626   6.485   2.249  10.335 -0.4618  0.2262  0.4400
 6737TIP3    H241627   6.468   2.294  10.478  0.1979 -1.0370  0.9264
 6738TIP3   OH241628   2.006   5.691   0.292 -0.3336 -0.2630  0.1575
 6738TIP3    H141629   1.991   5.598   0.273 -0.9607 -0.0398 -0.4862
 6738TIP3    H241630   1.937   5.714   0.353  0.4969 -0.4861  1.2040
 6739TIP3   OH241631   6.637   5.199   4.774 -0.3714  0.0424 -0.0949
 6739TIP3    H141632   6.667   5.270   4.831 -0.4400 -0.1943  0.2356
 6739TIP3    H241633   6.714   5.175   4.723 -0.1548 -0.1610  0.3298
 6740TIP3   OH241634   6.281   5.225   2.393 -0.0039 -0.2994  0.3408
 6740TIP3    H141635   6.225   5.267   2.327 -0.0439 -1.3843 -0.3437
 6740TIP3    H241636   6.269   5.277   2.472 -0.8521  0.3460 -0.1986
 6741TIP3   OH241637   1.185   6.217  13.100  0.3890 -0.0456 -0.3508
 6741TIP3    H141638   1.122   6.216  13.028 -0.3121 -3.9241  0.0953
 6741TIP3    H241639   1.262   6.173  13.064  0.2014 -1.6095  1.0273
 6742TIP3   OH241640   2.704   2.126  16.626 -0.4683 -0.0183 -0.9626
 6742TIP3    H141641   2.793   2.108  16.595 -1.0441  1.6568 -3.9896
 6742TIP3    H241642   2.701   2.090  16.715  3.5243  0.8003 -0.3401
 6743TIP3   OH241643   2.913   4.789  11.512  0.0307  0.3037 -0.0059
 6743TIP3    H141644   2.820   4.806  11.525 -0.3274  0.2768 -2.1863
 6743TIP3    H241645   2.952   4.877  11.504 -0.1437  0.2859 -1.0923
 6744TIP3   OH241646   4.063   4.373  17.019  0.2503 -0.4545  0.5772
 6744TIP3    H141647   4.052   4.279  17.005 -0.2691 -0.2584 -0.3815
 6744TIP3    H241648   4.144   4.380  17.070  0.0741 -1.4396  1.0236
 6745TIP3   OH241649   4.181   0.689   5.109 -0.1357  0.6530 -0.3056
 6745TIP3    H141650   4.232   0.641   5.045 -1.2278 -0.8883 -0.0635
 6745TIP3    H241651   4.092   0.655   5.100 -0.4056  0.6857  1.7223
 6746TIP3   OH241652   3.453   5.349  11.316 -0.7900  0.2607  0.1356
 6746TIP3    H141653   3.442   5.428  11.263 -0.3614  1.6033  1.9463
 6746TIP3    H241654   3.364   5.319  11.333 -0.9565  0.3493 -0.5409
 6747TIP3   OH241655   4.469   2.356  13.587  0.0123 -0.0530 -0.1152
 6747TIP3    H141656   4.389   2.376  13.637  0.8390  1.5375  0.6612
 6747TIP3    H241657   4.539   2.363  13.651  0.8321 -0.9036 -0.8994
 6748TIP3   OH241658   1.478   6.662   0.987 -0.1303  0.5186 -0.0873
 6748TIP3    H141659   1.520   6.644   0.903 -0.2078  0.3127 -0.0824
 6748TIP3    H241660   1.423   6.738   0.971 -0.7680 -0.0012 -0.4332
 6749TIP3   OH241661   4.846   4.684   0.189  0.5040  0.2981 -0.0719
 6749TIP3    H141662   4.909   4.613   0.175  0.1968  0.3543 -2.1665
 6749TIP3    H241663   4.781   4.671   0.120 -1.3791  0.7110  1.5507
 6750TIP3   OH241664   3.342   3.800   3.110 -0.3407 -0.2668 -0.0072
 6750TIP3    H141665   3.294   3.726   3.147 -0.5476  0.8401  2.0574
 6750TIP3    H241666   3.429   3.795   3.149 -0.7876  1.3421  1.3054
 6751TIP3   OH241667   5.163   1.198  12.523  0.2513 -0.1453  0.6939
 6751TIP3    H141668   5.166   1.116  12.474  2.6525  1.1987 -1.7892
 6751TIP3    H241669   5.100   1.252  12.475  0.6151  0.2771  0.6755
 6752TIP3   OH241670   5.249   4.656   3.647  0.5318  0.1106  0.2739
 6752TIP3    H141671   5.315   4.651   3.578  0.1711 -0.8360 -0.0169
 6752TIP3    H241672   5.278   4.591   3.712 -0.2019 -0.4450  0.0559
 6753TIP3   OH241673   4.175   3.263   1.441  0.2913  0.5150 -0.2778
 6753TIP3    H141674   4.234   3.229   1.508  0.0752  0.0812 -0.3023
 6753TIP3    H241675   4.231   3.314   1.383  1.0318 -1.5502 -1.4786
 6754TIP3   OH241676   1.833   2.770  14.047 -0.0267  0.2837 -0.0693
 6754TIP3    H141677   1.740   2.754  14.061 -0.1701  0.6636 -0.5511
 6754TIP3    H241678   1.872   2.766  14.134 -0.5231  0.3018  0.1565
 6755TIP3   OH241679   3.475   3.530   4.940  0.3046  0.5264  0.1749
 6755TIP3    H141680   3.449   3.618   4.965  1.0287  0.5894  0.7099
 6755TIP3    H241681   3.547   3.507   4.999 -1.1710 -1.1877  1.4425
 6756TIP3   OH241682   5.309   2.576   4.131  0.2658 -0.2918  0.1535
 6756TIP3    H141683   5.236   2.637   4.137  0.1131 -0.1642 -2.2463
 6756TIP3    H241684   5.372   2.607   4.196 -0.2648  1.7636 -0.2690
 6757TIP3   OH241685   4.833   6.634   2.223  0.2969 -0.0629  0.5576
 6757TIP3    H141686   4.821   6.539   2.216 -1.3852  0.0136  1.7572
 6757TIP3    H241687   4.749   6.666   2.255  0.3848  2.0245 -1.1034
 6758TIP3   OH241688   6.317   0.270   1.505  0.5278 -0.2527  1.0134
 6758TIP3    H141689   6.349   0.199   1.448 -1.0269  0.2982 -0.6309
 6758TIP3    H241690   6.244   0.231   1.553 -1.2691  0.5012 -0.9310
 6759TIP3   OH241691   3.029   0.739   1.761  0.1264  0.0740  0.3738
 6759TIP3    H141692   2.993   0.816   1.807  1.3891  1.0562 -0.2043
 6759TIP3    H241693   3.006   0.665   1.817  0.7374  1.1219  2.1048
 6760TIP3   OH241694   0.772   1.645  16.571  0.3700  0.2804 -0.0232
 6760TIP3    H141695   0.712   1.601  16.510  1.4246  0.0694 -0.9351
 6760TIP3    H241696   0.858   1.611  16.548  0.7333 -0.2643  2.0105
 6761TIP3   OH241697   1.606   3.372   1.140 -0.0237  0.3810  0.1277
 6761TIP3    H141698   1.553   3.373   1.220  0.1237  1.3594  0.2295
 6761TIP3    H241699   1.612   3.465   1.115  0.6017  0.1553 -0.5670
 6762TIP3   OH241700   3.988   1.991  16.992  0.2483 -0.1857 -0.3883
 6762TIP3    H141701   3.961   1.983  17.083  1.9913 -1.0054  0.1063
 6762TIP3    H241702   4.055   1.923  16.981  1.1298  0.8536 -1.8563
 6763TIP3   OH241703   1.477   4.663  15.418 -0.1089  0.3119 -0.3331
 6763TIP3    H141704   1.511   4.689  15.332 -1.8106  2.5837 -0.4137
 6763TIP3    H241705   1.552   4.625  15.463  1.0111 -0.2660 -2.5509
 6764TIP3   OH241706   3.928   6.528  12.717  0.2160  0.2322  0.7434
 6764TIP3    H141707   3.890   6.462  12.659  0.4444 -0.8967  1.8247
 6764TIP3    H241708   3.853   6.567  12.762 -0.0055  1.4596 -0.6061
 6765TIP3   OH241709   2.485   2.601   3.117 -0.5371  0.1563  0.2574
 6765TIP3    H141710   2.487   2.696   3.104 -0.5926  0.4949  2.4053
 6765TIP3    H241711   2.423   2.569   3.052  0.2435  1.4330 -1.2041
 6766TIP3   OH241712   0.210   1.602   4.666 -0.1747  0.1662  0.4398
 6766TIP3    H141713   0.191   1.510   4.681 -1.1419  0.6320  2.4281
 6766TIP3    H241714   0.301   1.613   4.695  0.8720 -0.6234 -2.2759
 6767TIP3   OH241715   2.974   2.020   1.963  0.5735 -0.2424 -0.1946
 6767TIP3    H141716   3.061   2.039   1.927  1.7884 -1.3887  1.9955
 6767TIP3    H241717   2.960   1.928   1.943  0.7310 -0.5657  1.1024
 6768TIP3   OH241718   5.276   2.247   0.777 -0.3279 -0.1593 -0.3615
 6768TIP3    H141719   5.358   2.276   0.817 -0.9281  0.6275  0.3323
 6768TIP3    H241720   5.275   2.290   0.692 -0.6808  1.0001  0.2073
 6769TIP3   OH241721   0.525   3.033  12.924 -0.3415  0.0702 -0.0637
 6769TIP3    H141722   0.520   3.125  12.949 -0.8221  0.4172 -1.3262
 6769TIP3    H241723   0.434   3.003  12.924 -0.2134 -0.3302  0.0726
 6770TIP3   OH241724   2.789   0.843   5.595 -0.2074  0.1481 -0.7168
 6770TIP3    H141725   2.782   0.784   5.670  0.4278 -0.7397 -1.3433
 6770TIP3    H241726   2.699   0.860   5.569 -0.4287  0.3242  0.1281
 6771TIP3   OH241727   5.865   5.866   3.120 -0.7114 -0.5352  0.0671
 6771TIP3    H141728   5.799   5.852   3.188 -1.5237  0.8993 -0.4037
 6771TIP3    H241729   5.866   5.960   3.106  2.4142 -0.3131  0.9972
 6772TIP3   OH241730   4.824   5.525  16.663 -0.0173  0.0387  0.3261
 6772TIP3    H141731   4.902   5.521  16.608  0.4288  0.2898  0.9245
 6772TIP3    H241732   4.801   5.433  16.678  0.0005 -0.0336 -0.0765
 6773TIP3   OH241733   5.106   1.441   2.331 -0.2292 -0.0776  0.3456
 6773TIP3    H141734   5.136   1.491   2.407 -1.3495 -2.1700  2.2964
 6773TIP3    H241735   5.011   1.452   2.332 -0.2804 -0.4028 -0.5796
 6774TIP3   OH241736   3.954   1.770  10.705 -0.8742  0.2823 -0.1209
 6774TIP3    H141737   3.885   1.788  10.770  0.8835 -0.7314  2.1909
 6774TIP3    H241738   4.013   1.845  10.712  0.7936 -1.0931  1.6315
 6775TIP3   OH241739   1.418   5.837   5.310  0.3875  0.1563 -0.0497
 6775TIP3    H141740   1.346   5.817   5.251  1.2485  0.5050 -1.2670
 6775TIP3    H241741   1.426   5.932   5.308  0.8861  0.1200  0.0558
 6776TIP3   OH241742   5.817   5.795   6.175  0.7183 -0.3510 -0.5276
 6776TIP3    H141743   5.723   5.781   6.188  0.9509  0.0967  2.2690
 6776TIP3    H241744   5.858   5.727   6.229  1.9551  1.1304  0.4530
 6777TIP3   OH241745   1.766   4.238   3.567  0.0303  0.3685 -0.1457
 6777TIP3    H141746   1.737   4.327   3.546 -0.0152  0.1415 -1.0938
 6777TIP3    H241747   1.846   4.251   3.619 -0.4688  0.9662  0.4897
 6778TIP3   OH241748   0.803   6.049   5.473 -0.8922  0.0472 -0.6955
 6778TIP3    H141749   0.777   5.967   5.430 -0.7857  0.2900 -1.2339
 6778TIP3    H241750   0.721   6.098   5.482 -0.9253 -0.0335 -0.5636
 6779TIP3   OH241751   6.039   5.177  15.659  0.1384  0.0663  0.8718
 6779TIP3    H141752   6.022   5.126  15.580 -1.4956 -0.8833  1.7957
 6779TIP3    H241753   6.095   5.120  15.712 -0.8854 -0.3935  1.4833
 6780TIP3   OH241754   3.283   5.005   1.864  0.0843  0.0245 -0.9287
 6780TIP3    H141755   3.232   5.050   1.797  0.0684 -0.1473 -1.0336
 6780TIP3    H241756   3.371   5.042   1.855  0.1714 -0.2617 -1.2951
 6781TIP3   OH241757   2.535   1.414   3.754  0.3668 -0.4936 -0.5945
 6781TIP3    H141758   2.613   1.435   3.701 -0.5199 -0.1214 -1.7830
 6781TIP3    H241759   2.568   1.355   3.822  1.3343 -1.8972 -2.2146
 6782TIP3   OH241760   0.173   1.125  10.966 -0.7071  0.3933  0.3149
 6782TIP3    H141761   0.130   1.144  10.883  1.6270  0.2103 -1.0413
 6782TIP3    H241762   0.177   1.030  10.969 -0.9968  0.3953  0.7616
 6783TIP3   OH241763   5.528   2.458  14.603  0.7091 -0.0050  0.4107
 6783TIP3    H141764   5.621   2.447  14.584  0.1604 -0.5211 -2.4859
 6783TIP3    H241765   5.514   2.406  14.682  2.7148 -0.6459  0.4110
 6784TIP3   OH241766   1.980   3.351   0.036 -0.1486  0.3040 -0.5054
 6784TIP3    H141767   1.890   3.325   0.058 -0.9420  0.7792 -2.9676
 6784TIP3    H241768   2.033   3.277   0.067 -1.3378 -0.0079  0.9763
 6785TIP3   OH241769   4.196   0.205  16.800  0.4518 -0.5931 -0.3020
 6785TIP3    H141770   4.143   0.270  16.754 -0.1280 -0.7185  0.1737
 6785TIP3    H241771   4.243   0.160  16.731 -1.4764 -1.7486 -0.9528
 6786TIP3   OH241772   0.821   0.357  11.578 -0.5072 -0.1236 -0.7145
 6786TIP3    H141773   0.765   0.374  11.502 -0.9460 -0.3438 -0.4461
 6786TIP3    H241774   0.782   0.409  11.648 -0.9401 -1.0132 -0.2839
 6787TIP3   OH241775   3.519   0.075  15.366  0.1553  0.6371  0.7288
 6787TIP3    H141776   3.594   0.036  15.319 -0.8289 -1.6230  0.8830
 6787TIP3    H241777   3.473   0.125  15.299  1.2967  1.3371  0.4301
 6788TIP3   OH241778   1.754   3.604  12.556  0.3222  0.0079 -0.9906
 6788TIP3    H141779   1.675   3.558  12.530  0.3649 -0.3369 -0.5221
 6788TIP3    H241780   1.822   3.571  12.498  0.4720 -0.9501 -0.2842
 6789TIP3   OH241781   2.251   4.148   0.515  0.7252  0.3822  0.5265
 6789TIP3    H141782   2.164   4.187   0.515  1.7592  3.0216  2.6175
 6789TIP3    H241783   2.259   4.106   0.600  1.1957 -0.6802 -0.0178
 6790TIP3   OH241784   6.560   1.832   5.111 -0.7136  0.1080 -0.3862
 6790TIP3    H141785   6.576   1.838   5.205  1.8735 -0.4540 -0.6903
 6790TIP3    H241786   6.621   1.896   5.073 -0.9909 -0.3802 -1.7025
 6791TIP3   OH241787   6.411   4.960   2.795  0.7647  0.0964 -0.0744
 6791TIP3    H141788   6.442   5.019   2.727 -0.7493 -0.2916 -1.1601
 6791TIP3    H241789   6.322   4.989   2.814  0.0254 -1.6887 -0.5386
 6792TIP3   OH241790   6.088   1.449   2.424  0.3394 -0.3268 -0.4800
 6792TIP3    H141791   6.055   1.528   2.380 -0.4844 -0.0751  0.5417
 6792TIP3    H241792   6.053   1.455   2.513  1.9155 -0.8479  0.2134
 6793TIP3   OH241793   1.414   2.276   2.810  0.4035 -0.0467  0.1871
 6793TIP3    H141794   1.507   2.282   2.786  0.7919 -0.5968  1.4854
 6793TIP3    H241795   1.391   2.363   2.841  0.9895 -0.3366  1.5155
 6794TIP3   OH241796   1.740   0.353  11.708  0.0481 -0.0816 -0.3868
 6794TIP3    H141797   1.803   0.312  11.649 -0.2550 -0.6100 -0.3468
 6794TIP3    H241798   1.659   0.358  11.656 -0.1410 -0.2828 -0.1107
 6795TIP3   OH241799   4.610   3.746  12.309 -0.0348 -0.4030 -0.0266
 6795TIP3    H141800   4.598   3.735  12.403  0.3311  2.2040  0.3962
 6795TIP3    H241801   4.521   3.761  12.276 -0.3225 -2.4957 -0.3521
 6796TIP3   OH241802   3.437   0.830   5.873  0.2308  0.0243 -0.0779
 6796TIP3    H141803   3.474   0.855   5.788  0.7439 -1.2130 -0.2396
 6796TIP3    H241804   3.494   0.872   5.937  0.2320  0.4295 -0.3399
 6797TIP3   OH241805   4.901   2.792  11.708 -0.2895  0.5447 -0.5435
 6797TIP3    H141806   4.938   2.704  11.701 -1.6595  0.0280 -1.9157
 6797TIP3    H241807   4.853   2.792  11.791 -3.3528 -1.3207 -2.1499
 6798TIP3   OH241808   5.948   5.104   2.295 -0.0836 -0.4666 -0.5620
 6798TIP3    H141809   6.002   5.183   2.303 -0.6820 -0.2609  2.8903
 6798TIP3    H241810   5.863   5.136   2.266  0.4280 -0.2660 -1.9253
 6799TIP3   OH241811   5.582   3.697  12.357 -0.2666  0.4472  0.1865
 6799TIP3    H141812   5.505   3.726  12.407 -1.1812 -2.3995  0.6423
 6799TIP3    H241813   5.616   3.623  12.407  1.8790  0.6664 -0.8414
 6800TIP3   OH241814   2.608   1.530   2.000  0.0487 -0.9665 -0.0516
 6800TIP3    H141815   2.585   1.613   1.959  1.8265 -1.8699 -3.1982
 6800TIP3    H241816   2.538   1.470   1.973 -0.5997 -0.8344  1.2335
 6801TIP3   OH241817   5.921   2.643   2.118  0.4708  0.1731  0.1678
 6801TIP3    H141818   5.889   2.567   2.167  0.1921 -1.0874 -1.8393
 6801TIP3    H241819   5.907   2.717   2.176  1.4972 -1.3705  2.5483
 6802TIP3   OH241820   6.719   2.215  11.331 -0.6642 -0.0692 -0.1637
 6802TIP3    H141821   6.716   2.293  11.275  3.1905  1.7684  1.7715
 6802TIP3    H241822   6.674   2.242  11.411  1.3643  0.5859  0.8165
 6803TIP3   OH241823   2.250   1.628   4.835  0.4164  0.0827  0.2596
 6803TIP3    H141824   2.344   1.644   4.839  0.3494  0.2394  1.5553
 6803TIP3    H241825   2.211   1.701   4.883 -0.5335  1.1868 -2.0238
 6804TIP3   OH241826   4.238   5.274   4.068 -0.6459  0.0706 -0.3038
 6804TIP3    H141827   4.306   5.214   4.098  0.7595  1.5798 -0.3180
 6804TIP3    H241828   4.273   5.310   3.986 -0.8744  1.8135  0.3333
 6805TIP3   OH241829   2.605   4.026  17.146  0.5851 -0.6504 -0.0445
 6805TIP3    H141830   2.615   4.089  17.218  1.5005  0.8794 -1.4352
 6805TIP3    H241831   2.517   4.044  17.111 -0.1322 -1.8590  1.0763
 6806TIP3   OH241832   4.249   5.487   5.267  0.0519  0.3746  0.6383
 6806TIP3    H141833   4.156   5.487   5.292  0.2730 -0.6902  1.5196
 6806TIP3    H241834   4.271   5.579   5.258 -1.2850  0.6257 -0.3220
 6807TIP3   OH241835   4.560   0.645   0.994 -0.2194 -0.5714 -0.3489
 6807TIP3    H141836   4.563   0.665   1.087 -0.5614  0.1089 -0.4791
 6807TIP3    H241837   4.635   0.692   0.957  0.1932 -1.2238 -0.3472
 6808TIP3   OH241838   4.831   3.632   4.809 -0.1007 -0.3618 -0.2844
 6808TIP3    H141839   4.886   3.568   4.854  0.9304 -0.6862 -1.9396
 6808TIP3    H241840   4.883   3.660   4.733 -1.3739  0.9023 -0.7394
 6809TIP3   OH241841   6.449   2.016  11.846 -1.0403 -0.0890 -0.3201
 6809TIP3    H141842   6.467   1.953  11.776 -2.7457 -0.3470 -0.5805
 6809TIP3    H241843   6.464   1.966  11.927  0.4010  0.0466 -0.4835
 6810TIP3   OH241844   2.296   1.280   2.850 -0.0814  0.8609 -0.0993
 6810TIP3    H141845   2.304   1.344   2.779 -2.5735 -0.6392 -1.8817
 6810TIP3    H241846   2.324   1.198   2.812 -0.4748  0.2031  0.9770
 6811TIP3   OH241847   5.984   6.381   4.227  0.5857  0.4078  0.1301
 6811TIP3    H141848   5.975   6.323   4.152  2.1306  0.0672  0.1628
 6811TIP3    H241849   6.061   6.434   4.206  1.2060  0.1180  1.5666
 6812TIP3   OH241850   2.952   3.126   2.544  0.2613  0.2330  0.1962
 6812TIP3    H141851   2.947   3.184   2.468  0.2384 -0.4661 -0.3443
 6812TIP3    H241852   2.881   3.156   2.602  0.6696  1.1584  0.2294
 6813TIP3   OH241853   5.461   6.421  13.656  0.0188  0.4428 -0.0506
 6813TIP3    H141854   5.484   6.379  13.574  0.3812 -1.8586  1.1475
 6813TIP3    H241855   5.400   6.360  13.698  1.3823  0.5353  2.2522
 6814TIP3   OH241856   3.118   4.305  16.956 -0.2387 -0.4723 -0.0235
 6814TIP3    H141857   3.082   4.291  16.869  1.1435 -0.9134 -0.5495
 6814TIP3    H241858   3.069   4.244  17.012 -0.8782 -0.4520 -0.5492
 6815TIP3   OH241859   4.845   0.969   1.232  0.5859 -0.2014 -0.0341
 6815TIP3    H141860   4.767   0.914   1.228  0.9792 -0.7058 -0.8435
 6815TIP3    H241861   4.811   1.057   1.252 -0.4398  0.0308 -2.4339
 6816TIP3   OH241862   4.539   4.849   4.449  0.8901 -0.5420  0.5690
 6816TIP3    H141863   4.480   4.838   4.375  0.4677  1.6203  0.5070
 6816TIP3    H241864   4.482   4.870   4.523  1.3640 -1.9456  1.3720
 6817TIP3   OH241865   6.422   2.538  13.683  0.3954 -0.4496 -0.4060
 6817TIP3    H141866   6.395   2.481  13.755 -0.4642 -0.6867 -0.9109
 6817TIP3    H241867   6.476   2.605  13.725 -0.7524 -0.1161  0.6098
 6818TIP3   OH241868   4.937   3.461  17.110 -0.3786 -0.2094  0.1388
 6818TIP3    H141869   5.006   3.504  17.160 -0.0799  1.4643 -1.5749
 6818TIP3    H241870   4.958   3.367  17.116  0.1275 -0.0072  2.3143
 6819TIP3   OH241871   0.665   0.487  10.502  0.5324 -0.2832 -0.3208
 6819TIP3    H141872   0.688   0.578  10.481  0.2797  0.6640  2.9380
 6819TIP3    H241873   0.576   0.477  10.467 -0.0564  1.3141  0.5837
 6820TIP3   OH241874   1.491   2.937   0.735  0.6819  0.0078 -0.1117
 6820TIP3    H141875   1.451   2.853   0.712  0.3190 -0.2461  1.3786
 6820TIP3    H241876   1.539   2.920   0.816  1.5704  0.9792 -0.4030
 6821TIP3   OH241877   6.591   5.291   1.095 -0.1586 -0.0135 -0.4469
 6821TIP3    H141878   6.519   5.234   1.067 -1.0671  1.5918 -1.5267
 6821TIP3    H241879   6.669   5.236   1.087 -1.2653 -1.9950  1.3342
 6822TIP3   OH241880   2.771   0.103  14.492  0.5836 -0.4791  0.1611
 6822TIP3    H141881   2.739   0.105  14.582  1.5072 -2.6126  0.6063
 6822TIP3    H241882   2.732   0.025  14.454  0.4632  0.2141 -1.2048
 6823TIP3   OH241883   4.707   5.174  13.803 -0.4249  0.7961  0.1542
 6823TIP3    H141884   4.650   5.136  13.869  1.1835  0.2002  1.2530
 6823TIP3    H241885   4.650   5.191  13.728 -1.8635 -0.5138  0.9172
 6824TIP3   OH241886   2.393   0.386   5.711  0.5015 -0.3073  0.8294
 6824TIP3    H141887   2.425   0.424   5.629  0.0152 -2.4146 -0.4030
 6824TIP3    H241888   2.419   0.449   5.778  0.5637  1.6884 -0.9725
 6825TIP3   OH241889   4.746   4.898   3.812  0.7859  0.0401  0.6500
 6825TIP3    H141890   4.679   4.872   3.749 -1.8203  0.0100  3.2341
 6825TIP3    H241891   4.783   4.815   3.843  0.9918 -0.0091  0.2801
 6826TIP3   OH241892   4.951   5.179  13.638 -1.0142  0.8476 -0.3559
 6826TIP3    H141893   4.887   5.146  13.700 -0.6897  0.5186 -0.1953
 6826TIP3    H241894   4.961   5.272  13.661 -1.3293  0.8672 -0.2972
 6827TIP3   OH241895   0.674   3.598  10.551 -0.9817 -0.4340  0.0501
 6827TIP3    H141896   0.708   3.520  10.596  0.5894 -0.4014 -0.9962
 6827TIP3    H241897   0.749   3.658  10.548 -1.5833  0.2961 -0.9725
 6828TIP3   OH241898   2.427   2.359   4.574 -0.0026 -0.7009  0.2559
 6828TIP3    H141899   2.422   2.441   4.525 -0.2258 -1.0487 -0.3243
 6828TIP3    H241900   2.519   2.350   4.596 -0.0103 -0.1904  0.5068
 6829TIP3   OH241901   0.588   2.139   0.588  0.2188 -0.0152  0.3062
 6829TIP3    H141902   0.669   2.090   0.603  0.1664  0.1126  1.0820
 6829TIP3    H241903   0.612   2.207   0.526  0.8067  0.2464  0.8072
 6830TIP3   OH241904   3.230   4.868  14.073 -0.8858  0.2531 -0.1102
 6830TIP3    H141905   3.159   4.911  14.024 -0.1804 -0.8751 -2.2954
 6830TIP3    H241906   3.228   4.777  14.041  0.4763 -0.2036  1.0360
 6831TIP3   OH241907   2.737   5.235  15.017 -0.0950 -0.4069 -0.5689
 6831TIP3    H141908   2.691   5.209  14.938 -0.6525 -0.3433 -0.2689
 6831TIP3    H241909   2.694   5.187  15.088  0.0985 -0.1169 -0.2487
 6832TIP3   OH241910   1.878   2.240   4.853 -0.6829  0.4254  0.2029
 6832TIP3    H141911   1.860   2.202   4.768  0.1963 -0.3413  0.3412
 6832TIP3    H241912   1.873   2.167   4.914  1.0680  0.4798  0.4718
 6833TIP3   OH241913   4.191   6.418  16.685 -0.1998 -0.2445 -0.1564
 6833TIP3    H141914   4.150   6.406  16.599 -1.2452  1.1801  0.1047
 6833TIP3    H241915   4.155   6.347  16.739 -2.8798  1.2850  0.2243
 6834TIP3   OH241916   1.006   5.754  11.246 -0.0311  0.2364 -0.0064
 6834TIP3    H141917   0.942   5.708  11.301  0.6874  0.5714  1.1540
 6834TIP3    H241918   1.091   5.723  11.278  0.4138 -0.5368 -1.8105
 6835TIP3   OH241919   5.710   4.428  16.380  0.3206  0.1441  0.0128
 6835TIP3    H141920   5.764   4.377  16.440  1.4195  0.8702 -0.3462
 6835TIP3    H241921   5.770   4.461  16.314 -0.5180  1.1496 -0.2825
 6836TIP3   OH241922   4.416   4.501  13.252  0.9139  0.1966  0.1766
 6836TIP3    H141923   4.364   4.421  13.264  1.0527 -0.0345 -0.6555
 6836TIP3    H241924   4.365   4.554  13.191  1.0981  0.4882  0.2739
 6837TIP3   OH241925   1.237   6.407  11.500 -0.2983  0.2931  0.5730
 6837TIP3    H141926   1.290   6.412  11.421  1.0581 -0.6627  1.3960
 6837TIP3    H241927   1.155   6.366  11.471 -0.1323  0.6638 -0.4677
 6838TIP3   OH241928   5.356   2.954   1.994 -0.2655 -0.2909 -0.1462
 6838TIP3    H141929   5.355   3.041   2.036 -1.3380  0.0698 -0.8719
 6838TIP3    H241930   5.295   2.963   1.921  1.8411 -0.7996 -2.0468
 6839TIP3   OH241931   1.733   6.655   5.926  0.3361  0.6575  0.3388
 6839TIP3    H141932   1.749   6.561   5.915  0.3353  0.6478  0.4162
 6839TIP3    H241933   1.697   6.663   6.015  2.2079  0.9570  1.1202
 6840TIP3   OH241934   0.365   1.177   1.338  0.1970  0.7074 -0.0043
 6840TIP3    H141935   0.406   1.258   1.367  0.8513  1.1272 -1.9379
 6840TIP3    H241936   0.439   1.119   1.319 -0.0606  0.9777 -2.1498
 6841TIP3   OH241937   5.417   0.289  13.605 -0.2138  0.2514 -0.6079
 6841TIP3    H141938   5.357   0.224  13.640 -0.1348  0.0075 -0.9164
 6841TIP3    H241939   5.430   0.351  13.677 -1.1596  0.5450 -0.6785
 6842TIP3   OH241940   4.473   2.506  14.743 -0.0337  0.4799 -0.3830
 6842TIP3    H141941   4.542   2.556  14.786  0.4542  0.2941 -0.9431
 6842TIP3    H241942   4.402   2.504  14.807  0.6360  0.2974  0.3686
 6843TIP3   OH241943   1.630   5.919   1.842 -0.1120 -0.9121 -0.7408
 6843TIP3    H141944   1.646   5.847   1.903 -0.4982 -1.7145 -1.5620
 6843TIP3    H241945   1.666   5.996   1.885  0.3245 -1.6024  0.1476
 6844TIP3   OH241946   0.754   4.495   0.237  0.5742  0.0271 -0.0678
 6844TIP3    H141947   0.701   4.434   0.289  0.9390  0.5097  0.9053
 6844TIP3    H241948   0.797   4.440   0.171  0.9646 -0.7936  0.8406
 6845TIP3   OH241949   3.551   4.001  16.956  0.5194  0.2797  0.1093
 6845TIP3    H141950   3.603   4.030  16.881 -0.9284 -0.2989 -1.1741
 6845TIP3    H241951   3.482   4.067  16.964  0.7602  0.4405  1.0923
 6846TIP3   OH241952   6.562   3.679   6.501  0.6156  0.3269 -0.0230
 6846TIP3    H141953   6.493   3.631   6.456  1.3430 -1.5050  0.7263
 6846TIP3    H241954   6.595   3.741   6.436 -2.4803  2.1523 -0.0683
 6847TIP3   OH241955   0.318   5.956   1.580  0.5236 -0.2651  0.0979
 6847TIP3    H141956   0.399   5.928   1.624 -0.3344 -1.0071  1.2548
 6847TIP3    H241957   0.269   5.875   1.566 -0.1507  0.2107 -0.3377
 6848TIP3   OH241958   3.628   3.770  13.502 -0.0846 -0.2467  0.6795
 6848TIP3    H141959   3.533   3.785  13.503  0.1123  1.1846  0.2409
 6848TIP3    H241960   3.664   3.842  13.554  0.7638 -0.7445  0.7929
 6849TIP3   OH241961   6.265   5.705   3.273 -0.0048  0.2713  0.4270
 6849TIP3    H141962   6.355   5.717   3.243  0.7205  0.1078  2.3903
 6849TIP3    H241963   6.242   5.616   3.244  0.0416  0.7021 -1.0142
 6850TIP3   OH241964   5.877   1.483   2.928  0.6546 -0.0545  0.0619
 6850TIP3    H141965   5.801   1.435   2.961  0.2714  0.0358 -0.6832
 6850TIP3    H241966   5.911   1.529   3.005  0.2117 -0.4348  0.4889
 6851TIP3   OH241967   3.755   2.756   0.693  0.1844  0.3537  0.1160
 6851TIP3    H141968   3.817   2.708   0.748  0.4512 -0.7480 -1.0851
 6851TIP3    H241969   3.683   2.694   0.679  0.4446  0.3494 -1.2982
 6852TIP3   OH241970   0.801   5.501   3.036  0.1452 -0.2925  0.1034
 6852TIP3    H141971   0.799   5.436   3.106  0.5403  0.9252  1.2835
 6852TIP3    H241972   0.891   5.497   3.003  0.7315  0.9591  1.4741
 6853TIP3   OH241973   6.422   5.061  15.957  0.0783  0.4969 -0.3757
 6853TIP3    H141974   6.390   5.149  15.975  0.3494  0.4666  0.2894
 6853TIP3    H241975   6.389   5.041  15.870  0.8787  1.6592 -0.9793
 6854TIP3   OH241976   3.850   0.257  13.831 -0.2229 -0.3160  0.8848
 6854TIP3    H141977   3.913   0.233  13.763 -0.7045 -1.5794  0.8645
 6854TIP3    H241978   3.764   0.235  13.793 -0.5018 -0.9953  1.8658
 6855TIP3   OH241979   4.734   1.303  15.183 -0.5087  0.1553 -0.3290
 6855TIP3    H141980   4.809   1.358  15.208 -0.8935  1.0330 -1.0632
 6855TIP3    H241981   4.659   1.362  15.183 -1.4794 -0.9712  1.6496
 6856TIP3   OH241982   1.424   4.565   1.731 -0.7039 -0.6045 -0.1028
 6856TIP3    H141983   1.423   4.647   1.780 -0.0160 -1.4553  1.4319
 6856TIP3    H241984   1.508   4.524   1.754 -1.5153 -2.2466  0.1240
 6857TIP3   OH241985   0.252   2.083   5.488  0.3421 -0.3089 -0.4250
 6857TIP3    H141986   0.345   2.074   5.467  0.5526  0.0763  0.2997
 6857TIP3    H241987   0.247   2.163   5.540 -0.1673 -1.0725  0.7506
 6858TIP3   OH241988   6.459   4.533   2.954 -0.3416 -0.1540 -0.1941
 6858TIP3    H141989   6.366   4.512   2.961 -0.5898  0.9135 -0.1967
 6858TIP3    H241990   6.502   4.474   3.017 -0.9671 -0.8843 -0.4343
 6859TIP3   OH241991   6.290   1.410  11.383 -0.1565 -0.1993 -0.2142
 6859TIP3    H141992   6.259   1.394  11.472 -0.5265 -1.3976 -0.5396
 6859TIP3    H241993   6.257   1.336  11.332 -0.5023  0.7836 -1.4883
 6860TIP3   OH241994   6.253   2.346  13.569  0.0089 -0.0220  0.4448
 6860TIP3    H141995   6.330   2.390  13.604  0.4565 -0.6319  0.2478
 6860TIP3    H241996   6.249   2.263  13.616 -0.8034  0.1924  0.7828
 6861TIP3   OH241997   5.764   3.769   1.931  0.2366  0.1014 -0.4938
 6861TIP3    H141998   5.826   3.814   1.873  2.3194  1.3310  2.4236
 6861TIP3    H241999   5.809   3.689   1.956  0.5045  0.7691  1.2782
 6862TIP3   OH242000   1.867   6.652  10.562 -0.2905 -0.4436 -0.3424
 6862TIP3    H142001   1.806   6.580  10.552 -1.5623  0.5460 -0.0405
 6862TIP3    H242002   1.931   6.621  10.626 -2.2165 -0.4819  1.6738
 6863TIP3   OH242003   5.730   5.851  16.459 -0.3015  0.2981  0.4055
 6863TIP3    H142004   5.813   5.868  16.504  0.6865 -1.6257 -0.5298
 6863TIP3    H242005   5.662   5.875  16.523  0.9546  1.6524  1.2983
 6864TIP3   OH242006   0.621   2.656   0.516  0.0686 -0.2622  0.3204
 6864TIP3    H142007   0.675   2.703   0.578 -0.2697  1.5317 -0.6813
 6864TIP3    H242008   0.674   2.651   0.436 -0.1040 -1.1537  0.2472
 6865TIP3   OH242009   4.979   1.215   5.269  0.2642  0.0230 -0.1789
 6865TIP3    H142010   4.889   1.222   5.303  1.3673 -0.6354  3.2563
 6865TIP3    H242011   5.011   1.305   5.271 -0.1184  0.1830 -0.8854
 6866TIP3   OH242012   5.582   4.528   0.370 -0.0203  0.1840  0.0554
 6866TIP3    H142013   5.653   4.553   0.311 -0.4356  1.5519  0.1021
 6866TIP3    H242014   5.568   4.604   0.426 -2.2578  0.4117 -0.6862
 6867TIP3   OH242015   0.758   4.402  15.504 -0.1801 -0.2681 -0.8734
 6867TIP3    H142016   0.697   4.375  15.573  1.2497  2.0077  1.5094
 6867TIP3    H242017   0.751   4.498  15.502  3.4763  0.1872 -0.1092
 6868TIP3   OH242018   5.273   2.585  11.674 -0.3167  0.4156  0.3392
 6868TIP3    H142019   5.331   2.543  11.611 -0.4434 -0.7556  0.9881
 6868TIP3    H242020   5.189   2.592  11.628 -0.2314  0.1959  0.1480
 6869TIP3   OH242021   2.526   2.688   4.028 -0.1710 -0.2066  0.3869
 6869TIP3    H142022   2.571   2.605   4.048  2.0973  0.8361 -0.0187
 6869TIP3    H242023   2.446   2.661   3.983 -0.7716 -2.2451  2.4484
 6870TIP3   OH242024   1.147   1.363  16.380  0.3787 -0.1874  0.6117
 6870TIP3    H142025   1.229   1.315  16.367  1.7810  2.1538  0.3787
 6870TIP3    H242026   1.082   1.313  16.330  2.1097 -0.8925 -1.0400
 6871TIP3   OH242027   4.702   5.094  13.234  0.4177  0.4615 -0.2221
 6871TIP3    H142028   4.789   5.105  13.197 -0.1768  0.7271 -1.6064
 6871TIP3    H242029   4.691   5.168  13.293  0.2507  1.7945 -1.8507
 6872TIP3   OH242030   0.691   2.644   3.713 -0.5332  0.1141 -0.1353
 6872TIP3    H142031   0.689   2.699   3.791  0.0433 -1.2579  0.8741
 6872TIP3    H242032   0.607   2.598   3.714  0.2117 -1.2855  0.7287
 6873TIP3   OH242033   0.420   1.796   5.593  0.1628 -0.5069 -0.2194
 6873TIP3    H142034   0.356   1.810   5.523 -1.4729  0.9510  1.4460
 6873TIP3    H242035   0.480   1.870   5.586 -0.2850 -0.0951  0.1616
 6874TIP3   OH242036   5.403   2.860  13.731 -0.2582 -0.0641  0.3793
 6874TIP3    H142037   5.482   2.843  13.680  0.5993 -0.2683  1.7172
 6874TIP3    H242038   5.401   2.954  13.743 -0.2213 -0.0609  0.3583
 6875TIP3   OH242039   2.304   5.705  12.986  0.5560 -0.4460 -0.2949
 6875TIP3    H142040   2.359   5.725  13.061 -0.3747  0.7306  0.1103
 6875TIP3    H242041   2.235   5.771  12.989 -2.0200 -2.9928  0.3391
 6876TIP3   OH242042   1.707   1.825  17.165 -0.1814  0.3250 -0.0821
 6876TIP3    H142043   1.774   1.763  17.195 -1.8343 -1.2483  0.5269
 6876TIP3    H242044   1.720   1.830  17.071  2.8491  2.6386  0.3034
 6877TIP3   OH242045   1.392   0.735  10.797  0.0999 -0.9248 -0.2494
 6877TIP3    H142046   1.467   0.679  10.779  0.3005 -0.6902 -0.1412
 6877TIP3    H242047   1.323   0.674  10.823  0.5668 -1.0614  0.7026
 6878TIP3   OH242048   4.151   2.520   4.097 -0.0914 -0.8901  0.0692
 6878TIP3    H142049   4.058   2.520   4.119  0.0864  1.9129  1.3180
 6878TIP3    H242050   4.194   2.560   4.174  1.8872 -0.3252 -1.2473
 6879TIP3   OH242051   5.914   4.463  11.159  0.1334  0.3392  0.2101
 6879TIP3    H142052   5.819   4.454  11.153  0.0816  0.6317  0.5574
 6879TIP3    H242053   5.948   4.386  11.115 -0.2474  0.9997 -1.3166
 6880TIP3   OH242054   5.795   6.224   4.932 -0.1402  0.3441 -0.2602
 6880TIP3    H142055   5.749   6.177   4.862 -0.8462  2.8737 -1.6183
 6880TIP3    H242056   5.887   6.217   4.909 -0.2310 -0.2702 -0.4814
 6881TIP3   OH242057   5.838   5.916  16.838  0.2175  0.0264  0.0303
 6881TIP3    H142058   5.864   5.971  16.764 -0.2587 -0.1345 -0.2615
 6881TIP3    H242059   5.847   5.826  16.805 -0.3813 -0.0389  0.0283
 6882TIP3   OH242060   2.876   4.113   3.013  0.0224  0.1383 -0.2791
 6882TIP3    H142061   2.854   4.036   2.960 -0.1540  1.1206 -1.6883
 6882TIP3    H242062   2.951   4.085   3.066 -1.8022 -1.9154  1.4304
 6883TIP3   OH242063   0.770   3.185  11.178 -0.1226 -0.3939 -0.2386
 6883TIP3    H142064   0.739   3.274  11.198 -2.0767 -1.2519  0.8317
 6883TIP3    H242065   0.747   3.172  11.086 -0.8374 -0.1701 -0.0980
 6884TIP3   OH242066   1.149   5.266  13.686  0.3313  0.0606 -0.3253
 6884TIP3    H142067   1.128   5.256  13.779 -2.9376  0.7527 -0.8472
 6884TIP3    H242068   1.081   5.325  13.652  0.7276 -1.0212 -3.3578
 6885TIP3   OH242069   6.413   1.869   2.969  0.1697  0.5561  0.4144
 6885TIP3    H142070   6.389   1.929   3.040  0.2100  1.9573 -0.7311
 6885TIP3    H242071   6.355   1.793   2.982 -1.4235  1.7569  0.6280
 6886TIP3   OH242072   2.144   1.825  11.591  0.0638  0.1854  0.2221
 6886TIP3    H142073   2.218   1.878  11.621  1.3076 -2.1497  1.5740
 6886TIP3    H242074   2.119   1.864  11.508  1.6751  2.1110  0.5580
 6887TIP3   OH242075   5.616   3.426   1.097  0.1609 -0.2542 -0.2180
 6887TIP3    H142076   5.660   3.488   1.156 -1.0189  1.7450 -1.3215
 6887TIP3    H242077   5.547   3.387   1.151 -0.9488  1.6039 -0.2182
 6888TIP3   OH242078   1.095   4.373  11.197  0.0324 -0.0627 -0.0702
 6888TIP3    H142079   1.126   4.396  11.109  1.0037  0.2307  0.3339
 6888TIP3    H242080   1.101   4.277  11.200  0.9624 -0.0121  0.0051
 6889TIP3   OH242081   4.937   2.102  15.650  0.0309 -0.5415 -0.1144
 6889TIP3    H142082   4.938   2.144  15.564 -0.4614 -0.5610 -0.1295
 6889TIP3    H242083   5.029   2.105  15.679  0.0476  0.2782 -0.2421
 6890TIP3   OH242084   6.309   3.799  17.166  0.1181 -0.7302  0.1564
 6890TIP3    H142085   6.246   3.849  17.115 -0.0653  0.2980  1.3475
 6890TIP3    H242086   6.391   3.806  17.116 -0.1634 -0.1422 -0.2303
 6891TIP3   OH242087   4.585   2.865  15.031  0.2191 -0.1310 -0.0815
 6891TIP3    H142088   4.593   2.869  15.126 -0.6666 -0.6585  0.0237
 6891TIP3    H242089   4.492   2.850  15.015  0.3702 -0.1241 -1.0336
 6892TIP3   OH242090   0.000   2.502  10.771  0.1525 -0.5580 -0.2212
 6892TIP3    H142091  -0.017   2.585  10.815 -1.0341 -0.8396 -0.1264
 6892TIP3    H242092   0.096   2.499  10.762  0.2989  0.2143  0.9240
 6893TIP3   OH242093   4.585   3.390  12.746  0.0816 -0.2229  0.1470
 6893TIP3    H142094   4.660   3.369  12.801  1.1295  0.2259 -1.0534
 6893TIP3    H242095   4.526   3.438  12.803  0.7262 -0.5344  1.1024
 6894TIP3   OH242096   1.425   3.402   0.491  0.5566 -0.5893 -0.4917
 6894TIP3    H142097   1.403   3.309   0.504 -0.6090 -0.3198 -0.3618
 6894TIP3    H242098   1.423   3.439   0.579  0.2387 -0.2974 -0.6180
 6895TIP3   OH242099   3.745   5.593  15.127  0.4485 -0.6846 -0.0371
 6895TIP3    H142100   3.661   5.575  15.167  1.4668 -1.3764  1.9135
 6895TIP3    H242101   3.734   5.678  15.084 -0.8154 -0.0500  1.4722
 6896TIP3   OH242102   2.150   3.302   1.681  0.2781  0.0430 -0.0827
 6896TIP3    H142103   2.112   3.288   1.595 -0.4661 -0.8275  0.3744
 6896TIP3    H242104   2.130   3.393   1.702  0.3012  0.2042 -0.7351
 6897TIP3   OH242105   1.792   2.088  11.301  0.1455  0.0856 -0.4577
 6897TIP3    H142106   1.742   2.016  11.341  0.2665  0.1317 -0.2242
 6897TIP3    H242107   1.870   2.096  11.356  0.0393  0.5218 -0.3694
 6898TIP3   OH242108   4.357   6.083  14.951 -0.0785 -0.2990  0.2552
 6898TIP3    H142109   4.396   6.007  14.907  1.6104  1.0906 -0.7678
 6898TIP3    H242110   4.288   6.113  14.891  0.7877  0.3040 -0.4745
 6899TIP3   OH242111   3.938   2.237  14.395  0.1732 -0.0120 -0.1169
 6899TIP3    H142112   4.008   2.177  14.421 -0.2151  0.0335  1.1034
 6899TIP3    H242113   3.983   2.317  14.367  0.6079  0.1978  1.1317
 6900TIP3   OH242114   0.342   3.145   0.457  0.2188 -0.1520 -0.2018
 6900TIP3    H142115   0.311   3.222   0.410  1.0967  0.2405 -0.1553
 6900TIP3    H242116   0.289   3.072   0.423 -1.5334  0.6435  0.6734
 6901TIP3   OH242117   4.252   3.098   4.059  0.3990 -0.3197  0.2784
 6901TIP3    H142118   4.323   3.150   4.021 -0.5002  1.8774  1.4148
 6901TIP3    H242119   4.288   3.068   4.143  0.1345  0.5430  0.7176
 6902TIP3   OH242120   0.180   1.355  13.262 -0.0845  0.5646 -0.0793
 6902TIP3    H142121   0.122   1.402  13.202 -0.2734  0.2917 -0.1110
 6902TIP3    H242122   0.164   1.395  13.347 -1.4894 -0.5485  0.2199
 6903TIP3   OH242123   4.998   3.446  13.469 -0.1513 -0.0686 -0.7059
 6903TIP3    H142124   5.018   3.495  13.389  0.9142  0.5233 -0.0956
 6903TIP3    H242125   4.917   3.486  13.501  0.2272  0.7165 -0.6961
 6904TIP3   OH242126   3.381   4.358  14.016 -0.1980 -0.4900  0.1899
 6904TIP3    H142127   3.451   4.371  13.952 -1.6227  1.8290 -1.0432
 6904TIP3    H242128   3.328   4.287  13.980  0.3210 -0.7945  0.0212
 6905TIP3   OH242129   2.246   4.065  16.627 -0.0268 -0.5419  0.1240
 6905TIP3    H142130   2.298   4.144  16.637 -0.8455 -0.0141  0.3137
 6905TIP3    H242131   2.179   4.087  16.562  0.4734 -1.4749 -0.7401
 6906TIP3   OH242132   5.742   0.300  16.870 -0.2325 -0.2763  0.0242
 6906TIP3    H142133   5.794   0.346  16.937 -0.9324  0.5349  0.0279
 6906TIP3    H242134   5.655   0.338  16.878 -0.6826 -1.2018 -0.3914
 6907TIP3   OH242135   6.599   4.266   4.689 -0.3386  0.2631 -0.8058
 6907TIP3    H142136   6.587   4.208   4.764 -0.3676 -0.0456 -1.0467
 6907TIP3    H242137   6.533   4.238   4.625 -1.1464  1.3417 -0.4678
 6908TIP3   OH242138   2.508   2.063   0.518 -0.2543  0.4496  0.3970
 6908TIP3    H142139   2.445   2.130   0.545  0.2084  0.5769  1.1866
 6908TIP3    H242140   2.593   2.105   0.530  0.0955 -0.6379  1.9581
 6909TIP3   OH242141   4.795   5.406  16.366 -0.3687  0.1212  0.0598
 6909TIP3    H142142   4.842   5.439  16.442 -1.1456 -0.2822  0.7247
 6909TIP3    H242143   4.730   5.474  16.347 -1.0089 -0.3516  0.5374
 6910TIP3   OH242144   3.032   3.540  12.299  0.0605 -0.6413 -0.2591
 6910TIP3    H142145   3.079   3.624  12.307  1.5425 -1.5731  1.4618
 6910TIP3    H242146   2.953   3.562  12.249  0.0288  1.9409  0.7576
 6911TIP3   OH242147   3.290   6.066   0.716  0.6157 -0.0088  0.0594
 6911TIP3    H142148   3.232   6.037   0.645  1.6677 -1.8045 -0.1449
 6911TIP3    H242149   3.378   6.057   0.680  1.0910  1.1775  0.8805
 6912TIP3   OH242150   0.432   0.813   5.421  0.8237  0.0486 -0.2636
 6912TIP3    H142151   0.436   0.882   5.356  1.2545  0.9751  0.7160
 6912TIP3    H242152   0.353   0.764   5.400  1.4521 -0.2581 -2.0400
 6913TIP3   OH242153   5.785   1.030   4.814  0.1711  0.2638 -0.2703
 6913TIP3    H142154   5.740   0.979   4.747  1.5117 -0.4475 -0.6562
 6913TIP3    H242155   5.807   1.112   4.771 -1.1731  0.8338  0.0762
 6914TIP3   OH242156   1.644   1.862  16.527  0.6296 -0.2255 -0.5646
 6914TIP3    H142157   1.714   1.828  16.584  0.2113  1.3975  0.9983
 6914TIP3    H242158   1.615   1.785  16.477  1.4420 -1.5998  0.9652
 6915TIP3   OH242159   1.581   1.316   4.641  0.1829 -0.1681  0.1526
 6915TIP3    H142160   1.494   1.331   4.680 -1.1684 -1.1130 -2.2754
 6915TIP3    H242161   1.619   1.404   4.635 -1.2403  0.4725 -0.0911
 6916TIP3   OH242162   3.386   4.935   4.196 -0.1650 -0.4563  0.6536
 6916TIP3    H142163   3.420   4.895   4.276 -1.0741 -1.6696  0.4414
 6916TIP3    H242164   3.383   4.864   4.133  2.6761  0.8848 -1.2286
 6917TIP3   OH242165   1.815   0.577  14.853 -0.1933 -0.3252 -0.0555
 6917TIP3    H142166   1.885   0.634  14.819 -1.6032  1.4040 -0.1834
 6917TIP3    H242167   1.850   0.544  14.936  0.6908  0.6777 -0.0035
 6918TIP3   OH242168   4.049   1.526  12.464  0.2043 -0.2888  0.0936
 6918TIP3    H142169   4.058   1.597  12.402  1.0552  1.0029  1.6278
 6918TIP3    H242170   4.134   1.481  12.463 -0.0327 -0.7411 -0.2131
 6919TIP3   OH242171   5.964   6.012  11.214  0.1273 -0.9528 -0.1828
 6919TIP3    H142172   5.990   6.025  11.122  0.4855 -0.0844  0.0359
 6919TIP3    H242173   6.046   6.020  11.263 -0.3931  1.1185  0.4531
 6920TIP3   OH242174   2.795   0.608   0.162 -1.0788 -0.3238  0.0828
 6920TIP3    H142175   2.811   0.645   0.075  0.3307  0.3728  0.6029
 6920TIP3    H242176   2.788   0.514   0.148 -2.5586 -0.0785 -0.9889
 6921TIP3   OH242177   4.716   0.071   0.849 -0.4741 -0.3865 -0.0081
 6921TIP3    H142178   4.660   0.142   0.881 -0.1771 -0.7615  1.4274
 6921TIP3    H242179   4.777   0.055   0.921 -0.7845 -2.3620 -0.1362
 6922TIP3   OH242180   5.280   2.355   3.962  0.3923 -1.0290 -0.3519
 6922TIP3    H142181   5.293   2.444   3.995 -3.5350 -0.4416  0.0626
 6922TIP3    H242182   5.296   2.299   4.039  0.7443 -0.5115 -0.0402
 6923TIP3   OH242183   3.281   4.464  12.926 -0.3704 -0.2038 -0.6171
 6923TIP3    H142184   3.214   4.438  12.989  0.6363  0.5886  0.8319
 6923TIP3    H242185   3.232   4.503  12.854 -1.6927 -2.8497 -1.2857
 6924TIP3   OH242186   1.736   1.154   6.330 -0.0266 -0.1532 -0.1870
 6924TIP3    H142187   1.758   1.077   6.382 -2.3634 -1.3110 -0.7829
 6924TIP3    H242188   1.820   1.193   6.309  1.1713 -1.8069  1.2147
 6925TIP3   OH242189   5.873   3.551   2.113 -0.0412 -0.0535 -0.1937
 6925TIP3    H142190   5.782   3.543   2.141 -1.5443 -0.4726 -4.4711
 6925TIP3    H242191   5.899   3.462   2.092  1.3574  0.1058  0.7116
 6926TIP3   OH242192   4.847   2.227  13.755 -0.3298  0.5716  0.4079
 6926TIP3    H142193   4.862   2.157  13.690  2.3840  0.3748  1.1041
 6926TIP3    H242194   4.813   2.300  13.704 -0.6012 -0.3715 -0.8143
 6927TIP3   OH242195   4.265   4.864   3.985  0.5384 -0.5241  0.1904
 6927TIP3    H142196   4.296   4.787   3.937  1.5659  0.0792 -0.1435
 6927TIP3    H242197   4.175   4.876   3.956  0.1700 -1.9290  0.6665
 6928TIP3   OH242198   0.342   0.005   1.877 -0.1037 -0.1587  0.4787
 6928TIP3    H142199   0.379   0.054   1.950  0.1100  2.3574 -1.2233
 6928TIP3    H242200   0.248   0.022   1.881 -0.1111 -0.1434  0.2592
 6929TIP3   OH242201   3.617   0.193   5.229  0.0204  0.1999 -0.2061
 6929TIP3    H142202   3.631   0.105   5.194 -3.4539 -0.4791 -0.2022
 6929TIP3    H242203   3.586   0.244   5.154  2.4603  1.6761 -0.3348
 6930TIP3   OH242204   5.638   2.482  15.130  0.6454  0.1669 -0.3579
 6930TIP3    H142205   5.662   2.425  15.057 -2.1061  0.5781 -1.7211
 6930TIP3    H242206   5.600   2.423  15.196  0.6190  0.0763 -0.4549
 6931TIP3   OH242207   3.273   4.634  16.790  0.4757 -0.0305  0.2338
 6931TIP3    H142208   3.178   4.634  16.800  0.5743  1.7789  1.6554
 6931TIP3    H242209   3.289   4.576  16.716 -1.8851  1.3062 -1.4566
 6932TIP3   OH242210   1.636   5.069   0.277 -0.2143 -0.5077 -1.1844
 6932TIP3    H142211   1.627   5.128   0.202 -0.4575  2.6787  1.1153
 6932TIP3    H242212   1.728   5.078   0.303 -0.1470 -1.5208 -1.0344
 6933TIP3   OH242213   4.917   4.143   2.763  0.5364 -0.4472  0.0793
 6933TIP3    H142214   4.995   4.113   2.809  0.8176 -0.2789 -0.2796
 6933TIP3    H242215   4.939   4.135   2.670  1.3357  2.6078 -0.0949
 6934TIP3   OH242216   6.006   6.813   4.251 -0.6828  0.5082 -0.6659
 6934TIP3    H142217   6.075   6.751   4.275 -0.6968  0.7429  0.0081
 6934TIP3    H242218   5.957   6.827   4.332 -1.3160  0.6103 -1.0593
 6935TIP3   OH242219   5.624   2.146  14.028 -0.2274 -0.4317 -0.0261
 6935TIP3    H142220   5.607   2.235  13.998  1.5383 -0.2572 -0.6366
 6935TIP3    H242221   5.580   2.140  14.112 -1.6628  0.4931 -0.6645
 6936TIP3   OH242222   3.261   2.781  13.447  0.3919  0.2170  0.1192
 6936TIP3    H142223   3.171   2.779  13.413  0.0707 -1.0971  0.9702
 6936TIP3    H242224   3.314   2.745  13.376 -0.0029 -0.6050  0.2279
 6937TIP3   OH242225   5.469   3.463   1.798 -0.1596 -0.0207 -0.1604
 6937TIP3    H142226   5.452   3.546   1.842  0.7458  0.2379 -0.2751
 6937TIP3    H242227   5.383   3.434   1.766 -0.3611  1.3149 -0.8995
 6938TIP3   OH242228   4.357   0.246   3.744  0.3842  0.2151 -0.1380
 6938TIP3    H142229   4.279   0.297   3.722  1.0472  1.3840  0.1658
 6938TIP3    H242230   4.408   0.244   3.663  1.1177  1.4396  0.2689
 6939TIP3   OH242231   0.009   3.862   2.606  0.3392  0.2752  0.0383
 6939TIP3    H142232  -0.060   3.925   2.586 -0.2008  0.1822  1.4877
 6939TIP3    H242233  -0.016   3.783   2.558  1.5539  1.3820 -2.6230
 6940TIP3   OH242234   3.090   2.529  16.485  0.3130  0.1827 -0.2149
 6940TIP3    H142235   3.109   2.448  16.436  1.4011  0.6289 -0.5731
 6940TIP3    H242236   3.144   2.522  16.564 -0.9496 -0.2394  0.6255
 6941TIP3   OH242237   0.780   3.092  15.784 -0.1275 -0.0404 -0.1273
 6941TIP3    H142238   0.827   3.009  15.787  2.0728  1.0743 -0.9363
 6941TIP3    H242239   0.784   3.119  15.692  1.3861  2.0418  0.4535
 6942TIP3   OH242240   0.393   3.770   4.076 -0.5329 -0.2386  0.4203
 6942TIP3    H142241   0.363   3.805   3.992  2.0656  2.4207  0.4042
 6942TIP3    H242242   0.329   3.801   4.140 -1.5825 -0.7888 -0.3369
 6943TIP3   OH242243   4.003   6.067  15.067 -0.0696  0.1692  0.1215
 6943TIP3    H142244   4.058   5.989  15.059  0.2903  0.1935  1.8832
 6943TIP3    H242245   4.046   6.132  15.011  0.0369 -0.6564 -0.7941
 6944TIP3   OH242246   1.979   6.246  15.415 -0.0698 -0.3359  0.1422
 6944TIP3    H142247   1.962   6.314  15.481  0.5751  0.0351 -0.0635
 6944TIP3    H242248   2.020   6.293  15.343  1.9385 -1.1764  0.6599
 6945TIP3   OH242249   1.460   4.938  15.578 -0.0527  0.3944 -0.4509
 6945TIP3    H142250   1.478   4.855  15.532 -0.9409  0.2530 -0.5659
 6945TIP3    H242251   1.447   5.001  15.507  0.0375  0.4992 -0.3723
 6946TIP3   OH242252   4.212   4.539   2.810 -0.7075  0.2126  0.3170
 6946TIP3    H142253   4.249   4.493   2.735  0.0256  1.9337 -0.4507
 6946TIP3    H242254   4.277   4.529   2.879  0.1205  1.2215 -0.2840
 6947TIP3   OH242255   3.987   1.870  11.801  0.3585  0.2218 -0.0233
 6947TIP3    H142256   4.020   1.957  11.778  1.7026 -0.2114  0.1691
 6947TIP3    H242257   3.893   1.875  11.785  0.5088  1.5112 -0.6346
 6948TIP3   OH242258   0.528   5.284  12.435  0.0881  0.1161  0.1157
 6948TIP3    H142259   0.549   5.205  12.486  1.0792  0.5017  0.3238
 6948TIP3    H242260   0.433   5.279  12.422 -0.0272 -0.5307  1.0857
 6949TIP3   OH242261   1.766   5.439   4.356 -0.0168 -0.5597 -0.2916
 6949TIP3    H142262   1.818   5.381   4.299  0.0927 -1.7063  0.9248
 6949TIP3    H242263   1.812   5.523   4.352  0.6896 -0.9576 -0.9224
 6950TIP3   OH242264   1.995   6.761  12.269 -0.8086  0.1191 -0.5173
 6950TIP3    H142265   1.930   6.773  12.338 -1.1177 -0.2427 -0.7448
 6950TIP3    H242266   2.077   6.791  12.309 -0.2370 -3.2732  1.2774
 6951TIP3   OH242267   5.653   6.018  13.717  0.1299  0.4540 -0.0994
 6951TIP3    H142268   5.726   5.961  13.737 -0.2020 -0.6055 -1.7053
 6951TIP3    H242269   5.678   6.062  13.636 -1.2998 -0.5506 -1.1514
 6952TIP3   OH242270   0.098   5.058  11.663 -0.2049  0.2668 -0.4607
 6952TIP3    H142271   0.019   5.040  11.713 -0.1093  0.6587 -0.1621
 6952TIP3    H242272   0.113   4.979  11.611  0.0128 -0.3777  0.5657
 6953TIP3   OH242273   4.701   2.664  12.318  0.0602 -0.2091 -0.1456
 6953TIP3    H142274   4.666   2.748  12.287  1.0325  0.5708  0.7951
 6953TIP3    H242275   4.774   2.688  12.375  1.1875 -1.7516 -0.8764
 6954TIP3   OH242276   6.533   5.457  13.086  0.0842  0.3203  0.2887
 6954TIP3    H142277   6.605   5.424  13.032  0.1885  0.9281  0.0456
 6954TIP3    H242278   6.524   5.393  13.157 -0.5877 -0.9329 -0.8820
 6955TIP3   OH242279   3.150   5.767  12.670  0.0032  0.2012 -0.3805
 6955TIP3    H142280   3.062   5.764  12.707  0.0167 -1.0520 -0.4360
 6955TIP3    H242281   3.208   5.760  12.745  0.0394 -0.8507 -0.5016
 6956TIP3   OH242282   0.052   4.133   1.208 -0.7160 -0.3175 -0.0519
 6956TIP3    H142283   0.018   4.210   1.164  2.6882  1.5742  0.2414
 6956TIP3    H242284   0.083   4.076   1.137 -1.4992 -0.5413 -0.2200
 6957TIP3   OH242285   6.186   3.780   5.131 -0.0422 -0.0793 -0.3212
 6957TIP3    H142286   6.169   3.771   5.225  0.6294  1.2926 -0.0367
 6957TIP3    H242287   6.180   3.691   5.096 -0.6847 -0.5532  0.9559
 6958TIP3   OH242288   3.783   0.667  11.134 -0.2357 -0.1065  0.1570
 6958TIP3    H142289   3.840   0.653  11.210 -0.9248  1.7635  1.0823
 6958TIP3    H242290   3.842   0.662  11.059  1.2579  1.9343  1.0967
 6959TIP3   OH242291   5.978   4.100   5.234  0.5240 -0.3012 -0.1655
 6959TIP3    H142292   5.975   4.117   5.328 -2.0106 -2.3393  0.2649
 6959TIP3    H242293   5.954   4.183   5.194  2.8186  0.9284  0.8644
 6960TIP3   OH242294   2.105   2.254  17.206 -0.0751 -0.0711 -0.3959
 6960TIP3    H142295   2.183   2.199  17.197 -0.8116 -1.2753  0.2828
 6960TIP3    H242296   2.032   2.196  17.184 -0.6952  1.6094 -3.2108
 6961TIP3   OH242297   4.074   4.865  14.729 -0.8370 -0.0875 -0.3147
 6961TIP3    H142298   4.077   4.802  14.801  1.7383 -1.4443 -1.4701
 6961TIP3    H242299   4.131   4.936  14.756 -1.2172  0.2243 -0.3229
 6962TIP3   OH242300   2.335   4.390  11.551 -0.5412 -0.2048 -0.1640
 6962TIP3    H142301   2.406   4.328  11.541  1.2818  1.5647  1.0006
 6962TIP3    H242302   2.376   4.468  11.588 -3.0174  1.0691  0.1355
 6963TIP3   OH242303   2.324   1.450   3.079  0.2549  0.1603 -0.5560
 6963TIP3    H142304   2.288   1.403   3.004  0.3647 -0.9066  0.0491
 6963TIP3    H242305   2.346   1.537   3.044  1.0116 -0.5596 -1.9525
 6964TIP3   OH242306   6.779   0.231  14.314  0.1149 -0.3232 -0.0039
 6964TIP3    H142307   6.780   0.141  14.348 -0.8977 -0.4669 -0.3025
 6964TIP3    H242308   6.704   0.271  14.359  0.7993  0.4926  0.4186
 6965TIP3   OH242309   2.473   5.784   1.474  0.5914  0.2735 -0.4860
 6965TIP3    H142310   2.540   5.827   1.527 -0.3473  0.4314  0.6120
 6965TIP3    H242311   2.434   5.854   1.422 -0.6066  0.7245  0.9457
 6966TIP3   OH242312   5.033   4.658   6.735  0.7963  0.3831 -0.0613
 6966TIP3    H142313   4.996   4.724   6.793  0.5028 -0.4888  0.7695
 6966TIP3    H242314   4.990   4.576   6.760  0.5003  0.0016 -1.6553
 6967TIP3   OH242315   4.740   0.564   2.141  0.3256 -0.2118 -1.0115
 6967TIP3    H142316   4.661   0.540   2.091  0.6240 -0.8115 -1.1958
 6967TIP3    H242317   4.806   0.501   2.115  0.0811 -1.5242  1.2695
 6968TIP3   OH242318   2.169   6.430  11.708  0.1749 -0.1248 -0.7710
 6968TIP3    H142319   2.175   6.344  11.665 -1.9155 -0.6846 -0.0859
 6968TIP3    H242320   2.234   6.427  11.777 -0.4096 -1.5316 -0.2299
 6969TIP3   OH242321   5.684   4.641  15.510  0.4652  0.0954 -0.1699
 6969TIP3    H142322   5.612   4.589  15.475  1.9860 -1.2464 -1.4659
 6969TIP3    H242323   5.763   4.594  15.483  1.9048  2.5019 -0.4346
 6970TIP3   OH242324   3.034   4.062   4.410 -0.8273  0.1838  0.0990
 6970TIP3    H142325   2.999   3.998   4.349  0.0507  0.0401 -0.2777
 6970TIP3    H242326   3.110   4.099   4.365 -0.8784  0.9502  0.6157
 6971TIP3   OH242327   0.316   3.964  12.454  0.1223 -0.5739  0.0967
 6971TIP3    H142328   0.383   3.918  12.504  1.2077 -0.0698 -0.8498
 6971TIP3    H242329   0.340   3.949  12.362  0.2438  1.4695 -0.2508
 6972TIP3   OH242330   0.380   6.309  14.607 -0.2509 -0.0990 -0.5953
 6972TIP3    H142331   0.331   6.288  14.687 -2.4452 -0.6704 -1.9965
 6972TIP3    H242332   0.472   6.300  14.632 -0.8007  0.9084  2.1507
 6973TIP3   OH242333   6.255   4.347   1.434  0.3636 -0.0430 -0.3137
 6973TIP3    H142334   6.281   4.427   1.479  2.4594 -1.3580  1.0496
 6973TIP3    H242335   6.173   4.322   1.477  0.1812  0.8774 -0.1006
 6974TIP3   OH242336   4.511   3.171  16.096 -0.6510 -0.1524  0.0584
 6974TIP3    H142337   4.456   3.145  16.170  0.1250 -0.0240  0.6860
 6974TIP3    H242338   4.532   3.089  16.051 -0.4439 -0.3192  0.4589
 6975TIP3   OH242339   0.630   2.393  15.567  0.3725  1.1062  0.0773
 6975TIP3    H142340   0.705   2.341  15.595 -1.0110 -0.7731  0.5341
 6975TIP3    H242341   0.554   2.345  15.601 -1.0128  3.6580  0.8241
 6976TIP3   OH242342   6.298   5.060  15.306  0.6302 -0.2628 -0.4153
 6976TIP3    H142343   6.218   5.110  15.323  0.3221 -0.2808 -1.7252
 6976TIP3    H242344   6.271   4.968  15.312  0.8595 -0.2795  0.4712
 6977TIP3   OH242345   6.018   1.096   3.076  0.2292  0.1648  0.6369
 6977TIP3    H142346   6.057   1.088   3.163  0.8513  0.4396  0.3950
 6977TIP3    H242347   6.063   1.171   3.037 -0.4443  0.3942  0.2825
 6978TIP3   OH242348   0.077   5.182  14.637 -0.4126  0.1334  0.5075
 6978TIP3    H142349   0.157   5.144  14.600  0.0734  1.1710  0.4436
 6978TIP3    H242350   0.021   5.200  14.562 -0.5259 -0.1987  0.5129
 6979TIP3   OH242351   1.912   0.877  14.936 -0.4284  0.1534 -0.1130
 6979TIP3    H142352   1.941   0.911  15.021  0.7837 -0.4029 -0.2889
 6979TIP3    H242353   1.989   0.884  14.880 -1.0327 -0.0970 -0.9950
 6980TIP3   OH242354   3.573   3.909  15.319  0.9897  0.6000  0.2691
 6980TIP3    H142355   3.598   3.920  15.227  3.9673 -1.2454  0.7183
 6980TIP3    H242356   3.527   3.825  15.322 -1.4258  1.8321  0.1807
 6981TIP3   OH242357   3.750   2.752  17.054  0.2114 -0.0010 -0.6408
 6981TIP3    H142358   3.679   2.751  17.118 -1.1365  1.2243 -2.0540
 6981TIP3    H242359   3.809   2.822  17.084 -0.3205  0.4458 -0.6267
 6982TIP3   OH242360   5.798   4.016   4.821 -0.0704 -0.2501 -0.0627
 6982TIP3    H142361   5.873   4.075   4.820 -1.6351  1.8735  0.4984
 6982TIP3    H242362   5.823   3.947   4.882  1.9542 -0.4128 -0.9763
 6983TIP3   OH242363   5.305   0.503  16.658 -0.0198 -0.1534  0.2441
 6983TIP3    H142364   5.303   0.541  16.747  0.8778  0.9374 -0.1700
 6983TIP3    H242365   5.390   0.458  16.653  0.2228  0.3469 -0.2660
 6984TIP3   OH242366   1.790   3.829   0.899 -0.2729  0.1173  0.5370
 6984TIP3    H142367   1.873   3.815   0.944  0.9839  1.3287 -1.2830
 6984TIP3    H242368   1.813   3.839   0.807 -2.4264  0.6406 -0.0149
 6985TIP3   OH242369   4.026   3.223   1.187  1.0685  0.2621  0.2559
 6985TIP3    H142370   4.096   3.220   1.122 -0.5722  2.6739 -1.8447
 6985TIP3    H242371   4.071   3.231   1.271  3.2689 -1.3943 -0.6482
 6986TIP3   OH242372   5.402   4.093   6.054 -0.2696 -0.2656  0.0875
 6986TIP3    H142373   5.457   4.138   6.118  2.7878  0.7783 -2.9652
 6986TIP3    H242374   5.414   4.000   6.073  0.3669  0.0168  1.1302
 6987TIP3   OH242375   4.785   2.963  12.884 -0.6412 -0.1777 -0.3226
 6987TIP3    H142376   4.834   3.044  12.872  1.2628 -1.0334  1.2056
 6987TIP3    H242377   4.799   2.914  12.803 -1.2835  0.7249 -0.9971
 6988TIP3   OH242378   6.471   2.442   3.465  0.0552  0.0053  0.7409
 6988TIP3    H142379   6.444   2.506   3.399 -1.6032 -1.1862  0.1948
 6988TIP3    H242380   6.393   2.428   3.518  1.0256  0.0332  2.2316
 6989TIP3   OH242381   0.017   0.799  12.225 -0.2936 -0.3819 -0.1382
 6989TIP3    H142382  -0.005   0.809  12.317  1.1024 -1.2580  0.3182
 6989TIP3    H242383  -0.061   0.761  12.185 -1.0040  0.2646  0.6140
 6990TIP3   OH242384   1.287   3.734  13.933  0.7613 -0.6183  0.1354
 6990TIP3    H142385   1.230   3.802  13.969  2.8277  0.6383  1.2580
 6990TIP3    H242386   1.362   3.733  13.992  1.0628 -3.5648 -0.1544
 6991TIP3   OH242387   1.531   3.470  12.528  0.2413 -0.3521  0.1354
 6991TIP3    H142388   1.502   3.540  12.586  0.3979 -0.7752  0.7328
 6991TIP3    H242389   1.456   3.452  12.472 -0.7005 -1.4452  1.6692
 6992TIP3   OH242390   4.447   5.846   1.772 -0.2716  0.4264  0.1595
 6992TIP3    H142391   4.412   5.847   1.861 -0.1985 -0.0341  0.1965
 6992TIP3    H242392   4.491   5.761   1.764  0.8530  0.9871  0.1234
 6993TIP3   OH242393   4.939   0.492  10.814  0.5208 -0.0561  0.0894
 6993TIP3    H142394   4.844   0.485  10.813  0.5065 -0.3098  1.6799
 6993TIP3    H242395   4.967   0.447  10.734 -0.6977  0.5058 -0.6934
 6994TIP3   OH242396   6.753   6.588   2.363 -0.4653 -0.2703  0.6727
 6994TIP3    H142397   6.701   6.518   2.324 -1.3302  0.1273  1.0822
 6994TIP3    H242398   6.844   6.565   2.342 -0.8691 -0.1317 -1.4700
 6995TIP3   OH242399   2.014   1.147  13.106  0.3728 -0.2917  0.1220
 6995TIP3    H142400   2.028   1.157  13.012 -1.8611  1.0478 -0.1331
 6995TIP3    H242401   2.030   1.234  13.142 -0.2595 -0.4354  0.7680
 6996TIP3   OH242402   3.647   0.713   5.492  0.1947  0.2594  0.6375
 6996TIP3    H142403   3.641   0.711   5.397 -0.0635  1.7855  0.6000
 6996TIP3    H242404   3.559   0.737   5.521  1.0736  3.3907  1.0527
 6997TIP3   OH242405   1.851   5.772   4.446 -0.4196 -0.3020 -0.8560
 6997TIP3    H142406   1.765   5.814   4.445 -0.9440 -1.0824  2.2988
 6997TIP3    H242407   1.896   5.811   4.521  0.4215 -2.7592  0.0056
 6998TIP3   OH242408   5.864   5.878  13.790 -0.1703  0.1003 -0.6307
 6998TIP3    H142409   5.920   5.946  13.826  1.7776 -0.8549 -1.7412
 6998TIP3    H242410   5.924   5.813  13.754 -1.9810 -0.4435 -2.9142
 6999TIP3   OH242411   4.466   5.702   4.886  0.2681 -0.3486 -0.3319
 6999TIP3    H142412   4.423   5.663   4.810  0.2005  0.1484 -0.5548
 6999TIP3    H242413   4.554   5.665   4.886 -0.1831 -1.4895  0.2076
 7000TIP3   OH242414   4.049   1.418  15.020  0.8392  0.0700 -0.3466
 7000TIP3    H142415   4.004   1.460  14.947 -1.1168  0.2594  0.9207
 7000TIP3    H242416   3.984   1.359  15.058  2.0937 -0.6773  0.7420
 7001TIP3   OH242417   3.967   1.670  16.627 -0.1166  0.3991 -0.3374
 7001TIP3    H142418   3.906   1.605  16.593  0.7407 -0.2344 -0.6921
 7001TIP3    H242419   3.911   1.742  16.657 -1.0873 -0.5610  0.2145
 7002TIP3   OH242420   5.432   6.511   2.245  0.4799 -0.0764  0.0489
 7002TIP3    H142421   5.342   6.514   2.279  0.2825  0.8237 -0.5188
 7002TIP3    H242422   5.483   6.562   2.308 -0.1742  3.0117 -1.7450
 7003TIP3   OH242423   4.836   1.578  12.416 -0.1681 -0.8558 -0.0476
 7003TIP3    H142424   4.752   1.624  12.422  1.1694  1.7860 -0.0307
 7003TIP3    H242425   4.869   1.600  12.328  1.6790  0.4693  0.9141
 7004TIP3   OH242426   3.730   4.866   3.533 -0.3092  0.1845 -0.4844
 7004TIP3    H142427   3.654   4.865   3.475  0.4910 -0.8136 -1.5692
 7004TIP3    H242428   3.768   4.953   3.521  0.2227 -0.2208 -2.0209
 7005TIP3   OH242429   0.108   0.227   1.827  0.8074 -0.1023 -0.3300
 7005TIP3    H142430   0.130   0.200   1.738  2.3318 -0.6455  0.1763
 7005TIP3    H242431   0.130   0.320   1.830 -0.0794  0.1362 -0.7468
 7006TIP3   OH242432   5.403   0.339  12.231  0.1923 -0.8652  0.2436
 7006TIP3    H142433   5.394   0.410  12.167  2.4158  1.0980  1.9068
 7006TIP3    H242434   5.475   0.286  12.197  0.0857 -0.9571  0.1607
 7007TIP3   OH242435   1.327   0.775  16.871  0.5392  0.4928  0.0892
 7007TIP3    H142436   1.283   0.779  16.786  1.0756  1.1431 -0.1636
 7007TIP3    H242437   1.366   0.862  16.882  0.9370  0.2354  0.7518
 7008TIP3   OH242438   4.276   1.705  15.006 -0.6453 -0.4636 -0.0602
 7008TIP3    H142439   4.202   1.678  15.061 -1.1078  1.0607  0.1242
 7008TIP3    H242440   4.242   1.778  14.955  0.6411  0.0502 -0.2154
 7009TIP3   OH242441   3.666   3.500  14.182 -0.0830  0.0820  0.2185
 7009TIP3    H142442   3.712   3.572  14.225  0.9610  0.3314 -1.2332
 7009TIP3    H242443   3.721   3.478  14.107  0.0685 -2.7866  1.0321
 7010TIP3   OH242444   6.375   6.697  15.797  0.3141 -0.0378 -0.3383
 7010TIP3    H142445   6.429   6.666  15.870  1.0413 -2.3396 -1.7257
 7010TIP3    H242446   6.425   6.673  15.719 -0.9995  1.2322 -1.6278
 7011TIP3   OH242447   0.999   1.859   2.284 -0.3158  0.4126 -0.2367
 7011TIP3    H142448   0.966   1.909   2.209 -0.6555 -0.4777 -0.6952
 7011TIP3    H242449   1.072   1.809   2.249  1.1119  1.8388  0.6134
 7012TIP3   OH242450   1.375   0.269   6.074 -0.2483  0.1068  0.2210
 7012TIP3    H142451   1.345   0.318   6.151 -0.4637  1.4265 -0.6584
 7012TIP3    H242452   1.413   0.189   6.110 -1.6234  0.0123  1.6038
 7013TIP3   OH242453   6.645   2.872   4.930 -0.0135  0.2295 -0.8605
 7013TIP3    H142454   6.739   2.890   4.929  0.0026  0.2551  0.2156
 7013TIP3    H242455   6.629   2.826   4.847  1.2453 -1.2630 -0.3159
 7014TIP3   OH242456   5.523   2.651   2.268  0.0553 -0.0636 -0.2020
 7014TIP3    H142457   5.579   2.727   2.257  0.3577 -0.2387  0.1114
 7014TIP3    H242458   5.566   2.599   2.335 -1.6033  0.8478  1.6577
 7015TIP3   OH242459   4.786   4.214  11.054 -0.1089 -0.3484  0.5019
 7015TIP3    H142460   4.795   4.128  11.096  0.5046 -0.5743 -0.0863
 7015TIP3    H242461   4.764   4.195  10.963  1.2384  0.0844  0.0685
 7016TIP3   OH242462   0.761   2.799   3.931 -0.5488 -0.0819  0.1172
 7016TIP3    H142463   0.839   2.743   3.922 -0.8880 -0.4726 -0.4106
 7016TIP3    H242464   0.765   2.830   4.021  1.3920  1.6376 -0.4775
 7017TIP3   OH242465   2.464   3.563  12.615 -0.0452 -0.0329 -0.1783
 7017TIP3    H142466   2.489   3.485  12.566  0.5741  1.2048 -1.9157
 7017TIP3    H242467   2.543   3.617  12.617 -1.0883  1.6103 -1.1588
 7018TIP3   OH242468   1.379   5.002  15.844  0.9131  0.4322  0.0120
 7018TIP3    H142469   1.452   5.029  15.900  1.9715 -2.4176  0.1771
 7018TIP3    H242470   1.413   5.006  15.755 -0.0495  2.7790 -0.3216
 7019TIP3   OH242471   4.255   5.969  11.556  0.1804 -0.5169  0.0852
 7019TIP3    H142472   4.281   6.036  11.619 -1.5342 -1.2475  1.6575
 7019TIP3    H242473   4.166   5.994  11.530 -0.2130 -1.7812  0.1587
 7020TIP3   OH242474   1.845   5.265   0.452  0.1386  0.3804  0.0645
 7020TIP3    H142475   1.878   5.205   0.518  0.4716  0.8538  0.3298
 7020TIP3    H242476   1.752   5.274   0.473  0.1497  0.1949  0.2017
 7021TIP3   OH242477   3.498   0.663  16.993 -0.0346  0.0930 -0.0453
 7021TIP3    H142478   3.411   0.623  16.988  0.6365 -1.6228  1.0966
 7021TIP3    H242479   3.501   0.701  17.081  0.3328  0.2045 -0.1078
 7022TIP3   OH242480   3.316   0.923   4.980 -0.3932 -0.2759  0.4114
 7022TIP3    H142481   3.290   0.963   5.064 -0.2206  1.2140 -0.2120
 7022TIP3    H242482   3.393   0.870   5.002 -1.0686 -0.8837  1.4037
 7023TIP3   OH242483   4.748   0.182   0.600  0.1017 -0.4266 -0.1108
 7023TIP3    H142484   4.791   0.266   0.617  0.2995 -0.5382 -0.0497
 7023TIP3    H242485   4.797   0.119   0.654  0.2036 -0.6432 -0.4530
 7024TIP3   OH242486   0.766   2.852  13.451  0.3881 -0.1332 -0.0939
 7024TIP3    H142487   0.803   2.903  13.378  1.0828  2.0646  1.6574
 7024TIP3    H242488   0.724   2.777  13.409  1.3842  0.6278 -2.6823
 7025TIP3   OH242489   6.090   6.360   2.085  0.1788  0.2461  0.2772
 7025TIP3    H142490   6.029   6.375   2.012  2.1018 -0.0448 -1.4985
 7025TIP3    H242491   6.065   6.274   2.119 -0.5257  0.2129 -0.2759
 7026TIP3   OH242492   3.279   5.586   2.494  0.4119  0.4195 -0.2538
 7026TIP3    H142493   3.302   5.565   2.585  1.0183 -1.0157 -0.7022
 7026TIP3    H242494   3.358   5.625   2.458  0.4125  0.3170 -0.3631
 7027TIP3   OH242495   1.257   3.192   3.637 -0.3104 -0.1675  0.0595
 7027TIP3    H142496   1.288   3.275   3.601 -1.2936  0.4054  0.4875
 7027TIP3    H242497   1.244   3.136   3.561  0.8524 -0.1152 -0.1958
 7028TIP3   OH242498   5.136   3.019  12.635 -0.3545  0.2244  0.0128
 7028TIP3    H142499   5.155   3.067  12.716  2.1569 -0.8336  0.1467
 7028TIP3    H242500   5.124   2.928  12.663  0.5049 -0.1491 -0.7732
 7029TIP3   OH242501   2.898   2.513  11.868  0.1546 -0.6794 -0.0043
 7029TIP3    H142502   2.845   2.582  11.828 -0.4092  0.3735  2.3499
 7029TIP3    H242503   2.987   2.528  11.836  0.0189  1.1026  0.3620
 7030TIP3   OH242504   5.222   1.936   0.225  0.0907  0.6771  0.3617
 7030TIP3    H142505   5.256   1.958   0.139  0.0702  1.6806  0.5936
 7030TIP3    H242506   5.140   1.889   0.207 -0.6266  2.0666 -0.1850
 7031TIP3   OH242507   2.471   4.028   5.127 -0.4034  0.3132 -0.1095
 7031TIP3    H142508   2.457   4.017   5.032  1.6255  0.1055 -0.4294
 7031TIP3    H242509   2.566   4.038   5.136 -0.5703  0.4201  1.9128
 7032TIP3   OH242510   1.962   6.219  13.576 -0.1017  1.2490  0.0460
 7032TIP3    H142511   1.889   6.166  13.545  0.4476  0.2380  0.4348
 7032TIP3    H242512   1.958   6.213  13.671 -0.2775  2.2566  0.1087
 7033TIP3   OH242513   1.092   1.620   4.514  0.1854  0.2272 -0.4519
 7033TIP3    H142514   1.067   1.639   4.605  1.5188 -2.7881  0.6961
 7033TIP3    H242515   1.144   1.696   4.487 -1.2075  1.7153  0.8542
 7034TIP3   OH242516   3.154   0.626  12.054  0.4308  0.1976 -0.2230
 7034TIP3    H142517   3.167   0.561  11.985 -2.3957  0.8523 -1.4923
 7034TIP3    H242518   3.124   0.574  12.130  0.2263 -0.1941 -0.5668
 7035TIP3   OH242519   0.860   0.410  13.767 -0.1039  0.4859  0.3155
 7035TIP3    H142520   0.945   0.455  13.760 -0.0524  0.2414 -0.8147
 7035TIP3    H242521   0.805   0.471  13.815  1.2023 -0.0935  2.7060
 7036TIP3   OH242522   5.304   5.546   4.204  0.4426  0.2344 -0.0089
 7036TIP3    H142523   5.376   5.507   4.254  1.6858 -0.8644 -2.4649
 7036TIP3    H242524   5.257   5.470   4.167 -1.3885  0.9637  0.7167
 7037TIP3   OH242525   6.802   1.609   0.788  0.4356  0.2583 -0.0057
 7037TIP3    H142526   6.751   1.611   0.869  2.4966  0.4478  1.3626
 7037TIP3    H242527   6.761   1.676   0.732 -1.1959 -0.0828  0.7351
 7038TIP3   OH242528   5.454   2.961  11.263 -0.0948 -0.1664 -0.0164
 7038TIP3    H142529   5.443   2.914  11.181  0.9416 -0.1943 -0.1524
 7038TIP3    H242530   5.399   3.039  11.254 -0.9588 -0.7981 -0.2254
 7039TIP3   OH242531   4.297   6.222   3.880  0.2102  0.2063 -0.2450
 7039TIP3    H142532   4.320   6.219   3.787  0.3835  0.9873 -0.2363
 7039TIP3    H242533   4.376   6.257   3.922  0.0696  0.0191  0.1754
 7040TIP3   OH242534   6.746   1.032  11.425 -0.2470 -0.1362  0.2547
 7040TIP3    H142535   6.786   1.111  11.389  0.1755 -1.3313 -2.1507
 7040TIP3    H242536   6.653   1.039  11.401 -0.2231 -0.3151  0.1033
 7041TIP3   OH242537   1.720   6.150   1.405  0.0462  0.2552  0.1557
 7041TIP3    H142538   1.738   6.164   1.498  3.7406  2.5821 -0.6619
 7041TIP3    H242539   1.752   6.062   1.387  0.9243  0.4155  0.8476
 7042TIP3   OH242540   5.792   0.390   1.528 -0.0452 -0.2225 -0.1294
 7042TIP3    H142541   5.769   0.333   1.602  0.1591  0.9205  0.8476
 7042TIP3    H242542   5.847   0.335   1.473  2.5054 -0.2158  2.1818
 7043TIP3   OH242543   5.304   3.862   4.153  0.3516  0.4294 -0.1604
 7043TIP3    H142544   5.398   3.856   4.164  0.0761 -1.7748  1.8251
 7043TIP3    H242545   5.269   3.871   4.242 -1.3336 -0.0116 -0.7304
 7044TIP3   OH242546   3.464   1.112  11.800 -0.1144 -0.4702 -0.5173
 7044TIP3    H142547   3.559   1.118  11.792  0.0178 -2.7253 -1.2206
 7044TIP3    H242548   3.432   1.115  11.710 -0.5134 -1.9018 -0.4403
 7045TIP3   OH242549   2.227   2.431  11.058  0.1879 -0.3604  0.2306
 7045TIP3    H142550   2.192   2.363  11.116  1.4886 -1.8697 -0.6532
 7045TIP3    H242551   2.276   2.489  11.116  0.3014 -1.0428  0.8396
 7046TIP3   OH242552   6.381   1.174   3.905 -0.0288  0.2745  0.5294
 7046TIP3    H142553   6.453   1.238   3.903 -0.0340  0.2965 -1.5630
 7046TIP3    H242554   6.425   1.089   3.900 -0.0332  0.0469  3.0779
 7047TIP3   OH242555   0.083   0.970   3.756 -0.5929 -0.8654  0.0176
 7047TIP3    H142556   0.060   0.931   3.671 -0.7193 -1.0907  0.1542
 7047TIP3    H242557   0.178   0.976   3.755 -0.5031 -2.1063  0.4011
 7048TIP3   OH242558   6.355   0.995   5.351 -0.2054 -0.2553 -0.1601
 7048TIP3    H142559   6.316   1.031   5.430  0.3246  1.4856 -0.6425
 7048TIP3    H242560   6.283   0.953   5.305 -0.3775 -1.9316  1.5607
 7049TIP3   OH242561   5.784   3.286  13.948  0.4692  0.4144 -0.3836
 7049TIP3    H142562   5.820   3.276  13.860  1.0203  0.3197 -0.1522
 7049TIP3    H242563   5.804   3.376  13.972  1.9140 -0.0473  0.3196
 7050TIP3   OH242564   1.165   1.880  15.888 -0.3525 -0.0968 -0.1303
 7050TIP3    H142565   1.196   1.803  15.839 -1.4657 -0.2246 -0.6713
 7050TIP3    H242566   1.229   1.948  15.867  1.1664 -1.0910  1.0814
 7051TIP3   OH242567   5.608   6.426  16.453 -0.0446 -0.3331 -0.3684
 7051TIP3    H142568   5.684   6.482  16.438 -1.5940  1.9139 -0.3541
 7051TIP3    H242569   5.602   6.420  16.549  1.1589 -2.1127 -0.3634
 7052TIP3   OH242570   5.788   0.118   1.327 -0.0082 -0.0089 -0.8032
 7052TIP3    H142571   5.867   0.172   1.326  0.6144 -0.8873 -0.8141
 7052TIP3    H242572   5.820   0.030   1.305 -0.3108 -1.2814  3.1241
 7053TIP3   OH242573   2.585   2.135  15.457  0.7460 -0.3894  0.1851
 7053TIP3    H142574   2.588   2.040  15.447  1.5836 -0.5040  1.3768
 7053TIP3    H242575   2.578   2.149  15.551  0.6276  0.7388  0.0204
 7054TIP3   OH242576   2.697   5.147  13.962 -0.1706  0.0664 -0.1389
 7054TIP3    H142577   2.683   5.223  13.905  0.2658 -0.1576 -0.5548
 7054TIP3    H242578   2.609   5.119  13.986 -0.3974  2.7450  2.8424
 7055TIP3   OH242579   4.024   5.249   3.028  0.0527 -0.0318  0.1274
 7055TIP3    H142580   3.955   5.199   2.983 -1.2854 -1.0839  3.0844
 7055TIP3    H242581   4.105   5.207   3.002 -0.5624 -0.2111 -1.6870
 7056TIP3   OH242582   1.464   0.664   3.150  0.5752  0.3871 -0.5972
 7056TIP3    H142583   1.422   0.733   3.098  0.5410  0.0739 -0.9790
 7056TIP3    H242584   1.556   0.669   3.128  0.4008 -0.5239 -1.5858
 7057TIP3   OH242585   3.217   4.502   3.872  0.5784  0.1393  0.2103
 7057TIP3    H142586   3.282   4.437   3.896  0.5956  0.1985  0.3275
 7057TIP3    H242587   3.233   4.520   3.780 -1.0893 -1.9365 -0.5663
 7058TIP3   OH242588   6.698   4.682  15.913  0.1354 -0.3148 -0.7490
 7058TIP3    H142589   6.688   4.601  15.964 -2.9439  0.1829 -0.3613
 7058TIP3    H242590   6.685   4.654  15.823 -1.0013 -0.2793 -0.6092
 7059TIP3   OH242591   0.440   4.790   2.060 -0.0641 -0.1268  0.1432
 7059TIP3    H142592   0.521   4.794   2.112  0.5309  1.1732 -0.8090
 7059TIP3    H242593   0.445   4.706   2.015  0.2906 -0.4817  0.8257
 7060TIP3   OH242594   6.233   5.023   5.973  0.1360 -0.4356 -1.0556
 7060TIP3    H142595   6.323   5.045   5.949 -0.1764  0.8189 -1.1837
 7060TIP3    H242596   6.229   5.040   6.067 -0.2742  0.7772 -1.2631
 7061TIP3   OH242597   5.368   3.128  13.711 -0.2223  0.0981  0.5750
 7061TIP3    H142598   5.397   3.219  13.703  0.1807  0.2517  3.0591
 7061TIP3    H242599   5.296   3.120  13.649  0.6279  1.6853 -0.7119
 7062TIP3   OH242600   0.390   4.422   2.330 -0.2776 -0.1192 -0.1423
 7062TIP3    H142601   0.328   4.488   2.299 -0.3353  1.7354  3.4082
 7062TIP3    H242602   0.339   4.366   2.389  0.6692 -0.8056  0.0481
 7063TIP3   OH242603   5.230   5.562  16.249  0.4564  0.4287 -0.0971
 7063TIP3    H142604   5.240   5.644  16.201 -0.9436 -0.4764 -2.0581
 7063TIP3    H242605   5.295   5.503  16.211  1.5900  0.6334  1.4355
 7064TIP3   OH242606   0.814   1.731  14.972 -0.2246  0.0269  0.3741
 7064TIP3    H142607   0.724   1.705  14.991 -0.7292  0.7730 -0.8450
 7064TIP3    H242608   0.846   1.665  14.911  0.7490 -1.3168  2.2455
 7065TIP3   OH242609   5.599   3.481   2.121 -0.0933  0.3800 -0.6763
 7065TIP3    H142610   5.536   3.410   2.109  0.4385  0.0706 -1.7498
 7065TIP3    H242611   5.554   3.559   2.090 -0.3025  0.3363 -0.4895
 7066TIP3   OH242612   0.332   6.224  12.463 -0.2448 -0.5899 -0.1483
 7066TIP3    H142613   0.336   6.174  12.381  1.7876 -0.2637 -0.3076
 7066TIP3    H242614   0.343   6.315  12.435  1.5920 -0.5706  0.5268
 7067TIP3   OH242615   1.394   1.968  11.669 -0.3851 -0.4727  0.3651
 7067TIP3    H142616   1.378   1.886  11.715 -0.4570 -0.1837  0.8574
 7067TIP3    H242617   1.488   1.967  11.650 -0.3990 -0.7009  0.3095
 7068TIP3   OH242618   4.971   2.521  11.675  0.2040  0.5348 -0.1588
 7068TIP3    H142619   4.985   2.513  11.580  1.0566  1.3143 -0.1165
 7068TIP3    H242620   4.946   2.433  11.703  0.2734  0.2189 -1.0577
 7069TIP3   OH242621   4.395   3.787  10.266 -0.0994  0.2525  0.1202
 7069TIP3    H142622   4.329   3.852  10.290  0.0686  0.8847 -1.1022
 7069TIP3    H242623   4.347   3.704  10.267 -0.3991  0.4183  1.3134
 7070TIP3   OH242624   3.362   4.380   4.595 -0.0232 -0.1302  0.3654
 7070TIP3    H142625   3.368   4.399   4.689 -0.9570 -2.1317  0.8793
 7070TIP3    H242626   3.299   4.444   4.562  0.5293  0.7838  1.0281
 7071TIP3   OH242627   1.110   5.045  15.053 -0.6862 -0.3683 -0.6580
 7071TIP3    H142628   1.188   5.061  15.000 -0.3993  0.5946  0.0213
 7071TIP3    H242629   1.141   4.992  15.126 -0.0784  2.0242  0.9471
 7072TIP3   OH242630   2.419   3.590   1.611 -0.4466 -0.5091 -0.2456
 7072TIP3    H142631   2.436   3.499   1.588 -2.4234 -0.8001 -0.7430
 7072TIP3    H242632   2.387   3.587   1.701  1.2216 -0.0591  0.4051
 7073TIP3   OH242633   4.010   4.092  10.511 -0.0995  0.7962 -0.0919
 7073TIP3    H142634   4.020   4.097  10.416  0.9920  1.2546  0.0354
 7073TIP3    H242635   4.062   4.165  10.544  0.3556  0.0288  0.9110
 7074TIP3   OH242636   5.297   0.004   2.356  0.5650 -0.6947 -0.2751
 7074TIP3    H142637   5.318  -0.053   2.430  0.2097 -0.1580  0.2569
 7074TIP3    H242638   5.201  -0.002   2.348  0.5756 -0.5414 -0.5146
 7075TIP3   OH242639   6.624   6.298  14.809 -0.0561  0.5809 -0.5462
 7075TIP3    H142640   6.598   6.211  14.840  1.2477  0.8207  1.4200
 7075TIP3    H242641   6.692   6.280  14.744  2.1188  0.0619  1.7106
 7076TIP3   OH242642   5.023   0.091   2.128 -0.6416 -0.2795 -0.5505
 7076TIP3    H142643   5.013   0.028   2.199  1.5974  0.0164  0.1052
 7076TIP3    H242644   5.046   0.038   2.052 -0.1436 -0.3646 -0.3405
 7077TIP3   OH242645   4.062   5.756   3.244 -0.6405  0.0089 -0.3981
 7077TIP3    H142646   4.111   5.719   3.170  0.7666 -0.0206  0.5040
 7077TIP3    H242647   4.034   5.680   3.294  0.7070  0.0613  0.4932
 7078TIP3   OH242648   1.030   4.769  13.622 -0.0724  0.0281  0.1122
 7078TIP3    H142649   0.964   4.838  13.623  1.3341  1.4566  0.0149
 7078TIP3    H242650   1.036   4.742  13.530  2.1748  2.7518 -0.6961
 7079TIP3   OH242651   5.715   0.661  17.218  0.5707 -0.0457  0.0793
 7079TIP3    H142652   5.632   0.620  17.192  0.1959  2.1717 -2.6617
 7079TIP3    H242653   5.705   0.675  17.312 -0.8664 -2.5461  0.3960
 7080TIP3   OH242654   3.573   5.394   0.755  0.0843 -0.2297 -0.4219
 7080TIP3    H142655   3.485   5.366   0.781  0.9084 -3.0498 -0.3008
 7080TIP3    H242656   3.624   5.390   0.836  0.3754  1.3400 -0.4985
 7081TIP3   OH242657   1.490   2.490  12.572  0.6709 -0.2559 -0.4492
 7081TIP3    H142658   1.551   2.499  12.645  0.0951  0.3821 -0.0400
 7081TIP3    H242659   1.415   2.444  12.609 -0.1742  1.1891 -0.2862
 7082TIP3   OH242660   4.342   5.900  16.488  0.3343 -0.0954 -0.1954
 7082TIP3    H142661   4.334   5.964  16.559  0.3546  0.8273 -1.0004
 7082TIP3    H242662   4.427   5.918  16.448 -0.1416  0.1591 -1.1481
 7083TIP3   OH242663   0.826   0.596   1.203  0.2295 -0.2205  0.7828
 7083TIP3    H142664   0.812   0.505   1.230 -1.1719 -0.2226  0.1746
 7083TIP3    H242665   0.844   0.590   1.109 -1.2672  0.1903  0.4388
 7084TIP3   OH242666   6.738   2.531   3.632  0.2116 -0.4763 -0.2307
 7084TIP3    H142667   6.681   2.496   3.563 -1.3967  1.2082  0.1836
 7084TIP3    H242668   6.789   2.599   3.588  0.6262 -0.7518 -0.1837
 7085TIP3   OH242669   0.669   2.209   3.719  0.3652  0.0932 -0.1732
 7085TIP3    H142670   0.709   2.282   3.673  0.6512 -1.2338 -2.1745
 7085TIP3    H242671   0.732   2.186   3.787  1.1802  0.4787 -0.7825
 7086TIP3   OH242672   4.336   2.554   1.150 -0.1821  0.2762  0.0906
 7086TIP3    H142673   4.286   2.603   1.216 -0.7934  1.6954 -1.3550
 7086TIP3    H242674   4.401   2.617   1.118 -0.6188 -0.0189 -1.4308
 7087TIP3   OH242675   4.661   0.418  13.618 -0.1850 -0.6611  0.1415
 7087TIP3    H142676   4.747   0.405  13.578 -0.9124 -2.7287 -0.8608
 7087TIP3    H242677   4.679   0.464  13.700  1.6243  1.0942 -1.1499
 7088TIP3   OH242678   6.440   3.973  13.996  0.1901 -0.6612 -0.4393
 7088TIP3    H142679   6.502   3.992  14.067  1.7054  0.4798 -1.9632
 7088TIP3    H242680   6.408   3.885  14.014  0.9941 -0.6252  1.3271
 7089TIP3   OH242681   6.682   4.708   1.391  0.2852 -0.4531  0.2250
 7089TIP3    H142682   6.692   4.719   1.485 -0.2825  0.1003  0.2286
 7089TIP3    H242683   6.722   4.623   1.372  2.6087  0.5047  0.5918
 7090TIP3   OH242684   6.144   5.055  16.892  0.2545 -0.1383  0.0751
 7090TIP3    H142685   6.176   4.964  16.895  0.2830 -0.1300  0.0108
 7090TIP3    H242686   6.205   5.100  16.834  0.1587 -0.1095 -0.0040
 7091TIP3   OH242687   2.287   0.637  17.094  0.4468  0.0726  0.4136
 7091TIP3    H142688   2.340   0.629  17.014  0.3889 -0.2732  0.4038
 7091TIP3    H242689   2.347   0.615  17.165  1.0135  2.2048  0.6604
 7092TIP3   OH242690   5.964   6.741   1.831 -0.4473 -0.2883 -0.5709
 7092TIP3    H142691   5.968   6.833   1.856 -0.3575 -0.4639  0.0996
 7092TIP3    H242692   5.919   6.740   1.747  0.4512  0.4545 -1.0844
 7093TIP3   OH242693   3.576   3.774  13.956 -0.1434 -0.4727 -0.4159
 7093TIP3    H142694   3.622   3.821  13.886  0.4289 -2.3486 -1.3678
 7093TIP3    H242695   3.643   3.758  14.022 -0.6508  1.1715  0.5415
 7094TIP3   OH242696   2.101   4.321  15.561 -0.1324  0.0795  0.3015
 7094TIP3    H142697   2.058   4.278  15.487  1.2042  0.7187 -0.8714
 7094TIP3    H242698   2.159   4.255  15.597  0.9680  0.4690 -0.7082
 7095TIP3   OH242699   4.420   4.543  12.526  0.3738 -0.0087  0.3057
 7095TIP3    H142700   4.495   4.559  12.469  0.6785  0.6674  0.8802
 7095TIP3    H242701   4.424   4.449  12.544  0.2094 -0.2502 -0.8544
 7096TIP3   OH242702   0.415   0.049  13.520  0.0293 -0.2664  0.2033
 7096TIP3    H142703   0.414   0.141  13.544  0.0472 -0.5484  1.3610
 7096TIP3    H242704   0.372   0.045  13.434 -0.2374  0.7712  0.2815
 7097TIP3   OH242705   0.969   3.436  13.750 -0.1330 -0.5838 -0.1446
 7097TIP3    H142706   0.981   3.456  13.657  1.2619  0.8992  0.2977
 7097TIP3    H242707   1.058   3.436  13.786 -0.4418 -3.3298  0.8123
 7098TIP3   OH242708   1.619   0.916  11.622  0.1706  0.1181  0.3427
 7098TIP3    H142709   1.636   0.826  11.593  0.7283  0.1271  0.6221
 7098TIP3    H242710   1.688   0.968  11.580 -0.0853  0.4000  0.2689
 7099TIP3   OH242711   3.265   2.820  11.798  0.2550 -0.3234  0.0372
 7099TIP3    H142712   3.313   2.782  11.872 -0.2632 -2.6864 -0.7393
 7099TIP3    H242713   3.209   2.749  11.767 -2.0721  1.6109 -0.5297
 7100TIP3   OH242714   4.160   3.335   0.396  0.3412 -0.0545  0.3366
 7100TIP3    H142715   4.200   3.392   0.331  0.9744  0.8709  1.4982
 7100TIP3    H242716   4.070   3.367   0.405  0.4189  0.1660  0.3133
 7101TIP3   OH242717   4.079   3.669  17.053 -0.0438 -0.9394  0.5555
 7101TIP3    H142718   4.072   3.745  17.110 -2.5373 -1.2444  0.7573
 7101TIP3    H242719   3.994   3.662  17.012  0.5277 -2.9113 -0.4056
 7102TIP3   OH242720   3.399   6.729   2.852 -0.0819 -0.6024 -0.2182
 7102TIP3    H142721   3.449   6.788   2.796 -1.4690 -0.7643 -1.6887
 7102TIP3    H242722   3.385   6.780   2.932  1.9772 -0.3916  0.0627
 7103TIP3   OH242723   4.622   2.754   3.068  0.1874 -0.1578 -0.0543
 7103TIP3    H142724   4.633   2.849   3.070 -0.9006  0.0263 -1.4065
 7103TIP3    H242725   4.619   2.732   2.975  2.1600 -1.7584  0.2012
 7104TIP3   OH242726   5.676   2.392   6.575  0.2935  0.3816  0.6260
 7104TIP3    H142727   5.594   2.397   6.625  0.4186  0.1591  0.8530
 7104TIP3    H242728   5.670   2.310   6.527  0.7069 -0.0085  1.2193
 7105TIP3   OH242729   6.724   0.084  10.887 -0.6090  0.0684  0.3548
 7105TIP3    H142730   6.664   0.108  10.817 -1.7051  0.7375  1.4786
 7105TIP3    H242731   6.811   0.097  10.849 -1.1561  2.3477 -0.3027
 7106TIP3   OH242732   5.786   5.690  14.942 -0.2070  0.2303  0.4462
 7106TIP3    H142733   5.710   5.639  14.914 -1.1191  1.0460  1.3064
 7106TIP3    H242734   5.805   5.657  15.030  0.1001  0.3854  0.4364
 7107TIP3   OH242735   6.526   3.011  13.728 -0.6007 -0.1271  0.1869
 7107TIP3    H142736   6.534   3.085  13.788 -0.4639 -0.0986  0.1330
 7107TIP3    H242737   6.572   2.939  13.771 -0.4508 -0.0903  0.0897
 7108TIP3   OH242738   3.845   1.529  14.353  0.4532  0.0186  0.1591
 7108TIP3    H142739   3.770   1.477  14.380 -1.2336  2.2593 -0.0010
 7108TIP3    H242740   3.841   1.530  14.257  0.4244  0.5079  0.1633
 7109TIP3   OH242741   6.205   3.570  12.756  0.2857  0.1424  0.0276
 7109TIP3    H142742   6.131   3.518  12.790  0.4303 -0.9122 -1.1948
 7109TIP3    H242743   6.272   3.563  12.823 -0.3611  0.2643  0.6971
 7110TIP3   OH242744   2.332   1.920  11.286  0.1418 -0.3678 -0.3831
 7110TIP3    H142745   2.344   1.919  11.192  0.4712 -0.5640 -0.3402
 7110TIP3    H242746   2.348   1.829  11.313  0.4887 -0.2205 -0.0853
 7111TIP3   OH242747   3.214   0.262   1.567  0.2311  0.0635  0.9786
 7111TIP3    H142748   3.154   0.195   1.535 -1.1570  1.5612  0.3751
 7111TIP3    H242749   3.187   0.276   1.658 -2.2668  2.6532 -0.0130
 7112TIP3   OH242750   0.849   0.825  15.584 -0.1204  0.2090 -0.3393
 7112TIP3    H142751   0.805   0.771  15.650  1.1709 -1.1659 -0.5563
 7112TIP3    H242752   0.942   0.816  15.605  0.3941 -0.9875 -2.8781
 7113TIP3   OH242753   4.405   2.812   0.098  0.1676  0.3828 -0.2571
 7113TIP3    H142754   4.466   2.794   0.170  0.4310  1.3691 -0.2203
 7113TIP3    H242755   4.384   2.725   0.062  0.0082 -0.1366  1.0153
 7114TIP3   OH242756   1.683   1.519  15.621  0.3371 -0.3907  0.2232
 7114TIP3    H142757   1.738   1.534  15.698 -0.8963 -1.2821  1.3206
 7114TIP3    H242758   1.740   1.475  15.558  0.5943 -2.4308  1.7993
 7115TIP3   OH242759   5.944   3.678   3.713 -0.1440 -0.2033  0.2198
 7115TIP3    H142760   5.927   3.716   3.799  0.4019 -0.6597  0.5359
 7115TIP3    H242761   5.857   3.664   3.675 -0.4454 -1.0669  1.1740
 7116TIP3   OH242762   2.816   3.398  16.190 -0.5613  0.2591 -0.3158
 7116TIP3    H142763   2.801   3.438  16.275 -0.1248 -1.7184  0.7606
 7116TIP3    H242764   2.735   3.349  16.172  0.1603 -1.1461  0.0797
 7117TIP3   OH242765   5.112   2.938  14.840 -0.3179  0.4274 -0.0077
 7117TIP3    H142766   5.139   2.981  14.758  3.2039  0.1201  0.8094
 7117TIP3    H242767   5.193   2.901  14.874 -1.7464  0.1686  3.4459
 7118TIP3   OH242768   6.313   5.685   4.953  0.1670  0.0352 -0.2474
 7118TIP3    H142769   6.310   5.615   4.887 -1.0524 -0.9688  0.8130
 7118TIP3    H242770   6.257   5.653   5.024  1.5688  1.0019  1.3673
 7119TIP3   OH242771   6.556   3.748  14.741 -0.5337  0.4203  0.3350
 7119TIP3    H142772   6.584   3.821  14.685 -1.1912  0.4859  0.0740
 7119TIP3    H242773   6.556   3.672  14.683 -0.9543  0.4366  0.3116
 7120TIP3   OH242774   0.984   0.171  13.445  0.4287 -0.0562 -0.3379
 7120TIP3    H142775   0.996   0.090  13.495  2.1221  0.5594  0.3245
 7120TIP3    H242776   0.911   0.216  13.488  0.6106 -0.4357  0.3699
 7121TIP3   OH242777   6.423   3.008  12.468  0.1059 -0.3416  0.1412
 7121TIP3    H142778   6.499   2.959  12.500 -1.1158 -1.2505  1.7518
 7121TIP3    H242779   6.419   3.086  12.524 -1.6460 -1.6117  1.9297
 7122TIP3   OH242780   0.577   1.247   5.954  0.1417 -0.3551  0.6996
 7122TIP3    H142781   0.591   1.342   5.951 -0.1337 -0.2752  1.5571
 7122TIP3    H242782   0.660   1.211   5.984  0.7186 -0.5322 -1.0263
 7123TIP3   OH242783   3.543   6.378  12.130 -0.5415  0.2230  0.3819
 7123TIP3    H142784   3.470   6.333  12.172 -1.1430  1.0155  0.2182
 7123TIP3    H242785   3.535   6.356  12.037  0.1444 -0.6510  0.5186
 7124TIP3   OH242786   3.192   5.141  12.133 -0.0109  0.2911  0.2829
 7124TIP3    H142787   3.277   5.120  12.172  0.7697  0.1565 -1.4122
 7124TIP3    H242788   3.207   5.136  12.038 -1.3228  2.5071 -0.1136
 7125TIP3   OH242789   3.319   5.402   3.181  0.2552  0.9019  0.7771
 7125TIP3    H142790   3.380   5.440   3.245  0.3479 -0.9862  1.8846
 7125TIP3    H242791   3.338   5.449   3.100  4.4240 -0.5837  0.6146
 7126TIP3   OH242792   0.336   6.610   5.521  0.1845 -0.7407  0.3944
 7126TIP3    H142793   0.420   6.591   5.563 -0.8599  0.2109  3.1248
 7126TIP3    H242794   0.271   6.599   5.590 -1.8480 -0.2802 -1.3234
 7127TIP3   OH242795   5.816   3.806   0.205  0.4449  0.5409  0.3992
 7127TIP3    H142796   5.846   3.726   0.161  1.4586  1.8084 -1.3218
 7127TIP3    H242797   5.849   3.798   0.295  1.5105 -0.4551 -0.0605
 7128TIP3   OH242798   4.098   4.182  13.304 -0.2004  0.3119  0.1693
 7128TIP3    H142799   4.009   4.151  13.287 -0.2515  0.1026  0.7774
 7128TIP3    H242800   4.092   4.226  13.389 -0.0811  1.8190 -0.5885
 7129TIP3   OH242801   2.279   2.285   5.134  0.0397  0.2531  0.6408
 7129TIP3    H142802   2.330   2.361   5.160  0.2108  0.7357 -1.0278
 7129TIP3    H242803   2.203   2.321   5.088 -0.9575 -0.5247  1.5886
 7130TIP3   OH242804   3.426   0.991   3.641  0.2845 -1.0478 -0.2287
 7130TIP3    H142805   3.397   0.909   3.680 -1.0502  0.4361  2.1367
 7130TIP3    H242806   3.362   1.008   3.571 -1.6032 -0.3994  1.5473
 7131TIP3   OH242807   2.659   1.826  16.595 -0.4827 -0.1503  0.3081
 7131TIP3    H142808   2.646   1.838  16.501 -1.7055 -0.5293  0.4022
 7131TIP3    H242809   2.584   1.871  16.635 -0.6433 -1.0299  1.0386
 7132TIP3   OH242810   5.427   5.767   1.825  0.0058 -0.2202 -0.0466
 7132TIP3    H142811   5.389   5.753   1.738 -2.4911 -4.8674  1.4481
 7132TIP3    H242812   5.352   5.772   1.884  1.6550 -0.4206  2.1994
 7133TIP3   OH242813   1.108   2.368  13.785  0.0312 -0.2884 -0.3932
 7133TIP3    H142814   1.117   2.436  13.852  0.7018  0.5998 -1.3598
 7133TIP3    H242815   1.192   2.366  13.740 -0.8046  0.0323 -2.0544
 7134TIP3   OH242816   6.779   4.446   6.200  0.7928 -0.0308  0.1590
 7134TIP3    H142817   6.684   4.449   6.190  0.6353  1.8674  1.6820
 7134TIP3    H242818   6.793   4.426   6.292  1.8880 -0.6827 -0.1318
 7135TIP3   OH242819   6.001   6.792   0.982 -0.0807 -0.6785 -0.1778
 7135TIP3    H142820   5.987   6.886   0.989  0.4463 -0.5950 -0.2475
 7135TIP3    H242821   5.919   6.759   0.944 -0.0125 -0.1645 -0.7929
 7136TIP3   OH242822   2.915   2.747  16.481 -0.3074  0.4679  0.2412
 7136TIP3    H142823   2.965   2.667  16.497 -1.6866 -0.1572  1.6112
 7136TIP3    H242824   2.966   2.794  16.415  0.5740 -1.4938 -0.5417
 7137TIP3   OH242825   6.378   5.566   1.846 -0.0631  0.4280 -0.1111
 7137TIP3    H142826   6.363   5.507   1.920 -0.0102  0.4395 -0.0907
 7137TIP3    H242827   6.394   5.507   1.772 -1.4823  0.4039 -0.4144
 7138TIP3   OH242828   2.951   4.826  12.085 -0.2701 -0.4012 -0.1953
 7138TIP3    H142829   2.931   4.847  12.176 -3.9179 -1.0602 -0.6773
 7138TIP3    H242830   2.961   4.911  12.042 -1.8118  0.0551  0.2692
 7139TIP3   OH242831   1.905   4.905   1.376 -0.7557 -0.5011 -0.1654
 7139TIP3    H142832   1.830   4.887   1.433 -0.8268  0.0256 -0.0895
 7139TIP3    H242833   1.920   4.999   1.384  1.2468 -0.8894  1.4834
 7140TIP3   OH242834   0.830   6.385  12.071  0.0329 -0.1001 -0.5893
 7140TIP3    H142835   0.826   6.478  12.051 -0.8257 -0.0305 -0.1465
 7140TIP3    H242836   0.918   6.358  12.045  1.5199  1.5059  2.3013
 7141TIP3   OH242837   3.322   3.033  12.293 -0.2973 -0.1877  0.2083
 7141TIP3    H142838   3.352   3.031  12.202 -1.5096  3.1641 -0.3988
 7141TIP3    H242839   3.285   3.120  12.304  0.4586 -0.2012  4.1823
 7142TIP3   OH242840   2.936   4.737  16.145 -0.4688 -0.5248  0.9655
 7142TIP3    H142841   2.978   4.753  16.230  0.2605  0.5690  0.4276
 7142TIP3    H242842   2.952   4.644  16.127 -0.3682 -0.6935  1.8856
 7143TIP3   OH242843   4.131   1.440   1.621 -0.5234  0.0911  0.0699
 7143TIP3    H142844   4.106   1.496   1.694 -0.6946  1.4910 -1.0279
 7143TIP3    H242845   4.049   1.419   1.577 -0.3224  0.0764 -0.3017
 7144TIP3   OH242846   6.423   3.737  12.601 -0.5216  0.2767  0.6214
 7144TIP3    H142847   6.462   3.705  12.682 -1.4367  1.0284  1.3871
 7144TIP3    H242848   6.329   3.743  12.620 -0.4289  3.4295  0.6012
 7145TIP3   OH242849   5.564   6.244   5.544 -0.0055 -0.3681  0.0717
 7145TIP3    H142850   5.630   6.194   5.592 -0.0216 -0.8892 -0.4431
 7145TIP3    H242851   5.549   6.194   5.464 -0.2176  0.3226 -0.3292
 7146TIP3   OH242852   4.241   0.787   2.463  0.3482 -0.1278 -0.2841
 7146TIP3    H142853   4.227   0.759   2.372 -0.1026  0.7508 -0.4880
 7146TIP3    H242854   4.309   0.854   2.457  0.6387 -0.3877  0.0844
 7147TIP3   OH242855   4.338   6.182  11.755  0.2838  0.4456  0.0980
 7147TIP3    H142856   4.321   6.163  11.847 -0.7207  2.2160  0.3278
 7147TIP3    H242857   4.296   6.267  11.740  2.1029  1.1324 -1.4942
 7148TIP3   OH242858   3.840   4.561  13.080  0.0977  0.1180  0.0525
 7148TIP3    H142859   3.861   4.607  12.998 -0.3117 -1.0369 -0.7230
 7148TIP3    H242860   3.900   4.486  13.081 -1.7521 -1.4320 -0.5957
 7149TIP3   OH242861   5.852   1.503   4.230  0.2902 -0.0219 -0.4145
 7149TIP3    H142862   5.885   1.453   4.155  1.5842 -0.8222  0.6533
 7149TIP3    H242863   5.759   1.514   4.211  0.6375  0.0793 -2.2923
 7150TIP3   OH242864   1.030   3.673   3.832 -0.3475 -0.0276 -0.1724
 7150TIP3    H142865   1.023   3.651   3.739  0.2216  1.0679 -0.4973
 7150TIP3    H242866   1.010   3.766   3.836  3.1830  0.8522  0.2354
 7151TIP3   OH242867   3.873   3.054   3.171  0.1026  0.3479  0.6134
 7151TIP3    H142868   3.798   3.037   3.228 -1.8396  1.7924 -1.3333
 7151TIP3    H242869   3.913   3.133   3.207 -0.9950  1.1362  0.1985
 7152TIP3   OH242870   2.296   6.109  12.403  0.3916  0.6619  1.1436
 7152TIP3    H142871   2.382   6.069  12.407 -1.2699 -3.7176 -0.4277
 7152TIP3    H242872   2.280   6.124  12.309 -1.3390 -0.8453  1.1335
 7153TIP3   OH242873   1.300   5.685  15.609 -0.1222 -0.0596 -0.2206
 7153TIP3    H142874   1.341   5.757  15.658  0.3926  0.4886 -1.4252
 7153TIP3    H242875   1.369   5.619  15.603  0.6384  0.8452 -2.2112
 7154TIP3   OH242876   0.108   5.379   3.049  0.3217 -0.3985  0.3018
 7154TIP3    H142877   0.161   5.312   3.007 -1.3631 -0.7870 -1.3606
 7154TIP3    H242878   0.067   5.426   2.976 -1.0062  0.3681  1.4823
 7155TIP3   OH242879   0.433   3.356   4.221  0.0978 -0.0079 -0.6573
 7155TIP3    H142880   0.474   3.400   4.146  0.3806 -0.2799 -0.6644
 7155TIP3    H242881   0.357   3.410   4.242  0.5451  0.5884 -0.5483
 7156TIP3   OH242882   4.237   3.359   2.812 -0.0595  0.4605  0.2889
 7156TIP3    H142883   4.177   3.409   2.756  1.7457  1.3055 -0.9883
 7156TIP3    H242884   4.182   3.292   2.852 -1.5843  0.2447 -1.9794
 7157TIP3   OH242885   5.505   5.892  11.509 -0.0198 -0.1468 -0.5081
 7157TIP3    H142886   5.432   5.857  11.559  2.2452 -1.6686  2.0354
 7157TIP3    H242887   5.493   5.858  11.420 -2.3185 -0.3269 -0.1826
 7158TIP3   OH242888   1.300   1.577   4.217  0.0872  0.4017  0.3433
 7158TIP3    H142889   1.215   1.620   4.213  0.0073  0.1379 -1.3985
 7158TIP3    H242890   1.279   1.484   4.206  0.5865  0.3088  0.1932
 7159TIP3   OH242891   3.348   4.734   1.910 -0.1631  0.4752  0.6906
 7159TIP3    H142892   3.329   4.826   1.897  0.3382  0.4252 -0.5294
 7159TIP3    H242893   3.444   4.730   1.914 -0.1916  0.0435  1.0345
 7160TIP3   OH242894   5.706   0.032   4.920  0.2562 -0.6158 -0.1121
 7160TIP3    H142895   5.632  -0.004   4.969  0.7417  0.1754  1.2350
 7160TIP3    H242896   5.775   0.043   4.984  0.7136  1.0276 -0.8455
 7161TIP3   OH242897   3.932   1.357   4.640 -0.5180 -0.2071  0.1402
 7161TIP3    H142898   4.026   1.339   4.645  0.0536  2.2617 -0.3146
 7161TIP3    H242899   3.908   1.331   4.551 -0.0429 -0.0397 -0.0436
 7162TIP3   OH242900   4.034   0.050  11.636  0.0750  1.0142 -0.1598
 7162TIP3    H142901   4.063   0.133  11.597  0.0106  1.2380  0.2644
 7162TIP3    H242902   3.944   0.039  11.603 -0.9167  2.4608  1.8474
 7163TIP3   OH242903   3.683   0.702   5.207  0.3034 -0.2028  1.3264
 7163TIP3    H142904   3.707   0.794   5.206  1.3151 -0.4602  0.9018
 7163TIP3    H242905   3.604   0.696   5.153 -0.5336  0.5954  2.4093
 7164TIP3   OH242906   4.629   2.066   0.772  0.3532 -0.0097  0.0633
 7164TIP3    H142907   4.639   2.083   0.866  0.7191 -0.2303  0.0666
 7164TIP3    H242908   4.589   1.979   0.769  0.7571 -0.1967  0.0106
 7165TIP3   OH242909   6.499   5.172   2.150 -0.1524 -0.0228  0.7940
 7165TIP3    H142910   6.528   5.104   2.210 -0.0710 -1.6859 -1.0476
 7165TIP3    H242911   6.415   5.141   2.116 -0.6516  1.3335  0.6885
 7166TIP3   OH242912   4.893   0.105  11.248 -1.0798  0.1337  0.1782
 7166TIP3    H142913   4.891   0.127  11.155  0.5316 -0.2849  0.0033
 7166TIP3    H242914   4.954   0.031  11.253 -0.4325  0.7381  1.6752
 7167TIP3   OH242915   4.500   1.151   5.375 -0.1864  0.4380 -0.5406
 7167TIP3    H142916   4.420   1.111   5.406  1.4615 -2.3555  0.4349
 7167TIP3    H242917   4.502   1.132   5.281 -0.2491 -0.3080 -0.3946
 7168TIP3   OH242918   5.215   5.842   6.094  0.2399  0.2358 -0.2274
 7168TIP3    H142919   5.209   5.934   6.121  0.4583 -0.6626  3.3687
 7168TIP3    H242920   5.307   5.831   6.070  0.3302  0.8611 -0.1916
 7169TIP3   OH242921   1.676   4.299   3.967 -0.3414 -0.2257  0.3355
 7169TIP3    H142922   1.669   4.354   3.890 -0.1393 -2.1613 -1.1597
 7169TIP3    H242923   1.591   4.305   4.010  0.0293  2.0413  0.8459
 7170TIP3   OH242924   6.498   5.711  14.852  0.0325  0.5594 -0.0367
 7170TIP3    H142925   6.558   5.655  14.902 -0.0926  1.9055  1.7166
 7170TIP3    H242926   6.555   5.756  14.789  0.1856 -1.2140 -1.2118
 7171TIP3   OH242927   0.171   1.405  16.185 -0.1979 -0.0105 -0.0879
 7171TIP3    H142928   0.097   1.356  16.221  0.0072 -0.7547 -0.6551
 7171TIP3    H242929   0.248   1.372  16.232 -0.3535  1.7688  1.5193
 7172TIP3   OH242930   4.602   2.136  10.338 -0.4969  0.1608 -0.0581
 7172TIP3    H142931   4.634   2.219  10.372 -0.8771 -0.0407  0.8082
 7172TIP3    H242932   4.680   2.092  10.303 -0.0364  0.2331  0.8441
 7173TIP3   OH242933   2.829   6.320   2.345  0.1548 -0.2662  0.2458
 7173TIP3    H142934   2.841   6.415   2.340 -1.4013 -0.0050  0.8371
 7173TIP3    H242935   2.917   6.284   2.340  0.7361  1.1828 -0.5352
 7174TIP3   OH242936   0.123   2.830  12.851  0.2210 -0.2331  0.0699
 7174TIP3    H142937   0.150   2.908  12.804  1.5662 -0.5197  0.3308
 7174TIP3    H242938   0.092   2.770  12.783  1.3983 -0.3469 -0.3776
 7175TIP3   OH242939   2.943   5.906   3.563 -0.7748  0.1804 -0.7967
 7175TIP3    H142940   2.914   5.845   3.495  0.1036  0.5824 -1.5649
 7175TIP3    H242941   3.009   5.858   3.612 -1.4722 -0.1400 -0.1615
 7176TIP3   OH242942   3.356   2.500  13.524  0.1206  0.0881 -0.3034
 7176TIP3    H142943   3.398   2.445  13.590 -0.2019 -0.2997 -0.4176
 7176TIP3    H242944   3.358   2.447  13.445 -1.1075 -0.1682 -0.1715
 7177TIP3   OH242945   6.508   1.152  13.832 -0.0244  0.0759  0.1422
 7177TIP3    H142946   6.522   1.109  13.916  0.0833 -0.0800  0.0464
 7177TIP3    H242947   6.519   1.245  13.851 -0.4112  0.0743  0.3823
 7178TIP3   OH242948   4.649   6.713  16.513  0.1159 -1.1025  0.4176
 7178TIP3    H142949   4.579   6.647  16.519 -0.9695  0.0571  0.8135
 7178TIP3    H242950   4.637   6.753  16.427  0.3548 -0.9700  0.4457
 7179TIP3   OH242951   0.855   0.102  12.558  0.2119  0.0018  0.0588
 7179TIP3    H142952   0.929   0.044  12.540  0.5504  0.0327  1.2633
 7179TIP3    H242953   0.852   0.161  12.483  2.4351  1.0485  0.7038
 7180TIP3   OH242954   6.547   1.524   0.532  0.1601 -0.0105 -0.0934
 7180TIP3    H142955   6.487   1.478   0.474 -1.6938  3.6323 -1.3953
 7180TIP3    H242956   6.569   1.604   0.485  1.6573  1.3650  2.6950
 7181TIP3   OH242957   4.693   2.255  12.200 -0.0749 -0.3134  0.5006
 7181TIP3    H142958   4.634   2.286  12.269 -1.3702 -1.3354 -0.0846
 7181TIP3    H242959   4.689   2.324  12.133  0.0671  0.0228  0.8358
 7182TIP3   OH242960   6.343   2.033  10.917  0.3704  0.2705  0.1571
 7182TIP3    H142961   6.271   2.042  10.855 -0.3126 -1.5330  0.6173
 7182TIP3    H242962   6.408   1.979  10.871 -0.4268 -1.6536  1.1488
 7183TIP3   OH242963   6.134   3.344  15.796  0.3542 -0.3964 -0.3387
 7183TIP3    H142964   6.154   3.333  15.889  0.2053 -1.5370 -0.4247
 7183TIP3    H242965   6.156   3.435  15.777 -1.0299  0.3200  1.1749
 7184TIP3   OH242966   2.373   2.910  14.879  0.7222 -0.0105  0.4640
 7184TIP3    H142967   2.408   2.999  14.876 -1.8278  1.0818 -0.4968
 7184TIP3    H242968   2.360   2.892  14.972  0.5639  0.9410  0.6341
 7185TIP3   OH242969   1.212   0.238  13.605  0.4939 -0.1644  0.1112
 7185TIP3    H142970   1.151   0.176  13.645  1.0046  0.6645  2.2826
 7185TIP3    H242971   1.175   0.255  13.518 -1.0006 -1.5766  0.4196
 7186TIP3   OH242972   4.036   6.063   5.119  0.1421 -0.0980 -0.3063
 7186TIP3    H142973   4.049   6.131   5.053 -3.0660 -0.3634 -1.3985
 7186TIP3    H242974   4.025   6.110   5.201  0.5722  0.4915 -0.5789
 7187TIP3   OH242975   2.562   2.633  14.032  0.5096  1.0840  0.1071
 7187TIP3    H142976   2.558   2.639  14.127 -1.2848  0.0359  0.1402
 7187TIP3    H242977   2.545   2.541  14.012  1.7299  1.1048 -1.2141
 7188TIP3   OH242978   2.217   0.497   5.241 -0.1765 -0.0378  0.1915
 7188TIP3    H142979   2.294   0.511   5.185 -1.0583 -2.2380 -1.7362
 7188TIP3    H242980   2.224   0.406   5.269 -1.5769  0.0206  0.7920
 7189TIP3   OH242981   6.092   5.697   1.742  0.2864 -0.4425 -0.4198
 7189TIP3    H142982   6.072   5.649   1.661  0.3613 -0.1229 -0.6290
 7189TIP3    H242983   6.171   5.654   1.776  0.6935 -0.0966 -0.9150
 7190TIP3   OH242984   0.207   5.306   3.409  0.3770 -0.0429  0.2353
 7190TIP3    H142985   0.255   5.252   3.471 -1.0202 -1.8465 -0.1935
 7190TIP3    H242986   0.162   5.371   3.463  0.5039 -0.5487  0.9530
 7191TIP3   OH242987   1.022   0.959  12.554  0.5925 -0.1841 -0.0016
 7191TIP3    H142988   1.051   0.868  12.554  1.9817  0.2233 -0.3268
 7191TIP3    H242989   0.932   0.956  12.522  0.2051 -1.5381  1.1353
 7192TIP3   OH242990   0.570   2.303  14.015  0.2859 -0.6074 -0.0278
 7192TIP3    H142991   0.573   2.286  13.920  0.3142  1.5088 -0.4718
 7192TIP3    H242992   0.591   2.219  14.055  1.0001 -1.4020 -1.9209
 7193TIP3   OH242993   3.892   2.769   1.518 -0.5221  0.2890  0.1425
 7193TIP3    H142994   3.944   2.840   1.480 -0.4603  0.1557 -0.0238
 7193TIP3    H242995   3.924   2.760   1.608  0.4982 -0.5131 -0.2783
 7194TIP3   OH242996   0.517   1.452  15.085  0.6770 -0.3597  0.2848
 7194TIP3    H142997   0.593   1.490  15.129  1.0869  0.4910 -1.1278
 7194TIP3    H242998   0.553   1.381  15.031  0.7374  1.0418 -1.6081
 7195TIP3   OH242999   3.258   5.910   3.782  0.6596 -0.7205  0.3379
 7195TIP3    H143000   3.322   5.977   3.757 -0.0756 -0.0012  0.3656
 7195TIP3    H243001   3.254   5.851   3.707  0.3634 -0.0195 -0.1985
 7196TIP3   OH243002   1.253   0.908  12.834 -0.3403 -0.3187 -0.3422
 7196TIP3    H143003   1.275   0.870  12.749  1.6774 -0.3445  0.1434
 7196TIP3    H243004   1.277   1.000  12.827 -1.6285  0.0437 -0.2756
 7197TIP3   OH243005   6.465   1.744   5.967 -0.2118 -0.3492 -0.3973
 7197TIP3    H143006   6.522   1.791   6.028 -1.9338 -0.2984  1.2966
 7197TIP3    H243007   6.439   1.665   6.015  0.3162 -1.5905 -2.0671
 7198TIP3   OH243008   3.142   5.726  13.823 -0.3047  0.7040 -0.2120
 7198TIP3    H143009   3.060   5.684  13.848 -0.1760  0.2684 -0.5031
 7198TIP3    H243010   3.145   5.806  13.874 -0.7068  0.5094  0.1198
 7199TIP3   OH243011   2.342   1.396   0.196  0.2097 -0.1373 -0.8146
 7199TIP3    H143012   2.309   1.316   0.237 -0.2003  0.5966  0.3315
 7199TIP3    H243013   2.420   1.417   0.247 -1.3906  1.8771  0.9635
 7200TIP3   OH243014   5.211   1.006  16.578  0.0650  0.1669  0.3084
 7200TIP3    H143015   5.237   0.971  16.663  1.0249 -2.5182 -0.9649
 7200TIP3    H243016   5.289   1.050  16.545  0.5780 -1.0376 -0.1854
 7201TIP3   OH243017   2.176   1.402   4.632 -0.4991 -0.3143  0.1270
 7201TIP3    H143018   2.211   1.480   4.675  1.7308 -1.6031  0.8267
 7201TIP3    H243019   2.146   1.433   4.546 -1.0382  1.5343  0.9334
 7202TIP3   OH243020   3.968   4.467  15.977  0.2389 -0.2664 -0.5962
 7202TIP3    H143021   3.883   4.478  16.019  0.8539  0.0047  0.6005
 7202TIP3    H243022   3.947   4.457  15.884 -1.1457 -0.9103 -0.2419
 7203TIP3   OH243023   2.892   2.563  14.771  0.4962  0.0590 -0.0788
 7203TIP3    H143024   2.937   2.634  14.817 -0.5710  1.2687 -0.8116
 7203TIP3    H243025   2.927   2.483  14.810  0.6250  1.0009  1.8774
 7204TIP3   OH243026   4.987   5.360  15.163 -0.7107  0.2273  0.4230
 7204TIP3    H143027   4.976   5.454  15.149  2.3643  0.6873  0.2672
 7204TIP3    H243028   4.992   5.323  15.075  0.1080  0.2591  0.4484
 7205TIP3   OH243029   5.885   0.514  11.105  0.6166  0.9001  0.2491
 7205TIP3    H143030   5.819   0.450  11.080  0.1299  1.0402  1.1326
 7205TIP3    H243031   5.863   0.538  11.195  0.5428  2.6366 -0.2024
 7206TIP3   OH243032   6.440   6.325  11.137 -0.1655 -0.3116 -0.4848
 7206TIP3    H143033   6.491   6.365  11.207 -0.4052 -1.8366  0.5998
 7206TIP3    H243034   6.496   6.256  11.102 -0.3845 -0.1282 -1.2231
 7207TIP3   OH243035   5.340   6.298  14.138  0.4291 -0.3963 -0.2652
 7207TIP3    H143036   5.304   6.258  14.059 -0.0414 -3.2311  1.2442
 7207TIP3    H243037   5.267   6.347  14.176  0.4306  0.2967 -1.1265
 7208TIP3   OH243038   2.084   6.498  14.381  0.4940  0.1910  0.2635
 7208TIP3    H143039   2.162   6.468  14.334 -0.6538 -2.5120 -0.1232
 7208TIP3    H243040   2.019   6.513  14.312 -0.1071 -0.2176  0.7293
 7209TIP3   OH243041   5.262   2.487  16.535  0.3251 -0.2394  0.7201
 7209TIP3    H143042   5.258   2.556  16.469  0.5386 -0.4885  0.4453
 7209TIP3    H243043   5.213   2.414  16.498 -0.2193 -0.1092  1.1684
 7210TIP3   OH243044   6.711   0.428  16.546 -0.2970  0.0746  0.4714
 7210TIP3    H143045   6.689   0.509  16.498  0.8517  1.1014  1.6090
 7210TIP3    H243046   6.677   0.358  16.490 -0.3847  1.2860 -1.0888
 7211TIP3   OH243047   0.754   3.314  10.792  0.3278  0.7748  0.2466
 7211TIP3    H143048   0.832   3.259  10.786  0.0661  0.4023  0.2726
 7211TIP3    H243049   0.681   3.253  10.795  0.0955  1.0709  1.5447
 7212TIP3   OH243050   0.131   0.917   4.254  0.2257 -0.4559  0.0427
 7212TIP3    H143051   0.059   0.869   4.212  0.1549  0.2821 -0.7008
 7212TIP3    H243052   0.090   0.996   4.289  0.9592  0.9516 -2.0924
 7213TIP3   OH243053   5.605   2.446   5.734 -0.1558 -0.0402  0.3585
 7213TIP3    H143054   5.568   2.527   5.767 -1.8007 -1.0060  1.0091
 7213TIP3    H243055   5.598   2.454   5.638 -0.9840  0.2943  0.4384
 7214TIP3   OH243056   5.335   6.214   4.878  0.0926 -0.3808 -0.7799
 7214TIP3    H143057   5.272   6.145   4.861 -0.4855  0.4811 -2.3223
 7214TIP3    H243058   5.282   6.289   4.906  0.3721  0.3664 -2.1387
 7215TIP3   OH243059   3.590   2.158   4.561 -0.3009  0.3695  0.0238
 7215TIP3    H143060   3.652   2.174   4.490  1.3307 -0.6139  1.1558
 7215TIP3    H243061   3.506   2.146   4.517  0.4977  0.6257 -1.6621
 7216TIP3   OH243062   0.144   0.370  12.321 -0.3935 -0.2993 -0.3060
 7216TIP3    H143063   0.109   0.335  12.403 -1.7168 -3.8279 -2.1566
 7216TIP3    H243064   0.131   0.465  12.328 -0.5832 -0.4570  3.4301
 7217TIP3   OH243065   3.603   2.811  12.903 -0.0319 -0.1812  0.0732
 7217TIP3    H143066   3.537   2.761  12.855  1.0004 -0.4012 -1.1841
 7217TIP3    H243067   3.671   2.747  12.925  0.3612  0.2779  0.2262
 7218TIP3   OH243068   1.386   4.864  13.880  0.7832 -0.0547 -0.2297
 7218TIP3    H143069   1.470   4.820  13.870  1.1680  0.6863 -0.3676
 7218TIP3    H243070   1.405   4.937  13.940 -0.0788 -0.7156  0.8770
 7219TIP3   OH243071   3.621   4.496  12.048 -0.7708 -0.6387 -0.1883
 7219TIP3    H143072   3.689   4.477  12.114  0.3765  1.1055 -0.7808
 7219TIP3    H243073   3.543   4.516  12.100 -0.0514  0.1144  0.6618
 7220TIP3   OH243074   4.556   1.043  16.934  0.2508 -0.5317  0.0801
 7220TIP3    H143075   4.542   1.043  16.840  0.2737 -0.8290  0.0734
 7220TIP3    H243076   4.631   1.101  16.948 -0.4864  0.4438  0.0354
 7221TIP3   OH243077   1.946   2.304  14.299  0.4363 -0.0152 -0.7227
 7221TIP3    H143078   2.008   2.240  14.265 -0.8120 -0.6237 -1.9622
 7221TIP3    H243079   1.992   2.388  14.293  2.7495 -0.8648  2.5559
 7222TIP3   OH243080   0.402   4.402   3.650  0.4215  0.5817  0.0813
 7222TIP3    H143081   0.492   4.434   3.661  1.2345 -1.2767 -0.6993
 7222TIP3    H243082   0.408   4.338   3.579 -1.3406 -0.2632  0.6317
 7223TIP3   OH243083   6.300   2.540   3.029 -0.0125  0.1989 -0.0718
 7223TIP3    H143084   6.295   2.472   2.962 -0.9547 -0.0987  0.2878
 7223TIP3    H243085   6.352   2.609   2.989  1.5421 -0.9948 -0.2069
 7224TIP3   OH243086   5.568   6.690  14.057 -0.6422  0.4080 -0.2422
 7224TIP3    H143087   5.590   6.645  14.138 -1.7674 -0.9011 -0.6231
 7224TIP3    H243088   5.637   6.665  13.995 -1.5077 -1.2625 -0.5911
 7225TIP3   OH243089   5.083   0.412   1.795 -0.0608 -0.3670  0.4965
 7225TIP3    H143090   5.123   0.355   1.728 -0.1436  0.1254  0.0182
 7225TIP3    H243091   5.157   0.458   1.834 -0.0989  0.2055 -0.0735
 7226TIP3   OH243092   0.886   3.938   3.172  0.2162 -0.0859  0.4368
 7226TIP3    H143093   0.844   3.889   3.101  0.3387 -0.6272  0.7326
 7226TIP3    H243094   0.814   3.983   3.216  0.4016  2.7272 -1.8376
 7227TIP3   OH243095   4.849   4.113   3.614  0.4051  0.3591  0.1608
 7227TIP3    H143096   4.774   4.122   3.673 -0.5194  1.2033 -1.0666
 7227TIP3    H243097   4.835   4.182   3.548  1.7816 -0.0701 -0.6135
 7228TIP3   OH243098   3.637   6.462  15.338  0.1314 -0.1456 -0.4635
 7228TIP3    H143099   3.644   6.387  15.397  1.3941  0.9997  0.9468
 7228TIP3    H243100   3.543   6.478  15.329 -0.1394  0.4191  2.3747
 7229TIP3   OH243101   0.330   0.301  12.095  0.2280  0.5353 -0.0338
 7229TIP3    H143102   0.262   0.325  12.159  1.4499 -1.4618  2.1461
 7229TIP3    H243103   0.290   0.231  12.043 -0.8603  2.3315 -1.8104
 7230TIP3   OH243104   6.525   4.608  17.081 -0.6139  0.2840  0.2934
 7230TIP3    H143105   6.489   4.690  17.117  0.8090  0.6550  0.9314
 7230TIP3    H243106   6.570   4.635  17.001 -0.5768  0.0443  0.2335
 7231TIP3   OH243107   2.303   2.125  17.056  0.4073 -0.2205  0.2720
 7231TIP3    H143108   2.306   2.041  17.011  1.5773  0.5732 -1.2621
 7231TIP3    H243109   2.394   2.154  17.058  0.1187  0.6877  1.4362
 7232TIP3   OH243110   5.212   0.186   4.265 -0.1363 -0.2444 -0.4519
 7232TIP3    H143111   5.165   0.241   4.203  1.0460  0.7068 -0.5403
 7232TIP3    H243112   5.154   0.183   4.342  0.4433  2.5728  0.2292
 7233TIP3   OH243113   2.856   0.399  14.839  0.4986  0.0436 -0.1680
 7233TIP3    H143114   2.860   0.311  14.803 -0.1935  0.2629 -0.8092
 7233TIP3    H243115   2.947   0.421  14.858  0.9146 -0.0480 -1.9131
 7234TIP3   OH243116   0.088   3.032   3.630  0.0176 -0.2346 -0.4116
 7234TIP3    H143117   0.064   2.941   3.612 -1.0380  0.2296 -1.4976
 7234TIP3    H243118   0.089   3.037   3.725  0.6291 -1.5094 -0.3228
 7235TIP3   OH243119   1.116   0.166   3.444 -0.1185 -0.0944  0.0051
 7235TIP3    H143120   1.084   0.255   3.453 -0.0164  0.0417 -0.9762
 7235TIP3    H243121   1.046   0.112   3.482 -0.4931  0.3502 -0.0450
 7236TIP3   OH243122   2.356   2.970  14.257 -0.1937 -0.5468  0.3895
 7236TIP3    H143123   2.412   2.997  14.184 -1.8831  1.4995 -0.2559
 7236TIP3    H243124   2.409   2.987  14.335 -0.0856  2.1166 -0.1588
 7237TIP3   OH243125   6.089   3.966   4.091 -0.7456 -0.6023  0.6747
 7237TIP3    H143126   6.038   3.920   4.024  1.2499 -1.3512 -0.3959
 7237TIP3    H243127   6.171   3.988   4.049 -0.4863  1.3922  2.0877
 7238TIP3   OH243128   4.318   1.443  11.918  0.0617 -0.1855 -0.3373
 7238TIP3    H143129   4.358   1.522  11.882 -2.4634  0.7455 -1.3470
 7238TIP3    H243130   4.272   1.472  11.996 -0.6660 -0.6879 -0.5647
 7239TIP3   OH243131   6.662   4.536   1.054  0.1508 -0.6865  1.1685
 7239TIP3    H143132   6.604   4.529   0.978  0.3535 -1.4584  1.0777
 7239TIP3    H243133   6.663   4.629   1.075  1.0929 -0.2702 -0.5468
 7240TIP3   OH243134   4.008   6.486   4.413 -0.0529 -0.0211 -0.3193
 7240TIP3    H143135   4.007   6.462   4.321 -0.3458  0.4597 -0.4428
 7240TIP3    H243136   3.997   6.403   4.460 -0.0168 -0.2511 -0.7195
 7241TIP3   OH243137   3.555   5.050   5.523 -0.3851  0.1157 -0.3029
 7241TIP3    H143138   3.586   4.983   5.463 -0.8580 -1.7714  1.4612
 7241TIP3    H243139   3.633   5.079   5.570 -0.3804 -0.2278 -0.0956
 7242TIP3   OH243140   3.992   1.144   2.633  0.0890 -0.0513 -0.1297
 7242TIP3    H143141   3.979   1.211   2.699 -2.0048 -2.4065  2.0795
 7242TIP3    H243142   3.913   1.148   2.579  0.3209 -0.2095 -0.4841
 7243TIP3   OH243143   5.313   4.094  15.779 -0.7992  0.1750  0.2577
 7243TIP3    H143144   5.336   4.161  15.843 -2.5929  2.0065 -0.8729
 7243TIP3    H243145   5.387   4.092  15.718 -0.5024  0.7408  0.5915
 7244TIP3   OH243146   1.781   1.884   4.426  0.0644  0.0997  0.1189
 7244TIP3    H143147   1.870   1.850   4.424 -0.1161 -0.3544 -0.6697
 7244TIP3    H243148   1.739   1.838   4.498  0.2716 -0.1894  0.0567
 7245TIP3   OH243149   0.794   6.134  13.942  0.1752 -0.5739  0.3668
 7245TIP3    H143150   0.759   6.129  14.031  1.2711 -0.4817  0.8299
 7245TIP3    H243151   0.871   6.191  13.951 -1.1332  1.5964 -1.1267
 7246TIP3   OH243152   3.364   2.362   0.838 -0.0013  0.4696  0.4655
 7246TIP3    H143153   3.411   2.307   0.900 -0.3002  0.5404  0.7598
 7246TIP3    H243154   3.359   2.447   0.881 -2.6802 -0.1761  1.6541
 7247TIP3   OH243155   3.428   4.287  12.303 -0.2430  0.0917 -0.2342
 7247TIP3    H143156   3.420   4.383  12.299  4.0057  0.6293 -0.3719
 7247TIP3    H243157   3.435   4.267  12.396  2.2516  0.4480 -0.2824
 7248TIP3   OH243158   2.848   3.990  16.200 -0.8603  0.1582  0.5901
 7248TIP3    H143159   2.783   4.024  16.261 -1.1931  0.6639 -0.0359
 7248TIP3    H243160   2.932   4.018  16.237 -1.1223  1.6288  0.1306
 7249TIP3   OH243161   4.976   2.591  13.627 -0.0715  0.3938 -0.8315
 7249TIP3    H143162   4.925   2.659  13.671 -1.8427 -1.2851 -0.1299
 7249TIP3    H243163   5.020   2.544  13.698  0.3537  0.1888 -1.2215
 7250TIP3   OH243164   3.924   6.286   5.959  0.6367  0.0935  0.1535
 7250TIP3    H143165   3.932   6.381   5.956 -0.4503  0.1868 -2.4772
 7250TIP3    H243166   4.014   6.254   5.958  1.0056  1.0892  0.3710
 7251TIP3   OH243167   4.983   1.128   2.904 -0.1402  0.3763 -0.1058
 7251TIP3    H143168   4.942   1.182   2.970 -4.3346 -1.3310 -0.9820
 7251TIP3    H243169   5.025   1.058   2.953 -0.3715  0.8758  0.8301
 7252TIP3   OH243170   2.331   3.950  15.273  0.4357  0.0639  0.2704
 7252TIP3    H143171   2.412   3.901  15.263  0.5905  0.6043 -1.6061
 7252TIP3    H243172   2.358   4.039  15.292  0.2716  0.1441  0.1356
 7253TIP3   OH243173   1.309   1.740  13.750 -0.2833  0.2607 -0.4108
 7253TIP3    H143174   1.334   1.648  13.754 -1.4995 -0.0640  0.1064
 7253TIP3    H243175   1.369   1.785  13.809  0.3902 -0.1760 -0.7564
 7254TIP3   OH243176   1.333   6.438  15.639  0.4151  0.4972 -0.0284
 7254TIP3    H143177   1.418   6.478  15.622 -0.0479  1.3948 -0.2879
 7254TIP3    H243178   1.306   6.473  15.724  1.1881 -1.3557  1.0521
 7255TIP3   OH243179   4.513   0.500  14.413 -0.0808  0.0507  0.1183
 7255TIP3    H143180   4.567   0.551  14.352 -0.5844 -1.1326 -1.3794
 7255TIP3    H243181   4.545   0.410  14.403 -1.7706 -0.5444 -0.2078
 7256TIP3   OH243182   1.979   3.983   1.263 -0.6982  0.2234  0.7685
 7256TIP3    H143183   1.978   4.005   1.170  0.0661 -0.5885  0.5520
 7256TIP3    H243184   1.890   3.955   1.282 -0.3694 -1.6861 -0.2634
 7257TIP3   OH243185   5.084   3.093   3.142  0.6454  0.1544 -0.0930
 7257TIP3    H143186   5.087   3.137   3.056  0.6785  0.7950  0.2270
 7257TIP3    H243187   5.054   3.004   3.122 -0.2622  0.5667 -0.6716
 7258TIP3   OH243188   3.964   3.500   0.078 -0.2498  0.3921 -0.2340
 7258TIP3    H143189   4.045   3.512   0.127  0.5402 -1.0076 -1.1293
 7258TIP3    H243190   3.928   3.418   0.112 -1.5277  1.2142  0.4475
 7259TIP3   OH243191   3.166   1.460   1.755  0.0646  0.1955  0.3907
 7259TIP3    H143192   3.189   1.410   1.677  0.2783  0.7276  0.1099
 7259TIP3    H243193   3.097   1.520   1.726  0.1493  0.3981  0.6043
 7260TIP3   OH243194   4.752   2.423   5.253 -0.0626  0.1307 -0.9571
 7260TIP3    H143195   4.845   2.406   5.263 -0.3607 -0.8569  0.4704
 7260TIP3    H243196   4.714   2.402   5.339 -1.6662 -0.0266 -1.6608
 7261TIP3   OH243197   1.871   2.102   0.360  0.2877  0.1945  0.2261
 7261TIP3    H143198   1.789   2.054   0.342 -0.0231  0.6439  0.4303
 7261TIP3    H243199   1.882   2.095   0.455  0.8359 -0.4120  0.1293
 7262TIP3   OH243200   4.777   3.301   2.342 -0.3442  0.3798  0.1371
 7262TIP3    H143201   4.714   3.330   2.408 -0.9765 -0.0027 -0.2894
 7262TIP3    H243202   4.723   3.269   2.270  0.2943  2.5855 -1.4183
 7263TIP3   OH243203   3.481   2.146   4.986  0.0427 -0.0355  0.2834
 7263TIP3    H143204   3.533   2.177   5.060  0.4267  1.0255 -0.3943
 7263TIP3    H243205   3.390   2.161   5.011  0.1694  0.2436  0.5771
 7264TIP3   OH243206   5.630   1.365   3.452 -0.2357 -0.4564  0.4923
 7264TIP3    H143207   5.601   1.437   3.397  1.8244  1.2434  1.4843
 7264TIP3    H243208   5.712   1.336   3.411 -0.0672 -0.9573  1.1685
 7265TIP3   OH243209   3.379   5.606   1.729 -0.3860 -0.2926  0.1271
 7265TIP3    H143210   3.424   5.652   1.659  1.2057  1.1766  2.0166
 7265TIP3    H243211   3.444   5.597   1.798 -2.0335 -1.2240  1.6480
 7266TIP3   OH243212   5.171   5.030   3.050  0.0690  0.2596 -0.4803
 7266TIP3    H143213   5.220   5.096   3.001 -0.5802  0.3651 -1.0109
 7266TIP3    H243214   5.214   5.026   3.135  0.4416  0.9876 -0.6263
 7267TIP3   OH243215   6.026   5.050  16.630 -0.0727  0.6676  0.1707
 7267TIP3    H143216   6.006   5.040  16.724  2.0544  0.5957  0.6613
 7267TIP3    H243217   6.094   5.117  16.627 -0.3439  0.9012 -1.3658
 7268TIP3   OH243218   2.075   1.430   0.064 -0.2661  0.1594  0.6367
 7268TIP3    H143219   2.168   1.433   0.086 -0.5882 -0.9552  2.3415
 7268TIP3    H243220   2.050   1.339   0.079 -1.1402 -0.1375 -2.1197
 7269TIP3   OH243221   3.981   4.126  12.566 -0.0759 -0.1029  0.3199
 7269TIP3    H143222   3.907   4.091  12.517 -0.2316 -1.1266  1.2450
 7269TIP3    H243223   4.027   4.049  12.599  0.5886  0.5400  0.9510
 7270TIP3   OH243224   6.336   4.152  14.444 -0.3579 -0.2199  0.3493
 7270TIP3    H143225   6.257   4.160  14.497 -0.7618  2.0350 -0.4839
 7270TIP3    H243226   6.391   4.226  14.471  0.2065 -0.0807 -1.0794
 7271TIP3   OH243227   1.803   6.206   3.246 -0.1475 -0.1051  0.5555
 7271TIP3    H143228   1.863   6.201   3.171 -0.0738  0.5399  0.5701
 7271TIP3    H243229   1.746   6.129   3.236  1.0586 -1.0779  0.8736
 7272TIP3   OH243230   1.081   2.440  14.412  0.3607  0.0809  0.1850
 7272TIP3    H143231   1.136   2.509  14.374 -0.6645  0.4099 -0.7669
 7272TIP3    H243232   1.142   2.384  14.459  1.5781  0.2177 -1.1542
 7273TIP3   OH243233   1.661   4.533  12.079 -0.0676  0.1050 -0.0209
 7273TIP3    H143234   1.583   4.586  12.063  0.4658  0.6590 -0.8963
 7273TIP3    H243235   1.651   4.457  12.021 -0.2683 -0.1617  0.3590
 7274TIP3   OH243236   5.678   3.819  10.832 -0.3920  0.2925 -0.2037
 7274TIP3    H143237   5.729   3.757  10.884 -0.5821 -1.0887 -1.5918
 7274TIP3    H243238   5.710   3.905  10.859  0.8461 -0.4376  0.7918
 7275TIP3   OH243239   1.343   1.484  14.906 -0.8444  0.6946  0.1258
 7275TIP3    H143240   1.346   1.391  14.927  1.4405  0.5423 -0.5870
 7275TIP3    H243241   1.272   1.519  14.959 -3.2561 -1.8163 -1.1903
 7276TIP3   OH243242   0.270   5.980  10.446 -0.0097 -0.0127  0.1482
 7276TIP3    H143243   0.186   5.992  10.401 -0.1073  0.7233  0.5136
 7276TIP3    H243244   0.303   5.896  10.412  0.0516  0.6378 -1.5220
 7277TIP3   OH243245   3.081   6.632   5.325  0.0866  0.0437 -0.2253
 7277TIP3    H143246   3.040   6.643   5.239  0.3450 -2.2453 -0.7139
 7277TIP3    H243247   3.172   6.655   5.311 -0.0253  0.4076 -0.3687
 7278TIP3   OH243248   6.807   2.830  11.861 -0.5924  0.2454 -0.1169
 7278TIP3    H143249   6.790   2.816  11.955 -2.1606  0.8185 -0.2778
 7278TIP3    H243250   6.778   2.748  11.820  0.3130 -0.0947 -0.0902
 7279TIP3   OH243251   0.320   2.227  11.386  0.4566 -0.5680  0.5371
 7279TIP3    H143252   0.283   2.277  11.314 -0.1489  0.5649  1.6088
 7279TIP3    H243253   0.405   2.196  11.353 -0.1490 -0.7254 -0.9148
 7280TIP3   OH243254   2.038   4.694   1.918 -0.6291 -0.1737 -0.1693
 7280TIP3    H143255   2.053   4.600   1.914  1.6840  0.1141  0.5423
 7280TIP3    H243256   1.990   4.714   1.838  0.7986 -1.6557 -1.4566
 7281TIP3   OH243257   3.792   5.628   1.364  0.2439 -0.3623 -0.1325
 7281TIP3    H143258   3.780   5.652   1.272 -3.8477  1.9707  0.7923
 7281TIP3    H243259   3.834   5.704   1.404 -1.8806  0.4919  0.6105
 7282TIP3   OH243260   3.679   6.034   4.156 -0.0065  0.9672  0.1467
 7282TIP3    H143261   3.627   5.960   4.123 -1.0561  1.5486  0.4460
 7282TIP3    H243262   3.752   5.993   4.202 -1.8839  0.0178  2.4942
 7283TIP3   OH243263   3.777   2.160   1.429 -0.4445 -0.3075 -0.1156
 7283TIP3    H143264   3.752   2.206   1.349 -1.1396  0.0816  0.3089
 7283TIP3    H243265   3.700   2.167   1.486  0.4104  0.3809  1.0062
 7284TIP3   OH243266   2.533   6.377  13.457 -0.4573  0.3119 -0.4914
 7284TIP3    H143267   2.563   6.403  13.544  2.3346  0.4980 -1.4327
 7284TIP3    H243268   2.496   6.289  13.470  1.4361 -0.3774  0.6574
 7285TIP3   OH243269   5.582   4.949   1.838  0.8433  0.0307  0.0966
 7285TIP3    H143270   5.505   4.897   1.812  0.5898  0.3299  0.2475
 7285TIP3    H243271   5.567   5.035   1.799  1.8895 -0.3638 -1.2757
 7286TIP3   OH243272   2.640   1.196  11.657 -0.6237  0.2796  0.0762
 7286TIP3    H143273   2.624   1.159  11.570 -0.1876 -0.6791  0.3956
 7286TIP3    H243274   2.623   1.290  11.646  2.5356  0.7886 -1.8724
 7287TIP3   OH243275   1.738   3.394   1.968 -0.0584  0.2403 -0.2064
 7287TIP3    H143276   1.763   3.486   1.971 -1.1480  0.5403  0.0780
 7287TIP3    H243277   1.755   3.367   1.878  1.2573  0.4091 -0.0372
 7288TIP3   OH243278   2.184   2.304  13.650  0.3290  0.5597  0.0280
 7288TIP3    H143279   2.278   2.303  13.667  0.6295  0.0694 -1.4740
 7288TIP3    H243280   2.162   2.212  13.634 -0.1597  0.8137 -0.8116
 7289TIP3   OH243281   1.574   6.552  12.677  0.2537  0.3190  0.1807
 7289TIP3    H143282   1.627   6.513  12.608  0.7955  1.4526 -0.0793
 7289TIP3    H243283   1.600   6.506  12.757  0.2403 -0.4208 -0.2345
 7290TIP3   OH243284   3.432   1.221   1.430 -0.8211 -1.0584  0.3902
 7290TIP3    H143285   3.431   1.212   1.525  0.4050 -0.4310  0.4719
 7290TIP3    H243286   3.497   1.157   1.400 -0.1851 -0.2852  0.0953
 7291TIP3   OH243287   1.657   5.505   2.971 -0.3435  0.4419 -0.0114
 7291TIP3    H143288   1.711   5.576   2.936  0.9590 -1.0332 -1.0982
 7291TIP3    H243289   1.649   5.443   2.898  0.2081 -1.4627  1.4707
 7292TIP3   OH243290   1.068   3.084  15.372 -0.4160 -0.4071 -0.1591
 7292TIP3    H143291   1.023   3.164  15.344 -1.0029 -0.5028  0.4713
 7292TIP3    H243292   0.999   3.030  15.410 -0.0641 -1.3244 -0.8092
 7293TIP3   OH243293   1.846   1.541  11.686 -0.1882  0.3141 -0.5280
 7293TIP3    H143294   1.852   1.486  11.764  0.6967  1.5835  0.3485
 7293TIP3    H243295   1.909   1.503  11.625 -1.0029 -0.7843 -0.7018
 7294TIP3   OH243296   6.562   3.599  11.438  0.3040  0.4019  0.2111
 7294TIP3    H143297   6.646   3.564  11.407  0.5966  1.2177  0.0436
 7294TIP3    H243298   6.576   3.612  11.532  0.3093  0.3852  0.2126
 7295TIP3   OH243299   6.506   5.569  15.197 -0.2533  0.4260 -0.1511
 7295TIP3    H143300   6.575   5.546  15.135  0.2614  0.2469  0.4678
 7295TIP3    H243301   6.437   5.505  15.182  0.9630 -1.3054  1.2315
 7296TIP3   OH243302   2.393   2.699  12.655  0.2006  0.2021 -0.0475
 7296TIP3    H143303   2.335   2.689  12.730 -1.8047 -0.8330 -1.6320
 7296TIP3    H243304   2.337   2.732  12.585  1.6702 -0.2352 -1.5077
 7297TIP3   OH243305   4.257   4.364  12.182  0.1924  0.0387  0.6692
 7297TIP3    H143306   4.201   4.441  12.174  0.9627  0.7163  1.4741
 7297TIP3    H243307   4.344   4.396  12.158  0.3173 -0.8736 -0.1123
 7298TIP3   OH243308   1.019   0.419   3.481  0.4852  0.5751  0.8606
 7298TIP3    H143309   0.935   0.458   3.458 -0.1884  0.7624  3.3655
 7298TIP3    H243310   1.081   0.492   3.473  0.3684  0.5400 -0.5877
 7299TIP3   OH243311   4.642   2.621   4.522 -0.1234  0.3932 -0.6934
 7299TIP3    H143312   4.621   2.534   4.556 -0.4401  1.5245  2.2577
 7299TIP3    H243313   4.738   2.626   4.525 -0.1257  0.2999 -0.4895
 7300TIP3   OH243314   5.857   6.135   3.053 -0.2534 -0.0968  0.0232
 7300TIP3    H143315   5.905   6.208   3.013 -1.1655 -0.0571 -1.0502
 7300TIP3    H243316   5.794   6.108   2.986  0.6751 -2.4946 -0.0088
 7301TIP3   OH243317   3.230   1.963   5.045  0.0182 -0.0331  0.0389
 7301TIP3    H143318   3.294   1.929   4.982 -0.5815  0.5680 -0.9141
 7301TIP3    H243319   3.151   1.913   5.029  0.1738 -0.6404  1.0883
 7302TIP3   OH243320   1.264   0.929  11.871  0.2208  1.0276 -0.4938
 7302TIP3    H143321   1.280   0.996  11.804  1.9604  0.9503 -0.2032
 7302TIP3    H243322   1.208   0.865  11.828 -1.1984  2.4726 -0.8955
 7303TIP3   OH243323   6.124   2.535  16.313 -0.4709 -0.1273  0.0588
 7303TIP3    H143324   6.176   2.510  16.236 -1.7378  2.2803 -1.7237
 7303TIP3    H243325   6.067   2.460  16.329  0.2604 -0.9243 -0.9526
 7304TIP3   OH243326   1.556   4.963  14.995  0.6221 -0.8226  0.5402
 7304TIP3    H143327   1.495   5.033  14.975  0.7750 -0.2909  1.8384
 7304TIP3    H243328   1.633   4.982  14.942  0.1534 -0.7784 -0.1312
 7305TIP3   OH243329   4.568   3.118  14.023 -1.0124 -0.1358  0.2695
 7305TIP3    H143330   4.589   3.115  13.929 -1.7713  0.6625  0.0632
 7305TIP3    H243331   4.473   3.132  14.026 -1.1112 -0.9226  1.1669
 7306TIP3   OH243332   4.238   2.055   3.721 -0.1708 -0.6468  0.1055
 7306TIP3    H143333   4.225   2.024   3.811  1.3305  1.9413  1.3198
 7306TIP3    H243334   4.328   2.031   3.701  0.1123  0.4415  0.0357
 7307TIP3   OH243335   6.155   3.414   4.124  0.5302  0.2624 -0.1258
 7307TIP3    H143336   6.129   3.323   4.135 -0.6477  0.5281 -0.5714
 7307TIP3    H243337   6.096   3.448   4.057  1.2768  1.2266 -0.3147
 7308TIP3   OH243338   4.697   2.360  10.507  0.4852  0.1567  0.9276
 7308TIP3    H143339   4.719   2.354  10.600 -1.0917  1.3447  1.4078
 7308TIP3    H243340   4.776   2.330  10.463  2.1576  1.8512  2.5860
 7309TIP3   OH243341   5.750   2.240   5.185  0.1798 -0.3470 -0.3363
 7309TIP3    H143342   5.753   2.146   5.167  0.9185 -0.3112 -0.3917
 7309TIP3    H243343   5.815   2.254   5.254 -0.4768  0.0039  0.2276
 7310TIP3   OH243344   3.621   4.079   3.369  0.4915  0.6017  0.5660
 7310TIP3    H143345   3.674   4.026   3.428  1.1169  1.3541  0.7020
 7310TIP3    H243346   3.531   4.067   3.399  0.8367  1.2835  1.9370
 7311TIP3   OH243347   0.640   2.703   5.403 -0.4930  0.9834 -0.2994
 7311TIP3    H143348   0.672   2.749   5.325 -0.9005 -0.0984 -1.1295
 7311TIP3    H243349   0.585   2.768   5.447 -0.9560  1.3488 -1.3714
 7312TIP3   OH243350   6.133   1.688  13.220  0.5268 -0.1988  0.5563
 7312TIP3    H143351   6.051   1.650  13.249 -0.1781  0.9887  0.1784
 7312TIP3    H243352   6.121   1.705  13.127  1.8264 -1.5556  0.0954
 7313TIP3   OH243353   6.794   1.306  16.361 -0.1552  0.5408  0.3574
 7313TIP3    H143354   6.846   1.314  16.441  2.2332 -1.6079 -0.8304
 7313TIP3    H243355   6.763   1.216  16.361 -1.5594  0.9923 -0.3631
 7314TIP3   OH243356   6.583   2.791  14.879  0.2183 -0.1332  0.2946
 7314TIP3    H143357   6.605   2.731  14.808 -1.7988 -0.3858 -0.1786
 7314TIP3    H243358   6.487   2.793  14.880  0.1987  0.5119  2.4766
 7315TIP3   OH243359   5.336   1.034   0.117  0.3364 -0.1572  0.0980
 7315TIP3    H143360   5.270   0.987   0.168  1.1422  0.7757  2.1152
 7315TIP3    H243361   5.287   1.071   0.042 -1.5428  0.7941  1.6906
 7316TIP3   OH243362   3.995   0.982   3.677  0.1691 -0.3223  0.3183
 7316TIP3    H143363   3.915   1.035   3.672  0.5450  0.1519 -1.4015
 7316TIP3    H243364   3.963   0.893   3.689 -0.6411 -0.1512 -0.4086
 7317TIP3   OH243365   2.444   0.248   1.608  0.2416  0.3134 -0.5003
 7317TIP3    H143366   2.485   0.166   1.581  0.6518  0.4736 -0.3839
 7317TIP3    H243367   2.379   0.266   1.541 -0.8811 -0.8567  0.2413
 7318TIP3   OH243368   2.080   4.506   2.153  0.3191 -0.0245  0.9943
 7318TIP3    H143369   2.087   4.410   2.145 -1.0441 -0.2096  1.7819
 7318TIP3    H243370   2.012   4.520   2.218 -0.5650  1.5193 -0.2013
 7319TIP3   OH243371   4.275   4.413  17.201  0.0972  0.2664 -0.0270
 7319TIP3    H143372   4.241   4.411  17.291 -0.9015  0.3028 -0.3990
 7319TIP3    H243373   4.334   4.489  17.200  1.6443 -0.8588  1.1214
 7320TIP3   OH243374   5.795   1.000  11.653  0.1592 -0.1615  0.6391
 7320TIP3    H143375   5.759   0.997  11.565  1.0843  0.6088  0.2218
 7320TIP3    H243376   5.817   1.092  11.668  2.7567 -0.6818  0.5164
 7321TIP3   OH243377   5.132   5.607  14.036 -0.6631  0.2165 -0.9782
 7321TIP3    H143378   5.210   5.632  13.987 -0.3044  0.6178 -0.2137
 7321TIP3    H243379   5.059   5.625  13.976 -0.3361  2.0025 -0.8948
 7322TIP3   OH243380   0.442   1.299   5.720  0.2413 -0.2554 -0.5148
 7322TIP3    H143381   0.489   1.238   5.662  2.2461  0.5222  0.2121
 7322TIP3    H243382   0.470   1.275   5.808 -1.7494 -0.5577  0.1030
 7323TIP3   OH243383   0.742   3.126  12.422  0.2286  0.1319  0.5197
 7323TIP3    H143384   0.793   3.192  12.375  0.3112 -0.2605  0.0495
 7323TIP3    H243385   0.692   3.177  12.486 -2.6071  1.2081 -2.2766
 7324TIP3   OH243386   3.712   0.953   5.155  0.2539  0.2101 -1.2859
 7324TIP3    H143387   3.738   1.043   5.178  0.0303  0.2089 -1.0219
 7324TIP3    H243388   3.690   0.958   5.063 -0.5895  0.6228 -1.0712
 7325TIP3   OH243389   6.245   2.664   0.745  0.5233 -0.5330 -0.3919
 7325TIP3    H143390   6.291   2.730   0.796 -2.8755  0.9660  1.0508
 7325TIP3    H243391   6.256   2.692   0.654  2.1021 -0.0847 -0.0888
 7326TIP3   OH243392   6.540   2.809   3.878  0.2914  0.2085 -0.2358
 7326TIP3    H143393   6.469   2.815   3.815 -0.3207 -0.2503  0.3885
 7326TIP3    H243394   6.588   2.730   3.853 -0.9563 -0.9681  0.8289
 7327TIP3   OH243395   2.884   6.179  12.503 -0.0792  0.0648  0.4592
 7327TIP3    H143396   2.893   6.131  12.586  0.5867  0.1855  0.4661
 7327TIP3    H243397   2.820   6.130  12.453  0.0167 -0.3910  0.7820
 7328TIP3   OH243398   0.145   1.370  16.592  0.2561 -0.0991 -0.0256
 7328TIP3    H143399   0.139   1.296  16.651  0.6213 -0.6140 -0.6184
 7328TIP3    H243400   0.239   1.380  16.576  0.1810  0.2318 -0.2699
 7329TIP3   OH243401   3.614   4.424  14.265 -0.3392  0.5332 -0.3073
 7329TIP3    H143402   3.558   4.488  14.309 -1.2214 -0.8961  0.7471
 7329TIP3    H243403   3.643   4.467  14.184 -1.1112  2.1328  0.2510
 7330TIP3   OH243404   3.011   1.658  12.868  0.2149  0.0662 -0.6417
 7330TIP3    H143405   2.930   1.704  12.888  0.7288  1.2842 -1.2507
 7330TIP3    H243406   3.079   1.706  12.915  0.6350 -0.7868 -0.3468
 7331TIP3   OH243407   5.062   6.586  15.687 -0.0445 -0.2429 -0.3571
 7331TIP3    H143408   5.030   6.634  15.610  0.8550 -1.4713 -1.5521
 7331TIP3    H243409   5.150   6.620  15.702 -0.3368  0.2203  0.3490
 7332TIP3   OH243410   5.887   5.821   1.149  0.5883 -0.4646  0.0964
 7332TIP3    H143411   5.821   5.878   1.190 -0.7203 -0.8072 -1.4064
 7332TIP3    H243412   5.835   5.756   1.101  2.0360 -0.7525 -1.1368
 7333TIP3   OH243413   3.011   6.436   3.039  0.4218  0.0168  0.2132
 7333TIP3    H143414   3.106   6.450   3.049  0.3783 -0.5460  1.6869
 7333TIP3    H243415   2.989   6.376   3.109 -1.1363  0.5526  0.2112
 7334TIP3   OH243416   6.186   1.668  12.642 -0.8107 -0.1532 -0.2183
 7334TIP3    H143417   6.266   1.717  12.624 -0.2053 -0.6136  1.0262
 7334TIP3    H243418   6.115   1.731  12.630 -0.4359 -0.1545 -2.9379
 7335TIP3   OH243419   6.202   2.605   1.007 -0.3079  0.2462  0.3765
 7335TIP3    H143420   6.179   2.597   0.914 -1.4813  0.0462  0.6668
 7335TIP3    H243421   6.218   2.699   1.020 -0.3597  0.3034  0.0264
 7336TIP3   OH243422   1.358   2.356   0.056  0.6556  0.2657 -0.4865
 7336TIP3    H143423   1.445   2.331   0.086  0.5230  1.0487  0.5940
 7336TIP3    H243424   1.298   2.300   0.106  0.4706  0.9661  0.0932
 7337TIP3   OH243425   6.047   4.616  14.399  0.1215  0.1142  0.2070
 7337TIP3    H143426   6.078   4.579  14.316 -0.5553  0.3101 -0.1431
 7337TIP3    H243427   6.001   4.543  14.441  2.0713 -0.5489  1.3035
 7338TIP3   OH243428   5.281   1.247  12.200 -1.0340 -0.8289 -0.1406
 7338TIP3    H143429   5.265   1.333  12.239  0.5243  0.7044 -2.5846
 7338TIP3    H243430   5.194   1.213  12.180 -1.7115  1.5096 -1.6468
 7339TIP3   OH243431   4.276   1.030   2.107 -0.4764 -0.5354 -0.5306
 7339TIP3    H143432   4.239   1.069   2.028  1.2780  1.5966 -0.3892
 7339TIP3    H243433   4.203   1.024   2.168 -1.0173  1.7759 -0.8847
 7340TIP3   OH243434   4.105   1.803   3.123 -0.2139  0.0025  0.3078
 7340TIP3    H143435   4.063   1.758   3.050  0.3586 -0.1370  0.0609
 7340TIP3    H243436   4.037   1.861   3.157  0.3935  2.4140 -2.2909
 7341TIP3   OH243437   2.201   5.075  11.559 -0.0525 -0.2709  0.4740
 7341TIP3    H143438   2.248   5.126  11.492  0.1850 -1.0139  0.0666
 7341TIP3    H243439   2.235   4.987  11.551 -0.1806 -0.4205  1.4457
 7342TIP3   OH243440   1.394   1.302   4.021 -0.5874  0.6045 -0.3301
 7342TIP3    H143441   1.478   1.298   4.066 -0.1552 -1.5177 -1.1956
 7342TIP3    H243442   1.329   1.304   4.091  0.1413  2.3375  0.3476
 7343TIP3   OH243443   6.180   4.539   3.078  0.1996  0.0647  0.0237
 7343TIP3    H143444   6.150   4.470   3.018 -2.5519  0.5238  0.7339
 7343TIP3    H243445   6.136   4.519   3.161  1.0695  1.4683  0.8545
 7344TIP3   OH243446   1.965   3.660   3.027  0.2595 -0.1866 -0.2729
 7344TIP3    H143447   1.954   3.651   3.122 -0.5603  1.7131 -0.1536
 7344TIP3    H243448   2.044   3.713   3.017  0.3988 -0.4653 -0.6638
 7345TIP3   OH243449   4.718   0.590  12.865 -0.2309  0.2079  0.5417
 7345TIP3    H143450   4.742   0.566  12.955  0.5855  1.3373  0.6431
 7345TIP3    H243451   4.713   0.685  12.866 -0.2983  0.2283 -0.5928
 7346TIP3   OH243452   5.351   2.165   1.093 -0.4213 -0.4715  0.0937
 7346TIP3    H143453   5.263   2.184   1.061  0.1894  1.6305 -0.4806
 7346TIP3    H243454   5.358   2.216   1.174  0.8180  0.7942 -0.7622
 7347TIP3   OH243455   4.654   2.856   4.376 -0.2578  0.3592 -0.3075
 7347TIP3    H143456   4.613   2.854   4.289 -1.0051  0.1399  0.0423
 7347TIP3    H243457   4.637   2.769   4.412  1.9384 -0.3477 -0.7736
 7348TIP3   OH243458   4.929   1.418  16.058  0.6634 -0.1306  0.7135
 7348TIP3    H143459   4.913   1.431  15.964  0.4487  1.1495  0.9043
 7348TIP3    H243460   4.916   1.505  16.096  2.7673 -0.1742  1.6551
 7349TIP3   OH243461   3.212   3.434   0.703 -0.1377  0.4055  0.5697
 7349TIP3    H143462   3.190   3.421   0.795 -0.9348 -0.6026  0.2492
 7349TIP3    H243463   3.183   3.523   0.684 -1.1699  0.1591  0.9560
 7350TIP3   OH243464   3.060   6.383   4.759 -0.4144  0.1545  0.1912
 7350TIP3    H143465   3.058   6.453   4.823 -0.4116 -1.6492  2.2615
 7350TIP3    H243466   2.972   6.379   4.723 -0.4578  1.0638  0.1815
 7351TIP3   OH243467   3.036   0.614   6.046  0.1593  0.1254  0.2404
 7351TIP3    H143468   2.943   0.620   6.022  0.7967  0.3846 -2.4469
 7351TIP3    H243469   3.054   0.520   6.051 -0.2318  0.0742  0.7946
 7352TIP3   OH243470   5.259   1.779   4.340  0.0399 -0.1320 -0.3845
 7352TIP3    H143471   5.171   1.741   4.343 -0.3866  0.6278 -2.1121
 7352TIP3    H243472   5.291   1.759   4.252  0.9646  0.9707 -0.3264
 7353TIP3   OH243473   2.601   5.658   2.350 -0.5909 -0.2735 -0.1667
 7353TIP3    H143474   2.567   5.611   2.274 -3.8345  0.0385  0.9510
 7353TIP3    H243475   2.580   5.750   2.334  0.1760  0.0066  0.3751
 7354TIP3   OH243476   6.512   2.555   5.766 -0.8397 -0.9237 -0.0449
 7354TIP3    H143477   6.427   2.599   5.775  0.0566  1.0694 -0.7296
 7354TIP3    H243478   6.490   2.464   5.747 -2.8400 -0.2382 -1.2711
 7355TIP3   OH243479   5.548   3.916  15.647  0.4445  0.5300  0.5806
 7355TIP3    H143480   5.623   3.883  15.598 -0.7922  0.7614 -1.6089
 7355TIP3    H243481   5.495   3.838  15.665  0.3094  0.5983  0.4782
 7356TIP3   OH243482   2.831   5.854  15.969 -0.2660 -0.8014 -0.0922
 7356TIP3    H143483   2.737   5.870  15.978 -0.6077 -0.7306 -2.9488
 7356TIP3    H243484   2.847   5.777  16.025 -2.4455 -1.9958 -0.9752
 7357TIP3   OH243485   6.218   2.641   4.611 -0.2236 -0.0183  0.0428
 7357TIP3    H143486   6.253   2.628   4.523 -1.5443 -0.4821 -0.4337
 7357TIP3    H243487   6.132   2.601   4.609 -0.7318  0.9378  1.2291
 7358TIP3   OH243488   0.823   0.137   4.309  0.5263 -0.4339 -0.0394
 7358TIP3    H143489   0.838   0.172   4.221  0.4428 -0.0510  0.0953
 7358TIP3    H243490   0.733   0.163   4.330  0.4815 -0.6851  0.0838
 7359TIP3   OH243491   2.901   0.616   3.156  0.1673 -0.0021 -0.2919
 7359TIP3    H143492   2.933   0.705   3.171  0.0662  0.4200 -2.3663
 7359TIP3    H243493   2.814   0.614   3.197 -0.8955  1.6747 -2.2798
 7360TIP3   OH243494   5.481   4.408   5.788 -0.4167 -0.2723  0.1165
 7360TIP3    H143495   5.543   4.478   5.807  0.5606 -0.7612 -1.1281
 7360TIP3    H243496   5.436   4.393   5.871 -0.4982  1.6583  0.4690
 7361TIP3   OH243497   1.233   4.638  11.716  0.3702 -0.0086  0.0166
 7361TIP3    H143498   1.322   4.658  11.743  0.6248 -0.8891 -0.1315
 7361TIP3    H243499   1.192   4.598  11.793  0.1129  0.3556  0.0729
 7362TIP3   OH243500   4.526   0.470   2.003 -0.1453 -0.6468 -0.4615
 7362TIP3    H143501   4.438   0.502   1.983 -0.6761 -0.2110  2.1962
 7362TIP3    H243502   4.549   0.416   1.928 -2.6150 -0.6626 -1.3062
 7363TIP3   OH243503   5.436   2.063   2.594 -0.0159 -0.9785 -0.8928
 7363TIP3    H143504   5.531   2.078   2.595 -0.1101 -0.3851  0.0187
 7363TIP3    H243505   5.409   2.084   2.504  0.7925 -1.7114 -1.3232
 7364TIP3   OH243506   2.905   0.078  16.856 -0.1820  0.4570  0.2578
 7364TIP3    H143507   2.985   0.127  16.838  0.1563  0.6110  1.9701
 7364TIP3    H243508   2.930  -0.013  16.842 -0.1596  0.6096 -0.7277
 7365TIP3   OH243509   2.047   1.289   3.361  0.4358 -0.2753  0.1619
 7365TIP3    H143510   2.066   1.342   3.438 -0.4036 -1.9841  1.6213
 7365TIP3    H243511   2.126   1.235   3.349 -0.2691 -1.6211  1.2724
 7366TIP3   OH243512   5.047   1.618   0.932  0.0900 -0.2787  0.5049
 7366TIP3    H143513   5.072   1.540   0.882 -1.6290 -1.4020  1.2849
 7366TIP3    H243514   5.062   1.595   1.023 -0.6014  0.2387  0.7601
 7367TIP3   OH243515   1.718   0.961   4.357  0.4339  0.1440 -0.1761
 7367TIP3    H143516   1.777   0.907   4.410 -0.6721  0.4049  1.3931
 7367TIP3    H243517   1.744   1.051   4.376  0.5878  0.2296 -0.7698
 7368TIP3   OH243518   5.254   6.602  10.580 -0.7776  0.1179  0.0203
 7368TIP3    H143519   5.179   6.550  10.608 -1.0629  0.5893  0.1541
 7368TIP3    H243520   5.328   6.568  10.630 -1.0611  0.1882  0.4929
 7369TIP3   OH243521   3.852   6.391   3.050 -0.2352  0.1669 -0.1541
 7369TIP3    H143522   3.793   6.316   3.049 -0.4228  0.2999  0.4562
 7369TIP3    H243523   3.938   6.354   3.068 -0.3292  0.0918  0.1527
 7370TIP3   OH243524   6.248   5.687   4.391  0.7537  0.1591 -0.0354
 7370TIP3    H143525   6.208   5.755   4.337  3.0951 -1.2362 -3.9236
 7370TIP3    H243526   6.338   5.717   4.405  0.5238 -0.0619  2.2972
 7371TIP3   OH243527   5.209   2.906   0.156  0.3773 -0.3878 -0.5559
 7371TIP3    H143528   5.276   2.924   0.222 -1.1047  1.2099  0.6075
 7371TIP3    H243529   5.141   2.857   0.203  1.0030 -2.7036 -1.9118
 7372TIP3   OH243530   6.056   5.345   2.309  0.1108 -0.2490  0.1063
 7372TIP3    H143531   6.036   5.400   2.385  2.3203 -0.3245  0.8031
 7372TIP3    H243532   5.999   5.378   2.240 -0.2008  1.4561  1.1278
 7373TIP3   OH243533   5.774   1.652  14.171  0.3726  0.0435 -0.4595
 7373TIP3    H143534   5.811   1.618  14.090 -0.2975 -0.8817 -0.3925
 7373TIP3    H243535   5.842   1.637  14.237  1.8372  2.7634 -1.1774
 7374TIP3   OH243536   4.359   4.825   0.459 -0.1564  0.2743 -0.2232
 7374TIP3    H143537   4.444   4.847   0.420 -0.4284  1.4650 -0.1784
 7374TIP3    H243538   4.368   4.850   0.551 -0.9997  1.7515 -0.5119
 7375TIP3   OH243539   3.762   4.809   3.127  0.4240 -0.0203  0.1100
 7375TIP3    H143540   3.671   4.783   3.144  0.4681  0.9152  2.0318
 7375TIP3    H243541   3.814   4.736   3.158  0.3393 -0.4967 -0.8584
 7376TIP3   OH243542   5.824   6.642  13.888  0.6424 -0.5736 -0.5134
 7376TIP3    H143543   5.759   6.574  13.907  0.7006 -1.0464 -1.8512
 7376TIP3    H243544   5.905   6.608  13.926  0.4400 -0.7527 -0.2401
 7377TIP3   OH243545   5.367   6.116  16.519 -0.1921  0.4362  0.6766
 7377TIP3    H143546   5.346   6.163  16.599  2.2299  1.2946  0.8943
 7377TIP3    H243547   5.319   6.163  16.450 -0.2105  1.3661  1.3025
 7378TIP3   OH243548   0.948   3.772  15.038  0.3696  0.0598 -0.3842
 7378TIP3    H143549   1.030   3.724  15.045  0.8802  0.9734  0.0765
 7378TIP3    H243550   0.894   3.738  15.110  0.2210 -0.7595 -0.8764
 7379TIP3   OH243551   2.267   2.193   5.396  0.2685  0.4940 -0.1731
 7379TIP3    H143552   2.290   2.234   5.313 -0.1191  1.4362  0.1695
 7379TIP3    H243553   2.252   2.266   5.455  1.6227 -0.1459  1.0393
 7380TIP3   OH243554   0.954   1.708   6.688 -0.1964 -0.6411  0.4187
 7380TIP3    H143555   0.938   1.619   6.657  0.4518 -1.0195  1.1273
 7380TIP3    H243556   1.034   1.701   6.741 -0.5271  0.2291  1.0582
 7381TIP3   OH243557   5.497   5.112   1.195  0.3647  0.1903  0.5899
 7381TIP3    H143558   5.522   5.140   1.107 -0.1037  0.3146  0.4948
 7381TIP3    H243559   5.571   5.059   1.225  0.4157 -0.0626  0.0267
 7382TIP3   OH243560   3.612   4.427   6.060 -0.5410 -0.2559  0.2716
 7382TIP3    H143561   3.640   4.375   6.135 -0.8488  1.5574  1.7319
 7382TIP3    H243562   3.686   4.485   6.041 -0.4764 -0.6733 -0.8460
 7383TIP3   OH243563   2.378   1.369   5.020  0.3989  0.1590 -0.6595
 7383TIP3    H143564   2.383   1.427   5.096  1.6694  0.7450 -1.1482
 7383TIP3    H243565   2.293   1.388   4.980  0.4218  1.0485 -0.3107
 7384TIP3   OH243566   2.683   5.734  16.646 -0.4035 -0.0008  0.1718
 7384TIP3    H143567   2.713   5.670  16.581  1.0875 -0.6182  1.4210
 7384TIP3    H243568   2.686   5.818  16.600  0.6415 -0.4262 -0.5731
 7385TIP3   OH243569   5.520   6.351  14.714  0.2512 -0.2581 -0.5121
 7385TIP3    H143570   5.610   6.319  14.709  0.0882 -0.8252 -0.0032
 7385TIP3    H243571   5.468   6.273  14.734 -0.0298  0.4908  1.9109
 7386TIP3   OH243572   3.669   6.061  14.403  0.0656  0.2165 -0.0472
 7386TIP3    H143573   3.631   6.088  14.320 -0.0180 -0.9735 -0.4015
 7386TIP3    H243574   3.652   6.135  14.462 -1.8784  0.1408 -0.4607
 7387TIP3   OH243575   3.493   3.997  16.523  0.5215  0.0562 -0.3824
 7387TIP3    H143576   3.505   4.080  16.569 -0.4531 -0.8352  1.5807
 7387TIP3    H243577   3.576   3.951  16.535  0.8374  0.4605 -0.9361
 7388TIP3   OH243578   6.694   5.690  16.848  0.7020  0.6537  0.3789
 7388TIP3    H143579   6.757   5.678  16.777 -0.2305  3.9810 -1.2469
 7388TIP3    H243580   6.744   5.731  16.918  0.6653  2.2729 -0.4854
 7389TIP3   OH243581   4.882   5.074   3.145  0.2834 -0.6713 -0.1542
 7389TIP3    H143582   4.821   5.091   3.073 -1.1706 -1.2109  0.8899
 7389TIP3    H243583   4.969   5.081   3.105 -0.3013  2.8163 -1.1329
 7390TIP3   OH243584   1.178   3.075  14.076  0.6059  0.6064 -0.0705
 7390TIP3    H143585   1.123   3.054  14.151  1.3047 -0.8779  0.0549
 7390TIP3    H243586   1.128   3.045  13.999  0.5211  0.7925 -0.0884
 7391TIP3   OH243587   2.144   5.291   0.466  0.7770  0.4343 -0.5175
 7391TIP3    H143588   2.175   5.268   0.379  1.4518 -1.9392  0.2859
 7391TIP3    H243589   2.049   5.300   0.456  0.9485  1.2302 -1.6754
 7392TIP3   OH243590   5.341   4.049   3.544  0.4215 -0.6710 -0.0133
 7392TIP3    H143591   5.277   3.997   3.496 -0.1204  1.1452 -1.3741
 7392TIP3    H243592   5.426   4.019   3.511  0.1842 -1.5070  0.1175
 7393TIP3   OH243593   2.506   4.630  11.548  0.5426  0.7202  0.2393
 7393TIP3    H143594   2.552   4.617  11.464  0.1373  2.0205 -0.1986
 7393TIP3    H243595   2.577   4.637  11.612  0.8747  0.1908 -0.0602
 7394TIP3   OH243596   5.847   5.297  11.859 -0.2698  0.4579 -0.6624
 7394TIP3    H143597   5.759   5.294  11.897 -0.3867 -0.4965 -0.9877
 7394TIP3    H243598   5.881   5.382  11.886 -0.1891 -0.2966  1.9367
 7395TIP3   OH243599   2.901   1.706   0.219 -0.2785 -0.1393 -0.3777
 7395TIP3    H143600   2.831   1.767   0.245  0.8888  0.9873  0.2194
 7395TIP3    H243601   2.946   1.685   0.300  0.3754 -0.4752 -0.8176
 7396TIP3   OH243602   5.892   4.895   4.361  0.1759 -0.1050  0.0972
 7396TIP3    H143603   5.932   4.821   4.315 -0.7727 -0.5641 -0.0327
 7396TIP3    H243604   5.880   4.962   4.294  3.2444  1.1839  0.6718
 7397TIP3   OH243605   5.565   1.007  14.402 -0.2107 -0.2349  0.7215
 7397TIP3    H143606   5.598   1.044  14.484  0.4618 -0.9595  0.7861
 7397TIP3    H243607   5.553   1.083  14.344  2.5572 -0.0175  0.3291
 7398TIP3   OH243608   2.667   1.497   4.884 -0.2785  0.5482  0.0632
 7398TIP3    H143609   2.635   1.478   4.972  0.2047 -0.3891  0.0404
 7398TIP3    H243610   2.617   1.439   4.827  1.5194 -1.0792  0.0457
 7399TIP3   OH243611   0.352   2.676   6.574  0.1487  0.2617 -0.0600
 7399TIP3    H143612   0.277   2.735   6.587 -1.7597 -2.1871  0.6815
 7399TIP3    H243613   0.427   2.726   6.606 -1.0380  2.9540 -1.1584
 7400TIP3   OH243614   6.234   6.379   3.566  0.3551 -0.6514  0.1280
 7400TIP3    H143615   6.250   6.419   3.652 -0.2607 -0.7665  0.3046
 7400TIP3    H243616   6.292   6.303   3.564 -1.3031 -2.0348  1.4536
 7401TIP3   OH243617   5.140   2.865  13.607  0.2714  0.5336 -0.5548
 7401TIP3    H143618   5.143   2.848  13.701  0.4354 -0.7192 -0.7593
 7401TIP3    H243619   5.218   2.821  13.572  0.1184  0.8249 -1.2956
 7402TIP3   OH243620   1.114   6.634   2.324 -0.2870  0.3897 -0.0696
 7402TIP3    H143621   1.076   6.682   2.397 -0.1582 -1.1133  1.0245
 7402TIP3    H243622   1.047   6.637   2.256 -1.4237 -0.2145  0.9811
 7403TIP3   OH243623   1.251   3.272   5.352  0.7067  0.3901 -0.5098
 7403TIP3    H143624   1.172   3.319   5.378  0.5848  0.2840 -0.6828
 7403TIP3    H243625   1.257   3.199   5.413  1.8976  1.6337  0.9343
 7404TIP3   OH243626   3.328   5.077  13.052 -0.3320  0.6445  0.1607
 7404TIP3    H143627   3.240   5.094  13.086 -0.0595  1.3265  0.5433
 7404TIP3    H243628   3.357   5.000  13.100 -0.6962  0.4510  0.0764
 7405TIP3   OH243629   1.827   1.520   1.757  0.3497  0.2278 -0.0200
 7405TIP3    H143630   1.880   1.596   1.735 -1.5649  1.7750  0.4906
 7405TIP3    H243631   1.830   1.515   1.853 -2.1195  1.6944  0.2027
 7406TIP3   OH243632   6.308   5.237  14.600 -0.7303  0.0365  0.0951
 7406TIP3    H143633   6.325   5.193  14.683 -0.5357 -1.9779 -0.9538
 7406TIP3    H243634   6.213   5.244  14.595 -0.7568 -0.1538  0.3295
 7407TIP3   OH243635   2.160   2.833  16.128 -0.1145 -0.4136  0.4249
 7407TIP3    H143636   2.178   2.844  16.221  0.3255 -0.2078  0.3194
 7407TIP3    H243637   2.162   2.739  16.113 -0.1906 -0.4459  0.6252
 7408TIP3   OH243638   5.032   0.914   5.109 -0.4082  0.3497  0.4822
 7408TIP3    H143639   5.049   0.990   5.164  0.2733  0.0822  0.6635
 7408TIP3    H243640   5.007   0.950   5.024  1.0103  0.8157  0.2228
 7409TIP3   OH243641   1.050   5.411   2.936 -0.2019 -0.3321 -0.3059
 7409TIP3    H143642   1.127   5.373   2.979  0.0546 -0.3295 -0.7557
 7409TIP3    H243643   1.081   5.494   2.900 -0.4107 -0.3477 -0.5202
 7410TIP3   OH243644   5.530   1.763  11.920  0.4430 -0.4467 -0.3170
 7410TIP3    H143645   5.510   1.821  11.993 -1.1510  0.9174 -1.7441
 7410TIP3    H243646   5.620   1.784  11.895  0.9082 -0.7379  1.0281
 7411TIP3   OH243647   3.414   0.567   6.515  0.0850  0.1529  0.6635
 7411TIP3    H143648   3.346   0.606   6.460  0.5483  2.0108  1.3369
 7411TIP3    H243649   3.386   0.585   6.605  0.7795 -0.2606  0.9731
 7412TIP3   OH243650   3.042   5.309  14.593  0.1330 -0.2796 -0.0864
 7412TIP3    H143651   3.083   5.270  14.516  0.4567 -1.9944  0.8977
 7412TIP3    H243652   3.113   5.320  14.655 -0.4787 -1.1288  0.7994
 7413TIP3   OH243653   5.926   4.534   5.745  0.3420 -0.4816 -0.0324
 7413TIP3    H143654   5.840   4.567   5.770  0.1521 -1.6317  0.9200
 7413TIP3    H243655   5.916   4.510   5.653 -0.4803 -0.9641  0.1754
 7414TIP3   OH243656   1.147   3.490   1.881 -0.2529  0.0030  0.2675
 7414TIP3    H143657   1.234   3.510   1.849  0.6240 -1.4577  1.5932
 7414TIP3    H243658   1.088   3.544   1.829  1.5372  2.0678  0.2868
 7415TIP3   OH243659   1.293   1.481   2.228  0.7115 -0.3777  0.3792
 7415TIP3    H143660   1.239   1.416   2.273 -1.6665  0.8517 -0.5511
 7415TIP3    H243661   1.342   1.431   2.163  1.4234 -1.6332  1.8031
 7416TIP3   OH243662   3.507   4.950  14.142 -0.4573 -0.3387 -0.9817
 7416TIP3    H143663   3.508   5.030  14.089  0.3065 -1.4688 -2.7843
 7416TIP3    H243664   3.418   4.915  14.131 -0.1777 -0.7954 -1.9475
 7417TIP3   OH243665   0.839   4.622  15.034  0.0459  0.3249 -0.5657
 7417TIP3    H143666   0.924   4.579  15.046  0.2029  0.8894  0.4708
 7417TIP3    H243667   0.859   4.715  15.035 -0.6695  0.4766  0.4485
 7418TIP3   OH243668   2.065   3.121   0.876 -0.4249 -0.0149 -0.4774
 7418TIP3    H143669   1.981   3.092   0.909 -0.5353  0.0147 -0.7328
 7418TIP3    H243670   2.097   3.049   0.822 -0.4949  0.1512 -0.7465
 7419TIP3   OH243671   1.651   3.592   1.406 -0.2152 -0.6397  0.1877
 7419TIP3    H143672   1.724   3.572   1.348 -0.2418 -0.1657 -0.0117
 7419TIP3    H243673   1.605   3.508   1.418 -0.3281 -0.6968 -0.6318
 7420TIP3   OH243674   3.205   0.548  15.796 -0.3449 -0.5118 -0.2427
 7420TIP3    H143675   3.133   0.486  15.786 -0.2093 -0.7714  0.3448
 7420TIP3    H243676   3.236   0.564  15.707 -1.4195 -0.0447 -0.5551
 7421TIP3   OH243677   4.641   5.977   3.516 -0.2108 -0.6021 -0.4999
 7421TIP3    H143678   4.637   5.888   3.481  2.3757  0.0676 -2.9072
 7421TIP3    H243679   4.713   5.975   3.579 -0.8277 -0.4226  0.2250
 7422TIP3   OH243680   1.813   1.641   3.728  0.7148  0.1070 -0.7770
 7422TIP3    H143681   1.877   1.673   3.791 -0.7138  0.7193  0.4148
 7422TIP3    H243682   1.847   1.670   3.643  1.2549  1.7900 -0.0376
 7423TIP3   OH243683   4.479   6.470   3.917  0.3331  0.3145 -0.2616
 7423TIP3    H143684   4.503   6.515   3.836 -0.3202  1.0201 -0.0759
 7423TIP3    H243685   4.549   6.407   3.931  0.8263  0.6846 -0.9924
 7424TIP3   OH243686   5.999   3.962  13.231  0.5156 -0.0956 -0.2210
 7424TIP3    H143687   5.909   3.993  13.220 -0.6273 -2.0936  2.2594
 7424TIP3    H243688   6.048   4.039  13.258 -0.6043  0.9226 -0.9953
 7425TIP3   OH243689   1.359   4.939  11.151 -0.2545  0.1344 -0.0668
 7425TIP3    H143690   1.293   4.999  11.187 -0.8785 -1.4146  1.5196
 7425TIP3    H243691   1.320   4.908  11.069 -0.9752  0.1486  0.2593
 7426TIP3   OH243692   3.520   6.312  12.517  0.0832 -0.1920 -0.6410
 7426TIP3    H143693   3.590   6.257  12.482 -0.4077 -0.7775 -0.7075
 7426TIP3    H243694   3.563   6.366  12.584  0.3452 -1.4852  0.2712
 7427TIP3   OH243695   0.982   2.127   6.785 -0.3539  0.2272  0.0541
 7427TIP3    H143696   1.039   2.196   6.818  1.5451 -0.7471 -0.9861
 7427TIP3    H243697   0.928   2.170   6.719 -0.9345  1.1982  1.1345
 7428TIP3   OH243698   2.982   1.645  10.736  0.1326 -0.0878 -0.2495
 7428TIP3    H143699   2.936   1.720  10.697  0.9446 -0.0372 -1.1281
 7428TIP3    H243700   2.944   1.568  10.693  0.3480 -0.0928 -0.4292
 7429TIP3   OH243701   1.528   6.272   0.696  0.8548  0.6691  0.6707
 7429TIP3    H143702   1.574   6.190   0.680 -1.1520 -0.4830  0.4280
 7429TIP3    H243703   1.512   6.273   0.790 -3.2303 -1.7322  0.2518
 7430TIP3   OH243704   4.470   1.691  15.335  0.1894 -0.4437 -0.2943
 7430TIP3    H143705   4.504   1.737  15.412  0.6842 -1.6161  0.2161
 7430TIP3    H243706   4.413   1.755  15.292 -0.0046  0.2856  0.9837
 7431TIP3   OH243707   2.868   1.298   4.194  0.1750 -0.1697  0.1404
 7431TIP3    H143708   2.863   1.302   4.290  0.0799  0.4775  0.1157
 7431TIP3    H243709   2.871   1.390   4.167  0.9327 -0.3553 -0.4410
 7432TIP3   OH243710   4.575   0.369  12.724 -0.5521 -0.2626  0.3800
 7432TIP3    H143711   4.569   0.407  12.637 -0.3900  1.0067  0.8910
 7432TIP3    H243712   4.623   0.435  12.775  0.6321 -1.6233  1.0746
 7433TIP3   OH243713   3.157   2.865   2.325 -0.1218 -0.0272 -0.4755
 7433TIP3    H143714   3.216   2.844   2.253  0.8830 -0.5235  0.4672
 7433TIP3    H243715   3.133   2.780   2.362 -1.2719  0.1825 -0.7097
 7434TIP3   OH243716   0.639   5.258   3.120 -0.4836  0.2486  0.1658
 7434TIP3    H143717   0.570   5.323   3.102 -0.5912  0.3934  1.0521
 7434TIP3    H243718   0.604   5.176   3.086 -0.9210  0.4057  0.2250
 7435TIP3   OH243719   1.241   1.251  15.159 -0.5785 -0.2605 -0.4372
 7435TIP3    H143720   1.158   1.283  15.193  0.8061  1.2059  1.8239
 7435TIP3    H243721   1.253   1.165  15.200 -0.0062  0.4845  1.0089
 7436TIP3   OH243722   0.106   5.430  16.722 -0.3781  0.3023 -0.0052
 7436TIP3    H143723   0.169   5.502  16.718  1.1970 -0.9763  0.7639
 7436TIP3    H243724   0.046   5.447  16.650 -0.1700  2.4736  0.2778
 7437TIP3   OH243725   5.784   5.881  11.538 -0.0742 -0.2543 -0.7211
 7437TIP3    H143726   5.690   5.893  11.552  0.2398  1.1666  0.3287
 7437TIP3    H243727   5.814   5.966  11.507  0.9714 -0.5543 -0.5547
 7438TIP3   OH243728   3.522   6.476  14.764  0.1355  0.0036  0.6682
 7438TIP3    H143729   3.467   6.491  14.687  0.9480 -1.1865 -0.1998
 7438TIP3    H243730   3.489   6.395  14.802  0.3495  0.0692  1.0026
 7439TIP3   OH243731   5.638   3.423  13.268 -0.3999 -0.7224  0.0830
 7439TIP3    H143732   5.586   3.454  13.342 -1.6246 -1.2972 -0.5250
 7439TIP3    H243733   5.679   3.342  13.299  2.2674  0.9881  1.4443
 7440TIP3   OH243734   6.120   6.040  13.921  0.1364 -0.3857 -0.4580
 7440TIP3    H143735   6.139   6.119  13.971 -0.6241 -0.7275  0.4163
 7440TIP3    H243736   6.205   6.008  13.892  0.6586 -0.4702  1.0958
 7441TIP3   OH243737   1.826   6.767  13.591 -0.5826 -0.4167  0.4839
 7441TIP3    H143738   1.867   6.808  13.667  1.6125 -0.3310 -0.6761
 7441TIP3    H243739   1.859   6.678  13.591 -0.8079 -0.5059 -0.1996
 7442TIP3   OH243740   3.564   6.562   4.437 -0.9171 -0.0646  0.1156
 7442TIP3    H143741   3.652   6.598   4.446 -1.4098  1.7989 -1.7081
 7442TIP3    H243742   3.577   6.478   4.392 -0.1319  0.9743 -1.7070
 7443TIP3   OH243743   4.531   4.241   6.201  0.2082  0.1096 -0.2805
 7443TIP3    H143744   4.452   4.187   6.201  0.2189  0.0942 -0.7108
 7443TIP3    H243745   4.553   4.252   6.294 -0.9901  1.1258 -0.0966
 7444TIP3   OH243746   1.455   5.973  16.475  0.3047  0.4049  0.7068
 7444TIP3    H143747   1.515   6.044  16.497 -0.3614  1.7590 -1.4872
 7444TIP3    H243748   1.386   6.016  16.423 -0.5626 -1.7197  0.0054
 7445TIP3   OH243749   5.990   5.178  13.344 -0.7147  0.6777 -0.1580
 7445TIP3    H143750   6.052   5.194  13.415 -1.0970  1.4123  0.0115
 7445TIP3    H243751   6.039   5.121  13.283 -0.7151 -0.7907  1.1366
 7446TIP3   OH243752   0.376   2.574  12.845 -0.0137 -0.2630 -0.5332
 7446TIP3    H143753   0.340   2.554  12.759  1.3142 -1.0768 -0.9301
 7446TIP3    H243754   0.457   2.621  12.827 -0.2004  0.4069  0.3039
 7447TIP3   OH243755   5.346   5.235  12.787 -0.2050  0.0117 -0.7174
 7447TIP3    H143756   5.322   5.145  12.765  0.2271  0.0086 -1.2141
 7447TIP3    H243757   5.379   5.271  12.704 -1.0722  0.8651 -0.7028
 7448TIP3   OH243758   3.351   0.370  15.977 -0.1340  0.5996  0.1498
 7448TIP3    H143759   3.340   0.399  16.067 -2.0503  0.6179 -0.0514
 7448TIP3    H243760   3.316   0.442  15.924  0.4403  0.3446 -0.6009
 7449TIP3   OH243761   3.309   2.856  16.009 -0.3677 -0.0111  0.3034
 7449TIP3    H143762   3.398   2.885  16.028 -0.2311  0.3105 -0.7390
 7449TIP3    H243763   3.309   2.762  16.027 -0.3785  0.3034  2.1883
 7450TIP3   OH243764   2.679   3.047   3.273 -0.4451 -0.1474 -0.1836
 7450TIP3    H143765   2.761   3.096   3.264 -0.4990  0.3615  1.5806
 7450TIP3    H243766   2.689   3.001   3.357 -2.3786  0.8204  0.6311
 7451TIP3   OH243767   0.880   4.877   1.099 -0.2526  0.1632 -0.3835
 7451TIP3    H143768   0.792   4.853   1.072 -0.8345 -0.1396  1.6354
 7451TIP3    H243769   0.935   4.856   1.024 -1.6138 -1.6174 -0.9289
 7452TIP3   OH243770   1.612   2.411  15.869 -0.5741 -0.7572 -0.2615
 7452TIP3    H143771   1.675   2.452  15.928 -2.5142  2.2275 -0.0301
 7452TIP3    H243772   1.607   2.320  15.897  2.2420 -0.6576  0.8354
 7453TIP3   OH243773   3.270   0.771   2.133  0.7589  0.2734  0.1143
 7453TIP3    H143774   3.207   0.843   2.127  0.8082  0.2347 -1.1852
 7453TIP3    H243775   3.222   0.702   2.179  0.0850  0.4825 -0.2629
 7454TIP3   OH243776   6.426   0.059   1.074  0.4529 -0.4073 -0.1690
 7454TIP3    H143777   6.454   0.045   1.164 -0.0327  0.4947  0.1395
 7454TIP3    H243778   6.339   0.019   1.069 -0.3715  1.1973  0.3475
 7455TIP3   OH243779   5.132   4.314   6.626 -0.4211 -0.1045 -0.2702
 7455TIP3    H143780   5.043   4.338   6.602 -0.5611  0.9410  1.1890
 7455TIP3    H243781   5.187   4.384   6.590 -0.0334 -1.2691 -2.0634
 7456TIP3   OH243782   3.514   1.452   5.557  0.3412 -0.2948  0.6425
 7456TIP3    H143783   3.422   1.443   5.533 -0.7489  2.4097  3.1442
 7456TIP3    H243784   3.522   1.406   5.641  0.7767  0.9275  1.3022
 7457TIP3   OH243785   2.770   6.760  16.419 -0.2463 -0.5518  0.1612
 7457TIP3    H143786   2.724   6.692  16.371  0.6652 -0.7665 -0.4466
 7457TIP3    H243787   2.735   6.756  16.508  0.1060 -2.1352  0.2519
 7458TIP3   OH243788   4.207   5.517  12.705 -0.3136 -0.0233 -0.2366
 7458TIP3    H143789   4.260   5.460  12.649 -0.2398  0.6002 -0.8044
 7458TIP3    H243790   4.268   5.548  12.772 -0.9503 -2.7963  1.7903
 7459TIP3   OH243791   3.941   0.397  16.922  0.4792  0.0080  0.2764
 7459TIP3    H143792   3.849   0.420  16.909 -0.1513 -1.6616  1.4124
 7459TIP3    H243793   3.969   0.362  16.838 -0.2411 -0.4121  0.2003
 7460TIP3   OH243794   0.454   1.312   0.875 -0.3203  0.2216 -0.7821
 7460TIP3    H143795   0.384   1.372   0.901  0.0682  0.6256 -0.6588
 7460TIP3    H243796   0.496   1.356   0.800  0.9204  0.8326  0.2404
 7461TIP3   OH243797   2.611   5.145  16.753  0.4082  0.2385  0.5148
 7461TIP3    H143798   2.527   5.186  16.729 -0.2432  0.2198  2.6135
 7461TIP3    H243799   2.671   5.173  16.683 -1.0530  1.1853 -0.4350
 7462TIP3   OH243800   1.867   5.154  13.534 -0.0161  0.0180 -0.1391
 7462TIP3    H143801   1.862   5.082  13.597  0.0916 -1.2793 -1.5431
 7462TIP3    H243802   1.956   5.189  13.546 -0.2794  0.3373  0.9777
 7463TIP3   OH243803   2.010   4.938  12.442  0.6843 -0.1302  0.5745
 7463TIP3    H143804   2.105   4.943  12.436  0.7882 -0.4945  1.6265
 7463TIP3    H243805   1.987   4.855  12.400  0.7432  0.3450 -0.4114
 7464TIP3   OH243806   3.822   5.807  15.447 -0.0154 -0.0347 -0.7261
 7464TIP3    H143807   3.764   5.878  15.419  0.4158  0.4405 -0.4244
 7464TIP3    H243808   3.879   5.791  15.372 -1.3704 -1.4038 -1.5183
 7465TIP3   OH243809   4.585   6.658   5.128  0.0431  0.2536 -0.3383
 7465TIP3    H143810   4.664   6.626   5.173 -0.9803  0.9075  2.0872
 7465TIP3    H243811   4.550   6.581   5.083  0.1637 -0.9625  1.5365
 7466TIP3   OH243812   1.069   6.772  16.506  0.1097 -0.1293 -0.6230
 7466TIP3    H143813   1.155   6.793  16.542 -0.5006  2.4832 -0.4318
 7466TIP3    H243814   1.079   6.786  16.411  0.0517 -0.3900 -0.6676
 7467TIP3   OH243815   1.315   4.846  13.164  0.0654 -0.0386  0.1190
 7467TIP3    H143816   1.380   4.893  13.111 -0.3119  0.3193 -0.0321
 7467TIP3    H243817   1.244   4.827  13.103 -0.5291  0.6845  0.5736
 7468TIP3   OH243818   5.051   3.758   3.254  0.4714  0.1904 -0.1654
 7468TIP3    H143819   5.079   3.823   3.319 -1.0342  0.8383 -0.1319
 7468TIP3    H243820   5.132   3.712   3.231  1.0428 -0.1796  2.2680
 7469TIP3   OH243821   0.350   1.303  15.883  0.3257  0.0798  0.2566
 7469TIP3    H143822   0.440   1.272  15.887  0.7588  0.8807 -1.9113
 7469TIP3    H243823   0.342   1.363  15.957  1.4576 -0.2607  0.6749
 7470TIP3   OH243824   0.444   3.264   5.078 -0.0841  0.1887  0.3995
 7470TIP3    H143825   0.481   3.352   5.089  0.7648  0.7212 -4.3819
 7470TIP3    H243826   0.390   3.271   4.999 -1.5184 -3.1962  0.9359
 7471TIP3   OH243827   2.571   3.426   1.964  0.3115 -0.1560  0.5046
 7471TIP3    H143828   2.519   3.357   1.923 -0.5233  0.9851 -0.4003
 7471TIP3    H243829   2.655   3.422   1.918 -0.6415  1.1641 -1.4722
 7472TIP3   OH243830   6.751   6.467   4.650  0.4249 -0.2895 -0.5747
 7472TIP3    H143831   6.761   6.428   4.737  0.1514 -1.2334 -0.9557
 7472TIP3    H243832   6.663   6.442   4.622  0.9372 -0.9830 -1.6068
 7473TIP3   OH243833   4.553   0.889  13.922 -0.0768 -0.0525  0.5231
 7473TIP3    H143834   4.532   0.891  13.829  3.4242 -1.4495 -0.4737
 7473TIP3    H243835   4.546   0.980  13.951  1.6043  0.9579 -1.9171
 7474TIP3   OH243836   5.012   3.054  16.858  0.4651  0.3968 -0.1542
 7474TIP3    H143837   4.933   3.017  16.898  0.1449 -0.2299 -1.3165
 7474TIP3    H243838   5.005   3.148  16.873  0.2081  0.2083  0.9764
 7475TIP3   OH243839   4.951   4.645   1.349 -0.5334  0.5846  0.5908
 7475TIP3    H143840   5.027   4.587   1.357 -1.3903 -0.8224 -0.9251
 7475TIP3    H243841   4.946   4.689   1.434  0.7806 -0.7845  1.4300
 7476TIP3   OH243842   6.643   1.637  14.676 -1.0157  0.9753 -0.2833
 7476TIP3    H143843   6.709   1.704  14.696  0.3832 -0.5602  0.4827
 7476TIP3    H243844   6.631   1.643  14.582 -0.6947  2.0954 -0.2761
 7477TIP3   OH243845   3.638   4.526   4.842 -0.1588 -0.1446  0.3523
 7477TIP3    H143846   3.646   4.519   4.747  1.1982  1.1194  0.3348
 7477TIP3    H243847   3.667   4.441   4.875  3.0456  0.5971 -0.2637
 7478TIP3   OH243848   4.992   1.089  16.010  0.1894  0.3696  0.4513
 7478TIP3    H143849   4.966   1.155  15.945 -0.3004 -1.9520 -1.8670
 7478TIP3    H243850   4.915   1.032  16.018  1.4108 -1.3329  0.4862
 7479TIP3   OH243851   5.180   4.605  10.717  0.0888  0.1869 -0.3838
 7479TIP3    H143852   5.177   4.523  10.668  2.3859 -0.5803  0.6148
 7479TIP3    H243853   5.250   4.656  10.676  1.4405 -0.0944  1.4270
 7480TIP3   OH243854   6.642   2.709  16.373 -0.1700 -0.0133  0.3552
 7480TIP3    H143855   6.708   2.669  16.430 -0.1759 -0.1748  0.2470
 7480TIP3    H243856   6.601   2.776  16.428 -0.6007 -0.5824  0.7383
 7481TIP3   OH243857   1.406   6.072   3.321 -0.4138  0.1257 -0.3384
 7481TIP3    H143858   1.490   6.048   3.282 -0.9417 -2.0193 -0.2799
 7481TIP3    H243859   1.341   6.050   3.254 -1.1402 -1.3134  0.7666
 7482TIP3   OH243860   2.819   1.891   3.743  0.2596  0.3378 -0.1093
 7482TIP3    H143861   2.730   1.859   3.761  0.5236  0.1260  0.9199
 7482TIP3    H243862   2.810   1.944   3.664 -0.6864 -0.0992 -0.3128
 7483TIP3   OH243863   4.442   5.185  16.665 -0.3643  0.3963 -0.1122
 7483TIP3    H143864   4.437   5.118  16.732  3.0233  1.6097  1.6087
 7483TIP3    H243865   4.363   5.238  16.677 -1.9745 -1.8825 -0.0618
 7484TIP3   OH243866   0.411   5.032   0.075  0.5126  0.3357  0.0266
 7484TIP3    H143867   0.364   5.114   0.090  3.4390  2.3793 -1.0313
 7484TIP3    H243868   0.480   5.032   0.141 -0.4128 -2.2188  1.1132
 7485TIP3   OH243869   3.448   3.489  15.608  0.3393 -0.0664 -0.0284
 7485TIP3    H143870   3.372   3.460  15.558  0.9633 -0.1713 -0.9395
 7485TIP3    H243871   3.437   3.584  15.615 -0.1810 -0.1500  0.3842
 7486TIP3   OH243872   4.504   2.465  15.103  0.5569 -0.2234  0.1788
 7486TIP3    H143873   4.560   2.479  15.180 -0.1711  2.5328  0.2989
 7486TIP3    H243874   4.416   2.486  15.134  0.1083 -0.0946 -1.1517
 7487TIP3   OH243875   6.715   2.552   2.330  0.1189  0.3754  0.1440
 7487TIP3    H143876   6.635   2.604   2.325  1.0804  1.9561  0.5673
 7487TIP3    H243877   6.710   2.492   2.256 -2.0801 -0.5129  0.9248
 7488TIP3   OH243878   0.143   5.877   2.213 -0.1046  0.5760 -0.3922
 7488TIP3    H143879   0.107   5.804   2.164  0.6885 -0.0672 -0.0382
 7488TIP3    H243880   0.182   5.837   2.290  1.3005  1.2487 -0.7282
 7489TIP3   OH243881   6.059   6.417   6.099 -0.1462 -0.3727  0.0404
 7489TIP3    H143882   6.001   6.363   6.046  0.3589  0.0185 -0.9259
 7489TIP3    H243883   6.083   6.490   6.042  1.7261 -0.8017  0.2132
 7490TIP3   OH243884   3.306   3.757   2.195 -0.2653  0.3037  0.2720
 7490TIP3    H143885   3.263   3.799   2.269 -1.6015 -1.2338  0.4200
 7490TIP3    H243886   3.386   3.720   2.232  0.2498  1.4943  0.4150
 7491TIP3   OH243887   1.584   5.841   4.438  0.5832  0.0639 -0.0568
 7491TIP3    H143888   1.496   5.821   4.408  0.9709 -0.7816 -0.6566
 7491TIP3    H243889   1.586   5.937   4.444 -0.1461  0.1287 -0.7259
 7492TIP3   OH243890   1.584   6.055  13.924  0.0734 -0.1253 -0.2684
 7492TIP3    H143891   1.556   5.965  13.938 -1.7683  0.4325 -0.0910
 7492TIP3    H243892   1.523   6.090  13.859  0.9848  0.8889 -0.6092
 7493TIP3   OH243893   1.147   5.930   0.991  0.4259  0.1334 -0.2444
 7493TIP3    H143894   1.215   5.982   1.035  1.4472 -0.5395 -0.9770
 7493TIP3    H243895   1.183   5.913   0.904  0.4837 -2.3647  0.1872
 7494TIP3   OH243896   5.542   1.575   1.532  0.2158 -0.2902 -0.1892
 7494TIP3    H143897   5.549   1.648   1.593  0.9162  0.1755 -0.7917
 7494TIP3    H243898   5.449   1.568   1.513 -0.0305 -0.5738  1.0692
 7495TIP3   OH243899   1.407   3.050   4.301 -0.3643  0.5386 -0.4971
 7495TIP3    H143900   1.349   3.123   4.322 -0.0902  0.8434 -0.7786
 7495TIP3    H243901   1.450   3.030   4.384 -1.1840  0.0217 -0.1897
 7496TIP3   OH243902   3.191   0.433   4.163  0.2992  0.5979  0.2114
 7496TIP3    H143903   3.271   0.466   4.123  0.1275 -0.1414 -0.7937
 7496TIP3    H243904   3.217   0.349   4.201 -0.1330  0.0254 -0.7213
 7497TIP3   OH243905   5.799   6.420   6.433 -0.0094 -0.3545 -0.4534
 7497TIP3    H143906   5.807   6.443   6.340 -0.2816 -0.8126 -0.5944
 7497TIP3    H243907   5.778   6.327   6.433 -0.1879 -0.3175  0.0634
 7498TIP3   OH243908   0.001   3.243   0.873  0.7372  0.8220 -0.0320
 7498TIP3    H143909  -0.071   3.304   0.856 -0.2650  0.0416  1.2898
 7498TIP3    H243910   0.062   3.258   0.800 -0.6155  1.6951 -1.0351
 7499TIP3   OH243911   3.735   1.740   3.337 -0.3370 -0.9037  0.1049
 7499TIP3    H143912   3.776   1.804   3.279  0.9035 -1.1585  0.6638
 7499TIP3    H243913   3.801   1.673   3.349 -0.3146 -0.5701  2.2753
 7500TIP3   OH243914   0.037   4.031  14.780 -0.1878  0.0609  0.0313
 7500TIP3    H143915   0.011   3.956  14.726 -0.2885  0.2294 -0.1572
 7500TIP3    H243916   0.119   4.061  14.741 -0.8388  0.8907 -0.7508
 7501TIP3   OH243917   6.326   6.261  14.526  0.2629  0.3736 -0.5457
 7501TIP3    H143918   6.354   6.344  14.563  0.5017 -1.1058  2.9002
 7501TIP3    H243919   6.408   6.214  14.508  0.1752 -0.6539  1.4845
 7502TIP3   OH243920   5.459   4.233   6.271 -0.4796  0.3013 -0.3860
 7502TIP3    H143921   5.550   4.259   6.284 -0.0969 -0.7625 -0.7941
 7502TIP3    H243922   5.428   4.209   6.358 -0.4733  0.9480 -0.1984
 7503TIP3   OH243923   3.540   0.225   3.655 -0.3083 -0.3243  0.3444
 7503TIP3    H143924   3.571   0.191   3.740 -1.7082 -0.9758  0.6213
 7503TIP3    H243925   3.599   0.186   3.591  0.5380 -0.1207  0.9710
 7504TIP3   OH243926   3.061   3.975  16.846  0.8123  0.3095  0.0008
 7504TIP3    H143927   3.132   3.935  16.797  0.1110 -1.2909  0.2296
 7504TIP3    H243928   3.094   3.983  16.935  1.6395  2.0635 -0.4336
 7505TIP3   OH243929   2.388   3.755   0.106 -0.5729  0.1562  0.4652
 7505TIP3    H143930   2.469   3.801   0.127  0.1767 -1.0274  0.2629
 7505TIP3    H243931   2.357   3.721   0.189  0.8517 -2.0635  0.1661
 7506TIP3   OH243932   2.846   4.236  14.184  0.5670  0.2239 -0.3788
 7506TIP3    H143933   2.801   4.304  14.235  1.2061  0.4067 -0.0542
 7506TIP3    H243934   2.824   4.154  14.228  0.5715  0.3151 -0.2079
 7507TIP3   OH243935   2.724   3.767  15.057 -0.8136  0.7360  0.3556
 7507TIP3    H143936   2.699   3.680  15.027 -5.1731  1.2767  1.6444
 7507TIP3    H243937   2.693   3.826  14.988 -1.0703  1.3962  1.0139
 7508TIP3   OH243938   6.283   1.941   3.216  0.1179 -0.2399 -0.1988
 7508TIP3    H143939   6.238   2.025   3.211 -0.9740 -0.8238 -0.3653
 7508TIP3    H243940   6.236   1.893   3.285  2.5589  0.3439  2.0500
 7509TIP3   OH243941   3.837   6.039  13.531 -0.2787  0.0080  0.4404
 7509TIP3    H143942   3.750   6.078  13.519  0.0210  0.6962  0.4279
 7509TIP3    H243943   3.840   6.015  13.624 -0.7291 -0.6475  0.2897
 7510TIP3   OH243944   1.255   0.187  12.478  0.2957 -0.0798 -0.6218
 7510TIP3    H143945   1.331   0.227  12.436 -1.0851  0.5443 -2.6846
 7510TIP3    H243946   1.184   0.250  12.464 -0.8703 -1.1622  0.2095
 7511TIP3   OH243947   3.299   0.147   3.562 -0.2297 -0.8722 -0.3558
 7511TIP3    H143948   3.224   0.192   3.601 -0.5482 -1.7967  0.1287
 7511TIP3    H243949   3.372   0.165   3.621 -0.0852 -0.1078 -0.7423
 7512TIP3   OH243950   3.082   1.770  14.122  0.2503 -0.0480 -0.6464
 7512TIP3    H143951   3.066   1.845  14.179  2.3084  0.2411 -0.3819
 7512TIP3    H243952   3.038   1.792  14.041 -0.2383  0.8794 -0.1474
 7513TIP3   OH243953   3.935   1.207   1.544 -0.2242 -0.5093  0.6836
 7513TIP3    H143954   3.947   1.275   1.478 -0.3345 -0.5029  0.6686
 7513TIP3    H243955   3.912   1.255   1.624  1.6176 -0.3934  1.1906
 7514TIP3   OH243956   0.421   4.044   1.699 -0.2879  0.1642  0.3760
 7514TIP3    H143957   0.397   3.965   1.749  0.9426 -2.0982 -2.3210
 7514TIP3    H243958   0.379   4.032   1.614  0.4790  2.1242 -0.3252
 7515TIP3   OH243959   5.294   2.286  16.759 -0.2003  0.7239 -0.0196
 7515TIP3    H143960   5.248   2.329  16.831 -0.5308  1.8977 -0.9025
 7515TIP3    H243961   5.313   2.356  16.697 -0.6544 -0.3720 -1.4692
 7516TIP3   OH243962   0.077   2.953  16.350 -0.4903  0.1667 -0.4552
 7516TIP3    H143963   0.031   2.903  16.418 -1.1895 -2.1917 -2.4873
 7516TIP3    H243964   0.008   2.981  16.290  0.2680  0.7544 -1.0753
 7517TIP3   OH243965   0.076   4.278   5.049  0.4678  0.3621 -0.0976
 7517TIP3    H143966   0.095   4.331   5.127 -0.5070 -1.0103  1.1264
 7517TIP3    H243967   0.007   4.326   5.004  2.1108  1.9867 -1.0445
 7518TIP3   OH243968   5.028   4.175   1.986 -0.7644 -0.3643 -0.2038
 7518TIP3    H143969   4.996   4.258   2.021  0.5249 -0.2909  0.8956
 7518TIP3    H243970   4.970   4.109   2.024  1.8250 -0.5257  4.1431
 7519TIP3   OH243971   0.908   3.574  11.269 -0.1457  0.5053 -0.3115
 7519TIP3    H143972   0.955   3.509  11.218 -0.1771  0.7983 -0.7142
 7519TIP3    H243973   0.955   3.656  11.254  0.1258  0.5092  0.5013
 7520TIP3   OH243974   1.743   3.527  16.016  0.4091  0.4081  0.1217
 7520TIP3    H143975   1.688   3.455  16.045 -0.1798  0.0105 -1.8708
 7520TIP3    H243976   1.710   3.603  16.064 -0.9821 -0.0871 -0.0128
 7521TIP3   OH243977   6.632   2.496  15.745  0.5213  0.5974 -0.5442
 7521TIP3    H143978   6.596   2.533  15.664 -0.8346 -0.3524 -0.4135
 7521TIP3    H243979   6.671   2.413  15.718  1.9006  1.2219 -0.5362
 7522TIP3   OH243980   2.108   4.726   1.171 -0.2217  0.1042  0.1069
 7522TIP3    H143981   2.158   4.787   1.225 -1.1640  0.9415  0.0748
 7522TIP3    H243982   2.159   4.646   1.172  0.3043  0.4231  1.3902
 7523TIP3   OH243983   0.065   2.501   4.580 -0.5391  0.0354  0.5859
 7523TIP3    H143984   0.134   2.499   4.514 -1.9282  0.6966 -0.9481
 7523TIP3    H243985   0.017   2.582   4.563 -1.7251 -0.4201  1.5868
 7524TIP3   OH243986   1.985   0.167  14.117 -0.1731 -0.1809  0.3657
 7524TIP3    H143987   1.907   0.138  14.164 -0.2774 -0.4285  0.0405
 7524TIP3    H243988   2.003   0.255  14.152 -1.1681  0.2757 -0.2580
 7525TIP3   OH243989   4.213   2.793   1.991 -0.2671  0.1486 -0.0209
 7525TIP3    H143990   4.302   2.772   1.962  0.1715  0.2205  1.2170
 7525TIP3    H243991   4.179   2.710   2.025 -0.2684  0.3635  0.5089
 7526TIP3   OH243992   3.450   6.568  11.337 -0.3185 -0.1352 -0.3422
 7526TIP3    H143993   3.430   6.486  11.291  0.3658 -0.7685  0.4562
 7526TIP3    H243994   3.544   6.582  11.322 -0.6949  1.2835 -1.6644
 7527TIP3   OH243995   2.539   5.221   4.891 -0.2241 -0.2988  0.2072
 7527TIP3    H143996   2.576   5.281   4.827  0.6444 -2.0626 -1.0059
 7527TIP3    H243997   2.591   5.236   4.970 -0.2318  0.7430  0.0307
 7528TIP3   OH243998   3.965   3.113  13.756  0.1463  0.1858  0.5874
 7528TIP3    H143999   3.974   3.037  13.700  2.0022  0.0583  0.9851
 7528TIP3    H244000   3.987   3.081  13.844 -1.3724  0.6784  1.1852
 7529TIP3   OH244001   0.678   4.338   5.835 -0.4312 -0.2675  0.4847
 7529TIP3    H144002   0.709   4.306   5.919 -1.7173 -0.8614  0.7544
 7529TIP3    H244003   0.681   4.262   5.777  0.1905  0.0739  0.0548
 7530TIP3   OH244004   6.350   2.963  14.123 -0.3362  0.1000 -0.5402
 7530TIP3    H144005   6.307   2.913  14.192  0.4765  0.6814  0.4141
 7530TIP3    H244006   6.383   3.041  14.167  1.8916 -0.4184 -1.1733
 7531TIP3   OH244007   5.593   4.135   3.463 -0.3909 -0.6064  0.3184
 7531TIP3    H144008   5.610   4.086   3.544  0.1043  0.5505  0.9331
 7531TIP3    H244009   5.564   4.221   3.492 -2.7503 -0.9598 -0.7407
 7532TIP3   OH244010   0.615   6.266   4.897 -0.1891 -0.0372  0.3561
 7532TIP3    H144011   0.521   6.283   4.888 -0.1049  0.0679 -0.4055
 7532TIP3    H244012   0.657   6.341   4.854  0.2934  0.9952  2.4988
 7533TIP3   OH244013   0.540   6.348   0.468 -0.1828 -0.1834  0.1844
 7533TIP3    H144014   0.583   6.267   0.496 -0.9888 -1.1876 -1.3121
 7533TIP3    H244015   0.455   6.347   0.513  0.1211  0.2434  0.7759
 7534TIP3   OH244016   0.286   2.166  14.214 -0.5780  0.1614  0.2142
 7534TIP3    H144017   0.255   2.115  14.139  0.1250  0.0554 -0.0094
 7534TIP3    H244018   0.276   2.108  14.289  2.5520 -1.3213 -0.3559
 7535TIP3   OH244019   6.194   3.067   1.259 -0.3226 -0.2335 -0.1613
 7535TIP3    H144020   6.166   3.144   1.209 -0.2054 -0.2399 -0.2361
 7535TIP3    H244021   6.270   3.098   1.310  1.4396 -0.9788 -2.1831
 7536TIP3   OH244022   3.321   6.071   4.982 -0.0303  0.1244 -0.6002
 7536TIP3    H144023   3.248   6.074   4.920 -0.4695 -1.9836 -0.2585
 7536TIP3    H244024   3.280   6.082   5.067  0.4514  1.9682 -0.5743
 7537TIP3   OH244025   4.592   2.289   5.481  0.1503  0.1509  0.5259
 7537TIP3    H144026   4.666   2.303   5.540 -0.4475 -1.1106  1.6383
 7537TIP3    H244027   4.531   2.235   5.532 -0.7544 -0.3085 -0.9857
 7538TIP3   OH244028   1.896   0.424   4.748 -0.1399  0.3351  0.1707
 7538TIP3    H144029   1.835   0.451   4.680  0.0260  0.7214  0.1726
 7538TIP3    H244030   1.961   0.494   4.751  0.9809 -0.6335 -0.6702
 7539TIP3   OH244031   6.172   4.105  12.003 -0.6274  0.1597 -0.5092
 7539TIP3    H144032   6.129   4.169  11.946 -0.7013 -0.0580 -0.7006
 7539TIP3    H244033   6.115   4.098  12.079 -0.9320 -0.1352 -0.7676
 7540TIP3   OH244034   2.091   2.143  10.736 -0.3180  0.2789  0.1094
 7540TIP3    H144035   2.093   2.136  10.640 -0.0574  3.0127 -0.1805
 7540TIP3    H244036   2.179   2.119  10.764 -1.1193 -3.2557  0.0348
 7541TIP3   OH244037   1.087   1.046  10.948 -0.0980 -0.2411 -0.8609
 7541TIP3    H144038   1.118   1.136  10.938 -1.7012  0.3781 -0.6230
 7541TIP3    H244039   1.095   1.008  10.860  3.4928 -0.9439 -0.3921
 7542TIP3   OH244040   0.413   2.118   3.674  0.0189 -0.0012 -0.6804
 7542TIP3    H144041   0.361   2.159   3.743 -0.1922  1.7132 -1.8165
 7542TIP3    H244042   0.503   2.141   3.695  0.0229 -0.1057 -0.5801
 7543TIP3   OH244043   6.205   1.265   0.711  0.3034  0.1117  0.2251
 7543TIP3    H144044   6.236   1.306   0.792 -0.4439 -0.9770  1.0809
 7543TIP3    H244045   6.112   1.287   0.706  0.5653  1.0287 -0.8831
 7544TIP3   OH244046   2.546   5.956   3.689  0.4944  0.1532 -0.5468
 7544TIP3    H144047   2.552   5.875   3.740 -0.8372 -1.3356 -2.5815
 7544TIP3    H244048   2.585   5.933   3.604  1.1337  2.0204 -0.8025
 7545TIP3   OH244049   3.392   5.924  14.655  0.4763 -0.5285 -0.0107
 7545TIP3    H144050   3.352   5.838  14.667 -0.2559 -0.6922 -2.7443
 7545TIP3    H244051   3.473   5.921  14.705  0.2746 -2.6566  0.2738
 7546TIP3   OH244052   2.389   5.420  13.772  0.2608 -0.2365  0.3933
 7546TIP3    H144053   2.393   5.475  13.850  1.3823  0.0447  0.1547
 7546TIP3    H244054   2.344   5.341  13.801  1.3873 -0.4931  1.5607
 7547TIP3   OH244055   2.404   4.596   4.300 -0.1160 -0.3093  0.3831
 7547TIP3    H144056   2.413   4.630   4.389 -2.3748 -1.6645  1.2235
 7547TIP3    H244057   2.488   4.614   4.259 -0.0827  3.3049  1.7186
 7548TIP3   OH244058   5.341   6.542  16.496  0.2509 -0.2837  0.0818
 7548TIP3    H144059   5.436   6.535  16.496  0.2867  0.1467  0.1284
 7548TIP3    H244060   5.310   6.466  16.545  0.5550 -0.6014 -0.2184
 7549TIP3   OH244061   0.323   2.944   4.406  0.2333  0.0771 -0.4430
 7549TIP3    H144062   0.248   2.982   4.359 -0.9706 -0.3943  1.0418
 7549TIP3    H244063   0.317   2.980   4.494  1.8638  0.1315 -0.3230
 7550TIP3   OH244064   2.755   4.808   1.344  0.1334 -0.0264 -0.0070
 7550TIP3    H144065   2.814   4.792   1.270 -1.5650  0.4598 -1.5420
 7550TIP3    H244066   2.671   4.829   1.303 -1.0791 -0.5337  2.0867
 7551TIP3   OH244067   3.121   0.502  11.208  0.0867 -0.2518  0.1955
 7551TIP3    H144068   3.158   0.531  11.292 -0.3767 -0.0072  0.3171
 7551TIP3    H244069   3.095   0.583  11.164 -1.4238 -0.4676  0.6288
 7552TIP3   OH244070   3.946   3.191  11.673  0.0118  0.1094 -0.3033
 7552TIP3    H144071   3.985   3.217  11.756  0.6367  0.9848 -0.8600
 7552TIP3    H244072   3.868   3.246  11.665  1.5875  2.3037 -1.7056
 7553TIP3   OH244073   3.942   6.461  13.823  0.1247 -0.2838 -0.2089
 7553TIP3    H144074   3.876   6.410  13.777  1.1118 -1.4981 -0.3121
 7553TIP3    H244075   3.897   6.494  13.901 -0.7297 -0.6580 -0.5324
 7554TIP3   OH244076   0.047   5.006   2.124  0.2507 -0.1513 -0.5102
 7554TIP3    H144077   0.098   4.939   2.169  1.2558 -0.4889 -2.0827
 7554TIP3    H244078   0.111   5.073   2.099 -0.2865  0.0969 -1.2774
 7555TIP3   OH244079   2.874   2.406   5.635  0.0098 -0.3357  0.1608
 7555TIP3    H144080   2.852   2.313   5.631  0.0921 -0.3318 -0.5526
 7555TIP3    H244081   2.866   2.429   5.727  0.8576 -1.2603  0.4841
 7556TIP3   OH244082   2.052   1.255  12.855  0.2185  0.5184  0.7057
 7556TIP3    H144083   2.021   1.338  12.890 -1.2149 -0.2497  1.3236
 7556TIP3    H244084   1.995   1.238  12.780  0.3497 -0.0297  0.7264
 7557TIP3   OH244085   1.608   1.902  14.388 -0.0023 -0.0417 -0.5664
 7557TIP3    H144086   1.544   1.832  14.376  1.5713 -1.6054 -0.1951
 7557TIP3    H244087   1.681   1.862  14.435  0.5816  2.0918  0.4949
 7558TIP3   OH244088   1.268   1.675  14.035  0.5716 -0.8899 -0.5175
 7558TIP3    H144089   1.201   1.744  14.033  1.2098 -0.2647 -0.5920
 7558TIP3    H244090   1.351   1.721  14.024  0.9882 -1.7109 -0.9139
 7559TIP3   OH244091   0.761   0.272  14.691 -0.4672  0.4199  0.2715
 7559TIP3    H144092   0.800   0.343  14.640  1.6953 -1.1884 -0.4564
 7559TIP3    H244093   0.747   0.310  14.777  1.7741  1.4553  0.2571
 7560TIP3   OH244094   6.705   1.996   3.955 -0.2918  0.3181  0.3831
 7560TIP3    H144095   6.671   1.907   3.939  1.9935 -0.6667  0.5631
 7560TIP3    H244096   6.767   2.011   3.883 -0.6739  1.8075  0.3327
 7561TIP3   OH244097   1.732   5.001   1.007 -0.2101 -0.3247 -0.1947
 7561TIP3    H144098   1.779   4.984   0.926 -0.2640 -0.4931 -0.1906
 7561TIP3    H244099   1.801   5.009   1.073 -0.2286 -1.6347  0.0071
 7562TIP3   OH244100   4.818   2.890   5.646 -0.2129 -0.6643  0.0828
 7562TIP3    H144101   4.833   2.797   5.629  1.2294 -0.2109 -1.3167
 7562TIP3    H244102   4.789   2.925   5.562 -1.5407  0.0272  0.7944
 7563TIP3   OH244103   5.805   4.335  13.929 -0.0707 -0.2448  0.9843
 7563TIP3    H144104   5.784   4.407  13.869  0.6898 -0.6087  0.2553
 7563TIP3    H244105   5.721   4.293  13.947 -0.1766 -0.8321 -0.7510
 7564TIP3   OH244106   5.477   4.694   3.456  0.0103 -0.7766  0.0555
 7564TIP3    H144107   5.492   4.698   3.362 -0.7738  1.3579 -0.0411
 7564TIP3    H244108   5.517   4.774   3.491 -0.6212 -1.0057  1.3807
 7565TIP3   OH244109   3.471   5.485   7.047  0.0725 -0.1095  0.5807
 7565TIP3    H144110   3.426   5.403   7.069 -1.4284  0.6707  0.5828
 7565TIP3    H244111   3.553   5.458   7.005 -1.7136 -1.6820 -2.2282
 7566TIP3   OH244112   3.130   0.950   4.409 -0.0321 -0.7368  0.8615
 7566TIP3    H144113   3.169   0.866   4.386  0.6951  0.6390 -4.0168
 7566TIP3    H244114   3.039   0.944   4.381  0.3151  0.3926 -0.6150
 7567TIP3   OH244115   0.459   0.898  11.454 -0.6840 -0.4773  0.0620
 7567TIP3    H144116   0.394   0.864  11.516 -0.5048  0.1961  0.6284
 7567TIP3    H244117   0.421   0.980  11.423 -0.5704 -0.5960 -0.3833
 7568TIP3   OH244118   5.508   0.249   3.725  0.1957  0.6486 -0.2290
 7568TIP3    H144119   5.575   0.221   3.787  0.2428 -1.0331 -0.9712
 7568TIP3    H244120   5.540   0.332   3.690  0.3734  1.3956  1.6342
 7569TIP3   OH244121   4.169   5.228  15.450  0.0662  0.5930 -0.3118
 7569TIP3    H144122   4.214   5.166  15.394  1.0116 -0.6290  1.7017
 7569TIP3    H244123   4.192   5.314  15.414 -0.1451 -0.1188 -2.3079
 7570TIP3   OH244124   0.714   6.403   3.281  0.0421 -0.5756  0.3394
 7570TIP3    H144125   0.635   6.431   3.236  0.6585  0.8960  0.1137
 7570TIP3    H244126   0.776   6.384   3.211  0.2272 -0.6600  0.5228
 7571TIP3   OH244127   4.828   4.427   4.000 -0.1925  0.4155 -0.3300
 7571TIP3    H144128   4.885   4.496   3.966  1.7029  0.5861  2.7694
 7571TIP3    H244129   4.757   4.474   4.043 -0.1889  0.3472 -0.2509
 7572TIP3   OH244130   1.046   3.685  12.872 -0.1328 -0.4245 -0.1382
 7572TIP3    H144131   0.974   3.639  12.916 -0.7639 -0.6178 -1.3242
 7572TIP3    H244132   1.037   3.776  12.899 -0.0443 -0.6612  0.7165
 7573TIP3   OH244133   0.695   4.967  17.213  0.3598  0.4201 -0.2708
 7573TIP3    H144134   0.659   4.911  17.281  0.8808  0.2742 -0.1113
 7573TIP3    H244135   0.635   4.957  17.139 -0.3452  0.7789  0.2512
 7574TIP3   OH244136   2.960   4.117   1.717  0.5363  0.1900  0.8516
 7574TIP3    H144137   2.902   4.096   1.644  0.8851  0.5190  0.4682
 7574TIP3    H244138   3.018   4.185   1.682  0.1039  1.0308  1.7297
 7575TIP3   OH244139   3.857   0.597   2.679 -0.1614 -0.4101  0.3874
 7575TIP3    H144140   3.896   0.566   2.598 -0.2992 -0.2470  0.2580
 7575TIP3    H244141   3.930   0.607   2.739 -0.1482 -1.2983  0.5337
 7576TIP3   OH244142   4.312   6.695   5.273  0.4218 -0.7683  0.0605
 7576TIP3    H144143   4.406   6.679   5.286  0.8705 -0.3254 -2.2672
 7576TIP3    H244144   4.303   6.790   5.273  0.3335 -0.7434 -1.6517
 7577TIP3   OH244145   1.065   2.015  16.860 -0.4303  0.3062 -0.2741
 7577TIP3    H144146   1.094   2.047  16.946  2.1326 -1.2524 -0.4658
 7577TIP3    H244147   1.009   1.940  16.880  1.2830 -0.9273  0.0833
 7578TIP3   OH244148   0.820   1.576   4.419  0.5230 -0.1832  0.3697
 7578TIP3    H144149   0.791   1.500   4.470  2.9976 -0.9634  0.7475
 7578TIP3    H244150   0.907   1.598   4.455  1.9352 -0.1016 -2.7563
 7579TIP3   OH244151   0.756   2.791   5.133 -0.2909 -0.0261 -0.0005
 7579TIP3    H144152   0.682   2.845   5.105  0.3451  0.4894 -0.7688
 7579TIP3    H244153   0.833   2.836   5.096  0.2335 -1.6773 -1.0488
 7580TIP3   OH244154   2.292   1.990   2.610  0.1733  0.3293 -0.4856
 7580TIP3    H144155   2.325   2.080   2.613  0.2679  0.3156 -1.0640
 7580TIP3    H244156   2.239   1.986   2.531 -2.1581  0.6496  0.9849
 7581TIP3   OH244157   1.323   0.832   0.171  0.7096 -0.0590 -0.6305
 7581TIP3    H144158   1.350   0.766   0.107 -0.2971  0.3550 -1.5291
 7581TIP3    H244159   1.230   0.846   0.151 -0.4846 -1.9867  2.7592
 7582TIP3   OH244160   5.498   2.947  14.091  0.3186  0.0662 -0.2071
 7582TIP3    H144161   5.404   2.930  14.101  0.6488 -1.2893  0.8509
 7582TIP3    H244162   5.540   2.891  14.156  1.8770  0.6387 -0.6680
 7583TIP3   OH244163   0.068   4.013  11.219 -0.3021 -0.6280 -0.0665
 7583TIP3    H144164   0.014   4.079  11.263  0.4362  1.1357 -1.6767
 7583TIP3    H244165   0.011   3.977  11.151 -0.1730 -0.3999 -0.2977
 7584TIP3   OH244166   2.576   0.829  11.756 -0.1736  0.2839  0.5241
 7584TIP3    H144167   2.540   0.914  11.732 -0.8988 -0.1867 -0.0725
 7584TIP3    H244168   2.668   0.834  11.728 -0.3697  0.6392 -0.0770
 7585TIP3   OH244169   4.903   4.800  14.212  0.2069 -0.6549  0.5060
 7585TIP3    H144170   4.885   4.713  14.175  1.1041 -0.9763  0.8130
 7585TIP3    H244171   4.828   4.817  14.269 -0.7413 -0.5541 -0.7062
 7586TIP3   OH244172   6.740   0.756  11.366  0.1231 -0.1211  0.3721
 7586TIP3    H144173   6.655   0.733  11.403  0.6710 -2.1458  0.4560
 7586TIP3    H244174   6.756   0.845  11.399 -1.3633 -0.1804  1.3996
 7587TIP3   OH244175   3.968   0.630  17.116 -0.0370 -0.5574 -0.3752
 7587TIP3    H144176   3.924   0.612  17.033 -1.8700  0.5631  0.3022
 7587TIP3    H244177   4.031   0.558  17.126  0.3312 -0.6498 -2.7774
 7588TIP3   OH244178   4.404   1.486   5.495 -0.2137  0.1279  0.1281
 7588TIP3    H144179   4.443   1.473   5.409 -1.4519 -1.7097 -0.2099
 7588TIP3    H244180   4.431   1.574   5.521  0.1245  0.7589 -2.1629
 7589TIP3   OH244181   4.886   2.509  12.534  0.7621  0.3811 -0.0522
 7589TIP3    H144182   4.817   2.531  12.597  0.0303 -1.9116  0.0171
 7589TIP3    H244183   4.898   2.590  12.484 -0.2176  1.5839  1.5341
 7590TIP3   OH244184   0.795   5.607   2.320  0.4859  0.1841 -0.5881
 7590TIP3    H144185   0.883   5.627   2.350  0.6869 -1.7352  0.2676
 7590TIP3    H244186   0.786   5.653   2.237  2.0769  0.8686 -0.4020
 7591TIP3   OH244187   4.916   2.285  16.833  0.6392 -0.4271 -0.0821
 7591TIP3    H144188   4.826   2.307  16.810  0.8366 -0.5204 -0.9978
 7591TIP3    H244189   4.912   2.193  16.860  0.4693 -0.4462 -0.1736
 7592TIP3   OH244190   4.945   0.530   1.366 -0.7139  0.2261 -0.1001
 7592TIP3    H144191   5.015   0.543   1.430  0.0855 -0.2497 -0.8675
 7592TIP3    H244192   4.869   0.574   1.405 -0.5035 -0.8527  1.6252
 7593TIP3   OH244193   0.441   5.339  15.636  0.5446 -0.7828 -0.2187
 7593TIP3    H144194   0.502   5.277  15.595  1.6430  0.4666 -0.5551
 7593TIP3    H244195   0.498   5.404  15.677 -0.5489  0.8941 -1.2818
 7594TIP3   OH244196   1.401   0.772   3.929 -0.2293 -0.2252  0.2818
 7594TIP3    H144197   1.347   0.849   3.911 -1.0534 -0.8141  0.1819
 7594TIP3    H244198   1.491   0.804   3.922 -0.5433  1.0429  1.5739
 7595TIP3   OH244199   5.728   4.991  17.036  0.4954  0.1905  0.9358
 7595TIP3    H144200   5.799   4.934  17.006 -0.3400  0.2531 -1.3659
 7595TIP3    H244201   5.650   4.936  17.033 -0.2690  1.2690 -1.0231
 7596TIP3   OH244202   0.873   1.815  11.913 -0.6581 -0.0681  0.1713
 7596TIP3    H144203   0.867   1.723  11.888 -0.1826 -1.2023  3.6649
 7596TIP3    H244204   0.956   1.844  11.877 -0.5470 -1.1546 -0.5029
 7597TIP3   OH244205   2.365   3.074  16.896 -0.0716  0.4877  0.5498
 7597TIP3    H144206   2.361   3.164  16.866 -0.5181  0.6194  0.9789
 7597TIP3    H244207   2.413   3.078  16.979 -0.1025  0.3350  0.5762
 7598TIP3   OH244208   0.124   3.554   0.873 -0.3365 -0.0943 -0.2358
 7598TIP3    H144209   0.099   3.522   0.960  0.3495  0.6951  0.2759
 7598TIP3    H244210   0.129   3.476   0.819  0.3345 -0.7560  0.7284
 7599TIP3   OH244211   6.065   1.131  12.914 -0.4209 -0.2069  0.3493
 7599TIP3    H144212   6.030   1.193  12.850  1.6456  0.1387 -0.5311
 7599TIP3    H244213   6.026   1.157  12.997 -1.8569  0.3969 -0.4670
 7600TIP3   OH244214   1.846   1.453  11.003 -0.4271 -0.0324  0.2470
 7600TIP3    H144215   1.937   1.481  11.006 -0.6518  0.6584  1.7363
 7600TIP3    H244216   1.850   1.361  10.978  0.5272  0.5116 -1.7726
 7601TIP3   OH244217   2.519   2.806  14.569 -0.6842 -0.6264 -0.0947
 7601TIP3    H144218   2.545   2.806  14.661 -1.3271  0.9890  0.1253
 7601TIP3    H244219   2.525   2.898  14.542 -0.8396 -1.0151 -1.5729
 7602TIP3   OH244220   5.861   4.641   2.249  0.8967 -0.9037  0.6112
 7602TIP3    H144221   5.767   4.660   2.238  0.4418 -2.4393  1.5863
 7602TIP3    H244222   5.897   4.722   2.285 -0.1072 -0.3613  0.4373
 7603TIP3   OH244223   3.366   0.965  13.844  0.2218 -0.8825 -0.7986
 7603TIP3    H144224   3.365   0.890  13.903 -1.9408 -1.0179 -0.9260
 7603TIP3    H244225   3.417   1.032  13.891 -1.7735 -0.8320  1.4619
 7604TIP3   OH244226   0.252   0.391  15.136  0.2825  0.6245  0.3320
 7604TIP3    H144227   0.333   0.427  15.099 -0.2584  1.3449 -0.1861
 7604TIP3    H244228   0.220   0.331  15.068 -0.3045  1.3557 -0.0508
 7605TIP3   OH244229   3.383   1.268   3.244  0.1287 -0.3483  0.4740
 7605TIP3    H144230   3.305   1.319   3.266  0.0570  0.1560 -0.8045
 7605TIP3    H244231   3.452   1.303   3.300  0.3153  1.9037 -1.0069
 7606TIP3   OH244232   6.757   2.312   5.486  0.2667  0.4539  1.0700
 7606TIP3    H144233   6.706   2.393   5.477 -0.2684  0.1888  1.7141
 7606TIP3    H244234   6.763   2.278   5.396 -0.5551  0.5670  0.9648
 7607TIP3   OH244235   5.460   6.059   1.592 -0.0640  0.3778  0.1675
 7607TIP3    H144236   5.527   6.127   1.601  1.4731 -1.1235  0.5309
 7607TIP3    H244237   5.430   6.043   1.682  3.1147 -2.7335  0.9045
 7608TIP3   OH244238   6.518   5.563   3.142  0.4349 -0.4235  1.0506
 7608TIP3    H144239   6.516   5.495   3.074 -0.5181 -1.5387  2.1481
 7608TIP3    H244240   6.606   5.557   3.178  0.5840 -0.5939  0.6735
 7609TIP3   OH244241   4.714   1.085   1.894  0.6160  0.0125  0.3054
 7609TIP3    H144242   4.666   1.015   1.940 -2.0203  1.1698 -0.4756
 7609TIP3    H244243   4.791   1.041   1.858 -0.5760 -2.3713  0.4158
 7610TIP3   OH244244   0.558   2.858   0.077  0.1346 -0.0325  0.0025
 7610TIP3    H144245   0.626   2.834   0.140  0.4618  1.2253  0.1636
 7610TIP3    H244246   0.566   2.953   0.069 -1.5853  0.1489  0.0106
 7611TIP3   OH244247   0.087   5.428  16.987 -0.4628  0.0500 -0.3459
 7611TIP3    H144248   0.079   5.417  16.892  0.6578 -1.1768 -0.3359
 7611TIP3    H244249   0.041   5.353  17.024  2.1533 -1.5766 -0.0774
 7612TIP3   OH244250   0.400   2.613  13.144 -0.0547  0.2589  0.2821
 7612TIP3    H144251   0.405   2.546  13.076  3.0425  1.2093 -0.6071
 7612TIP3    H244252   0.376   2.564  13.223 -0.0491 -1.5304 -0.7534
 7613TIP3   OH244253   3.190   0.270  11.111  0.0365 -0.2319  0.1458
 7613TIP3    H144254   3.280   0.295  11.089  0.2512 -0.3171  0.9134
 7613TIP3    H244255   3.142   0.353  11.111  0.1848 -0.1450  0.0722
 7614TIP3   OH244256   0.818   4.619  11.402 -0.4648  0.1781  0.2031
 7614TIP3    H144257   0.891   4.681  11.389 -0.2220 -0.0730  0.3622
 7614TIP3    H244258   0.788   4.599  11.313  0.5789 -0.8022  0.0474
 7615TIP3   OH244259   3.084   2.764   5.652 -0.1121  0.7795 -0.0698
 7615TIP3    H144260   3.099   2.677   5.615 -0.3947 -0.4029  2.3478
 7615TIP3    H244261   2.990   2.765   5.673 -0.1219  1.6941 -0.1393
 7616TIP3   OH244262   5.538   1.814   0.990  0.5369  0.3522 -0.1926
 7616TIP3    H144263   5.544   1.895   0.938  0.1161  0.1412 -0.5782
 7616TIP3    H244264   5.476   1.835   1.060 -0.3395  0.0634 -0.8690
 7617TIP3   OH244265   4.133   3.312  16.951 -0.4367  0.3768  0.0455
 7617TIP3    H144266   4.193   3.245  16.920  1.3383  1.1420  1.6077
 7617TIP3    H244267   4.171   3.394  16.921 -1.6386  0.7939 -0.3729
 7618TIP3   OH244268   0.959   1.195  13.553  0.3960 -0.2348 -0.2325
 7618TIP3    H144269   1.045   1.153  13.557  1.5563  1.6959 -2.3763
 7618TIP3    H244270   0.972   1.280  13.595 -0.6912 -0.2163  0.1002
 7619TIP3   OH244271   0.413   0.293   1.150 -0.0935 -0.0582 -0.6973
 7619TIP3    H144272   0.420   0.388   1.165 -0.6883  0.3695 -2.7666
 7619TIP3    H244273   0.325   0.281   1.113  0.4738 -1.1897 -1.7554
 7620TIP3   OH244274   0.671   1.269  11.367 -0.0905  0.3851 -0.4597
 7620TIP3    H144275   0.656   1.233  11.279  1.0005 -0.7377 -0.2235
 7620TIP3    H244276   0.722   1.348  11.352 -2.4257  1.9032 -0.9864
 7621TIP3   OH244277   6.390   3.341  12.574 -0.1737  0.8492  0.0167
 7621TIP3    H144278   6.311   3.369  12.620 -1.1130 -1.2983 -0.1324
 7621TIP3    H244279   6.366   3.347  12.481 -0.6912 -0.9883 -0.0164
 7622TIP3   OH244280   2.165   0.910   1.074 -0.2436 -0.8420 -0.4516
 7622TIP3    H144281   2.152   0.998   1.110 -1.0676 -1.2135  0.1577
 7622TIP3    H244282   2.100   0.902   1.004  0.4935 -0.6083 -1.1849
 7623TIP3   OH244283   4.859   6.081   4.363 -0.3146  0.2647 -0.1436
 7623TIP3    H144284   4.924   6.050   4.300 -0.9110 -1.4409  0.0155
 7623TIP3    H244285   4.808   6.003   4.385  0.0282  0.7069  2.6516
 7624TIP3   OH244286   2.302   2.646   0.852 -0.3130 -0.3900 -0.5768
 7624TIP3    H144287   2.352   2.601   0.920 -0.3416 -0.0847 -0.3489
 7624TIP3    H244288   2.368   2.680   0.792 -0.0186  2.2117  1.0586
 7625TIP3   OH244289   2.905   2.666   4.732  0.5840  0.1024  0.3091
 7625TIP3    H144290   2.918   2.715   4.814 -0.4109  0.3451  0.3310
 7625TIP3    H244291   2.978   2.694   4.677  1.1744  0.0631  1.0531
 7626TIP3   OH244292   3.422   0.577  13.467 -0.2155 -0.0011 -0.0032
 7626TIP3    H144293   3.355   0.549  13.530  0.2257 -1.0405  0.0154
 7626TIP3    H244294   3.504   0.548  13.505  0.3170  1.5578  0.1365
 7627TIP3   OH244295   3.841   3.721  14.245 -0.1275 -0.0711  0.1139
 7627TIP3    H144296   3.892   3.650  14.284 -0.6552 -0.6540 -0.2255
 7627TIP3    H244297   3.894   3.799  14.259  1.1685 -0.7494 -0.8319
 7628TIP3   OH244298   3.080   0.665  12.545  0.6473 -0.1662 -0.8791
 7628TIP3    H144299   2.986   0.657  12.560  0.3718  0.5748 -2.0288
 7628TIP3    H244300   3.090   0.750  12.502  2.1928  1.1527  1.8105
 7629TIP3   OH244301   0.495   2.699  10.745 -0.8502  0.2181  0.2143
 7629TIP3    H144302   0.528   2.777  10.788 -1.4537  0.6895 -0.1558
 7629TIP3    H244303   0.573   2.655  10.712 -0.1913 -0.9851  3.0701
 7630TIP3   OH244304   3.765   4.737   3.756 -0.6236  0.1422 -0.5129
 7630TIP3    H144305   3.757   4.777   3.669 -1.3538  0.5497 -0.2680
 7630TIP3    H244306   3.778   4.644   3.738  1.3291  0.4857 -1.0998
 7631TIP3   OH244307   1.658   0.942  16.721 -0.4273 -0.1668  0.6061
 7631TIP3    H144308   1.655   0.847  16.711 -1.0549 -0.2772  1.7252
 7631TIP3    H244309   1.599   0.960  16.793 -0.5964  1.1188  0.1619
 7632TIP3   OH244310   6.006   0.019  16.689 -0.5988 -0.2128 -0.5118
 7632TIP3    H144311   5.914   0.033  16.711 -0.6858 -1.1612 -0.2483
 7632TIP3    H244312   6.053   0.075  16.751 -0.9781  0.0316 -0.4345
 7633TIP3   OH244313   4.453   3.868   2.713 -0.5087 -0.0099 -0.2975
 7633TIP3    H144314   4.464   3.784   2.670 -4.0104 -0.7543 -0.0373
 7633TIP3    H244315   4.486   3.854   2.802  0.7467 -0.4358 -0.8045
 7634TIP3   OH244316   4.768   2.934   2.564  0.1026 -0.1238 -0.4371
 7634TIP3    H144317   4.755   2.902   2.653 -0.8231 -0.3751 -0.6560
 7634TIP3    H244318   4.682   2.929   2.523  1.0287 -3.0571 -2.3492
 7635TIP3   OH244319   3.480   5.170   3.262  0.1661 -0.2795 -0.1913
 7635TIP3    H144320   3.558   5.225   3.255  0.0006  0.2172  1.4807
 7635TIP3    H244321   3.425   5.213   3.328 -1.2225 -0.9940 -0.8209
 7636TIP3   OH244322   4.173   0.410   4.005  0.0298  0.6931  0.0067
 7636TIP3    H144323   4.166   0.505   4.016  1.4262  0.8245 -0.1310
 7636TIP3    H244324   4.082   0.379   4.006 -0.5872  2.2532 -1.9036
 7637TIP3   OH244325   6.296   4.753  15.376  0.2226  0.2609 -0.0754
 7637TIP3    H144326   6.283   4.744  15.471  1.2578  1.2538  0.1691
 7637TIP3    H244327   6.391   4.751  15.364  0.1438  1.2600 -0.9722
 7638TIP3   OH244328   3.783   5.101   5.704  0.0535 -0.0143 -0.2610
 7638TIP3    H144329   3.869   5.130   5.671  0.0665 -1.6941 -1.8504
 7638TIP3    H244330   3.790   5.006   5.708 -2.1073 -0.2809 -1.5485
 7639TIP3   OH244331   1.730   2.308  11.146  0.1496  0.3949 -0.0849
 7639TIP3    H144332   1.731   2.224  11.193  0.3603 -0.2305 -1.1652
 7639TIP3    H244333   1.734   2.283  11.053  0.9208  1.6304 -0.3982
 7640TIP3   OH244334   3.688   2.030  13.779  0.5096  0.4984  0.0312
 7640TIP3    H144335   3.753   2.089  13.818  1.9337 -0.1638 -1.2264
 7640TIP3    H244336   3.712   2.026  13.687 -0.7591 -0.5330 -0.2817
 7641TIP3   OH244337   2.302   4.003   0.265 -0.4063 -0.4763 -0.0520
 7641TIP3    H144338   2.293   4.043   0.352 -1.8218  1.0468 -0.8333
 7641TIP3    H244339   2.218   3.959   0.250  0.0874 -1.3213 -0.3851
 7642TIP3   OH244340   3.405   3.663   4.283  0.3507 -0.0418  0.0891
 7642TIP3    H144341   3.370   3.704   4.362  0.1333  0.8554 -0.4640
 7642TIP3    H244342   3.344   3.689   4.214  0.4077 -1.0106 -0.3459
 7643TIP3   OH244343   0.206   6.538  13.906 -0.6694  0.6623 -0.0579
 7643TIP3    H144344   0.237   6.586  13.830 -1.1442  0.9407 -0.0810
 7643TIP3    H244345   0.259   6.571  13.979  1.1416 -0.9948 -0.5564
 7644TIP3   OH244346   0.578   2.758   2.012  0.5706 -0.0513 -0.3155
 7644TIP3    H144347   0.533   2.774   2.095 -0.4317 -2.2516 -0.3579
 7644TIP3    H244348   0.651   2.820   2.011 -1.8079  3.0136  0.2203
 7645TIP3   OH244349   1.532   1.571   6.430  0.3684 -0.1378 -0.0582
 7645TIP3    H144350   1.540   1.499   6.367  0.6579  0.0524 -0.2453
 7645TIP3    H244351   1.590   1.547   6.502 -0.2569 -0.5396  0.3208
 7646TIP3   OH244352   1.062   4.375   4.231 -0.1071  0.2656 -0.5221
 7646TIP3    H144353   1.064   4.403   4.322  1.9096  1.8467 -0.9682
 7646TIP3    H244354   1.037   4.283   4.235  0.4132  0.1596  1.6662
 7647TIP3   OH244355   5.207   3.611  16.650 -0.2558  0.0630  0.0702
 7647TIP3    H144356   5.131   3.611  16.709 -0.5631  0.4218 -0.3253
 7647TIP3    H244357   5.265   3.678  16.685 -0.0162 -0.3545  0.4955
 7648TIP3   OH244358   5.542   1.713   0.409  0.3026  0.7679  0.3659
 7648TIP3    H144359   5.452   1.745   0.417  1.0504  2.9483  0.7534
 7648TIP3    H244360   5.570   1.697   0.499 -0.4805 -2.4726  0.1315
 7649TIP3   OH244361   4.226   3.293  15.574 -0.4742 -0.7050  0.1128
 7649TIP3    H144362   4.148   3.310  15.628 -1.8779 -1.0306 -1.7329
 7649TIP3    H244363   4.253   3.379  15.543 -1.5019 -0.7722 -1.0593
 7650TIP3   OH244364   2.596   2.601  12.351 -0.4605  0.3660 -0.1065
 7650TIP3    H144365   2.578   2.572  12.440  1.8898  1.6874  0.8880
 7650TIP3    H244366   2.656   2.535  12.316  0.6058  1.1238  0.2327
 7651TIP3   OH244367   6.057   2.382   0.549 -0.3441  0.2198 -0.0393
 7651TIP3    H144368   6.111   2.312   0.514 -0.9903  0.2690 -1.1926
 7651TIP3    H244369   6.008   2.415   0.473 -1.4301  0.6656  0.8218
 7652TIP3   OH244370   6.294   3.011   2.179  0.1344 -0.1016 -0.0358
 7652TIP3    H144371   6.305   2.968   2.094 -2.1756 -3.8741  1.3519
 7652TIP3    H244372   6.368   2.981   2.231  1.1392  1.6274 -0.3558
 7653TIP3   OH244373   0.947   3.913   1.225 -0.5095  0.3204 -0.1183
 7653TIP3    H144374   0.913   3.903   1.314 -1.0175  0.3012 -0.3125
 7653TIP3    H244375   0.965   3.823   1.196  0.6735  0.3804  0.3431
 7654TIP3   OH244376   3.225   3.942  11.248 -0.1571  0.5538 -0.1703
 7654TIP3    H144377   3.171   3.951  11.169 -0.6525  0.2994  0.1350
 7654TIP3    H244378   3.232   4.031  11.282 -1.6498  0.4017  0.6122
 7655TIP3   OH244379   3.908   0.604   5.068  0.2154  0.3429  0.4778
 7655TIP3    H144380   3.838   0.607   5.134  0.1566 -0.9474  0.4940
 7655TIP3    H244381   3.895   0.684   5.017 -0.9775  0.3815  0.7932
 7656TIP3   OH244382   6.210   0.783  12.268  0.8156  0.2751 -0.2541
 7656TIP3    H144383   6.252   0.697  12.274  0.7119  0.2659  0.5163
 7656TIP3    H244384   6.223   0.822  12.355 -0.1371  0.5596 -0.2300
 7657TIP3   OH244385   1.827   1.422   2.411  0.2536  0.4821  0.1252
 7657TIP3    H144386   1.786   1.478   2.477 -1.6426 -0.6148 -0.0442
 7657TIP3    H244387   1.866   1.350   2.461  1.7354  1.3439  0.2588
 7658TIP3   OH244388   5.093   1.662   2.830 -0.4903  0.3978  0.2214
 7658TIP3    H144389   5.089   1.753   2.800  1.1398  0.1437 -0.9043
 7658TIP3    H244390   5.024   1.618   2.780 -0.8487  0.8755  0.2820
 7659TIP3   OH244391   2.044   5.553  13.202 -0.0002  0.0642  0.3433
 7659TIP3    H144392   2.095   5.530  13.279 -0.8944 -0.2643  0.8478
 7659TIP3    H244393   2.109   5.582  13.138  0.8448 -0.6745  0.8503
 7660TIP3   OH244394   5.573   3.864   4.171  0.2508  0.2901 -0.2234
 7660TIP3    H144395   5.551   3.865   4.264 -0.3639  1.1202 -0.3709
 7660TIP3    H244396   5.590   3.771   4.152  0.5132  0.1313  0.7361
 7661TIP3   OH244397   0.477   3.774  14.463 -0.3051  0.1146 -0.1041
 7661TIP3    H144398   0.409   3.834  14.432 -0.1663  0.0882 -0.4668
 7661TIP3    H244399   0.455   3.758  14.554 -0.8544  0.0151 -0.2494
 7662TIP3   OH244400   2.274   1.541   2.294  0.3114 -0.0794 -0.4143
 7662TIP3    H144401   2.188   1.524   2.254 -0.1715 -0.6336  0.8050
 7662TIP3    H244402   2.298   1.458   2.335  0.6032  0.5547  0.7386
 7663TIP3   OH244403   1.389   5.694  14.811  0.0658  0.2040  0.5696
 7663TIP3    H144404   1.311   5.737  14.774 -1.0935 -0.9419  1.5737
 7663TIP3    H244405   1.411   5.748  14.887  0.3197  0.5812  0.2344
 7664TIP3   OH244406   3.525   3.868   1.394 -0.3618 -0.9200 -0.5268
 7664TIP3    H144407   3.478   3.905   1.469 -0.9133  0.0508 -1.3323
 7664TIP3    H244408   3.610   3.911   1.395 -1.3096  1.1557 -1.9808
 7665TIP3   OH244409   5.602   0.490   4.483 -0.6351  0.4050  0.1258
 7665TIP3    H144410   5.557   0.554   4.538  0.8324 -0.1272  2.0703
 7665TIP3    H244411   5.538   0.421   4.469 -1.2556  0.8762  0.5691
 7666TIP3   OH244412   2.660   4.480  14.251 -0.2373 -0.2251 -0.0402
 7666TIP3    H144413   2.677   4.574  14.239 -0.5988 -0.0947  0.4054
 7666TIP3    H244414   2.571   4.468  14.219  0.3770 -0.7393 -1.6048
 7667TIP3   OH244415   5.868   3.763   4.998  0.1461 -0.2278 -0.2923
 7667TIP3    H144416   5.786   3.742   5.043  0.6352 -3.3269 -0.6722
 7667TIP3    H244417   5.933   3.705   5.038  1.7877  0.8583 -1.2534
 7668TIP3   OH244418   2.097   0.549  15.508  0.1897  0.6869 -0.3853
 7668TIP3    H144419   2.144   0.578  15.587  2.4253  0.4003 -1.5179
 7668TIP3    H244420   2.128   0.460  15.494 -1.6041  0.0712 -0.5965
 7669TIP3   OH244421   5.985   0.613   2.429 -0.8038 -0.6675  0.2065
 7669TIP3    H144422   5.905   0.624   2.378 -0.7962  0.9071  0.4839
 7669TIP3    H244423   5.972   0.532   2.478 -2.3768 -0.2697  0.4944
 7670TIP3   OH244424   3.530   6.553   4.861 -0.2275  0.3852  0.0813
 7670TIP3    H144425   3.532   6.484   4.927  0.1447 -0.3769 -0.7059
 7670TIP3    H244426   3.463   6.525   4.798 -1.1261  1.4774  0.5134
 7671TIP3   OH244427   0.874   6.221   3.964 -0.1965 -0.3758 -0.2444
 7671TIP3    H144428   0.948   6.279   3.983 -0.7825  0.4188 -0.3155
 7671TIP3    H244429   0.905   6.134   3.987  0.3510  0.0957  0.9224
 7672TIP3   OH244430   6.189   0.799   0.604  0.0370 -0.1803  0.0625
 7672TIP3    H144431   6.240   0.851   0.666  0.3089 -1.7555  1.2052
 7672TIP3    H244432   6.234   0.812   0.520  1.9937 -0.9963  0.9042
 7673TIP3   OH244433   4.919   0.566   2.940 -0.0108  0.5284 -0.2974
 7673TIP3    H144434   4.888   0.599   2.855  0.5107 -2.4726 -1.7596
 7673TIP3    H244435   4.859   0.494   2.961  1.0628 -0.0470  0.9066
 7674TIP3   OH244436   0.068   6.043   5.895 -0.2331  0.8133 -0.0001
 7674TIP3    H144437   0.131   6.092   5.841 -0.2456  2.1568  1.1375
 7674TIP3    H244438   0.107   6.043   5.983 -0.3831 -1.0203  0.0952
 7675TIP3   OH244439   5.880   4.071   1.235 -0.2273  0.0081 -0.2717
 7675TIP3    H144440   5.903   4.162   1.215 -2.5656  0.7761  0.1126
 7675TIP3    H244441   5.787   4.065   1.212 -0.3052 -2.1040  0.3871
 7676TIP3   OH244442   5.408   0.790   1.123  0.1921  0.3207 -0.4301
 7676TIP3    H144443   5.437   0.820   1.209 -0.3083  1.8450 -0.7496
 7676TIP3    H244444   5.331   0.736   1.140  1.4235 -1.3129  0.2088
 7677TIP3   OH244445   5.674   1.007  14.116 -0.3174 -0.3156  0.6062
 7677TIP3    H144446   5.623   0.968  14.045  0.4303 -2.3945  1.1556
 7677TIP3    H244447   5.608   1.048  14.172 -0.9079  1.5310 -1.3046
 7678TIP3   OH244448   3.822   4.393   5.357 -0.1909  0.2082  0.1877
 7678TIP3    H144449   3.839   4.486   5.372 -0.3895  0.3238 -0.2715
 7678TIP3    H244450   3.907   4.351   5.370  0.2054  0.6253 -0.9015
 7679TIP3   OH244451   2.478   2.505  12.137  0.5276  0.0401 -0.0800
 7679TIP3    H144452   2.506   2.552  12.215  1.1343 -0.1581 -0.1749
 7679TIP3    H244453   2.418   2.565  12.093 -1.8431 -0.7821  1.8037
 7680TIP3   OH244454   1.894   1.909  12.981 -0.4620 -0.0370 -0.0279
 7680TIP3    H144455   1.813   1.959  12.992 -1.0089 -0.4096 -1.9852
 7680TIP3    H244456   1.869   1.818  12.998 -0.8064 -0.3245 -1.8718
 7681TIP3   OH244457   3.984   4.604   5.573 -0.3471  0.0186  0.2018
 7681TIP3    H144458   4.040   4.658   5.629 -0.2730 -0.4662  0.5990
 7681TIP3    H244459   3.919   4.568   5.633  0.8098 -1.9824  0.3595
 7682TIP3   OH244460   3.727   5.761   0.443  0.2178  0.0943  0.0090
 7682TIP3    H144461   3.778   5.740   0.364  0.5890  2.2014 -0.3762
 7682TIP3    H244462   3.714   5.677   0.486  0.8827 -0.9882 -1.7768
 7683TIP3   OH244463   2.863   4.906   2.968 -0.3976 -0.3085 -0.2811
 7683TIP3    H144464   2.800   4.838   2.947 -1.4524  1.1978 -2.2049
 7683TIP3    H244465   2.871   4.958   2.889  2.6970  0.0484  0.1382
 7684TIP3   OH244466   5.286   1.087  13.659 -0.2741  0.0143  0.1944
 7684TIP3    H144467   5.228   1.098  13.583  1.6108 -0.8250 -1.4350
 7684TIP3    H244468   5.319   0.998  13.652  2.0011  0.7798  0.4821
 7685TIP3   OH244469   0.865   4.025  13.793 -0.4026  0.0255  0.1837
 7685TIP3    H144470   0.912   4.028  13.877  0.6892  2.1245 -0.4407
 7685TIP3    H244471   0.906   4.093  13.740 -0.5980 -1.6956 -2.3367
 7686TIP3   OH244472   2.703   0.427  11.961 -0.2754 -0.0026  0.0504
 7686TIP3    H144473   2.651   0.374  11.901  0.5625  0.5239 -1.1851
 7686TIP3    H244474   2.683   0.517  11.936  0.8100  0.2087 -0.0849
 7687TIP3   OH244475   2.609   3.256   2.182 -0.2626  0.0859 -0.2928
 7687TIP3    H144476   2.647   3.292   2.262  1.3172  0.6279 -1.2459
 7687TIP3    H244477   2.600   3.332   2.124  0.1121 -0.5450 -1.1909
 7688TIP3   OH244478   3.575   6.714  12.047  0.1973  0.1950  0.2390
 7688TIP3    H144479   3.643   6.648  12.059  0.2236  0.3581  1.0478
 7688TIP3    H244480   3.578   6.767  12.126 -0.4599  0.5853  0.0177
 7689TIP3   OH244481   4.682   3.433  11.763  0.0118 -0.4847 -0.8092
 7689TIP3    H144482   4.694   3.528  11.757 -0.1029 -0.4981 -1.3060
 7689TIP3    H244483   4.718   3.409  11.848  0.4050 -0.0496 -0.8538
 7690TIP3   OH244484   6.458   0.070  12.507 -0.3183 -0.0674  0.1879
 7690TIP3    H144485   6.390   0.137  12.511 -0.3675 -0.0749 -0.4087
 7690TIP3    H244486   6.414  -0.006  12.468 -0.1394 -0.2889  0.4142
 7691TIP3   OH244487   3.038   4.225  11.802  0.1553 -0.1898 -0.7902
 7691TIP3    H144488   3.013   4.240  11.711  0.2744  0.3857 -0.7336
 7691TIP3    H244489   3.105   4.292  11.820  0.0644 -0.2345 -0.2550
 7692TIP3   OH244490   0.025   2.797   4.534 -0.3276  0.0500  0.0717
 7692TIP3    H144491   0.075   2.873   4.565  0.2079 -1.1760  2.5059
 7692TIP3    H244492   0.051   2.787   4.443  0.9537  1.7257  0.1957
 7693TIP3   OH244493   6.210   4.841   4.998  0.4892  0.4558 -0.4906
 7693TIP3    H144494   6.273   4.774   5.026 -0.3312  0.2721  1.0570
 7693TIP3    H244495   6.198   4.896   5.076 -2.7388 -0.7078 -0.0156
 7694TIP3   OH244496   1.034   3.197   3.895  0.5485 -0.2978 -0.0845
 7694TIP3    H144497   1.124   3.167   3.884  0.2557 -1.1606 -0.2248
 7694TIP3    H244498   1.001   3.207   3.806  1.5846  3.5347 -0.1741
 7695TIP3   OH244499   4.535   5.761   6.082  0.4251  0.0661 -0.0219
 7695TIP3    H144500   4.554   5.691   6.144  0.8621  0.3967  0.2245
 7695TIP3    H244501   4.491   5.828   6.134  2.0169  0.9432  0.2663
 7696TIP3   OH244502   6.592   5.877   2.418 -0.0290 -0.4574 -0.4681
 7696TIP3    H144503   6.646   5.954   2.401  0.8465 -1.1558 -0.9644
 7696TIP3    H244504   6.580   5.877   2.513  1.7171 -0.8121 -0.2040
 7697TIP3   OH244505   0.418   2.821   2.504 -0.1882 -0.2172 -0.5640
 7697TIP3    H144506   0.416   2.828   2.409 -1.4609 -1.8280 -0.6935
 7697TIP3    H244507   0.508   2.792   2.524  0.1794  0.4394 -1.2171
 7698TIP3   OH244508   2.081   1.715   2.435  0.3529  0.4132  0.4754
 7698TIP3    H144509   2.133   1.663   2.375 -2.3190 -1.4718 -0.4128
 7698TIP3    H244510   2.109   1.687   2.522 -0.3991 -1.9532  0.0162
 7699TIP3   OH244511   5.580   4.696   5.340 -0.6041 -0.2481 -0.6207
 7699TIP3    H144512   5.542   4.652   5.416 -1.1764  0.0290 -0.7384
 7699TIP3    H244513   5.647   4.635   5.307  0.0033 -0.1517  0.3992
 7700TIP3   OH244514   0.457   2.905  13.957  0.0250 -0.2795  0.2614
 7700TIP3    H144515   0.412   2.822  13.947  2.0533 -1.2078 -2.2368
 7700TIP3    H244516   0.403   2.968  13.909  1.2780 -1.4269 -2.9054
 7701TIP3   OH244517   5.290   1.718   4.680  0.0075  0.0732 -0.7208
 7701TIP3    H144518   5.248   1.667   4.611 -1.9008  2.5495 -1.5845
 7701TIP3    H244519   5.364   1.760   4.637 -1.8113  2.4852 -1.7516
 7702TIP3   OH244520   6.226   3.487   1.600 -0.0086  0.0688  0.0248
 7702TIP3    H144521   6.162   3.523   1.539 -0.8598  0.8182  1.3202
 7702TIP3    H244522   6.288   3.558   1.616  0.7056 -0.3968 -0.6018
 7703TIP3   OH244523   4.747   3.095  11.767  0.1067  0.1886 -0.1686
 7703TIP3    H144524   4.698   3.025  11.810  0.7012 -0.4636 -0.5285
 7703TIP3    H244525   4.685   3.132  11.704 -0.4216  0.4343  0.4880
 7704TIP3   OH244526   4.859   3.199   5.975  0.0799 -0.0869  0.3174
 7704TIP3    H144527   4.794   3.206   6.045  0.7003  0.7877  0.8332
 7704TIP3    H244528   4.831   3.263   5.910 -0.5991 -1.0285 -0.3406
 7705TIP3   OH244529   6.780   0.949   0.578 -0.1184  0.1064 -0.3577
 7705TIP3    H144530   6.746   0.910   0.498 -1.1783 -0.5502  0.3885
 7705TIP3    H244531   6.790   0.875   0.638 -0.4828  0.7386  0.5033
 7706TIP3   OH244532   5.113   6.217   0.721 -0.2597  0.4084  0.2953
 7706TIP3    H144533   5.049   6.230   0.651  0.8305 -0.8596 -1.0082
 7706TIP3    H244534   5.193   6.258   0.687  0.4971 -0.9214  0.4439
 7707TIP3   OH244535   6.566   2.921  16.547  0.1339  0.1366 -0.2023
 7707TIP3    H144536   6.522   3.004  16.529  1.4295  0.8359 -0.2661
 7707TIP3    H244537   6.594   2.927  16.638  1.0415  0.1797 -0.4677
 7708TIP3   OH244538   3.344   6.644   5.697  0.3463  0.4224 -0.6300
 7708TIP3    H144539   3.257   6.677   5.719  1.1186  1.5704  0.9078
 7708TIP3    H244540   3.378   6.708   5.634  0.7921  1.1152  0.2753
 7709TIP3   OH244541   4.201   0.683  11.162  0.0900  0.6219  0.1088
 7709TIP3    H144542   4.277   0.656  11.110 -0.6347 -1.0287 -0.1634
 7709TIP3    H244543   4.137   0.713  11.097 -0.7820 -1.3548 -0.0184
 7710TIP3   OH244544   2.009   2.012  14.818 -0.7876 -0.0323  0.0004
 7710TIP3    H144545   2.017   2.053  14.732 -1.9696 -0.0245 -0.1274
 7710TIP3    H244546   1.955   1.935  14.803  0.3815 -0.9636  0.4672
 7711TIP3   OH244547   5.773   1.665   3.849 -0.2741 -0.4264  0.1909
 7711TIP3    H144548   5.699   1.714   3.886 -1.1113  1.6158 -3.6789
 7711TIP3    H244549   5.732   1.602   3.790  1.0217 -2.0193  0.9451
 7712TIP3   OH244550   6.585   2.624   0.286 -0.2748  0.0143 -0.7565
 7712TIP3    H144551   6.530   2.632   0.207 -0.4469 -1.4126 -0.8029
 7712TIP3    H244552   6.660   2.573   0.257 -1.2056 -2.1315  0.3836
 7713TIP3   OH244553   2.133   4.312   5.471  0.0616 -0.3547  0.4433
 7713TIP3    H144554   2.071   4.342   5.404 -0.5644 -0.1661  1.0923
 7713TIP3    H244555   2.086   4.244   5.518  1.2977 -2.1001 -0.7083
 7714TIP3   OH244556   1.902   5.304   2.131 -0.2489  0.0656  0.1052
 7714TIP3    H144557   1.967   5.237   2.111 -0.4021 -0.3850  1.0350
 7714TIP3    H244558   1.942   5.386   2.102  0.5340 -0.2619  0.2346
 7715TIP3   OH244559   3.053   6.789   0.883 -0.2537  0.9590  0.4530
 7715TIP3    H144560   2.961   6.763   0.878  0.3446 -1.3059 -0.0177
 7715TIP3    H244561   3.062   6.857   0.816 -1.8800  2.3987  1.6076
 7716TIP3   OH244562   4.824   2.596  17.058 -0.3407  0.0167  0.0424
 7716TIP3    H144563   4.894   2.536  17.083 -0.5617  0.1147  0.9276
 7716TIP3    H244564   4.818   2.657  17.131 -1.6929 -0.2974  0.2180
 7717TIP3   OH244565   3.560   2.667  17.211 -0.3080  0.0353 -0.2310
 7717TIP3    H144566   3.600   2.640  17.294  0.3830 -2.0478 -1.1905
 7717TIP3    H244567   3.481   2.614  17.204 -1.4156  1.5861 -0.0469
 7718TIP3   OH244568   3.220   6.125  16.305  0.3139  0.2986 -0.2014
 7718TIP3    H144569   3.164   6.175  16.365  0.9092  0.7132  0.0179
 7718TIP3    H244570   3.308   6.132  16.343  0.3188 -1.4338  0.1703
 7719TIP3   OH244571   2.701   3.507  13.326 -0.0566  0.2959 -0.3597
 7719TIP3    H144572   2.711   3.431  13.268  1.0633 -2.2145  2.7752
 7719TIP3    H244573   2.608   3.529  13.321 -0.3190 -0.9401 -1.7273
 7720TIP3   OH244574   1.107   1.319  14.681 -0.1124 -0.3769  0.4506
 7720TIP3    H144575   1.149   1.239  14.649 -1.3799 -0.6163 -0.7250
 7720TIP3    H244576   1.119   1.317  14.776  0.4856 -1.5921  0.3634
 7721TIP3   OH244577   6.122   1.932   0.061 -0.6388 -0.4850 -0.2229
 7721TIP3    H144578   6.089   1.947   0.150  0.2120 -0.1217  0.0446
 7721TIP3    H244579   6.064   1.984   0.005  0.5379  1.6838  0.4259
 7722TIP3   OH244580   1.492   2.748  14.623 -0.4129  0.0246 -0.1024
 7722TIP3    H144581   1.498   2.739  14.718 -1.3968  0.9107  0.0616
 7722TIP3    H244582   1.556   2.814  14.600  0.8129 -1.1739 -0.2510
 7723TIP3   OH244583   2.131   3.697   4.581  0.5314 -0.1353 -0.0659
 7723TIP3    H144584   2.100   3.661   4.664  0.1086 -2.0594 -1.0075
 7723TIP3    H244585   2.195   3.632   4.550 -0.0713  0.0140 -1.7155
 7724TIP3   OH244586   4.103   4.945   0.531  0.3768 -0.1621  0.1592
 7724TIP3    H144587   4.192   4.922   0.501  0.5987  1.9227 -0.9505
 7724TIP3    H244588   4.108   5.038   0.551 -1.5227 -0.0628  0.2919
 7725TIP3   OH244589   5.956   2.626  11.340  0.6163  0.9612  0.3191
 7725TIP3    H144590   5.938   2.552  11.282  2.4487 -0.0247  0.9141
 7725TIP3    H244591   5.869   2.660  11.364 -0.4501 -2.2412  1.5871
 7726TIP3   OH244592   5.536   0.931   2.169  0.6487 -0.5578 -0.3500
 7726TIP3    H144593   5.529   0.836   2.181 -1.9693 -0.5322 -1.0431
 7726TIP3    H244594   5.563   0.964   2.255 -0.5864 -1.7937  0.5731
 7727TIP3   OH244595   5.827   1.809  13.096 -0.5606  0.3754  0.0838
 7727TIP3    H144596   5.733   1.810  13.117 -0.6844  2.0349 -0.3842
 7727TIP3    H244597   5.863   1.883  13.144  0.2252  0.6738 -0.9374
 7728TIP3   OH244598   0.713   0.949  16.958 -0.0588  0.3118  0.0964
 7728TIP3    H144599   0.623   0.929  16.931 -0.3005 -0.1739  1.1687
 7728TIP3    H244600   0.712   1.042  16.980 -0.9231 -0.1176  2.1961
 7729TIP3   OH244601   4.902   0.673  14.620  0.5050  0.0004 -0.0199
 7729TIP3    H144602   4.981   0.727  14.621  0.3692  0.3606 -2.1963
 7729TIP3    H244603   4.837   0.728  14.576 -0.1421 -1.2947 -0.7495
 7730TIP3   OH244604   1.808   5.535  14.076 -0.4274 -0.1832 -0.2893
 7730TIP3    H144605   1.774   5.475  14.010  0.4860  0.4814 -1.4035
 7730TIP3    H244606   1.847   5.479  14.143 -0.3273 -0.8508 -0.9033
 7731TIP3   OH244607   2.720   5.989   5.329 -0.4377 -0.4096 -0.0220
 7731TIP3    H144608   2.719   6.063   5.389 -2.5396 -0.2585 -0.1645
 7731TIP3    H244609   2.724   6.029   5.242 -0.9814 -0.4609 -0.0769
 7732TIP3   OH244610   5.203   0.615  10.741 -0.2883 -0.0591 -0.0300
 7732TIP3    H144611   5.148   0.682  10.781  0.1272  0.0298  0.4147
 7732TIP3    H244612   5.142   0.545  10.715 -0.5680 -0.1522  0.8419
 7733TIP3   OH244613   2.860   2.696   3.012 -0.3877 -0.0203  0.1270
 7733TIP3    H144614   2.809   2.735   3.084  0.1143 -2.0338  1.6784
 7733TIP3    H244615   2.816   2.612   2.995  0.2221 -0.1086 -1.0971
 7734TIP3   OH244616   4.396   4.598   4.271 -0.1745 -0.1150  0.3164
 7734TIP3    H144617   4.320   4.548   4.241  0.3160 -0.7826  0.1525
 7734TIP3    H244618   4.437   4.542   4.337  0.8095 -0.2765 -0.4064
 7735TIP3   OH244619   2.858   2.646  12.113 -0.5127  0.0686  0.6842
 7735TIP3    H144620   2.845   2.731  12.071 -1.2557  0.9620  2.5927
 7735TIP3    H244621   2.853   2.583  12.042 -1.2460  1.5180 -0.6098
 7736TIP3   OH244622   0.158   2.905   6.584 -0.1674 -0.8413 -0.4354
 7736TIP3    H144623   0.230   2.936   6.529 -0.1751  0.6230  0.3131
 7736TIP3    H244624   0.079   2.931   6.537 -0.1798  1.2465  0.6243
 7737TIP3   OH244625   1.565   1.417  13.463  0.1843  0.4335  0.2382
 7737TIP3    H144626   1.533   1.327  13.456 -0.3973  0.6010  0.6406
 7737TIP3    H244627   1.585   1.428  13.556  2.8471 -0.1290 -0.1961
 7738TIP3   OH244628   5.709   0.279  13.240 -0.5194 -0.1773 -0.5400
 7738TIP3    H144629   5.728   0.185  13.244 -1.9366 -0.4945 -0.6899
 7738TIP3    H244630   5.764   0.312  13.169  1.0292 -0.6138  0.4147
 7739TIP3   OH244631   2.807   2.500  12.648 -0.0164  0.1538 -0.2446
 7739TIP3    H144632   2.748   2.555  12.700  0.8961 -0.3194  1.3359
 7739TIP3    H244633   2.889   2.498  12.697  0.7270 -0.7220 -1.4614
 7740TIP3   OH244634   2.411   2.987   1.794 -0.0380 -0.0322  0.8998
 7740TIP3    H144635   2.412   2.903   1.839 -0.3517  0.8016  2.5446
 7740TIP3    H244636   2.502   3.015   1.793 -0.0028 -0.1487  0.8249
 7741TIP3   OH244637   4.352   4.837  13.006 -0.0608  0.0029  0.1772
 7741TIP3    H144638   4.420   4.797  12.951 -1.0823 -1.4869 -0.0492
 7741TIP3    H244639   4.400   4.873  13.080  1.0271 -0.6541 -0.1846
 7742TIP3   OH244640   6.040   1.123   0.463 -0.4458 -0.7757 -0.3298
 7742TIP3    H144641   6.135   1.123   0.478 -0.6605  1.2465  1.5856
 7742TIP3    H244642   6.008   1.198   0.513 -2.9122 -0.5519 -2.0874
 7743TIP3   OH244643   0.043   4.950  14.312 -0.0010  0.0444  0.0718
 7743TIP3    H144644   0.017   4.911  14.396  0.8664  0.5531  0.6044
 7743TIP3    H244645  -0.035   4.947  14.258 -1.0868  1.2288  1.4787
 7744TIP3   OH244646   3.229   4.588   4.487 -0.1147  0.2568 -0.1045
 7744TIP3    H144647   3.227   4.572   4.392 -0.2781  0.2482 -0.0998
 7744TIP3    H244648   3.165   4.657   4.500 -0.8815 -0.4841  0.1413
 7745TIP3   OH244649   0.097   0.544  15.309 -0.0456  0.0684 -0.7736
 7745TIP3    H144650   0.157   0.500  15.249 -0.2281 -0.6920 -0.4069
 7745TIP3    H244651   0.117   0.507  15.395  0.5777  1.5168 -0.2426
 7746TIP3   OH244652   6.307   3.386   3.830 -0.7440  0.1618  0.1337
 7746TIP3    H144653   6.277   3.459   3.885 -1.4936 -0.1646  0.1740
 7746TIP3    H244654   6.370   3.426   3.770  0.2650  0.4945  1.3484
 7747TIP3   OH244655   6.252   0.281   1.873  0.3157 -0.1912  0.5418
 7747TIP3    H144656   6.299   0.198   1.881  0.7952  0.1772  1.7480
 7747TIP3    H244657   6.317   0.348   1.894 -0.1210  0.4794 -0.2093
 7748TIP3   OH244658   2.877   0.670  10.752  0.2455  0.4697 -0.2222
 7748TIP3    H144659   2.817   0.604  10.785  0.1917  0.9783  0.7326
 7748TIP3    H244660   2.821   0.741  10.721  0.2690 -0.2465 -2.0268
 7749TIP3   OH244661   1.056   4.180   5.861 -0.1181 -0.5269  0.3532
 7749TIP3    H144662   1.008   4.263   5.855  0.7410  0.1313  1.9210
 7749TIP3    H244663   1.019   4.137   5.938  2.5116  0.5621  2.3734
 7750TIP3   OH244664   2.070   1.059   6.472 -0.3048  0.4030  0.5003
 7750TIP3    H144665   1.988   1.021   6.503 -0.8347  1.5741  0.5972
 7750TIP3    H244666   2.044   1.121   6.404  0.4693  0.9212  0.6587
 7751TIP3   OH244667   4.650   5.656   1.796 -0.1984 -0.4500 -0.4691
 7751TIP3    H144668   4.704   5.689   1.724  0.1086  0.3532  0.1185
 7751TIP3    H244669   4.693   5.687   1.875 -0.5970 -1.2251  0.0739
 7752TIP3   OH244670   5.890   5.323   5.766  0.2374 -0.0578 -0.3710
 7752TIP3    H144671   5.820   5.377   5.802 -1.9957 -2.5470 -0.6658
 7752TIP3    H244672   5.856   5.291   5.682  2.6982  0.4486 -1.6682
 7753TIP3   OH244673   1.876   5.417   5.653  0.6271  0.6966 -0.0515
 7753TIP3    H144674   1.787   5.424   5.686  0.8156  2.2933  0.2112
 7753TIP3    H244675   1.868   5.431   5.559  0.7126  2.2226  0.1417
 7754TIP3   OH244676   5.866   2.780  13.719 -0.4736  0.2725  0.4450
 7754TIP3    H144677   5.931   2.723  13.761  0.1805  1.0467  0.5162
 7754TIP3    H244678   5.906   2.867  13.722 -1.6070  0.8024  0.6706
 7755TIP3   OH244679   1.287   6.226  13.896 -0.2612  0.2839 -0.3189
 7755TIP3    H144680   1.218   6.200  13.835 -0.1471 -0.4951 -0.1171
 7755TIP3    H244681   1.368   6.219  13.846  0.0643 -2.3344  0.4752
 7756TIP3   OH244682   0.769   0.555  11.195 -0.5334  0.4294 -0.4694
 7756TIP3    H144683   0.710   0.541  11.120 -2.7438  0.0120  1.2313
 7756TIP3    H244684   0.777   0.650  11.202 -1.2884  0.5029 -0.5346
 7757TIP3   OH244685   0.800   2.644  17.028 -0.3607  0.1018 -0.2821
 7757TIP3    H144686   0.718   2.654  17.076 -0.5042 -3.7958  0.5597
 7757TIP3    H244687   0.777   2.595  16.949  1.1840 -2.0457  0.4954
 7758TIP3   OH244688   4.945   5.723  16.397 -0.1110 -0.9953  0.0775
 7758TIP3    H144689   4.949   5.819  16.405  0.2940 -0.8762 -1.2927
 7758TIP3    H244690   4.854   5.705  16.373  0.3324 -0.6960 -2.0796
 7759TIP3   OH244691   6.621   3.979  12.200  0.2267 -0.2962  0.0007
 7759TIP3    H144692   6.615   3.972  12.295  0.2995 -0.9378 -0.0396
 7759TIP3    H244693   6.548   3.927  12.167 -0.8130  1.2888 -0.2730
 7760TIP3   OH244694   2.691   2.783  13.802  0.4231 -0.0809 -0.0179
 7760TIP3    H144695   2.646   2.819  13.726  1.0575  0.1459 -0.2981
 7760TIP3    H244696   2.629   2.794  13.874  0.9246  2.5192  0.1343
 7761TIP3   OH244697   6.736   4.256   3.461 -0.2934 -1.6463  0.0837
 7761TIP3    H144698   6.758   4.167   3.487  1.7914 -0.8573  1.2415
 7761TIP3    H244699   6.768   4.311   3.533 -0.5167  0.1170 -1.0966
 7762TIP3   OH244700   1.959   0.709  16.252  0.2381  0.6517  0.5403
 7762TIP3    H144701   2.005   0.790  16.229  0.1457  0.0172 -2.0909
 7762TIP3    H244702   2.005   0.640  16.205 -1.9797 -0.3031 -0.3925
 7763TIP3   OH244703   4.593   6.122   0.496 -0.0655  0.1392 -0.1228
 7763TIP3    H144704   4.517   6.128   0.554 -1.5158 -0.0627 -1.9217
 7763TIP3    H244705   4.661   6.080   0.549 -0.4873  2.1503  2.1901
 7764TIP3   OH244706   3.641   2.619   3.748 -0.3879  0.3334 -0.3843
 7764TIP3    H144707   3.722   2.670   3.741  1.3312 -1.8154  1.9281
 7764TIP3    H244708   3.642   2.563   3.670  1.5073 -1.0317  0.5149
 7765TIP3   OH244709   4.853   4.212  13.139 -0.1472  0.0034  0.2368
 7765TIP3    H144710   4.833   4.121  13.162  0.9987 -0.2984  0.1177
 7765TIP3    H244711   4.940   4.228  13.177  0.1619  0.6783 -0.7109
 7766TIP3   OH244712   5.211   1.175  11.176  0.0014  0.4032  0.4356
 7766TIP3    H144713   5.135   1.120  11.156  1.3641 -1.0227 -1.1804
 7766TIP3    H244714   5.180   1.264  11.161 -1.7909  0.0039  1.4168
 7767TIP3   OH244715   2.916   1.076   4.645  0.2825  0.0579  0.1029
 7767TIP3    H144716   2.864   1.126   4.709  0.7973 -0.3516  0.8607
 7767TIP3    H244717   2.918   0.987   4.680  2.7024  0.3501  0.9006
 7768TIP3   OH244718   2.649   3.288  15.524  0.3535  0.0542 -0.1940
 7768TIP3    H144719   2.631   3.295  15.618 -2.3396  0.4149 -0.6483
 7768TIP3    H244720   2.633   3.195  15.504  0.8185  0.0009 -0.3312
 7769TIP3   OH244721   4.952   2.052   2.440  0.1294  0.4028  0.3722
 7769TIP3    H144722   5.041   2.019   2.432 -0.5781 -1.6043  0.1813
 7769TIP3    H244723   4.962   2.142   2.471  2.2228  0.5785 -0.6730
 7770TIP3   OH244724   4.553   2.231   4.377  0.2643  0.5710 -0.3357
 7770TIP3    H144725   4.510   2.308   4.415 -0.4610 -0.3959  0.8859
 7770TIP3    H244726   4.523   2.228   4.287  1.1980  2.3504 -0.7437
 7771TIP3   OH244727   1.503   2.327  12.310 -0.1040 -0.1750 -0.2100
 7771TIP3    H144728   1.409   2.315  12.303 -0.3897  0.9250  1.3006
 7771TIP3    H244729   1.515   2.386  12.384  1.7288  0.3485 -0.8479
 7772TIP3   OH244730   5.072   4.740   6.002 -0.5346  0.4449  0.0809
 7772TIP3    H144731   5.149   4.741   6.058 -0.5229  2.5361  0.1019
 7772TIP3    H244732   5.092   4.802   5.932 -1.2240 -0.8579 -1.3374
 7773TIP3   OH244733   2.122   2.113  14.238  0.3178  0.3869  0.2774
 7773TIP3    H144734   2.165   2.057  14.302  1.4694 -0.4802 -1.1708
 7773TIP3    H244735   2.193   2.163  14.198  0.0053 -0.7136 -1.8414
 7774TIP3   OH244736   5.574   5.055  14.080 -0.1137 -0.1388 -0.1057
 7774TIP3    H144737   5.605   5.102  14.158 -1.6242  1.5003 -0.4516
 7774TIP3    H244738   5.642   5.070  14.015 -0.1000  0.7206  0.1002
 7775TIP3   OH244739   2.383   0.692   2.200  0.0664 -0.5296 -0.0554
 7775TIP3    H144740   2.473   0.715   2.223 -0.2910  0.3481  0.5098
 7775TIP3    H244741   2.348   0.770   2.157 -1.5486  0.5774  2.9356
 7776TIP3   OH244742   4.056   5.535   0.205  0.3200  0.4960 -0.2541
 7776TIP3    H144743   4.118   5.606   0.217  1.2099 -0.6859  3.3491
 7776TIP3    H244744   4.095   5.481   0.136  0.3140  2.6232 -2.0527
 7777TIP3   OH244745   3.406   1.798  15.431  0.3089 -0.5033  0.1086
 7777TIP3    H144746   3.408   1.749  15.349  1.2273 -0.5588  0.1500
 7777TIP3    H244747   3.497   1.828  15.443 -0.4802  2.5976 -0.7417
 7778TIP3   OH244748   5.323   1.126   4.722  0.0097 -0.2904  0.3655
 7778TIP3    H144749   5.255   1.166   4.776 -0.2565 -0.3164  0.0526
 7778TIP3    H244750   5.314   1.169   4.637  0.8710  0.2406  0.5285
 7779TIP3   OH244751   4.621   6.343   2.767  0.2667 -0.0452 -0.8442
 7779TIP3    H144752   4.632   6.249   2.751  0.0790 -0.0332 -1.0443
 7779TIP3    H244753   4.708   6.380   2.751  0.5206 -0.2874 -0.0306
 7780TIP3   OH244754   0.441   3.142   0.154 -0.2005  0.2447  0.2344
 7780TIP3    H144755   0.532   3.157   0.130  0.4919 -1.3622  1.6103
 7780TIP3    H244756   0.409   3.227   0.185  0.0246  1.4125 -2.4966
 7781TIP3   OH244757   3.843   2.237  12.929  1.4604  0.3328  0.4105
 7781TIP3    H144758   3.937   2.236  12.912  1.2495 -0.3510 -0.8451
 7781TIP3    H244759   3.805   2.283  12.854  0.8537  1.5065  1.3912
 7782TIP3   OH244760   2.573   1.659   4.138 -0.2771 -0.0024  0.5458
 7782TIP3    H144761   2.549   1.665   4.046 -1.5985  0.0508  0.8776
 7782TIP3    H244762   2.579   1.750   4.167 -0.4665 -0.0254  0.6584
 7783TIP3   OH244763   5.287   5.031  14.093 -0.5005 -0.0327 -0.1754
 7783TIP3    H144764   5.382   5.045  14.096 -0.1655 -1.8276 -0.9562
 7783TIP3    H244765   5.252   5.114  14.060  1.0394 -0.0383 -2.0048
 7784TIP3   OH244766   6.357   1.643   3.511  0.2243 -0.0032 -0.0910
 7784TIP3    H144767   6.409   1.590   3.572  0.1389  0.9700  0.8552
 7784TIP3    H244768   6.287   1.679   3.565 -0.4949  0.0084 -1.0110
 7785TIP3   OH244769   1.223   6.132  17.072 -0.2825 -0.3720  0.3334
 7785TIP3    H144770   1.161   6.118  17.001 -1.0990  2.2364  0.4303
 7785TIP3    H244771   1.174   6.183  17.137  1.3184 -0.1174  1.4070
 7786TIP3   OH244772   2.793   5.430   1.700  0.3090 -0.0094  0.0565
 7786TIP3    H144773   2.819   5.368   1.768  0.7234  0.7696  0.6344
 7786TIP3    H244774   2.726   5.484   1.741 -1.6142 -1.3758 -1.1217
 7787TIP3   OH244775   1.388   4.493   4.716 -0.6216 -0.2853 -0.3182
 7787TIP3    H144776   1.424   4.407   4.694  0.7559  0.2386 -0.2085
 7787TIP3    H244777   1.434   4.519   4.795 -0.2135  1.0094 -0.9494
 7788TIP3   OH244778   6.524   1.041   3.645 -0.1687 -0.7500 -0.3662
 7788TIP3    H144779   6.552   1.004   3.729 -1.0237  0.1638  0.3519
 7788TIP3    H244780   6.494   0.966   3.595 -0.0685 -1.2636  0.3272
 7789TIP3   OH244781   5.295   4.199   2.078  0.2333  0.2994 -0.0058
 7789TIP3    H144782   5.348   4.226   2.003 -0.7166  0.2513 -0.7161
 7789TIP3    H244783   5.206   4.192   2.043 -0.3806  1.1041  1.3166
 7790TIP3   OH244784   6.265   3.045   0.604  0.2274  0.3841  0.5107
 7790TIP3    H144785   6.227   2.969   0.560 -1.8510  0.2374  2.3858
 7790TIP3    H244786   6.273   3.111   0.535  0.4526 -0.9559 -0.7955
 7791TIP3   OH244787   3.802   2.845  15.931 -0.1488 -0.3273  0.0762
 7791TIP3    H144788   3.797   2.778  15.998 -0.6257 -1.2121 -0.8117
 7791TIP3    H244789   3.723   2.832  15.878  0.3766  0.1344 -0.8437
 7792TIP3   OH244790   5.352   1.560   6.257 -0.5724  0.0156 -0.2290
 7792TIP3    H144791   5.413   1.619   6.301 -1.9173 -0.4997  2.5484
 7792TIP3    H244792   5.279   1.616   6.231  0.0145  0.2392 -1.4583
 7793TIP3   OH244793   0.898   5.568  13.045 -0.5522 -0.0158 -0.8557
 7793TIP3    H144794   0.928   5.585  12.956 -0.3598 -1.0258 -0.9907
 7793TIP3    H244795   0.936   5.640  13.096  0.8739 -0.4193 -1.2865
 7794TIP3   OH244796   2.091   4.816   5.699 -0.6357  0.0299 -0.8254
 7794TIP3    H144797   2.074   4.733   5.655 -0.8325 -0.5086  0.2501
 7794TIP3    H244798   2.038   4.880   5.650  0.4064 -0.2388 -2.3819
 7795TIP3   OH244799   3.605   3.057  12.282 -0.2500  0.0806 -0.1283
 7795TIP3    H144800   3.651   3.002  12.345 -0.0334 -1.3965 -1.4891
 7795TIP3    H244801   3.513   3.047  12.304 -0.1434  0.0547  0.3160
 7796TIP3   OH244802   1.107   3.658  11.587 -0.3713 -0.2552 -0.3234
 7796TIP3    H144803   1.174   3.618  11.531 -0.7063 -0.6469 -0.4493
 7796TIP3    H244804   1.044   3.694  11.525  0.0017  0.6174 -0.2164
 7797TIP3   OH244805   2.094   0.702  15.266 -0.1109 -0.4323 -0.1740
 7797TIP3    H144806   2.080   0.662  15.352 -1.3095 -0.2678 -0.2682
 7797TIP3    H244807   2.176   0.665  15.235 -0.0346 -1.0538  0.7305
 7798TIP3   OH244808   4.152   6.279  14.530 -0.1242 -0.1208  0.3130
 7798TIP3    H144809   4.147   6.316  14.442 -0.4401 -1.3266 -0.2065
 7798TIP3    H244810   4.216   6.333  14.576  0.6223  0.0670 -0.8983
 7799TIP3   OH244811   5.054   4.032   5.382  0.4651 -0.1258  0.5881
 7799TIP3    H144812   5.080   4.081   5.460 -1.2351  1.8105  0.0236
 7799TIP3    H244813   4.958   4.032   5.384  0.3632  0.3945 -1.7236
 7800TIP3   OH244814   3.485   5.588   4.780 -0.0163 -0.9637  0.0563
 7800TIP3    H144815   3.445   5.672   4.804  0.1660 -0.9871  0.4486
 7800TIP3    H244816   3.579   5.606   4.777 -0.0626 -0.8654 -1.0484
 7801TIP3   OH244817   5.985   5.051   2.618  0.3263 -0.3127 -0.8543
 7801TIP3    H144818   5.974   5.115   2.689  0.2096  0.0149 -1.1670
 7801TIP3    H244819   6.080   5.041   2.610  0.3260 -1.2957  0.1899
 7802TIP3   OH244820   5.359   5.418   3.259 -0.1970  0.1689  0.2394
 7802TIP3    H144821   5.320   5.500   3.289  0.2239  0.0540  1.1335
 7802TIP3    H244822   5.429   5.445   3.201  0.5252  0.4870  1.2338
 7803TIP3   OH244823   4.642   4.594   4.142  0.2249  0.9045 -0.2528
 7803TIP3    H144824   4.558   4.580   4.186  0.5535  1.1202  0.4540
 7803TIP3    H244825   4.632   4.677   4.097 -0.2693  0.4662 -0.9646
 7804TIP3   OH244826   3.769   2.922  11.265  0.2860 -0.2867 -0.1643
 7804TIP3    H144827   3.728   2.970  11.337  0.0306 -0.2239 -0.3478
 7804TIP3    H244828   3.756   2.830  11.287 -0.0499 -0.2684 -0.2713
 7805TIP3   OH244829   1.923   2.172   4.417 -0.1844 -0.0277 -0.3871
 7805TIP3    H144830   2.015   2.146   4.427 -0.2015  0.5548  1.8969
 7805TIP3    H244831   1.917   2.257   4.462 -1.7386  0.2001 -0.9497
 7806TIP3   OH244832   6.518   4.531   0.395  0.0321  0.2309  0.2833
 7806TIP3    H144833   6.457   4.568   0.331  0.4563 -0.7076 -0.6853
 7806TIP3    H244834   6.474   4.452   0.427  0.3654  0.0300  0.2412
 7807TIP3   OH244835   4.059   5.543   1.491 -0.3291 -0.2969  0.2730
 7807TIP3    H144836   4.001   5.496   1.552 -0.5780 -0.4465 -0.0759
 7807TIP3    H244837   3.999   5.582   1.427 -0.0225 -0.8106 -0.3411
 7808TIP3   OH244838   1.380   5.488  13.119  0.3403  0.7217 -0.0137
 7808TIP3    H144839   1.446   5.432  13.159 -2.3995 -3.6319 -0.8884
 7808TIP3    H244840   1.390   5.475  13.025 -0.5725  1.5087 -0.2397
 7809TIP3   OH244841   6.033   5.231  14.516 -0.2275  0.5337  0.1094
 7809TIP3    H144842   6.022   5.140  14.546  0.3743 -0.4014 -2.2730
 7809TIP3    H244843   6.023   5.226  14.421 -0.0185  2.9639 -0.0964
 7810TIP3   OH244844   1.862   1.069  12.325  0.1467  0.0786 -0.1140
 7810TIP3    H144845   1.852   1.016  12.246 -0.2736 -1.0107  0.6390
 7810TIP3    H244846   1.794   1.037  12.384  1.3299 -0.1091  1.2068
 7811TIP3   OH244847   0.774   4.020   5.887  0.1241  0.2226 -0.2310
 7811TIP3    H144848   0.862   4.024   5.925 -0.5560 -0.3459  1.4848
 7811TIP3    H244849   0.752   3.927   5.887 -0.1622  0.2642 -1.4911
 7812TIP3   OH244850   6.661   5.012  11.114 -0.6537  0.3031 -0.6877
 7812TIP3    H144851   6.647   4.943  11.178 -2.3587  1.4341  0.2495
 7812TIP3    H244852   6.608   4.986  11.039  0.9253 -0.7580 -1.4806
 7813TIP3   OH244853   0.977   5.823   2.648  0.3819 -0.1125 -0.0804
 7813TIP3    H144854   0.953   5.878   2.573  2.5559  0.5098 -0.3919
 7813TIP3    H244855   1.006   5.885   2.715 -1.3143 -0.6820  1.2462
 7814TIP3   OH244856   4.896   3.904  16.457 -0.4982 -0.2259  0.4662
 7814TIP3    H144857   4.989   3.925  16.450 -0.6797  1.5252  2.3524
 7814TIP3    H244858   4.881   3.890  16.550 -2.0503 -0.9049  0.1468
 7815TIP3   OH244859   5.200   2.591  12.222  0.4800 -0.3200  0.0171
 7815TIP3    H144860   5.120   2.539  12.231  0.8219 -0.6516  1.2715
 7815TIP3    H244861   5.256   2.539  12.165  0.9330 -1.5082  1.4894
 7816TIP3   OH244862   3.775   0.968   1.571 -0.7481  0.4317 -0.3955
 7816TIP3    H144863   3.761   0.986   1.664 -0.4696  1.9891 -0.6258
 7816TIP3    H244864   3.807   1.051   1.535 -2.3622  0.3305 -2.2150
 7817TIP3   OH244865   4.223   1.966  11.021  0.1014 -0.7165 -0.4525
 7817TIP3    H144866   4.242   1.965  10.927  0.7667 -2.4425 -0.3258
 7817TIP3    H244867   4.149   1.908  11.032  1.4698 -2.4057  0.3261
 7818TIP3   OH244868   1.346   1.470   1.708 -0.3769  0.1660  0.1094
 7818TIP3    H144869   1.323   1.499   1.619 -1.5048  1.0882  0.6772
 7818TIP3    H244870   1.367   1.377   1.698  2.7637  0.9285 -1.6700
 7819TIP3   OH244871   5.430   5.073   0.563 -0.3853 -0.0794 -0.8282
 7819TIP3    H144872   5.478   5.073   0.480 -0.3365 -2.7718 -0.9146
 7819TIP3    H244873   5.390   5.160   0.568  1.9848  1.1852 -2.2210
 7820TIP3   OH244874   3.183   3.760  13.450 -0.3402 -0.1510  0.1439
 7820TIP3    H144875   3.206   3.703  13.377 -0.1365 -2.1857  1.7135
 7820TIP3    H244876   3.090   3.743  13.465  0.4608 -3.0078  2.9045
 7821TIP3   OH244877   3.351   5.269   4.500  0.0057  1.1785 -0.6262
 7821TIP3    H144878   3.397   5.293   4.419  0.4818  0.7570 -0.4793
 7821TIP3    H244879   3.312   5.351   4.530 -0.9850  1.1644 -1.7946
 7822TIP3   OH244880   5.968   4.171   2.892 -0.0223 -0.3943  0.2014
 7822TIP3    H144881   5.981   4.264   2.876 -0.3880 -0.2226  0.8851
 7822TIP3    H244882   5.988   4.129   2.808  0.0163  0.3071 -0.1424
 7823TIP3   OH244883   5.358   1.140  11.800 -0.1635  0.3548  0.3571
 7823TIP3    H144884   5.370   1.221  11.750  0.5993 -0.7022 -1.2390
 7823TIP3    H244885   5.408   1.153  11.880  0.4373  1.2333 -0.1540
 7824TIP3   OH244886   0.429   3.657   3.469 -0.5994  0.0598 -0.0621
 7824TIP3    H144887   0.358   3.599   3.497 -0.3009 -0.9504 -1.2713
 7824TIP3    H244888   0.391   3.706   3.396  0.8055 -2.9318 -3.0806
 7825TIP3   OH244889   4.412   5.578  12.899 -0.2955  0.2324 -0.4001
 7825TIP3    H144890   4.468   5.524  12.843 -0.7775 -0.6969 -0.0024
 7825TIP3    H244891   4.420   5.539  12.986 -1.7321 -0.0593 -0.3799
 7826TIP3   OH244892   3.901   4.408   5.780 -0.0131  0.3795  0.1118
 7826TIP3    H144893   3.815   4.367   5.786  0.1685  0.1551  1.3423
 7826TIP3    H244894   3.955   4.342   5.736  0.1414 -0.5099  1.5867
 7827TIP3   OH244895   0.376   2.858   6.250  0.0978 -0.6473 -0.1995
 7827TIP3    H144896   0.338   2.926   6.305  0.0614 -1.0400  0.2758
 7827TIP3    H244897   0.318   2.782   6.262  1.6260 -1.6308  1.4547
 7828TIP3   OH244898   3.772   4.386  12.283 -1.1194 -0.4829  0.2871
 7828TIP3    H144899   3.852   4.388  12.229  0.0623  1.2441  1.9581
 7828TIP3    H244900   3.752   4.293  12.292  1.0946 -1.0198  0.2978
 7829TIP3   OH244901   6.303   3.248  12.136  0.2475  0.5295  0.4785
 7829TIP3    H144902   6.339   3.322  12.186  0.8191  1.3855 -1.1166
 7829TIP3    H244903   6.214   3.276  12.114  0.5776  0.9040 -0.4079
 7830TIP3   OH244904   4.895   3.700  10.511  0.8285 -0.5626 -0.2733
 7830TIP3    H144905   4.862   3.789  10.527  1.8541  0.0670 -1.4386
 7830TIP3    H244906   4.966   3.688  10.574 -0.4598 -1.2775  1.1010
 7831TIP3   OH244907   3.307   4.127   5.480  0.0089 -0.2453  0.5375
 7831TIP3    H144908   3.330   4.102   5.570  2.4952 -1.6150 -0.3857
 7831TIP3    H244909   3.303   4.043   5.433 -0.3947  0.5198 -0.8320
 7832TIP3   OH244910   5.454   2.458   2.824  0.2211 -0.2637  0.1190
 7832TIP3    H144911   5.463   2.400   2.900 -0.6953  0.1561  0.5597
 7832TIP3    H244912   5.530   2.516   2.830  0.3369 -0.4514  0.5239
 7833TIP3   OH244913   6.510   4.905   5.144 -0.6148  0.0786  0.1983
 7833TIP3    H144914   6.442   4.893   5.210  0.2509 -0.9235  0.9622
 7833TIP3    H244915   6.500   4.831   5.085 -0.2891  0.0005  0.2353
 7834TIP3   OH244916   4.048   6.575  11.425 -0.6362 -0.2608  0.1694
 7834TIP3    H144917   4.092   6.628  11.359  1.0300 -0.8932  0.7121
 7834TIP3    H244918   4.081   6.609  11.509 -0.2739 -1.4989  0.5496
 7835TIP3   OH244919   1.539   5.617  14.102  0.2857 -0.2515 -0.3151
 7835TIP3    H144920   1.622   5.615  14.053 -0.1153  1.5581 -1.1473
 7835TIP3    H244921   1.539   5.535  14.151  2.5883 -0.2966 -0.2529
 7836TIP3   OH244922   1.630   6.266  15.908 -0.8279  0.5456 -0.0360
 7836TIP3    H144923   1.555   6.316  15.942 -0.6853  1.2505 -0.7542
 7836TIP3    H244924   1.683   6.248  15.986 -0.9170  1.4556  0.2469
 7837TIP3   OH244925   0.406   2.446   3.059  0.0680  0.8318  0.5454
 7837TIP3    H144926   0.456   2.527   3.073 -1.4349  2.0959 -0.9009
 7837TIP3    H244927   0.467   2.376   3.080  1.3299  2.3327  2.2205
 7838TIP3   OH244928   6.122   1.301  14.227  0.3828  0.2435 -1.0365
 7838TIP3    H144929   6.133   1.346  14.310 -1.1831 -0.2881 -0.5210
 7838TIP3    H244930   6.172   1.354  14.165 -0.1400  1.8335 -0.1604
 7839TIP3   OH244931   3.258   5.958  10.381  0.0721 -0.0029  0.5848
 7839TIP3    H144932   3.184   5.939  10.324 -0.1775  1.1123  0.5288
 7839TIP3    H244933   3.255   6.052  10.396  1.1352 -0.0190  1.0601
 7840TIP3   OH244934   3.269   5.344  12.472  0.3861 -0.1249  0.2327
 7840TIP3    H144935   3.188   5.333  12.522 -0.4666  1.4880 -0.7017
 7840TIP3    H244936   3.241   5.340  12.381  1.1144  1.8160 -0.1182
 7841TIP3   OH244937   0.918   5.258  12.606  0.1082  0.5882 -0.2578
 7841TIP3    H144938   1.012   5.256  12.621  0.2024  0.5546 -0.8297
 7841TIP3    H244939   0.888   5.170  12.632  0.1369  0.8069  0.5170
 7842TIP3   OH244940   2.246   1.733  16.679  0.3918  0.1547 -0.2912
 7842TIP3    H144941   2.298   1.671  16.731  0.5624  0.3437 -0.2397
 7842TIP3    H244942   2.282   1.727  16.591 -0.4010 -0.7449 -0.5729
 7843TIP3   OH244943   2.855   3.083   0.957  0.1462  0.3597 -0.0562
 7843TIP3    H144944   2.942   3.061   0.924 -0.1150 -0.3757 -0.2901
 7843TIP3    H244945   2.855   3.053   1.048 -0.4645 -1.4376 -0.5936
 7844TIP3   OH244946   4.343   2.324  11.162  0.0439 -0.1335 -0.4391
 7844TIP3    H144947   4.385   2.238  11.159  1.0115  0.1313  2.7245
 7844TIP3    H244948   4.291   2.323  11.242 -1.4966  1.6145 -1.3308
 7845TIP3   OH244949   4.046   4.683  14.478  0.1995  0.0387 -0.6840
 7845TIP3    H144950   4.097   4.608  14.448 -3.0857 -1.9126 -1.9844
 7845TIP3    H244951   4.093   4.715  14.555  3.8748 -0.7672 -2.3717
 7846TIP3   OH244952   5.296   3.959   1.980 -0.3377  0.2265 -0.5010
 7846TIP3    H144953   5.251   3.992   1.902 -3.6472 -0.4165  0.9825
 7846TIP3    H244954   5.303   4.035   2.038 -0.5199  0.0672 -0.2722
 7847TIP3   OH244955   6.691   4.721   3.613  0.2333  0.3855  0.1067
 7847TIP3    H144956   6.645   4.802   3.593 -1.8943 -0.9345 -0.5974
 7847TIP3    H244957   6.681   4.711   3.708  0.1019  0.6843  0.1258
 7848TIP3   OH244958   0.133   2.494  17.011  0.1156 -0.1566 -1.1478
 7848TIP3    H144959   0.198   2.508  16.942  0.9791  0.8726 -0.1533
 7848TIP3    H244960   0.094   2.580  17.026 -0.8681 -0.5907 -1.1126
 7849TIP3   OH244961   6.340   2.951   5.388 -0.9648 -0.0845  0.1099
 7849TIP3    H144962   6.356   2.860   5.412 -2.4192 -0.3968  0.0130
 7849TIP3    H244963   6.298   2.989   5.465 -2.3992 -0.1286 -0.6018
 7850TIP3   OH244964   2.171   1.146   0.742 -0.0639  0.1249  0.2180
 7850TIP3    H144965   2.164   1.137   0.647  0.5712 -1.0697  0.2630
 7850TIP3    H244966   2.154   1.058   0.776  3.3722 -0.3882  0.9460
 7851TIP3   OH244967   6.689   6.542   5.106 -0.7012 -0.0531  0.0884
 7851TIP3    H144968   6.702   6.488   5.028 -0.2707 -0.8283  0.6779
 7851TIP3    H244969   6.776   6.547   5.146 -0.5660  1.7150 -0.3338
 7852TIP3   OH244970   1.375   4.285  14.971 -0.4439 -0.0274  0.1490
 7852TIP3    H144971   1.284   4.296  14.999 -0.1913 -0.6540  1.2944
 7852TIP3    H244972   1.370   4.267  14.878 -1.3838  1.5499 -0.1499
 7853TIP3   OH244973   5.381   2.968  10.998 -0.3184 -0.4017  0.0388
 7853TIP3    H144974   5.339   3.046  10.960 -0.2655  0.2531  1.2647
 7853TIP3    H244975   5.452   2.947  10.937 -1.5294 -0.6884 -1.3323
 7854TIP3   OH244976   5.678   5.847   2.145 -0.4388 -0.2633 -0.4350
 7854TIP3    H144977   5.677   5.800   2.062  0.5120 -0.2584 -0.4583
 7854TIP3    H244978   5.758   5.817   2.189  0.3794  1.5454 -0.5787
 7855TIP3   OH244979   5.167   0.615  12.367 -0.2231 -0.3301 -0.0278
 7855TIP3    H144980   5.158   0.554  12.294  3.2824 -1.3699  0.2058
 7855TIP3    H244981   5.244   0.667  12.345  0.8570 -0.5572  2.7566
 7856TIP3   OH244982   1.332   6.623   2.508  0.3709 -0.0517 -0.7165
 7856TIP3    H144983   1.293   6.554   2.563  1.9781 -1.9390 -1.7920
 7856TIP3    H244984   1.272   6.632   2.435  0.3658 -0.6570 -0.7938
 7857TIP3   OH244985   2.650   0.738   6.646 -0.2213  0.0134  0.8433
 7857TIP3    H144986   2.671   0.824   6.609  1.6050  0.3260  2.4395
 7857TIP3    H244987   2.696   0.676   6.589 -3.9835 -0.3340 -2.1911
 7858TIP3   OH244988   3.315   5.132   2.569 -0.2838 -0.5813  0.3203
 7858TIP3    H144989   3.325   5.044   2.533 -0.1477 -0.7842  0.8355
 7858TIP3    H244990   3.235   5.128   2.622 -1.7741  0.3336 -1.7255
 7859TIP3   OH244991   1.878   1.107   0.864 -0.0106  0.3701  0.3310
 7859TIP3    H144992   1.787   1.077   0.862 -0.3351  1.2694  0.8451
 7859TIP3    H244993   1.891   1.147   0.777  1.0317 -2.8161 -1.1280
 7860TIP3   OH244994   2.254   4.805   5.950 -0.5569  0.2097  0.8853
 7860TIP3    H144995   2.274   4.716   5.919 -1.3175  0.1227  0.6208
 7860TIP3    H244996   2.192   4.839   5.886  0.6274  1.3870  0.3233
 7861TIP3   OH244997   2.014   4.643   3.814  0.0190  0.3617 -0.8477
 7861TIP3    H144998   1.928   4.680   3.834  0.0134  0.3636 -0.8759
 7861TIP3    H244999   2.052   4.703   3.750 -0.2148  0.0134 -1.3112
 7862TIP3   OH245000   3.593   2.854  16.658 -0.4647 -0.0934  0.1430
 7862TIP3    H145001   3.679   2.835  16.693 -0.7828 -1.1938  0.3760
 7862TIP3    H245002   3.603   2.845  16.563 -0.3303 -0.2588  0.1716
 7863TIP3   OH245003   5.086   5.647   5.778 -0.1924 -0.2851  0.1447
 7863TIP3    H145004   5.099   5.615   5.868  1.3633  1.2729  0.5097
 7863TIP3    H245005   5.004   5.696   5.783  1.4760  2.5986  1.6129
 7864TIP3   OH245006   0.869   3.350  12.237  0.0612 -0.7063  0.1238
 7864TIP3    H145007   0.823   3.316  12.160 -1.0267 -2.0587  1.2958
 7864TIP3    H245008   0.813   3.421  12.268  2.1309  2.1009 -2.0924
 7865TIP3   OH245009   3.045   1.731   5.839 -0.4409 -0.2679 -0.3203
 7865TIP3    H145010   2.957   1.709   5.807 -0.3356  0.5196 -1.1818
 7865TIP3    H245011   3.059   1.670   5.911 -1.9729  0.0402  0.2875
 7866TIP3   OH245012   0.701   5.598   1.840  0.2426  0.2725 -0.7808
 7866TIP3    H145013   0.688   5.555   1.756 -3.1966  0.7486 -0.6305
 7866TIP3    H245014   0.753   5.676   1.820 -2.6994  1.8444 -3.0871
 7867TIP3   OH245015   1.266   6.118   4.373 -0.2927 -0.4370  0.4538
 7867TIP3    H145016   1.346   6.106   4.423  0.7783  2.5201 -0.3329
 7867TIP3    H245017   1.242   6.210   4.386  0.0246  0.5666 -4.2121
 7868TIP3   OH245018   0.229   1.179   3.051 -0.0442  0.4900  0.5761
 7868TIP3    H145019   0.242   1.265   3.091 -1.8042  0.4186  1.4064
 7868TIP3    H245020   0.234   1.195   2.957 -1.9724  1.8492  0.6572
 7869TIP3   OH245021   3.512   0.557   2.122 -0.0694  0.6061  0.0426
 7869TIP3    H145022   3.602   0.569   2.093  0.1941 -1.1203  0.0755
 7869TIP3    H245023   3.486   0.472   2.086 -0.8569 -0.0535  2.0346
 7870TIP3   OH245024   0.320   6.634  10.890  1.0932  0.3442 -0.5545
 7870TIP3    H145025   0.366   6.702  10.839 -1.8484  2.0898 -1.1322
 7870TIP3    H245026   0.268   6.587  10.824  0.6247 -0.3454  0.2961
 7871TIP3   OH245027   0.312   4.509  10.637  0.3250 -0.2136  0.8582
 7871TIP3    H145028   0.386   4.567  10.659 -1.6636  2.2862  1.4571
 7871TIP3    H245029   0.335   4.473  10.552  1.7331  1.4357  0.4783
 7872TIP3   OH245030   0.925   1.832   2.985 -0.0839  0.1784 -0.1032
 7872TIP3    H145031   0.969   1.748   2.994  1.0589  0.6678 -0.8333
 7872TIP3    H245032   0.887   1.830   2.897 -0.0577  0.4260 -0.1201
 7873TIP3   OH245033   4.672   0.379   5.540 -0.0366 -0.2263 -0.0159
 7873TIP3    H145034   4.646   0.303   5.593  0.1926 -1.5648 -1.7459
 7873TIP3    H245035   4.751   0.412   5.583  0.1606 -1.2859  0.4705
 7874TIP3   OH245036   2.176   2.003   0.755 -0.1261 -0.3430  0.6184
 7874TIP3    H145037   2.157   1.924   0.704 -1.3104  0.7501 -0.7144
 7874TIP3    H245038   2.269   1.995   0.777  0.6111 -0.6357 -2.2108
 7875TIP3   OH245039   0.186   6.483  11.599  0.1101  0.2102  0.3236
 7875TIP3    H145040   0.125   6.420  11.561  1.5665 -1.0666 -0.0105
 7875TIP3    H245041   0.207   6.447  11.685  1.8483 -0.4370 -0.3295
 7876TIP3   OH245042   2.640   2.927  10.416 -0.1874  0.8386  0.5538
 7876TIP3    H145043   2.665   2.838  10.442  0.4568  1.4109  2.0013
 7876TIP3    H245044   2.546   2.931  10.433 -0.3083  0.2964  0.0425
 7877TIP3   OH245045   1.167   5.619  13.269 -0.3801  0.3174 -0.1107
 7877TIP3    H145046   1.213   5.584  13.193 -0.1125 -0.0173  0.2010
 7877TIP3    H245047   1.223   5.597  13.344 -1.4597 -0.8940  0.3780
 7878TIP3   OH245048   0.321   5.644  11.845 -0.3268  0.5477  0.5249
 7878TIP3    H145049   0.382   5.711  11.814 -0.6792  0.6511  0.0503
 7878TIP3    H245050   0.235   5.676  11.818 -0.5117 -0.0133  0.4455
 7879TIP3   OH245051   5.053   0.983  11.479  0.0217  0.2840  0.6198
 7879TIP3    H145052   5.075   0.920  11.411 -1.5248 -0.4169  0.7173
 7879TIP3    H245053   4.982   1.035  11.441 -0.3560  0.3611  1.3992
 7880TIP3   OH245054   1.793   3.859  10.678 -0.0318 -0.2051 -0.6731
 7880TIP3    H145055   1.829   3.778  10.714  0.2383 -0.2025 -0.9294
 7880TIP3    H245056   1.730   3.889  10.743  2.3613  1.2415  1.1789
 7881TIP3   OH245057   5.939   1.273   0.654  0.4168  0.1902  0.0202
 7881TIP3    H145058   5.857   1.324   0.658  0.4889  0.2863  0.3452
 7881TIP3    H245059   5.920   1.194   0.704  0.6078  0.3391  0.3318
 7882TIP3   OH245060   3.392   1.551  16.295 -0.7632 -0.1464 -0.4499
 7882TIP3    H145061   3.313   1.549  16.350  0.7888 -2.2252  1.8794
 7882TIP3    H245062   3.461   1.582  16.353  0.4481  0.3650 -2.0858
 7883TIP3   OH245063   1.525   5.667   0.526  0.0794 -0.1332 -0.3797
 7883TIP3    H145064   1.514   5.586   0.475 -0.3185 -0.5220  0.3058
 7883TIP3    H245065   1.478   5.733   0.476  0.8314 -0.2060 -1.2079
 7884TIP3   OH245066   1.477   4.749   2.862  0.2015 -0.1649  0.5986
 7884TIP3    H145067   1.534   4.697   2.805  0.1364  0.5413 -0.1216
 7884TIP3    H245068   1.432   4.685   2.916  0.7424 -0.8069  0.2998
 7885TIP3   OH245069   2.595   6.274   4.495  0.0431 -0.5685 -0.0267
 7885TIP3    H145070   2.640   6.196   4.527  1.3232  0.0549 -0.2414
 7885TIP3    H245071   2.555   6.313   4.573  2.2459  0.3646  0.7125
 7886TIP3   OH245072   3.485   6.091   3.705  0.1503 -0.0557  0.0089
 7886TIP3    H145073   3.528   6.011   3.676 -0.0380  0.3442 -1.4651
 7886TIP3    H245074   3.528   6.161   3.656 -1.3031  0.4723 -0.5960
 7887TIP3   OH245075   5.059   5.598   0.769  0.3912  0.0541 -0.0418
 7887TIP3    H145076   4.997   5.671   0.776  0.2598  0.0168 -0.7128
 7887TIP3    H245077   5.139   5.639   0.736 -0.2250 -0.3413 -2.2341
 7888TIP3   OH245078   4.895   1.063  14.360  0.3995 -0.1059 -0.2567
 7888TIP3    H145079   4.924   1.151  14.334  1.7137 -1.1855 -2.7508
 7888TIP3    H245080   4.805   1.057  14.328  0.0462  0.5355  0.5659
 7889TIP3   OH245081   5.810   4.223  11.664  0.3686  0.0228  0.0600
 7889TIP3    H145082   5.758   4.302  11.678  1.0777  0.4300  0.4118
 7889TIP3    H245083   5.801   4.173  11.745 -2.7826 -1.9025 -1.2642
 7890TIP3   OH245084   4.236   2.068   3.086  0.5005  0.8219  0.3265
 7890TIP3    H145085   4.218   1.975   3.078  0.8611  0.7221  0.6159
 7890TIP3    H245086   4.181   2.097   3.159  0.6035  0.7743  0.4230
 7891TIP3   OH245087   0.399   5.711  12.836 -0.8819  0.1569 -0.1086
 7891TIP3    H145088   0.327   5.678  12.782 -1.2108  0.8741 -0.1188
 7891TIP3    H245089   0.477   5.666  12.802 -1.1247  0.3792 -0.9958
 7892TIP3   OH245090   5.501   6.409   1.297  0.1776 -0.1900 -0.2806
 7892TIP3    H145091   5.576   6.401   1.239 -1.4236 -0.2814 -2.4819
 7892TIP3    H245092   5.533   6.382   1.383  2.4681 -0.7923 -1.2596
 7893TIP3   OH245093   4.184   6.426  11.825  0.1938 -0.1006  0.5595
 7893TIP3    H145094   4.186   6.433  11.920 -0.4469 -1.7289  0.7383
 7893TIP3    H245095   4.161   6.513  11.794  1.1342  0.6385  1.8366
 7894TIP3   OH245096   0.460   3.663   1.206  0.0793  0.6211 -0.0794
 7894TIP3    H145097   0.382   3.710   1.176 -1.1689 -1.4364 -0.2797
 7894TIP3    H245098   0.501   3.631   1.125  1.9903  2.8318 -0.0842
 7895TIP3   OH245099   2.233   6.239  16.504 -0.3352 -0.2646  0.1469
 7895TIP3    H145100   2.237   6.163  16.563  2.8149  0.7462  1.4435
 7895TIP3    H245101   2.167   6.296  16.543 -0.7274 -1.1024  0.7499
 7896TIP3   OH245102   0.112   4.380  16.784  0.1760  0.1531 -0.3371
 7896TIP3    H145103   0.034   4.360  16.836 -0.8007  1.0887 -1.3965
 7896TIP3    H245104   0.180   4.321  16.818 -1.3480 -1.6541 -0.3037
 7897TIP3   OH245105   2.555   5.808  13.561  0.2449 -0.0843 -0.3486
 7897TIP3    H145106   2.567   5.841  13.650 -1.0538  2.0804 -0.8963
 7897TIP3    H245107   2.524   5.719  13.573 -1.6752  0.7265  1.5015
 7898TIP3   OH245108   1.358   2.072   0.427 -0.0383 -0.2989 -0.2968
 7898TIP3    H145109   1.349   2.142   0.363  0.2218  1.4789  1.5395
 7898TIP3    H245110   1.270   2.034   0.435 -1.0200  2.0681  1.0871
 7899TIP3   OH245111   3.399   0.853  16.562  0.1414 -0.0705 -0.2884
 7899TIP3    H145112   3.334   0.912  16.598 -0.0953  0.4357 -1.4843
 7899TIP3    H245113   3.481   0.902  16.568 -0.1098  0.5548 -1.5938
 7900TIP3   OH245114   5.954   2.726   2.908  0.0480 -0.1537  0.1534
 7900TIP3    H145115   6.034   2.757   2.867  1.1366 -1.8740  0.8551
 7900TIP3    H245116   5.972   2.635   2.930 -2.4797 -0.9241 -0.5894
 7901TIP3   OH245117   1.822   3.116  17.117  0.0976 -0.3504 -0.0296
 7901TIP3    H145118   1.911   3.136  17.087 -0.5019  0.6334 -1.2324
 7901TIP3    H245119   1.800   3.034  17.074 -0.0619  0.0888 -0.7881
 7902TIP3   OH245120   4.332   1.177   0.900  0.3373  0.1376 -0.6190
 7902TIP3    H145121   4.298   1.135   0.821  0.3419 -1.3289  0.1137
 7902TIP3    H245122   4.265   1.158   0.967  0.5799  0.9030 -0.1528
 7903TIP3   OH245123   2.561   0.369   0.246  0.1470 -0.0834  0.0907
 7903TIP3    H145124   2.544   0.294   0.304 -0.5296 -0.2685 -0.3341
 7903TIP3    H245125   2.648   0.351   0.209 -0.7762 -1.6454 -1.4503
 7904TIP3   OH245126   3.872   3.041   4.176  0.2257  0.4664  0.4267
 7904TIP3    H145127   3.789   3.081   4.150 -0.5680  0.0520  2.1806
 7904TIP3    H245128   3.939   3.102   4.144 -0.7205  0.7166 -1.1728
 7905TIP3   OH245129   2.131   3.813  13.508 -0.1492  0.3523 -0.1444
 7905TIP3    H145130   2.221   3.847  13.516  0.9406 -2.1486 -0.8097
 7905TIP3    H245131   2.088   3.841  13.589  1.7771  0.1936  1.0067
 7906TIP3   OH245132   6.762   1.034  10.777  0.2034  0.1319 -0.2866
 7906TIP3    H145133   6.740   0.952  10.822  2.8143 -0.2895  0.3758
 7906TIP3    H245134   6.853   1.023  10.749  0.4342  2.5690 -0.7300
 7907TIP3   OH245135   2.870   4.838   4.944 -0.1460  0.0156  0.4988
 7907TIP3    H145136   2.868   4.934   4.950  1.3785  0.0965  0.3042
 7907TIP3    H245137   2.948   4.814   4.994 -0.3367 -1.1043  0.2677
 7908TIP3   OH245138   2.508   2.850   4.657 -0.0564 -0.1186  0.0937
 7908TIP3    H145139   2.581   2.912   4.646 -0.5136  0.4946  0.4340
 7908TIP3    H245140   2.474   2.869   4.744  0.7652 -1.9280  0.8433
 7909TIP3   OH245141   3.997   6.561   6.304  0.2068  0.1388 -0.4429
 7909TIP3    H145142   3.969   6.644   6.344  1.2785  0.9888 -1.3836
 7909TIP3    H245143   4.063   6.587   6.240 -1.1373 -1.2250 -2.4892
 7910TIP3   OH245144   0.515   3.639  15.354  0.1247 -0.3457 -0.7086
 7910TIP3    H145145   0.459   3.675  15.285 -1.9572 -2.3397 -0.1814
 7910TIP3    H245146   0.510   3.702  15.425 -2.4704 -0.9978 -0.2441
 7911TIP3   OH245147   3.942   6.066   6.792  0.3703  0.0346  0.1683
 7911TIP3    H145148   3.888   6.036   6.865 -0.7592 -0.2540 -0.7492
 7911TIP3    H245149   3.945   6.161   6.801  1.5007 -0.0953  1.4203
 7912TIP3   OH245150   1.772   2.808   5.997 -0.1607 -0.5343  0.5013
 7912TIP3    H145151   1.684   2.845   6.002 -0.2656 -0.8270  0.8783
 7912TIP3    H245152   1.830   2.879   6.025 -0.4556 -1.0217  2.4423
 7913TIP3   OH245153   1.523   1.251   1.783 -0.2251 -0.1802 -0.0600
 7913TIP3    H145154   1.475   1.170   1.764  2.6632 -1.9380 -0.5671
 7913TIP3    H245155   1.577   1.228   1.859  0.7256  1.2394 -0.2801
 7914TIP3   OH245156   6.334   6.630  11.732 -0.2058 -0.1620  0.1234
 7914TIP3    H145157   6.335   6.559  11.795 -0.9565 -0.8734 -0.6297
 7914TIP3    H245158   6.245   6.628  11.696 -0.0815  0.8333 -0.2670
 7915TIP3   OH245159   4.255   6.780   3.454  0.4157 -0.1025 -0.5038
 7915TIP3    H145160   4.163   6.769   3.433  0.5583 -0.7794 -0.7858
 7915TIP3    H245161   4.298   6.790   3.369  0.7670 -1.1016 -0.4492
 7916TIP3   OH245162   4.969   5.950  14.440 -0.1024  0.0457 -0.4129
 7916TIP3    H145163   4.882   5.915  14.454  0.5850 -1.9512 -0.8432
 7916TIP3    H245164   5.015   5.883  14.389  1.7464  0.9344 -0.0206
 7917TIP3   OH245165   5.276   4.495   1.697  0.8518 -0.0606 -0.2243
 7917TIP3    H145166   5.243   4.584   1.707 -1.2605 -0.9186  1.1992
 7917TIP3    H245167   5.199   4.440   1.710  2.2664 -2.1381 -0.1960
 7918TIP3   OH245168   2.398   0.596   4.366 -0.1194  0.0550  0.0651
 7918TIP3    H145169   2.333   0.535   4.332 -1.0275  0.8254  0.3664
 7918TIP3    H245170   2.347   0.667   4.405  0.9002  0.2535  1.1020
 7919TIP3   OH245171   2.604   1.061   1.605 -0.6659  0.6613  0.1499
 7919TIP3    H145172   2.571   1.117   1.675 -0.2709 -0.1478  1.0021
 7919TIP3    H245173   2.646   0.988   1.650 -1.2208 -0.3631 -0.9344
 7920TIP3   OH245174   2.092   2.937   3.430 -0.3567 -0.2254  0.2274
 7920TIP3    H145175   2.071   2.845   3.449 -1.2054  0.0761  0.8194
 7920TIP3    H245176   2.008   2.982   3.438 -0.5806  0.1698 -3.0031
 7921TIP3   OH245177   0.115   1.284   6.022  0.1604 -0.2265 -0.1444
 7921TIP3    H145178   0.158   1.342   6.084  1.7097  1.5545 -2.7024
 7921TIP3    H245179   0.145   1.196   6.046  0.5252  0.3664  1.6817
 7922TIP3   OH245180   3.081   0.098   6.450 -0.4765 -0.0487 -0.0150
 7922TIP3    H145181   3.121   0.150   6.520  0.2149  2.0399 -1.8615
 7922TIP3    H245182   3.151   0.039   6.422 -0.1095  0.4961 -0.2590
 7923TIP3   OH245183   1.571   4.143  15.064  0.1354  0.9006 -0.6641
 7923TIP3    H145184   1.646   4.180  15.018  0.6861 -0.5114 -0.9578
 7923TIP3    H245185   1.497   4.196  15.035  0.9952  2.3749 -0.3158
 7924TIP3   OH245186   5.389   0.558  10.988 -0.0223  0.3384 -0.2880
 7924TIP3    H145187   5.398   0.597  11.076  1.0574 -0.4216 -0.0510
 7924TIP3    H245188   5.394   0.633  10.929  0.3094  0.7457  0.2413
 7925TIP3   OH245189   3.426   0.921   1.739  0.0949 -0.8017 -0.1256
 7925TIP3    H145190   3.429   1.013   1.712  1.2803 -0.9440 -0.5357
 7925TIP3    H245191   3.360   0.882   1.682  0.3117 -0.4188 -0.6497
 7926TIP3   OH245192   2.330   4.651  10.995 -0.4052 -0.6673  0.5206
 7926TIP3    H145193   2.393   4.672  10.927  0.5373  2.1388  2.1125
 7926TIP3    H245194   2.372   4.677  11.077 -2.5389 -1.3166  1.9326
 7927TIP3   OH245195   2.648   4.248   0.175 -0.5818  0.1105 -0.1617
 7927TIP3    H145196   2.722   4.268   0.232 -0.5981 -0.4068  0.0475
 7927TIP3    H245197   2.581   4.212   0.234 -1.1132  0.8451 -0.3045
 7928TIP3   OH245198   4.622   1.946  15.504 -0.4827 -0.1467 -0.0899
 7928TIP3    H145199   4.717   1.955  15.494 -0.5687  0.6661 -0.2831
 7928TIP3    H245200   4.588   2.031  15.477 -1.4425 -1.1641 -2.3299
 7929TIP3   OH245201   6.363   6.676   0.163  0.0249 -0.3721 -0.0803
 7929TIP3    H145202   6.420   6.751   0.146  0.7220 -1.2298 -1.8371
 7929TIP3    H245203   6.403   6.632   0.238 -2.9654  3.3808  4.2183
 7930TIP3   OH245204   6.726   5.768  15.841  0.0537 -0.4511  0.1672
 7930TIP3    H145205   6.636   5.743  15.862 -0.4355  0.4831 -0.7189
 7930TIP3    H245206   6.737   5.745  15.748  0.8180 -0.7808  0.3252
 7931TIP3   OH245207   5.260   6.510   5.783 -0.2786  0.4246 -0.6507
 7931TIP3    H145208   5.294   6.475   5.701 -0.5187  0.0968 -0.6140
 7931TIP3    H245209   5.200   6.580   5.757 -1.1821 -0.3855 -0.8125
 7932TIP3   OH245210   1.638   6.473   1.737  0.1993 -0.1861  0.4020
 7932TIP3    H145211   1.594   6.460   1.821  1.2446  1.1159  1.2066
 7932TIP3    H245212   1.614   6.397   1.684 -1.1285 -0.6353  1.5958
 7933TIP3   OH245213   4.658   3.193  10.911  0.0741 -0.3598  0.0062
 7933TIP3    H145214   4.716   3.223  10.981  0.4826 -1.0105 -0.0500
 7933TIP3    H245215   4.716   3.184  10.835  0.1251 -2.0468  0.2159
 7934TIP3   OH245216   5.543   2.017  17.015 -0.2536  0.1375 -0.1617
 7934TIP3    H145217   5.594   2.035  16.936  3.0412  0.3614  1.8158
 7934TIP3    H245218   5.517   1.925  17.006 -3.1117  1.0898 -3.0116
 7935TIP3   OH245219   4.404   3.099   0.678 -0.7319  1.0495  0.4725
 7935TIP3    H145220   4.376   3.072   0.591 -1.0781  0.3632  0.7911
 7935TIP3    H245221   4.467   3.170   0.662 -0.9087  1.0337 -0.3238
 7936TIP3   OH245222   6.441   1.376   4.858  0.0468 -0.1127 -0.7335
 7936TIP3    H145223   6.464   1.367   4.765 -1.7085  1.0202 -1.3330
 7936TIP3    H245224   6.425   1.287   4.887  1.0834 -0.5292 -1.3798
 7937TIP3   OH245225   4.112   1.983  12.433 -0.0864 -0.1189  0.4549
 7937TIP3    H145226   4.100   2.075  12.410 -0.8596  0.3860  2.6101
 7937TIP3    H245227   4.198   1.961  12.398  0.2248  1.5083  0.0903
 7938TIP3   OH245228   6.154   1.425   4.938 -0.6136 -0.3424  0.2762
 7938TIP3    H145229   6.236   1.409   4.891  1.5596 -1.6090  4.1036
 7938TIP3    H245230   6.150   1.521   4.945  1.0560 -0.2732  0.7935
 7939TIP3   OH245231   2.596   3.576   4.496 -0.0782  0.1893  0.1513
 7939TIP3    H145232   2.572   3.533   4.578 -0.7797 -1.3091 -0.7906
 7939TIP3    H245233   2.685   3.607   4.511 -0.8887  1.7640  2.1530
 7940TIP3   OH245234   3.696   6.159   2.993 -0.5109  0.3485 -0.2170
 7940TIP3    H145235   3.763   6.095   2.967 -1.4742 -0.8475  0.1430
 7940TIP3    H245236   3.654   6.120   3.070 -1.3410  1.2732 -0.1797
 7941TIP3   OH245237   0.196   0.265  13.580 -0.3129 -0.2439  0.0821
 7941TIP3    H145238   0.166   0.176  13.602  1.7998 -0.9453  0.3472
 7941TIP3    H245239   0.227   0.258  13.490  0.3280  0.0755  0.2707
 7942TIP3   OH245240   5.639   4.187   0.382  0.5010  0.1161  0.1722
 7942TIP3    H145241   5.654   4.272   0.425  0.0993  0.6589 -0.7308
 7942TIP3    H245242   5.693   4.190   0.303  0.3432 -0.3984  0.0396
 7943TIP3   OH245243   0.503   0.280   1.947  0.4281  0.3254  0.3961
 7943TIP3    H145244   0.465   0.286   1.859  0.4640 -0.4071  0.3241
 7943TIP3    H245245   0.437   0.317   2.005 -0.2958 -0.6700  0.2397
 7944TIP3   OH245246   1.243   6.104   1.204 -0.2615  0.1262  0.3710
 7944TIP3    H145247   1.218   6.196   1.205 -0.3144  0.1890  3.8857
 7944TIP3    H245248   1.241   6.077   1.296 -1.3599 -3.7054 -0.5780
 7945TIP3   OH245249   1.163   5.755   4.060 -0.0577 -0.3289 -0.1352
 7945TIP3    H145250   1.123   5.671   4.083 -0.0362 -0.6065 -1.0946
 7945TIP3    H245251   1.090   5.816   4.054 -0.1035 -0.3376  0.2571
 7946TIP3   OH245252   1.325   2.526  11.284 -0.5720  0.3729 -0.0206
 7946TIP3    H145253   1.330   2.525  11.380  2.0400  2.2673 -0.0219
 7946TIP3    H245254   1.379   2.451  11.257 -2.9961 -1.4472 -0.0958
 7947TIP3   OH245255   5.748   4.726  14.657 -0.5260 -0.0863  0.5459
 7947TIP3    H145256   5.707   4.803  14.696 -1.7514 -0.8546  0.8416
 7947TIP3    H245257   5.696   4.707  14.579  1.1447  0.6896 -0.8283
 7948TIP3   OH245258   4.722   5.356   5.943  0.1414  0.3744 -0.2563
 7948TIP3    H145259   4.781   5.419   5.984 -0.8996  1.8587 -0.9773
 7948TIP3    H245260   4.758   5.342   5.856  1.3968 -1.4934  0.4887
 7949TIP3   OH245261   5.743   3.204   4.863 -0.5370 -0.1035  0.6931
 7949TIP3    H145262   5.752   3.153   4.943  1.0294  0.2094  0.7434
 7949TIP3    H245263   5.823   3.255   4.857 -1.0048  0.5424 -0.6233
 7950TIP3   OH245264   4.169   0.345   3.416 -0.0368  0.5653 -0.2546
 7950TIP3    H145265   4.262   0.324   3.422 -0.1786  0.0877  0.3818
 7950TIP3    H245266   4.163   0.437   3.442  0.2011  0.4702  0.1287
 7951TIP3   OH245267   4.703   1.774   0.578  0.5130  0.0698 -0.6661
 7951TIP3    H145268   4.632   1.778   0.642  0.4829 -0.3901 -0.6690
 7951TIP3    H245269   4.783   1.778   0.631  0.4893  0.8803 -0.6821
 7952TIP3   OH245270   4.412   6.741  12.464  0.2091 -0.0605 -0.3000
 7952TIP3    H145271   4.368   6.674  12.517  1.7361 -1.3746 -0.6011
 7952TIP3    H245272   4.478   6.779  12.523 -0.8392  1.4313 -0.0409
 7953TIP3   OH245273   3.816   3.780   0.915 -0.5230  0.2526 -0.2313
 7953TIP3    H145274   3.734   3.800   0.871 -1.4351 -1.5678  0.5649
 7953TIP3    H245275   3.879   3.767   0.844 -0.1752  4.0645 -0.8643
 7954TIP3   OH245276   4.097   0.365  16.252 -0.3741  0.4119 -0.4605
 7954TIP3    H145277   4.059   0.337  16.169 -0.4475 -1.3871  0.1353
 7954TIP3    H245278   4.028   0.417  16.294 -0.4335  1.1041 -1.3777
 7955TIP3   OH245279   2.860   0.996   1.085  0.3083 -0.0049  0.6401
 7955TIP3    H145280   2.826   0.916   1.044 -2.2783  2.2035 -1.9196
 7955TIP3    H245281   2.802   1.011   1.160 -2.3115  1.8078 -1.5978
 7956TIP3   OH245282   2.305   6.313   4.795 -0.1551  0.1369 -0.4287
 7956TIP3    H145283   2.361   6.236   4.788 -1.1210 -0.6081 -0.1658
 7956TIP3    H245284   2.352   6.371   4.855  0.3351 -0.4761 -0.2063
 7957TIP3   OH245285   5.714   4.532  12.380 -0.0648 -0.2541 -0.7570
 7957TIP3    H145286   5.636   4.540  12.436 -0.0731 -0.3165 -0.7599
 7957TIP3    H245287   5.712   4.442  12.348  1.2276 -0.9984  1.0639
 7958TIP3   OH245288   5.656   2.540   4.201 -0.0090 -0.0223  0.1112
 7958TIP3    H145289   5.616   2.552   4.287 -0.5441  1.6217 -0.3347
 7958TIP3    H245290   5.679   2.628   4.172  1.0598 -0.6317 -1.0234
 7959TIP3   OH245291   0.187   2.867   2.105 -0.1104  0.3262 -0.0454
 7959TIP3    H145292   0.190   2.773   2.122 -1.2302  0.0320 -1.2561
 7959TIP3    H245293   0.093   2.887   2.102  0.1090  1.2876 -0.7537
 7960TIP3   OH245294   6.194   1.550  12.302  0.1016 -0.4473 -0.1979
 7960TIP3    H145295   6.130   1.591  12.360  1.1146 -0.0523  0.6853
 7960TIP3    H245296   6.244   1.624  12.266 -0.7079 -0.6602 -1.8527
 7961TIP3   OH245297   5.041   0.885  14.145 -0.6586  0.2077  0.2789
 7961TIP3    H145298   5.018   0.923  14.230 -0.0342  1.8308 -0.2406
 7961TIP3    H245299   4.959   0.846  14.114 -1.2694  0.8919  0.9793
 7962TIP3   OH245300   4.450   2.712   3.695 -0.7045  0.2351  0.4323
 7962TIP3    H145301   4.538   2.705   3.731  0.3322 -0.9919 -2.0458
 7962TIP3    H245302   4.393   2.672   3.760  1.1237 -2.5664  0.4910
 7963TIP3   OH245303   0.656   0.730   4.338 -0.9745 -0.3686  0.0677
 7963TIP3    H145304   0.604   0.808   4.320 -0.3981  0.5766  2.2233
 7963TIP3    H245305   0.715   0.756   4.409 -0.1834 -2.5286  0.2802
 7964TIP3   OH245306   4.681   5.119   1.961  0.4845 -0.0853  0.0170
 7964TIP3    H145307   4.653   5.036   1.923  1.7045 -1.0757  1.2029
 7964TIP3    H245308   4.730   5.162   1.890 -2.4817  0.9667 -1.5386
 7965TIP3   OH245309   4.397   4.195  10.708  0.0041  0.0313 -0.0898
 7965TIP3    H145310   4.309   4.218  10.678 -0.3511 -0.5276  0.4897
 7965TIP3    H245311   4.453   4.262  10.670 -0.2317 -1.2394 -2.9384
 7966TIP3   OH245312   1.534   3.749  11.624 -0.0500  0.2359 -0.0240
 7966TIP3    H145313   1.599   3.719  11.561  0.0477 -0.0134  0.1916
 7966TIP3    H245314   1.455   3.765  11.572 -0.2299 -0.7896 -0.0896
 7967TIP3   OH245315   5.351   2.750   3.615  0.3150  0.0794 -0.1117
 7967TIP3    H145316   5.260   2.733   3.593 -0.2178  1.4652  0.8370
 7967TIP3    H245317   5.393   2.769   3.531 -0.8480  1.7960 -0.3583
 7968TIP3   OH245318   1.085   3.011   1.955 -0.3047  0.1085 -0.1492
 7968TIP3    H145319   1.042   3.047   2.033 -0.9361 -0.0001 -0.4408
 7968TIP3    H245320   1.124   3.087   1.912 -0.4379  0.2496 -0.0229
 7969TIP3   OH245321   2.949   4.748   0.220 -0.5432 -0.8398  0.4632
 7969TIP3    H145322   2.975   4.685   0.153  0.0461 -0.3492  0.2178
 7969TIP3    H245323   2.997   4.720   0.298  0.1184 -0.4017  0.2193
 7970TIP3   OH245324   3.240   0.171   5.095  0.2216 -0.7839 -0.2219
 7970TIP3    H145325   3.240   0.092   5.151  2.1448  1.0490  2.6373
 7970TIP3    H245326   3.329   0.177   5.063  0.6542  1.1402  1.1684
 7971TIP3   OH245327   3.803   5.953  11.592 -0.3122 -0.2928 -0.2144
 7971TIP3    H145328   3.880   5.981  11.544 -1.2079  0.7500 -1.0740
 7971TIP3    H245329   3.834   5.881  11.647  0.9917 -0.7070 -1.4471
 7972TIP3   OH245330   0.347   0.578   4.768  0.4066  0.0356 -0.0809
 7972TIP3    H145331   0.378   0.498   4.811  0.3590 -0.6677 -1.3038
 7972TIP3    H245332   0.426   0.617   4.731  0.1414 -0.7354 -1.5374
 7973TIP3   OH245333   0.496   5.996  11.633 -0.6232 -0.2960 -0.1563
 7973TIP3    H145334   0.442   6.061  11.588  0.4596  0.1640 -0.8423
 7973TIP3    H245335   0.584   6.035  11.635 -0.3261 -0.9794  1.0073
 7974TIP3   OH245336   3.082   0.736  11.095  0.1821 -0.1682  0.4556
 7974TIP3    H145337   3.101   0.826  11.068  2.4761 -0.2908  1.4633
 7974TIP3    H245338   3.036   0.698  11.020 -0.6856  1.7521 -0.0665
 7975TIP3   OH245339   0.703   1.521  15.277 -0.1901 -0.1471 -0.1926
 7975TIP3    H145340   0.781   1.555  15.321 -0.4983  0.3062  0.0134
 7975TIP3    H245341   0.652   1.599  15.255  0.3483 -0.2912 -2.1034
 7976TIP3   OH245342   5.269   6.025   1.072  0.3589  0.1201 -0.0951
 7976TIP3    H145343   5.207   6.082   1.118 -0.1361 -0.9395  0.5683
 7976TIP3    H245344   5.352   6.039   1.116  0.3244  0.5975 -0.1745
 7977TIP3   OH245345   5.938   4.344   1.258 -0.4535 -0.1142 -0.2966
 7977TIP3    H145346   6.018   4.366   1.211 -0.0567 -1.0429 -0.0736
 7977TIP3    H245347   5.961   4.354   1.351 -0.7564  0.1555 -0.2504
 7978TIP3   OH245348   2.882   6.508   5.455 -0.0206 -0.5735 -0.0598
 7978TIP3    H145349   2.799   6.547   5.426 -0.3447  0.1234  1.6909
 7978TIP3    H245350   2.949   6.563   5.415 -0.4371  0.0534  0.0884
 7979TIP3   OH245351   0.016   1.060   3.148  0.0090  0.1451  0.4226
 7979TIP3    H145352   0.094   1.109   3.122 -0.3032  0.8035  0.7054
 7979TIP3    H245353  -0.056   1.123   3.139 -0.7378 -0.9314 -1.4313
 7980TIP3   OH245354   5.691   2.884  17.173 -0.3602 -0.4326 -0.8015
 7980TIP3    H145355   5.630   2.941  17.220 -0.0602  0.9640 -2.0251
 7980TIP3    H245356   5.654   2.797  17.181  0.2924 -0.5423  3.0893
 7981TIP3   OH245357   0.545   3.791  15.567 -0.3486 -0.1456  0.8970
 7981TIP3    H145358   0.592   3.740  15.632 -0.4666 -1.7808 -0.2465
 7981TIP3    H245359   0.491   3.851  15.618  0.9163 -0.1129  2.2528
 7982TIP3   OH245360   4.112   1.647  12.776  0.7843  0.1041  0.4400
 7982TIP3    H145361   4.086   1.573  12.720 -0.8649  0.3592  0.8042
 7982TIP3    H245362   4.083   1.622  12.864 -0.6952  1.5553  0.4138
 7983TIP3   OH245363   3.803   1.010   5.554  0.1256  0.2421 -0.1425
 7983TIP3    H145364   3.825   0.972   5.469  0.3736 -1.9733  0.8527
 7983TIP3    H245365   3.884   1.006   5.605  0.3419  2.7751 -0.1672
 7984TIP3   OH245366   4.584   6.177  15.120 -0.8805 -0.0069 -0.0965
 7984TIP3    H145367   4.501   6.158  15.077 -0.4420 -0.8929 -0.5751
 7984TIP3    H245368   4.619   6.091  15.144  0.7902  0.2000 -1.6005
 7985TIP3   OH245369   2.187   2.624  16.776  0.1052 -0.2958  0.4514
 7985TIP3    H145370   2.253   2.613  16.707 -2.3960 -0.2184 -2.1299
 7985TIP3    H245371   2.211   2.706  16.819  0.9122  0.4641 -1.3510
 7986TIP3   OH245372   6.361   1.423  11.705  0.7495 -0.2871 -0.6806
 7986TIP3    H145373   6.426   1.488  11.732 -2.0832  2.3538  0.3852
 7986TIP3    H245374   6.401   1.339  11.725  3.7493  1.1643 -0.0139
 7987TIP3   OH245375   3.150   5.693   3.658  0.0694 -0.0196  0.2960
 7987TIP3    H145376   3.143   5.600   3.678 -0.4640 -0.1871 -0.5999
 7987TIP3    H245377   3.177   5.695   3.566 -2.3048  0.6836 -0.4518
 7988TIP3   OH245378   4.710   4.149  12.891 -0.6506  0.5048  0.0165
 7988TIP3    H145379   4.655   4.227  12.893  0.2162  1.1047  0.6266
 7988TIP3    H245380   4.776   4.163  12.958 -1.0140 -1.1643  0.7871
 7989TIP3   OH245381   2.497   0.444   5.165 -0.4320 -0.1149 -0.4939
 7989TIP3    H145382   2.452   0.380   5.109 -0.7641  0.0385 -0.4036
 7989TIP3    H245383   2.590   0.436   5.141 -0.6176  0.2401 -1.3528
 7990TIP3   OH245384   0.167   3.321   0.666  0.4473  0.3459  0.3894
 7990TIP3    H145385   0.161   3.339   0.573 -2.6299 -0.4677  0.3356
 7990TIP3    H245386   0.250   3.274   0.676  0.7120  0.2038 -1.9568
 7991TIP3   OH245387   6.103   1.376  10.681  0.1818  0.5199 -0.9833
 7991TIP3    H145388   6.036   1.309  10.674 -0.0905  0.4826  1.2297
 7991TIP3    H245389   6.115   1.409  10.592 -1.2611 -0.9141 -1.7374
 7992TIP3   OH245390   1.314   3.266  11.244  0.2430 -0.6584  0.0159
 7992TIP3    H145391   1.377   3.201  11.275  1.5853  0.1685 -0.8641
 7992TIP3    H245392   1.234   3.216  11.229  0.8268 -1.8397  0.6788
 7993TIP3   OH245393   2.634   2.635  14.768 -0.7231  0.1253 -0.1656
 7993TIP3    H145394   2.722   2.597  14.765 -1.3733 -1.4359  0.0086
 7993TIP3    H245395   2.590   2.598  14.692 -1.6802 -0.2625  0.5627
 7994TIP3   OH245396   6.582   1.371  10.467  0.2452 -0.0193 -0.2343
 7994TIP3    H145397   6.622   1.363  10.554  2.4898  0.1343 -1.1872
 7994TIP3    H245398   6.542   1.458  10.467 -0.3769 -0.2844  0.8510
 7995TIP3   OH245399   0.827   4.480   0.777 -0.0309 -0.0290 -0.4288
 7995TIP3    H145400   0.841   4.569   0.744  0.7399 -0.0658 -0.2287
 7995TIP3    H245401   0.810   4.428   0.698  2.1557 -0.1821 -0.8574
 7996TIP3   OH245402   0.464   1.456  13.305 -0.5405 -0.3219  0.3563
 7996TIP3    H145403   0.378   1.483  13.272 -0.2339 -1.0284 -1.0697
 7996TIP3    H245404   0.525   1.481  13.236  0.1452 -1.6592  0.4510
 7997TIP3   OH245405   6.546   2.448   1.743  0.5959  0.0540 -0.6849
 7997TIP3    H145406   6.583   2.370   1.783  1.4983 -0.1529 -1.8717
 7997TIP3    H245407   6.623   2.500   1.716  0.0122  0.7783 -0.9907
 7998TIP3   OH245408   0.037   5.575  12.161 -0.4822 -0.5410  0.1303
 7998TIP3    H145409   0.058   5.667  12.175  0.7348 -0.7322 -0.2610
 7998TIP3    H245410  -0.027   5.554  12.228 -2.1247  1.0227 -0.8698
 7999TIP3   OH245411   2.241   2.375  12.457 -0.0949 -0.3032 -0.8475
 7999TIP3    H145412   2.196   2.368  12.373 -0.7760 -0.9510 -0.4453
 7999TIP3    H245413   2.172   2.364  12.522  0.3050  0.9559 -0.1806
 8000TIP3   OH245414   1.724   6.004  11.239  0.1220  0.3239  0.8511
 8000TIP3    H145415   1.782   5.929  11.222 -0.5689  0.0775 -0.6058
 8000TIP3    H245416   1.742   6.029  11.330  1.1638 -0.9067  1.0069
 8001TIP3   OH245417   5.175   0.208   5.261 -0.0270 -0.5640  0.6196
 8001TIP3    H145418   5.207   0.191   5.350  0.2578 -0.6032  0.5090
 8001TIP3    H245419   5.171   0.122   5.220 -2.6536 -0.9037  1.4155
 8002TIP3   OH245420   3.374   3.204  16.849 -0.0404  0.3143  0.3071
 8002TIP3    H145421   3.393   3.295  16.825 -4.7392  0.8216 -2.5759
 8002TIP3    H245422   3.316   3.211  16.925 -0.1232 -0.3063  0.3029
 8003TIP3   OH245423   1.854   4.258   6.406  0.0816 -0.5947  0.2725
 8003TIP3    H145424   1.925   4.208   6.447  0.5141 -1.3365 -1.3129
 8003TIP3    H245425   1.778   4.200   6.412  0.1676 -0.7426 -0.0410
 8004TIP3   OH245426   5.842   4.786  16.889 -0.0136  0.1272 -0.0192
 8004TIP3    H145427   5.784   4.711  16.897  2.4784 -2.0037 -0.6560
 8004TIP3    H245428   5.835   4.813  16.798  0.4795 -0.5954 -0.2826
 8005TIP3   OH245429   5.448   1.577  16.329  0.2651 -0.3469  0.2231
 8005TIP3    H145430   5.537   1.564  16.295 -0.3042 -1.3295 -0.9393
 8005TIP3    H245431   5.461   1.601  16.421  1.7504  0.0276 -0.0575
 8006TIP3   OH245432   5.425   2.504   0.688  0.2039 -0.6863 -0.5562
 8006TIP3    H145433   5.366   2.566   0.645 -0.2127 -0.2205  0.6349
 8006TIP3    H245434   5.510   2.518   0.646  0.8108  2.6457  1.3729
 8007TIP3   OH245435   5.461   2.490   3.152 -0.6371 -0.5428 -0.4375
 8007TIP3    H145436   5.466   2.413   3.208  0.0156 -0.1624  0.0265
 8007TIP3    H245437   5.551   2.521   3.145 -0.7911 -0.2516 -1.2328
 8008TIP3   OH245438   1.476   2.383   1.427  0.3666 -0.0184 -0.4493
 8008TIP3    H145439   1.555   2.358   1.380  0.8096  0.9093 -0.2110
 8008TIP3    H245440   1.469   2.319   1.498 -1.5898 -2.9440 -3.0201
 8009TIP3   OH245441   2.964   5.472   3.740 -0.0055 -0.3224 -0.0455
 8009TIP3    H145442   2.905   5.532   3.695  0.9927 -0.3148 -1.3999
 8009TIP3    H245443   2.979   5.512   3.825 -2.1039 -0.4398  0.4415
 8010TIP3   OH245444   1.932   2.722  11.993 -0.9189  0.4170 -0.0543
 8010TIP3    H145445   2.002   2.701  11.931 -1.0959 -0.6196  0.0656
 8010TIP3    H245446   1.924   2.817  11.989  1.0959  0.6652  0.5850
 8011TIP3   OH245447   6.404   4.320   2.003  0.2834 -0.1232 -0.6588
 8011TIP3    H145448   6.418   4.340   1.910 -0.2191  0.5750 -0.5913
 8011TIP3    H245449   6.340   4.384   2.032  0.5636 -0.2271  0.2199
 8012TIP3   OH245450   2.214   0.018   4.004  0.2163 -0.1689 -0.5653
 8012TIP3    H145451   2.168   0.096   4.035  2.7880  0.4661  2.0246
 8012TIP3    H245452   2.160  -0.056   4.034 -0.7230  0.5417 -0.4665
 8013TIP3   OH245453   1.727   5.047  13.285 -0.3069 -0.0973  0.3906
 8013TIP3    H145454   1.758   5.043  13.195 -0.8830 -0.8686  0.2147
 8013TIP3    H245455   1.805   5.068  13.337  0.4672 -1.6514 -0.0707
 8014TIP3   OH245456   2.195   4.416   4.270  0.1786  0.5750  0.2755
 8014TIP3    H145457   2.151   4.452   4.192  0.4659  1.5709  0.5602
 8014TIP3    H245458   2.267   4.476   4.287  0.5022  0.0105  0.9490
 8015TIP3   OH245459   6.036   6.623  14.054  0.4943 -0.4394  0.2553
 8015TIP3    H145460   6.045   6.713  14.086  2.1936 -0.5197  0.1310
 8015TIP3    H245461   6.102   6.574  14.103  0.8748 -1.2320 -0.9953
 8016TIP3   OH245462   2.320   1.416  11.725  0.0649  0.0948  0.7098
 8016TIP3    H145463   2.283   1.488  11.777  2.0871  1.3635  0.5263
 8016TIP3    H245464   2.414   1.422  11.740  0.5426 -0.7729 -1.4914
 8017TIP3   OH245465   1.771   3.232   2.828 -0.1314 -0.1504  0.0898
 8017TIP3    H145466   1.817   3.198   2.905  0.2925 -0.1915 -0.1782
 8017TIP3    H245467   1.808   3.320   2.816 -0.2291 -0.1278 -0.0422
 8018TIP3   OH245468   1.461   5.591  11.132  0.4065 -0.2188  0.0915
 8018TIP3    H145469   1.521   5.537  11.183  0.1814 -0.5485  0.0087
 8018TIP3    H245470   1.457   5.549  11.046 -1.3352 -1.2646  0.6270
 8019TIP3   OH245471   0.845   4.219  15.050  0.4318 -0.3779  0.2893
 8019TIP3    H145472   0.826   4.258  15.135  1.2429 -0.1354  0.3704
 8019TIP3    H245473   0.772   4.247  14.994  0.9898  1.3160  0.3429
 8020TIP3   OH245474   4.086   1.786   4.180  0.1939 -0.3507  0.6406
 8020TIP3    H145475   4.111   1.695   4.160 -0.3130 -0.2410 -0.6064
 8020TIP3    H245476   4.084   1.790   4.275  1.0130 -1.4349  0.7290
 8021TIP3   OH245477   1.711   4.626  17.163 -0.2542  0.2053 -0.4981
 8021TIP3    H145478   1.730   4.708  17.210 -0.4884  0.5813 -1.0484
 8021TIP3    H245479   1.642   4.649  17.101 -1.5272 -0.8201  0.4920
 8022TIP3   OH245480   1.356   2.398  16.264  0.5121  0.5523 -0.0295
 8022TIP3    H145481   1.405   2.369  16.341 -2.2431  1.4183  2.2045
 8022TIP3    H245482   1.316   2.481  16.290 -0.4208  0.9745 -2.4821
 8023TIP3   OH245483   5.440   1.858   2.849  0.4765  0.2428 -0.5176
 8023TIP3    H145484   5.463   1.767   2.866 -0.2856  0.3368  1.2334
 8023TIP3    H245485   5.346   1.863   2.867  0.5279  1.3884 -0.4889
 8024TIP3   OH245486   1.250   6.757  11.427 -0.1557 -0.8842  0.2746
 8024TIP3    H145487   1.278   6.747  11.336  0.5924 -0.9770  0.5110
 8024TIP3    H245488   1.156   6.740  11.425 -0.3055 -0.0355 -0.6258
 8025TIP3   OH245489   4.711   4.247   3.184 -0.0165 -0.0290  0.2456
 8025TIP3    H145490   4.701   4.244   3.089 -1.5981 -0.6519  0.3959
 8025TIP3    H245491   4.647   4.311   3.214  1.1247  0.8839  0.8528
 8026TIP3   OH245492   1.518   4.034   5.523  0.4232  0.1236  0.2482
 8026TIP3    H145493   1.571   4.106   5.556 -0.8382  1.5416 -0.6811
 8026TIP3    H245494   1.428   4.056   5.550 -0.2676 -0.0271 -1.7704
 8027TIP3   OH245495   6.281   3.506  11.383  0.1276  0.0131 -0.2228
 8027TIP3    H145496   6.364   3.525  11.339  0.5580  0.7363  0.8619
 8027TIP3    H245497   6.306   3.487  11.473 -0.7459 -1.3523 -0.2427
 8028TIP3   OH245498   4.153   1.846   4.790  0.1987 -0.3667 -0.8332
 8028TIP3    H145499   4.220   1.872   4.852 -1.6792 -0.9020  1.5987
 8028TIP3    H245500   4.102   1.925   4.774 -0.2037 -0.5461 -0.4782
 8029TIP3   OH245501   1.728   6.131  14.172 -0.1023 -0.3188 -0.4647
 8029TIP3    H145502   1.657   6.103  14.115 -0.1158 -0.7329 -0.2526
 8029TIP3    H245503   1.717   6.078  14.252 -1.1027  1.4330  0.6283
 8030TIP3   OH245504   3.975   0.125   5.073  0.6285  0.3517 -0.1699
 8030TIP3    H145505   3.970   0.077   5.156  1.0665 -0.2376 -0.4676
 8030TIP3    H245506   3.982   0.056   5.007  0.7330  0.8234 -0.6572
 8031TIP3   OH245507   2.441   0.919  15.508 -0.2534  0.1155  0.1446
 8031TIP3    H145508   2.461   0.876  15.425 -3.3020 -1.7076  0.2248
 8031TIP3    H245509   2.371   0.981  15.486  0.3787  1.1772  1.0270
 8032TIP3   OH245510   0.626   0.908   3.138 -0.3113 -0.7177 -0.2878
 8032TIP3    H145511   0.579   0.989   3.156 -1.2675 -1.2002 -0.5449
 8032TIP3    H245512   0.636   0.866   3.223  1.8197  0.5040  0.1252
 8033TIP3   OH245513   4.671   6.684  11.656 -0.3223  0.2659 -0.2235
 8033TIP3    H145514   4.662   6.767  11.609 -1.6076 -0.6799 -1.7802
 8033TIP3    H245515   4.616   6.694  11.733 -1.1230  0.5884 -0.8236
 8034TIP3   OH245516   0.857   5.017  12.182 -0.2007 -0.0627 -0.6868
 8034TIP3    H145517   0.879   4.930  12.149  0.3964  0.4353 -1.6470
 8034TIP3    H245518   0.893   5.077  12.117  3.2777  1.1111  1.9747
 8035TIP3   OH245519   1.710   4.055   0.307 -0.8358 -0.1722 -0.2895
 8035TIP3    H145520   1.685   4.147   0.297  0.0129  0.5089  2.7874
 8035TIP3    H245521   1.777   4.041   0.240  0.1296  1.9384  0.1541
 8036TIP3   OH245522   1.506   5.676  13.704  0.0996  0.3768 -0.0243
 8036TIP3    H145523   1.534   5.692  13.794 -2.2054 -0.6753  0.9731
 8036TIP3    H245524   1.584   5.641  13.660  1.4078  1.3970  1.4039
 8037TIP3   OH245525   5.884   0.031   4.465  0.2826 -0.1916 -0.1356
 8037TIP3    H145526   5.805   0.085   4.456  0.4038 -0.1683 -1.2340
 8037TIP3    H245527   5.877  -0.008   4.553  0.3000  1.7603  0.7731
 8038TIP3   OH245528   4.987   2.853  12.164  0.2451  0.1693 -0.0759
 8038TIP3    H145529   4.979   2.810  12.079 -0.0954  0.6153 -0.2760
 8038TIP3    H245530   5.074   2.828  12.195  0.9444  1.0974 -1.1789
 8039TIP3   OH245531   2.866   4.522   0.011 -0.0135  0.0323 -0.6827
 8039TIP3    H145532   2.894   4.433  -0.010 -0.2447 -0.0128 -0.8088
 8039TIP3    H245533   2.803   4.511   0.083 -0.3030  0.0617 -0.9290
 8040TIP3   OH245534   2.954   3.691  14.104  0.5345 -0.2834  0.7230
 8040TIP3    H145535   2.925   3.717  14.191  0.9612 -0.2648  0.8599
 8040TIP3    H245536   3.041   3.653  14.117 -0.2313 -2.2060  0.6028
 8041TIP3   OH245537   5.497   3.381   5.445 -0.7207 -0.0005 -0.7208
 8041TIP3    H145538   5.588   3.400   5.423 -0.6444  0.1779 -0.2736
 8041TIP3    H245539   5.496   3.380   5.541 -1.6079  2.0973 -0.6500
 8042TIP3   OH245540   4.083   5.202   2.248  0.0656  0.1784 -0.6868
 8042TIP3    H145541   4.078   5.124   2.193  1.1331  0.3980 -1.1226
 8042TIP3    H245542   3.999   5.246   2.234 -0.5482 -0.8790 -0.4375
 8043TIP3   OH245543   6.287   1.758  10.692  0.4498  0.1438 -0.5641
 8043TIP3    H145544   6.236   1.787  10.617 -1.7066 -0.5032  0.5642
 8043TIP3    H245545   6.348   1.830  10.710 -0.1024  0.9799 -1.9280
 8044TIP3   OH245546   3.511   6.513   1.253 -0.4578  0.6258  0.0338
 8044TIP3    H145547   3.462   6.464   1.188  1.4504  0.4158 -1.3326
 8044TIP3    H245548   3.516   6.602   1.218 -0.8966  0.9516  0.7703
 8045TIP3   OH245549   6.647   0.185   5.806 -0.5089 -0.4378 -0.1664
 8045TIP3    H145550   6.556   0.192   5.776 -1.1870  0.4303  1.8673
 8045TIP3    H245551   6.694   0.253   5.758 -1.6097  1.0963  0.8107
 8046TIP3   OH245552   4.105   3.600  12.172 -0.1581  0.1813  0.6743
 8046TIP3    H145553   4.179   3.539  12.173  0.6191  1.0857  0.7776
 8046TIP3    H245554   4.029   3.547  12.192  0.1465 -1.1798 -1.4530
 8047TIP3   OH245555   1.062   6.261  12.348 -0.1962  0.1681 -0.1948
 8047TIP3    H145556   1.105   6.331  12.298  0.7023 -0.3752 -0.2013
 8047TIP3    H245557   1.049   6.299  12.435 -1.1554  0.8831 -0.6257
 8048TIP3   OH245558   3.749   2.991   3.480  0.5142 -0.8199 -0.2519
 8048TIP3    H145559   3.724   2.901   3.460 -0.7295 -0.5128 -0.1040
 8048TIP3    H245560   3.703   3.044   3.415  2.0866 -0.3496 -1.0321
 8049TIP3   OH245561   2.476   4.192   5.660 -1.2287  0.0976 -0.3111
 8049TIP3    H145562   2.507   4.232   5.741 -1.4267  0.7546 -0.5504
 8049TIP3    H245563   2.552   4.193   5.602 -0.8208 -1.2285  0.1600
 8050TIP3   OH245564   3.159   1.549   4.799  0.6552  0.0621  0.0923
 8050TIP3    H145565   3.208   1.482   4.750  0.2113  0.8714 -1.5014
 8050TIP3    H245566   3.173   1.630   4.750  0.0861  0.8871  1.2502
 8051TIP3   OH245567   3.187   3.241  15.762 -0.3252 -0.5600  0.2049
 8051TIP3    H145568   3.194   3.304  15.690 -0.8300 -0.7419 -0.0112
 8051TIP3    H245569   3.134   3.286  15.828  0.6011 -0.1833  0.7062
 8052TIP3   OH245570   3.957   2.562  11.507 -0.0079  0.1511  0.0031
 8052TIP3    H145571   3.910   2.640  11.476 -0.6499  0.0106  0.5918
 8052TIP3    H245572   3.965   2.576  11.602  1.2987  0.2475 -0.0949
 8053TIP3   OH245573   0.109   2.755  17.081  0.0459 -0.2471 -0.1628
 8053TIP3    H145574   0.109   2.843  17.044 -1.0235  0.4741  1.4450
 8053TIP3    H245575   0.054   2.761  17.159  0.6102 -2.1509  0.4553
 8054TIP3   OH245576   4.775   6.236  10.977  0.0311 -0.2206  0.4593
 8054TIP3    H145577   4.868   6.251  10.957  0.0076 -0.5634  0.0846
 8054TIP3    H245578   4.730   6.256  10.895 -0.4037  1.5426  1.0755
 8055TIP3   OH245579   2.839   6.511  16.610 -0.3417 -0.2301 -0.1477
 8055TIP3    H145580   2.769   6.452  16.582 -0.5283  0.2439 -0.7074
 8055TIP3    H245581   2.797   6.568  16.675 -0.5050  0.1187 -0.5568
 8056TIP3   OH245582   4.057   4.647  17.174 -0.2697 -0.6934  0.9158
 8056TIP3    H145583   4.060   4.662  17.079 -2.5993  2.2774  1.1515
 8056TIP3    H245584   4.047   4.552  17.183  0.4585 -1.1012 -1.7748
 8057TIP3   OH245585   1.538   0.949  11.882 -0.2138  0.0026 -0.4245
 8057TIP3    H145586   1.448   0.977  11.899 -0.4869 -0.3655 -1.2116
 8057TIP3    H245587   1.544   0.944  11.786 -0.2866 -2.9060 -0.3629
 8058TIP3   OH245588   0.034   3.125   6.754  0.9513 -0.0111  0.7050
 8058TIP3    H145589   0.067   3.035   6.748 -1.5979 -0.9417 -1.9959
 8058TIP3    H245590  -0.039   3.120   6.816  1.0032  0.2838  0.7922
 8059TIP3   OH245591   4.292   1.723   2.295 -0.0319  0.0325 -0.5688
 8059TIP3    H145592   4.377   1.710   2.253 -0.8282  0.2240 -2.3537
 8059TIP3    H245593   4.229   1.720   2.222 -1.6825 -1.3012  0.8237
 8060TIP3   OH245594   6.484   5.688   2.283  0.0594  0.1455  0.6074
 8060TIP3    H145595   6.533   5.761   2.321 -0.8405 -0.1815  2.5079
 8060TIP3    H245596   6.551   5.627   2.252  0.8225  1.3532 -0.2025
 8061TIP3   OH245597   6.005   4.719  13.214 -0.3501 -0.1429  0.0744
 8061TIP3    H145598   6.060   4.687  13.141 -2.2567 -0.2922 -1.3724
 8061TIP3    H245599   6.068   4.755  13.277  1.3708  0.6290 -1.9446
 8062TIP3   OH245600   3.318   6.063  11.796 -0.6245 -0.0175 -0.1124
 8062TIP3    H145601   3.404   6.097  11.773 -0.7451  1.5143  1.4616
 8062TIP3    H245602   3.294   6.111  11.876 -2.1324 -1.7387  0.5431
 8063TIP3   OH245603   2.834   1.036   3.328  0.0120 -0.3306 -0.9210
 8063TIP3    H145604   2.878   1.120   3.319  0.2308 -0.4380 -0.8758
 8063TIP3    H245605   2.843   1.014   3.421 -0.9018  0.0572 -0.7268
 8064TIP3   OH245606   6.750   4.329   0.457  0.2127  0.6626 -0.3764
 8064TIP3    H145607   6.697   4.403   0.426 -0.2645 -0.0775 -1.3917
 8064TIP3    H245608   6.744   4.334   0.553 -0.0980  1.7256 -0.4364
 8065TIP3   OH245609   0.631   4.999  15.241 -0.5470  0.4171 -0.0616
 8065TIP3    H145610   0.561   4.960  15.293 -0.6345  0.6542 -0.0013
 8065TIP3    H245611   0.629   5.092  15.263  0.6710  0.2217  0.9857
 8066TIP3   OH245612   1.783   6.066   6.686 -0.9288 -0.5374 -0.1432
 8066TIP3    H145613   1.718   6.036   6.622 -2.8872  1.4460  0.7730
 8066TIP3    H245614   1.750   6.036   6.770 -0.3804  0.0220  0.2787
 8067TIP3   OH245615   0.574   0.450   3.121 -0.0407 -0.0652 -0.4449
 8067TIP3    H145616   0.670   0.456   3.120 -0.0387  0.1211  0.6249
 8067TIP3    H245617   0.553   0.414   3.207 -0.8898 -1.0230 -1.0331
 8068TIP3   OH245618   3.235   1.977  13.302  0.1105 -0.0422 -0.0900
 8068TIP3    H145619   3.197   2.065  13.296 -0.5456 -0.1782  1.5944
 8068TIP3    H245620   3.315   1.989  13.352 -1.0945 -0.6643  2.1090
 8069TIP3   OH245621   4.097   4.936   2.137 -0.0515 -0.6189  0.0676
 8069TIP3    H145622   4.102   4.873   2.065  0.2093 -0.9161  0.3379
 8069TIP3    H245623   4.151   4.896   2.206  0.8891  0.3476 -0.0926
 8070TIP3   OH245624   4.241   5.272  14.653  0.0980 -0.2039 -0.4576
 8070TIP3    H145625   4.290   5.352  14.638  0.1305 -0.4998 -2.1396
 8070TIP3    H245626   4.200   5.253  14.569  1.0537 -2.5875 -0.4771
 8071TIP3   OH245627   5.742   2.548   3.191 -0.1616 -0.4524  0.0024
 8071TIP3    H145628   5.787   2.480   3.141  1.8375  0.1416  0.8839
 8071TIP3    H245629   5.813   2.599   3.231 -1.6381  0.8136  1.1302
 8072TIP3   OH245630   1.408   6.010   3.888 -0.3997 -0.1071  0.3443
 8072TIP3    H145631   1.330   5.957   3.878  0.3290 -1.6792  2.2214
 8072TIP3    H245632   1.481   5.951   3.869  0.3959  0.8449  0.3053
 8073TIP3   OH245633   6.300   2.098   4.135 -0.1381 -0.1700 -0.1418
 8073TIP3    H145634   6.255   2.180   4.111 -1.2169 -0.8411 -0.4881
 8073TIP3    H245635   6.273   2.082   4.225  1.4730  0.7401  0.5530
 8074TIP3   OH245636   0.247   6.010  12.260 -0.0237  0.1985 -0.4771
 8074TIP3    H145637   0.304   5.968  12.196 -0.0867 -0.9050  0.1567
 8074TIP3    H245638   0.232   5.943  12.327 -1.5435  0.6665 -0.2942
 8075TIP3   OH245639   1.173   4.296  13.195 -0.2401 -0.2694 -0.1014
 8075TIP3    H145640   1.202   4.387  13.198 -1.0398 -0.0270  0.9644
 8075TIP3    H245641   1.220   4.254  13.267 -0.8874 -0.3744  0.2667
 8076TIP3   OH245642   1.252   4.334   3.791 -0.4707  0.0804  0.3035
 8076TIP3    H145643   1.162   4.305   3.783  0.1726 -2.6306  1.7898
 8076TIP3    H245644   1.266   4.346   3.885  0.8741 -0.1103  0.1564
 8077TIP3   OH245645   3.790   4.084   5.040 -0.4480  0.3014 -0.4797
 8077TIP3    H145646   3.743   4.050   4.964 -0.0909 -1.7864  0.1618
 8077TIP3    H245647   3.733   4.063   5.115  1.1463 -1.8173  0.2566
 8078TIP3   OH245648   5.154   3.597  15.555  0.0837  0.1184 -0.2918
 8078TIP3    H145649   5.167   3.504  15.534  0.2150  0.2909 -1.0192
 8078TIP3    H245650   5.059   3.609  15.552  0.1407  0.4384 -2.2641
 8079TIP3   OH245651   6.591   3.899  12.467  0.7520 -0.7255 -0.3233
 8079TIP3    H145652   6.535   3.830  12.503  0.5802 -0.3849  0.0627
 8079TIP3    H245653   6.617   3.951  12.542  0.0271  0.2557 -0.7372
 8080TIP3   OH245654   0.293   0.393   2.092  0.0676  0.3805 -0.0469
 8080TIP3    H145655   0.224   0.366   2.153 -1.1670  0.3831 -1.3754
 8080TIP3    H245656   0.245   0.426   2.016  1.5537  0.6525 -0.8918
 8081TIP3   OH245657   5.027   3.258  15.414 -0.1942  0.5242  0.1462
 8081TIP3    H145658   5.111   3.253  15.458  0.3405 -3.5009 -0.9236
 8081TIP3    H245659   5.048   3.286  15.324  0.2970 -1.6434 -0.4744
 8082TIP3   OH245660   5.525   3.907  11.250  0.3896 -0.2371 -0.0718
 8082TIP3    H145661   5.506   3.968  11.321 -0.2945  0.4063 -0.7800
 8082TIP3    H245662   5.540   3.963  11.174 -0.3761 -0.9444 -0.7700
 8083TIP3   OH245663   0.056   0.435   0.184  0.3965  0.1462 -0.4530
 8083TIP3    H145664   0.057   0.471   0.272 -0.7711 -2.1857  0.5953
 8083TIP3    H245665   0.122   0.486   0.137  0.9106  1.5953  1.6864
 8084TIP3   OH245666   1.567   5.402   4.552  0.4610  0.5628 -0.4320
 8084TIP3    H145667   1.626   5.421   4.625  0.0955  0.5478 -0.1297
 8084TIP3    H245668   1.623   5.405   4.475  1.0409 -0.4086 -0.0549
 8085TIP3   OH245669   5.863   2.066  12.886  0.5661 -0.3100  0.6665
 8085TIP3    H145670   5.828   2.047  12.973 -1.5973  0.2321 -0.0300
 8085TIP3    H245671   5.788   2.057  12.827  1.0022  3.1746 -0.6310
 8086TIP3   OH245672   6.764   3.999  13.766 -0.0792 -0.5939 -0.3946
 8086TIP3    H145673   6.672   4.024  13.765 -0.2585 -1.2339 -0.8119
 8086TIP3    H245674   6.783   3.971  13.676  1.0088  1.1718 -0.7607
 8087TIP3   OH245675   0.673   6.602   1.617  0.2106 -0.0787  0.1597
 8087TIP3    H145676   0.599   6.661   1.604  2.4186  2.9705  0.6019
 8087TIP3    H245677   0.694   6.609   1.710  1.2195 -0.7185 -0.0007
 8088TIP3   OH245678   3.838   5.143  15.696 -0.1459 -0.3457 -0.6889
 8088TIP3    H145679   3.891   5.216  15.665  1.4099 -1.0570  0.1900
 8088TIP3    H245680   3.792   5.112  15.618 -0.0735  0.9452 -1.2630
 8089TIP3   OH245681   4.665   3.391  16.006  0.0081  0.6073  0.2680
 8089TIP3    H145682   4.646   3.416  15.916  1.5188  0.5130 -0.0966
 8089TIP3    H245683   4.609   3.315  16.023  1.9994 -1.4391 -1.7115
 8090TIP3   OH245684   0.179   0.395   1.529  0.0593  0.2639  0.0999
 8090TIP3    H145685   0.088   0.422   1.520 -0.1451  0.6313  2.5034
 8090TIP3    H245686   0.197   0.342   1.451 -1.4982  1.9784 -1.5080
 8091TIP3   OH245687   1.450   4.236  15.354  0.2022  0.4077 -0.2704
 8091TIP3    H145688   1.402   4.171  15.303  0.8305 -0.2354 -0.0608
 8091TIP3    H245689   1.420   4.223  15.444 -0.1912  0.8891 -0.3273
 8092TIP3   OH245690   2.939   6.412   5.782 -0.0402 -0.3590  0.4854
 8092TIP3    H145691   2.901   6.419   5.870 -1.2960 -0.5916 -0.0164
 8092TIP3    H245692   2.941   6.502   5.750  0.6880 -0.2397  0.8552
 8093TIP3   OH245693   0.706   6.403   2.357  0.4819 -0.2018  0.0038
 8093TIP3    H145694   0.721   6.469   2.425 -2.6964  0.0910  0.5596
 8093TIP3    H245695   0.626   6.431   2.314  1.4857 -1.3261 -2.8054
 8094TIP3   OH245696   1.202   0.605  14.274  0.5169  0.5471 -0.5052
 8094TIP3    H145697   1.114   0.569  14.264  0.7069 -0.0811  0.0291
 8094TIP3    H245698   1.260   0.535  14.244  0.8470  0.8682 -0.6207
 8095TIP3   OH245699   4.113   2.201   5.008  0.0081  0.2271 -0.2090
 8095TIP3    H145700   4.205   2.187   4.984 -0.2351  0.1767 -1.1724
 8095TIP3    H245701   4.080   2.259   4.939 -0.9580 -0.6332 -0.4886
 8096TIP3   OH245702   2.099   6.149   3.947  0.4101 -0.1376 -0.1888
 8096TIP3    H145703   2.192   6.163   3.932  0.5521 -1.9837 -1.3555
 8096TIP3    H245704   2.083   6.061   3.915 -2.1301  0.8130 -1.8003
 8097TIP3   OH245705   4.245   5.188  16.893 -0.4535  0.0896 -0.0441
 8097TIP3    H145706   4.232   5.106  16.846  0.5188  0.5626 -1.2097
 8097TIP3    H245707   4.162   5.235  16.882 -0.2110  0.2514 -1.4782
 8098TIP3   OH245708   6.533   1.119   1.241  0.3643  0.3923 -0.2189
 8098TIP3    H145709   6.488   1.196   1.276  0.3345  1.2399 -2.0154
 8098TIP3    H245710   6.562   1.145   1.154 -0.2051 -1.8337 -1.1602
 8099TIP3   OH245711   3.783   2.089   0.615 -0.4330  0.1932 -0.1880
 8099TIP3    H145712   3.818   2.072   0.528  2.1794  0.5892  0.7131
 8099TIP3    H245713   3.753   2.004   0.647  2.4995 -0.8232  0.0980
 8100TIP3   OH245714   6.386   1.833  12.547  0.2967 -0.0788  0.5239
 8100TIP3    H145715   6.458   1.783  12.510 -0.1405  0.3704 -1.0240
 8100TIP3    H245716   6.428   1.909  12.588  0.7458 -0.0532  0.0306
 8101TIP3   OH245717   1.983   3.655   3.301  0.0804 -0.2147 -0.3540
 8101TIP3    H145718   2.045   3.677   3.371  0.2582 -1.2796 -0.1520
 8101TIP3    H245719   1.982   3.559   3.300  0.1908 -0.2130 -1.9197
 8102TIP3   OH245720   1.659   3.823  14.654  0.4649 -0.1074 -0.0034
 8102TIP3    H145721   1.727   3.890  14.648  1.9783 -1.2269  2.6578
 8102TIP3    H245722   1.634   3.806  14.563  2.3799  1.7072 -0.9659
 8103TIP3   OH245723   0.120   0.783   5.403  0.4096 -0.0067 -0.7302
 8103TIP3    H145724   0.068   0.774   5.483 -0.3465  1.1885 -1.0509
 8103TIP3    H245725   0.116   0.877   5.383  0.9732 -0.2178 -1.9150
 8104TIP3   OH245726   2.535   1.715  13.665 -0.0457  0.5064 -0.0768
 8104TIP3    H145727   2.478   1.658  13.615  0.4031 -1.5683  1.6321
 8104TIP3    H245728   2.612   1.727  13.610  0.3727 -1.6005 -0.0430
 8105TIP3   OH245729   0.176   1.217   3.662 -0.4130 -0.1218 -0.6674
 8105TIP3    H145730   0.112   1.214   3.590 -1.3130 -2.8503  0.1251
 8105TIP3    H245731   0.237   1.146   3.642  0.8709  0.7592 -0.0197
 8106TIP3   OH245732   5.203   0.870  12.768  0.0992  0.1610 -0.2388
 8106TIP3    H145733   5.168   0.862  12.679 -1.5095 -0.6299  0.4262
 8106TIP3    H245734   5.133   0.837  12.824  2.3471 -2.7193  1.1123
 8107TIP3   OH245735   6.725   2.989   2.243 -0.1888  0.2735  0.0935
 8107TIP3    H145736   6.748   3.082   2.246 -0.4355  0.3412 -0.0467
 8107TIP3    H245737   6.688   2.977   2.156  0.4953 -0.1169 -0.1466
 8108TIP3   OH245738   4.354   4.550   3.451  0.1973 -0.7789 -0.5117
 8108TIP3    H145739   4.330   4.629   3.402  0.5891 -0.9534 -0.9977
 8108TIP3    H245740   4.449   4.544   3.441  0.2413 -0.9919  0.0161
 8109TIP3   OH245741   6.690   5.898  14.197  0.0843 -0.0276 -0.1096
 8109TIP3    H145742   6.679   5.884  14.291  0.8163 -0.3547 -0.0656
 8109TIP3    H245743   6.749   5.973  14.190  0.4513 -0.3300 -0.3011
 8110TIP3   OH245744   3.530   3.140  14.907 -0.1426  0.1209 -0.4368
 8110TIP3    H145745   3.536   3.052  14.946 -0.5167 -0.1137 -0.9033
 8110TIP3    H245746   3.440   3.167  14.923  0.2768  0.9192  0.7452
 8111TIP3   OH245747   5.358   2.682   1.952 -0.3497  0.5595  0.3155
 8111TIP3    H145748   5.431   2.743   1.962 -1.1368  1.4105  1.0352
 8111TIP3    H245749   5.283   2.728   1.990 -0.7338 -1.2995  1.9610
 8112TIP3   OH245750   5.357   4.794   0.557  0.1808  0.0772  0.0500
 8112TIP3    H145751   5.387   4.880   0.587 -1.3898  0.5870  0.2200
 8112TIP3    H245752   5.268   4.786   0.590 -0.9841 -0.1272 -2.8445
 8113TIP3   OH245753   4.970   3.243   1.612  0.0923  0.5296  0.2685
 8113TIP3    H145754   4.973   3.336   1.592 -1.2518  0.2148 -1.7356
 8113TIP3    H245755   4.946   3.239   1.704 -0.3759  2.1745  0.2498
 8114TIP3   OH245756   3.681   0.952  16.598  0.3369  0.2520 -0.4309
 8114TIP3    H145757   3.751   0.949  16.532 -0.2107 -3.4610 -1.0667
 8114TIP3    H245758   3.721   0.918  16.677 -0.5412 -1.5203 -0.6900
 8115TIP3   OH245759   4.556   4.037   3.321  0.1913 -0.2053 -0.9248
 8115TIP3    H145760   4.526   4.102   3.385  2.5647 -2.1282  2.4303
 8115TIP3    H245761   4.604   4.089   3.256 -0.8161  1.6590 -0.2850
 8116TIP3   OH245762   2.959   3.444   2.782  0.4806  0.2507  0.1366
 8116TIP3    H145763   3.007   3.459   2.864  2.6860 -3.1902 -0.3327
 8116TIP3    H245764   3.018   3.392   2.729 -2.6235 -1.6171 -1.8058
 8117TIP3   OH245765   6.064   1.284  16.287 -0.1256 -0.0374 -0.0681
 8117TIP3    H145766   6.156   1.304  16.304  0.3612 -0.4855 -1.9897
 8117TIP3    H245767   6.032   1.247  16.370  1.5079 -0.2227  0.5153
 8118TIP3   OH245768   3.738   4.754   5.168  0.3326 -0.2606  0.1586
 8118TIP3    H145769   3.673   4.690   5.199 -2.0269  1.4882 -0.8139
 8118TIP3    H245770   3.692   4.801   5.098  2.4033  1.6760  0.0226
 8119TIP3   OH245771   2.390   0.199   5.042  0.3384  0.4634 -0.1236
 8119TIP3    H145772   2.407   0.135   5.111 -0.5906  1.3387  0.9635
 8119TIP3    H245773   2.298   0.186   5.020 -0.5658  2.9204  1.7912
 8120TIP3   OH245774   4.097   1.356  12.990 -0.4127  0.4712 -0.1055
 8120TIP3    H145775   4.145   1.354  12.908  0.2820  1.1308  0.2720
 8120TIP3    H245776   4.063   1.445  12.996 -0.7856  0.3154  0.1366
 8121TIP3   OH245777   3.408   5.350  14.415  0.4147  0.6628  0.1560
 8121TIP3    H145778   3.368   5.421  14.365 -0.7811  0.7127  1.1537
 8121TIP3    H245779   3.465   5.394  14.479  0.3692  0.6829  0.1825
 8122TIP3   OH245780   1.270   0.976   3.374 -1.0423  0.2642 -0.5626
 8122TIP3    H145781   1.296   1.027   3.298  0.9217  0.5994  0.2642
 8122TIP3    H245782   1.228   1.039   3.432  1.9378  1.2489  0.7335
 8123TIP3   OH245783   2.948   4.470   3.852 -0.1696 -0.5324  0.1617
 8123TIP3    H145784   2.977   4.522   3.776 -1.7988 -1.1662 -0.9525
 8123TIP3    H245785   3.028   4.428   3.884  0.5715 -0.2214 -1.1931
 8124TIP3   OH245786   2.803   0.647   2.485 -0.4523  0.0919 -0.5787
 8124TIP3    H145787   2.896   0.663   2.472  0.2746 -3.7775 -1.4234
 8124TIP3    H245788   2.788   0.663   2.579  0.6587  2.1242 -0.7081
 8125TIP3   OH245789   5.949   2.147  13.536 -0.1518 -0.1862 -0.1437
 8125TIP3    H145790   5.958   2.197  13.617 -0.9964 -2.2101  1.2626
 8125TIP3    H245791   5.951   2.213  13.467 -0.0871  1.6605  1.5481
 8126TIP3   OH245792   5.620   2.034   2.185  0.5644 -0.2278 -0.2021
 8126TIP3    H145793   5.611   2.099   2.254 -2.2551  0.6676 -1.2459
 8126TIP3    H245794   5.670   2.079   2.116  0.7038 -0.0229  0.0314
 8127TIP3   OH245795   2.698   4.555  16.750  0.1887  0.4761 -0.8146
 8127TIP3    H145796   2.634   4.491  16.781  1.2601 -0.1266  0.2651
 8127TIP3    H245797   2.712   4.614  16.824  1.1961  0.3209 -0.8619
 8128TIP3   OH245798   1.457   6.029   0.219  0.0989 -0.3791  0.3527
 8128TIP3    H145799   1.463   6.123   0.199 -3.2597  0.1863  1.3726
 8128TIP3    H245800   1.430   5.988   0.137 -0.5302 -0.0861  0.4038
 8129TIP3   OH245801   6.108   5.738  15.264  0.2859 -0.5146 -0.0712
 8129TIP3    H145802   6.158   5.707  15.189  1.5416  0.1034  0.4905
 8129TIP3    H245803   6.114   5.833  15.261  1.0968 -0.4911  1.2786
 8130TIP3   OH245804   2.483   0.102   2.185 -0.0502  0.4429 -0.5025
 8130TIP3    H145805   2.414   0.036   2.194  1.9820 -1.6322  0.5967
 8130TIP3    H245806   2.540   0.068   2.116  1.2496  0.8373  0.3446
 8131TIP3   OH245807   2.549   2.037   2.307  0.2802  0.2247 -0.0951
 8131TIP3    H145808   2.529   1.946   2.327 -1.8343  0.4458 -0.9626
 8131TIP3    H245809   2.585   2.036   2.219 -2.2301  0.4077 -1.2012
 8132TIP3   OH245810   0.885   1.235  11.670 -0.2352  0.4224 -0.0899
 8132TIP3    H145811   0.966   1.270  11.706  0.8178 -0.7107 -1.2640
 8132TIP3    H245812   0.911   1.194  11.587 -1.3320 -3.0704  1.1184
 8133TIP3   OH245813   5.232   0.449  16.118 -0.1727 -0.0338 -0.0878
 8133TIP3    H145814   5.146   0.408  16.125  0.3324 -1.4355 -1.4438
 8133TIP3    H245815   5.279   0.420  16.196 -0.8477  0.5623  0.5492
 8134TIP3   OH245816   6.463   6.140   2.854 -0.3128 -0.2077 -0.2358
 8134TIP3    H145817   6.410   6.070   2.816 -0.0099 -0.9115  0.6090
 8134TIP3    H245818   6.405   6.182   2.918 -0.8362  0.9987 -1.4631
 8135TIP3   OH245819   2.809   0.896  12.393 -0.7660 -0.3527  0.2418
 8135TIP3    H145820   2.854   0.956  12.452 -1.1297 -0.3578  0.5300
 8135TIP3    H245821   2.735   0.947  12.359  0.7043  0.4145 -1.9910
 8136TIP3   OH245822   5.461   1.211  11.010  0.1699  0.0656  0.2457
 8136TIP3    H145823   5.536   1.217  11.069 -0.7760 -1.0570  1.6118
 8136TIP3    H245824   5.391   1.174  11.063 -0.7175 -1.0553 -1.6012
 8137TIP3   OH245825   2.213   6.552  12.229 -0.0296 -0.2696 -0.1224
 8137TIP3    H145826   2.233   6.472  12.180 -1.5554 -1.4948  1.1329
 8137TIP3    H245827   2.190   6.521  12.316  0.0102  1.6242  0.5958
 8138TIP3   OH245828   5.079   4.503   0.233  0.1494 -0.0659  0.1860
 8138TIP3    H145829   5.148   4.557   0.270 -0.3921  0.0093  1.1036
 8138TIP3    H245830   5.119   4.418   0.219  0.8731  0.4172 -0.8187
 8139TIP3   OH245831   3.718   5.640  16.450  0.2440  0.0865 -0.0717
 8139TIP3    H145832   3.776   5.699  16.401  0.0449  0.5435  0.2344
 8139TIP3    H245833   3.635   5.646  16.404  0.3618 -0.3686 -0.3539
 8140TIP3   OH245834   2.371   1.598  13.482  0.0628 -0.2923 -0.2686
 8140TIP3    H145835   2.394   1.505  13.485 -0.6885 -0.5505 -1.5716
 8140TIP3    H245836   2.330   1.609  13.396 -0.2115  1.1640  0.0312
 8141TIP3   OH245837   2.882   0.718  15.108  0.2624  0.2299  0.7093
 8141TIP3    H145838   2.939   0.687  15.038  1.5158  1.2110  1.2511
 8141TIP3    H245839   2.811   0.653  15.113  0.6534 -0.3395 -0.8229
 8142TIP3   OH245840   0.951   3.551   4.242  0.3270  0.7579 -0.0224
 8142TIP3    H145841   0.944   3.489   4.170 -0.7955  1.8948 -0.9428
 8142TIP3    H245842   0.862   3.585   4.254  0.3450  0.1510  2.3353
 8143TIP3   OH245843   4.655   3.675  16.713  0.1689 -0.2538 -0.5199
 8143TIP3    H145844   4.678   3.625  16.791 -0.5020  0.7192  0.3323
 8143TIP3    H245845   4.707   3.635  16.643  0.0583 -1.7834  0.2154
 8144TIP3   OH245846   4.370   6.570  16.884 -0.2686  0.0678 -0.3308
 8144TIP3    H145847   4.331   6.502  16.829 -1.2810 -0.5524  1.1153
 8144TIP3    H245848   4.464   6.565  16.865 -0.4840 -0.8271 -1.2248
 8145TIP3   OH245849   2.237   5.007  13.199 -0.9592  0.3365  0.5824
 8145TIP3    H145850   2.279   4.976  13.279 -1.1416 -0.8910  0.2315
 8145TIP3    H245851   2.179   5.077  13.228  0.7628  1.5818  1.1686
 8146TIP3   OH245852   0.973   0.236  12.785 -0.0939  0.2491  0.0205
 8146TIP3    H145853   1.032   0.183  12.838  0.6880  0.5875 -0.4917
 8146TIP3    H245854   0.963   0.187  12.704 -0.2117  0.3840 -0.0470
 8147TIP3   OH245855   4.987   3.692   4.282  0.1751 -0.1436  0.5137
 8147TIP3    H145856   4.918   3.627   4.298 -0.0371  0.3752  1.8810
 8147TIP3    H245857   5.017   3.674   4.193  2.8293 -4.6587  1.9944
 8148TIP3   OH245858   5.438   2.958   2.694 -0.0426  0.2915  0.6360
 8148TIP3    H145859   5.525   2.999   2.688  0.8888 -1.4769  1.5121
 8148TIP3    H245860   5.402   2.991   2.777  0.3556 -0.0128  0.9323
 8149TIP3   OH245861   5.958   3.798  14.462  0.3667 -0.0430  0.4708
 8149TIP3    H145862   5.902   3.875  14.476 -2.3700 -1.3190 -2.2445
 8149TIP3    H245863   5.947   3.746  14.542 -1.4899  0.2818  0.4723
 8150TIP3   OH245864   6.810   1.726  14.437 -0.6960  0.1350 -0.6036
 8150TIP3    H145865   6.894   1.745  14.395 -0.9017 -1.5409 -1.8949
 8150TIP3    H245866   6.768   1.811  14.448  1.5660  1.1339  1.0316
 8151TIP3   OH245867   3.222   2.487  15.535  0.2088  0.1261  0.3389
 8151TIP3    H145868   3.236   2.394  15.515  0.1800  0.0649  0.5945
 8151TIP3    H245869   3.294   2.532  15.492 -1.1708  0.2713 -2.0222
 8152TIP3   OH245870   1.169   1.472  12.947 -0.0045  0.0503 -0.2256
 8152TIP3    H145871   1.246   1.442  12.897 -0.6703 -1.4078 -0.4206
 8152TIP3    H245872   1.203   1.542  13.003  1.3547 -0.1958 -0.6993
 8153TIP3   OH245873   5.765   3.652  13.189 -0.0618 -0.3144  0.3804
 8153TIP3    H145874   5.698   3.719  13.178 -0.2567 -0.5095  0.3718
 8153TIP3    H245875   5.720   3.579  13.232 -0.5822 -1.5242 -1.9760
 8154TIP3   OH245876   0.402   6.270   5.353 -0.1128 -0.1865 -0.2848
 8154TIP3    H145877   0.434   6.261   5.443 -0.5270 -0.2797 -0.1473
 8154TIP3    H245878   0.471   6.319   5.308 -0.3285  0.7014  0.3178
 8155TIP3   OH245879   6.514   3.670  15.606  0.3713  0.7548 -0.1434
 8155TIP3    H145880   6.426   3.633  15.606  0.9894 -0.8829  1.7024
 8155TIP3    H245881   6.568   3.602  15.566  1.1870  0.5281  1.2671
 8156TIP3   OH245882   0.233   4.984   1.683  0.1398  0.0888 -0.1763
 8156TIP3    H145883   0.266   4.896   1.665  0.8284  0.4718 -0.8371
 8156TIP3    H245884   0.303   5.026   1.734  0.2668  0.5954 -0.7634
 8157TIP3   OH245885   4.288   2.364   0.390 -0.0104  0.5812 -0.3728
 8157TIP3    H145886   4.307   2.364   0.484  1.4901  0.3643 -0.6476
 8157TIP3    H245887   4.371   2.390   0.349 -0.5237  0.2592 -1.6621
 8158TIP3   OH245888   6.298   6.505   3.302 -0.0974 -0.7183 -0.0719
 8158TIP3    H145889   6.293   6.599   3.322  0.6909 -0.9392  1.2638
 8158TIP3    H245890   6.285   6.461   3.386  2.0041 -1.7278 -0.2109
 8159TIP3   OH245891   2.983   1.669   3.587  0.4766  0.6239 -0.3273
 8159TIP3    H145892   2.938   1.696   3.507 -1.1559  0.6353  0.5425
 8159TIP3    H245893   3.046   1.739   3.604  0.6317  0.7676 -1.4271
 8160TIP3   OH245894   3.105   1.853  15.700  0.2796  0.1028 -0.1141
 8160TIP3    H145895   3.019   1.843  15.659  0.4090 -2.0499 -0.0182
 8160TIP3    H245896   3.154   1.775  15.672  2.7208  1.9421 -1.2785
 8161TIP3   OH245897   0.431   3.660   2.097  0.0435  0.4943  0.1758
 8161TIP3    H145898   0.418   3.569   2.069  0.3182  0.7489 -0.8336
 8161TIP3    H245899   0.488   3.654   2.173  1.7201 -0.0862 -1.0700
 8162TIP3   OH245900   2.966   2.857  11.098  0.6412  0.1385 -1.0401
 8162TIP3    H145901   2.878   2.842  11.063  0.7020  1.7127 -2.0071
 8162TIP3    H245902   3.019   2.787  11.061 -0.0578 -0.4175 -1.0176
 8163TIP3   OH245903   2.365   4.952  14.138 -0.1307 -0.4881  0.0943
 8163TIP3    H145904   2.378   5.045  14.156 -1.0195 -0.6347  1.7125
 8163TIP3    H245905   2.271   4.938  14.150 -0.1397 -1.4445 -0.9551
 8164TIP3   OH245906   0.704   6.533   4.364 -0.1398  0.1347  0.0190
 8164TIP3    H145907   0.763   6.609   4.370 -0.5589  0.3960  1.1701
 8164TIP3    H245908   0.665   6.540   4.277  1.3386  0.0908 -0.6810
 8165TIP3   OH245909   3.471   6.251  16.388 -0.2235  0.4920 -0.3823
 8165TIP3    H145910   3.557   6.268  16.428 -0.9507  2.1166  0.6260
 8165TIP3    H245911   3.457   6.327  16.331 -0.1682 -0.7355 -2.1204
 8166TIP3   OH245912   0.273   6.526   4.152  0.5624  0.2689  0.1373
 8166TIP3    H145913   0.216   6.465   4.199  0.2500 -0.2666 -0.8967
 8166TIP3    H245914   0.310   6.582   4.220 -1.2107  0.6437  0.8535
 8167TIP3   OH245915   0.153   5.253  13.337  0.0496 -0.7067 -0.2054
 8167TIP3    H145916   0.241   5.218  13.331  0.6432  0.8381 -1.3013
 8167TIP3    H245917   0.136   5.289  13.249 -0.8713  0.7958  0.5479
 8168TIP3   OH245918   4.865   4.220   5.045 -0.1167  0.4829  0.2280
 8168TIP3    H145919   4.872   4.197   4.953  3.4974 -3.2706  1.1279
 8168TIP3    H245920   4.786   4.175   5.076 -0.7055  0.8234 -0.7461
 8169TIP3   OH245921   0.801   2.580   0.273  0.2810  0.1346 -0.2977
 8169TIP3    H145922   0.820   2.571   0.179 -0.2800 -0.2214 -0.3841
 8169TIP3    H245923   0.835   2.499   0.312  2.0582  0.9999  0.0860
 8170TIP3   OH245924   6.355   3.310   1.181 -0.2057 -0.2422 -0.4195
 8170TIP3    H145925   6.277   3.361   1.201 -0.9580 -0.4294 -2.6650
 8170TIP3    H245926   6.428   3.371   1.195 -0.9352  0.7472 -0.8131
 8171TIP3   OH245927   0.609   1.456   3.182  0.1931  0.4330  0.8185
 8171TIP3    H145928   0.523   1.490   3.159 -1.4937 -2.1433  2.7265
 8171TIP3    H245929   0.659   1.532   3.211 -1.3671  2.0088 -0.4413
 8172TIP3   OH245930   4.121   2.332   5.275 -0.6139 -0.3541  0.0395
 8172TIP3    H145931   4.150   2.264   5.337  2.3776 -0.3975 -1.2540
 8172TIP3    H245932   4.118   2.288   5.190  0.0319  0.8145 -0.6054
 8173TIP3   OH245933   2.991   2.404  15.961  0.0721  0.1934 -0.1212
 8173TIP3    H145934   3.057   2.376  15.898 -0.8610 -0.4429 -0.8587
 8173TIP3    H245935   3.030   2.384  16.047 -0.2536 -2.9680 -0.5663
 8174TIP3   OH245936   3.293   6.343  15.543 -0.1582 -0.1629 -0.5829
 8174TIP3    H145937   3.379   6.381  15.561 -0.4283  0.2820 -0.2350
 8174TIP3    H245938   3.232   6.416  15.550 -0.7275 -0.7085  0.4491
 8175TIP3   OH245939   5.583   2.910   1.344  0.2174 -0.4065  0.0788
 8175TIP3    H145940   5.672   2.884   1.368  0.8737  1.5289 -0.0909
 8175TIP3    H245941   5.529   2.838   1.374  1.8157 -1.5525  0.3683
 8176TIP3   OH245942   1.265   5.311   5.747  0.4225 -0.5492  0.1678
 8176TIP3    H145943   1.313   5.228   5.748  1.8321  0.2085 -0.6844
 8176TIP3    H245944   1.278   5.347   5.835  0.5601 -0.8285  0.2641
 8177TIP3   OH245945   2.266   1.140   5.475 -0.1744 -0.8111  0.1570
 8177TIP3    H145946   2.303   1.063   5.431  0.9899 -0.8519  1.1703
 8177TIP3    H245947   2.341   1.185   5.512 -1.0418 -0.2663  1.3063
 8178TIP3   OH245948   4.806   1.011  12.523 -0.0144 -0.0592 -0.0235
 8178TIP3    H145949   4.838   1.088  12.476 -0.0189 -0.6798 -1.0445
 8178TIP3    H245950   4.879   0.950  12.523 -0.1236 -0.1958  0.4876
 8179TIP3   OH245951   4.135   6.016   4.202  0.7092  0.3711 -0.0470
 8179TIP3    H145952   4.083   6.085   4.161  0.0375  0.3330  0.7106
 8179TIP3    H245953   4.220   6.021   4.158 -0.1306 -0.0451 -1.8362
 8180TIP3   OH245954   4.194   0.156  13.263  0.2020  0.3154  0.0948
 8180TIP3    H145955   4.206   0.194  13.176 -0.3739  1.1203  0.3553
 8180TIP3    H245956   4.204   0.062  13.249 -1.2101  0.2993 -1.1156
 8181TIP3   OH245957   3.197   6.178  14.481  0.3558  0.1586  0.5494
 8181TIP3    H145958   3.137   6.122  14.529 -0.1156  0.7545  0.6764
 8181TIP3    H245959   3.210   6.254  14.538  1.4988 -0.1110  0.6691
 8182TIP3   OH245960   4.584   0.981   3.381  0.2098 -0.1206 -0.9395
 8182TIP3    H145961   4.625   0.936   3.307 -0.1968 -0.0658 -1.1986
 8182TIP3    H245962   4.606   1.073   3.366 -0.2998 -0.0500 -1.2678
 8183TIP3   OH245963   2.449   2.767  13.599  0.3101 -0.3523 -0.0056
 8183TIP3    H145964   2.440   2.857  13.568  0.4222 -0.7699 -1.3260
 8183TIP3    H245965   2.360   2.739  13.618  0.2991  0.1064  0.6556
 8184TIP3   OH245966   3.108   4.620   5.817  0.0180  0.0343 -0.2478
 8184TIP3    H145967   3.145   4.535   5.794  2.0668  1.0409 -0.8907
 8184TIP3    H245968   3.141   4.679   5.749  0.5505  1.7716  1.4566
 8185TIP3   OH245969   3.156   5.986  16.615 -0.2907 -0.1799 -0.1919
 8185TIP3    H145970   3.136   6.041  16.539  0.3933  0.3872  0.0367
 8185TIP3    H245971   3.201   6.044  16.676 -1.4290 -0.4505  0.9447
 8186TIP3   OH245972   2.244   0.873  11.734  0.3153  0.4154  0.0189
 8186TIP3    H145973   2.222   0.823  11.656  0.9417  0.0618  0.0673
 8186TIP3    H245974   2.253   0.963  11.703  0.7303  0.2514 -0.3493
 8187TIP3   OH245975   1.156   6.516   2.740  0.1250  0.1191  0.7004
 8187TIP3    H145976   1.112   6.581   2.686 -0.2080 -1.7311 -1.3773
 8187TIP3    H245977   1.102   6.509   2.819 -1.9356 -0.2529 -0.6732
 8188TIP3   OH245978   3.840   2.902  14.567 -0.1457 -0.2182 -0.2037
 8188TIP3    H145979   3.774   2.939  14.509  0.4006  0.8552 -0.1791
 8188TIP3    H245980   3.793   2.883  14.648 -0.3771  0.8168 -0.0816
 8189TIP3   OH245981   3.832   4.795  13.287  0.2780  0.0985  0.1941
 8189TIP3    H145982   3.838   4.706  13.252  0.1501 -0.0830  0.6290
 8189TIP3    H245983   3.877   4.791  13.371 -0.0685  0.3486  0.3948
 8190TIP3   OH245984   4.315   4.283  16.528  0.1232 -0.7169  0.1418
 8190TIP3    H145985   4.356   4.350  16.474 -1.8051  0.9388  0.6188
 8190TIP3    H245986   4.271   4.225  16.466 -2.1583  1.2235 -0.1875
 8191TIP3   OH245987   0.843   0.662   3.948 -0.3764  0.1983  0.1992
 8191TIP3    H145988   0.926   0.682   3.992 -0.3159  0.1317  0.1155
 8191TIP3    H245989   0.782   0.728   3.981 -0.1824  0.5093 -0.0631
 8192TIP3   OH245990   4.629   2.392  13.344  0.3601  0.3916  0.5648
 8192TIP3    H145991   4.720   2.362  13.338  0.5688  1.1873 -0.5540
 8192TIP3    H245992   4.597   2.355  13.426  0.9421 -1.9563 -0.1817
 8193TIP3   OH245993   0.657   6.129  11.015 -0.2362  0.2284  0.2725
 8193TIP3    H145994   0.736   6.092  11.056  1.0081  0.2862 -1.9369
 8193TIP3    H245995   0.690   6.183  10.944 -2.2910 -1.2317 -1.9343
 8194TIP3   OH245996   0.674   3.315  13.567  0.2893 -0.1914 -0.0122
 8194TIP3    H145997   0.667   3.327  13.472 -0.3421  1.0930  0.1769
 8194TIP3    H245998   0.590   3.276  13.593  0.4773 -0.5806  0.0267
 8195TIP3   OH245999   1.934   3.902  11.971 -0.6913  0.0434  0.5876
 8195TIP3    H146000   1.886   3.867  11.896  0.4152  0.9491 -0.5876
 8195TIP3    H246001   1.895   3.987  11.988 -1.0486 -0.2263  1.1780
 8196TIP3   OH246002   0.501   1.709   2.546  0.1285  0.3107  0.3617
 8196TIP3    H146003   0.509   1.644   2.477 -0.5780 -0.2175  0.7667
 8196TIP3    H246004   0.443   1.669   2.611  0.3912  0.9874  1.0342
 8197TIP3   OH246005   2.949   1.994  14.822 -0.2753 -0.4410  0.4040
 8197TIP3    H146006   2.860   2.019  14.847 -0.3566  0.2057 -0.5192
 8197TIP3    H246007   2.999   2.075  14.826  0.1485 -0.6954  0.3417
 8198TIP3   OH246008   1.519   3.147   3.445  0.0538  0.2505  0.4134
 8198TIP3    H146009   1.536   3.053   3.457  1.8007  0.5283  0.4567
 8198TIP3    H246010   1.549   3.187   3.527  1.2550  1.0192 -0.3647
 8199TIP3   OH246011   1.265   1.400   5.704  0.3635 -0.0695  0.4560
 8199TIP3    H146012   1.202   1.464   5.671  0.0696  0.0357  1.2073
 8199TIP3    H246013   1.250   1.322   5.651  0.4651  0.3539 -0.2121
 8200TIP3   OH246014   1.434   4.641   1.465  0.0170  0.4312  0.2670
 8200TIP3    H146015   1.454   4.732   1.486 -1.1094  0.8757 -0.5318
 8200TIP3    H246016   1.416   4.601   1.550 -1.3107  1.4225  0.4861
 8201TIP3   OH246017   1.803   5.247   6.032  0.2382 -0.4445  0.5083
 8201TIP3    H146018   1.773   5.204   6.113 -2.3571 -0.7557 -0.5237
 8201TIP3    H246019   1.891   5.213   6.018  0.7865 -0.3610  3.1843
 8202TIP3   OH246020   6.196   6.448  12.218  0.0768  0.1753 -0.6065
 8202TIP3    H146021   6.211   6.417  12.307  1.4095  0.0164 -0.8596
 8202TIP3    H246022   6.108   6.487  12.221  0.2626  0.5775  0.8863
 8203TIP3   OH246023   1.209   4.646   0.139  0.0312 -0.0403  0.2337
 8203TIP3    H146024   1.173   4.596   0.066  0.5858 -1.4686  0.9061
 8203TIP3    H246025   1.201   4.589   0.215  0.1444  1.1285  1.1625
 8204TIP3   OH246026   0.666   3.909   2.281 -0.1384 -0.1683 -0.2862
 8204TIP3    H146027   0.737   3.930   2.220 -0.1827 -0.1170 -0.3204
 8204TIP3    H246028   0.707   3.911   2.367 -0.4518  1.5437 -0.1491
 8205TIP3   OH246029   1.201   4.780   3.667  0.2039  0.0927  0.2590
 8205TIP3    H146030   1.105   4.772   3.667  0.2441 -0.5930 -0.8159
 8205TIP3    H246031   1.229   4.723   3.596  1.3419  1.2201 -0.2227
 8206TIP3   OH246032   1.411   2.371   0.400  0.0405  0.3535  0.0089
 8206TIP3    H146033   1.478   2.415   0.347  3.7778 -0.5661  3.4765
 8206TIP3    H246034   1.363   2.443   0.442  0.3522  1.0599 -0.8083
 8207TIP3   OH246035   0.051   2.445   2.884  0.2745  0.5915  0.4298
 8207TIP3    H146036  -0.017   2.458   2.818  1.8808  1.2919 -1.1637
 8207TIP3    H246037   0.084   2.533   2.902  0.3809  0.3240  1.6294
 8208TIP3   OH246038   2.125   1.364   5.368  0.5253 -0.2806  0.0143
 8208TIP3    H146039   2.164   1.306   5.434 -0.0732 -0.3299  0.3343
 8208TIP3    H246040   2.154   1.328   5.284  1.4635 -0.0963  0.2489
 8209TIP3   OH246041   2.924   4.005  14.835 -0.0985  0.5486 -0.4058
 8209TIP3    H146042   2.895   4.066  14.903 -0.7563  0.8008 -0.9079
 8209TIP3    H246043   2.983   4.057  14.780 -0.2550  0.5895 -0.5355
 8210TIP3   OH246044   3.526   6.655   2.220 -0.2305  0.8383  0.0865
 8210TIP3    H146045   3.469   6.596   2.268 -0.0101 -0.3352 -1.0355
 8210TIP3    H246046   3.470   6.695   2.154  0.4783 -1.7840 -2.3307
 8211TIP3   OH246047   6.354   6.615  13.031  0.1637  0.4899 -0.4732
 8211TIP3    H146048   6.432   6.656  13.067  1.0629  0.0674 -1.8812
 8211TIP3    H246049   6.287   6.627  13.099  1.2131  1.5789  0.4055
 8212TIP3   OH246050   0.580   3.954   1.480 -0.7326 -0.0314  0.6157
 8212TIP3    H146051   0.546   4.015   1.546  1.3638  0.6091  1.1819
 8212TIP3    H246052   0.522   3.966   1.404 -0.7818  2.2221  0.9282
 8213TIP3   OH246053   0.032   4.124  14.010 -0.3428 -0.3631 -0.1712
 8213TIP3    H146054   0.023   4.073  13.929 -1.7077  0.7493 -0.7734
 8213TIP3    H246055  -0.020   4.202  13.994  1.3314  1.0286  0.8934
 8214TIP3   OH246056   3.400   1.505  12.351  0.3460 -0.2176 -0.0602
 8214TIP3    H146057   3.441   1.586  12.380 -0.4814 -0.1606  1.0441
 8214TIP3    H246058   3.412   1.504  12.256  1.9594  0.2801  0.1157
 8215TIP3   OH246059   2.426   3.129   3.363  0.0993 -0.0564  0.0515
 8215TIP3    H146060   2.513   3.099   3.339  0.7605 -0.0114  2.1291
 8215TIP3    H246061   2.368   3.059   3.335  1.3341 -2.2773  2.4999
 8216TIP3   OH246062   4.859   6.506   2.737 -0.5095  0.1835  0.4920
 8216TIP3    H146063   4.950   6.491   2.714 -1.0920 -0.8700 -1.3755
 8216TIP3    H246064   4.861   6.578   2.800  1.5507  0.6087  0.0098
 8217TIP3   OH246065   5.527   0.037  12.751 -0.3047 -0.8131 -0.1855
 8217TIP3    H146066   5.462   0.024  12.682  0.2581 -1.1369 -0.6646
 8217TIP3    H246067   5.566   0.123  12.731 -0.0113 -0.9903 -0.3866
 8218TIP3   OH246068   4.291   0.781   1.962 -0.0321  0.4450 -0.6537
 8218TIP3    H146069   4.291   0.871   1.994 -0.8282  0.3455 -0.3492
 8218TIP3    H246070   4.234   0.784   1.885 -2.3806 -0.3165  0.9486
 8219TIP3   OH246071   2.440   3.596  16.346  0.3093  0.6205  0.3403
 8219TIP3    H146072   2.421   3.688  16.367 -2.0912 -0.0449  1.4497
 8219TIP3    H246073   2.416   3.587  16.254 -0.3052  0.9337  0.4610
 8220TIP3   OH246074   0.834   5.833   2.994  0.6331  0.0790  0.1692
 8220TIP3    H146075   0.801   5.756   3.039 -0.5925  1.1909  1.2881
 8220TIP3    H246076   0.869   5.800   2.912 -1.1792 -1.4974 -0.0459
 8221TIP3   OH246077   0.246   1.004   0.462  0.5161 -0.2559 -0.6604
 8221TIP3    H146078   0.321   1.061   0.474 -2.0988  3.3859  0.1778
 8221TIP3    H246079   0.231   0.965   0.549  1.1411 -0.6360 -0.7201
 8222TIP3   OH246080   5.440   2.242  11.172 -0.2388 -0.5174 -0.1661
 8222TIP3    H146081   5.488   2.275  11.248 -0.2933  0.1311 -0.4085
 8222TIP3    H246082   5.506   2.194  11.122 -0.0920 -0.5399  0.0452
 8223TIP3   OH246083   6.078   2.022  16.721 -0.2119 -0.0728  0.0394
 8223TIP3    H146084   5.997   2.072  16.716  0.2672  0.5786 -1.8387
 8223TIP3    H246085   6.143   2.084  16.753 -0.4870 -0.7128  1.9936
 8224TIP3   OH246086   3.250   4.453  15.856  0.6451 -0.3923 -0.1551
 8224TIP3    H146087   3.184   4.385  15.841  1.6087 -1.4321  0.0984
 8224TIP3    H246088   3.326   4.423  15.807  1.2600  0.2482  0.3796
 8225TIP3   OH246089   1.203   5.452   5.983  0.4202 -0.0901 -0.5788
 8225TIP3    H146090   1.208   5.547   5.969  0.8046 -0.1474 -0.8395
 8225TIP3    H246091   1.111   5.436   6.006 -0.0265  0.1285 -2.1501
 8226TIP3   OH246092   0.058   4.034   1.459 -0.4165  0.3955 -0.2154
 8226TIP3    H146093   0.013   4.101   1.510 -1.4356 -0.7808  0.5046
 8226TIP3    H246094   0.056   4.066   1.369 -0.8025  1.3569  0.1268
 8227TIP3   OH246095   6.345   4.764   3.095  0.1324 -0.6624  0.1933
 8227TIP3    H146096   6.406   4.815   3.042 -2.0217  1.4845 -0.4207
 8227TIP3    H246097   6.330   4.684   3.044  0.8336 -0.2608 -0.6688
 8228TIP3   OH246098   5.394   0.175  16.853  0.3129 -0.0058  0.2016
 8228TIP3    H146099   5.437   0.256  16.878  1.1358 -0.7286  1.2322
 8228TIP3    H246100   5.389   0.124  16.934 -1.9189 -0.2269 -0.0082
 8229TIP3   OH246101   1.563   5.764   1.407  0.1569  0.1574 -0.1882
 8229TIP3    H146102   1.532   5.701   1.473 -0.5446  1.2860  0.5818
 8229TIP3    H246103   1.484   5.791   1.361  0.5208  0.1501 -0.8281
 8230TIP3   OH246104   1.889   0.807   4.497 -0.0244  0.6448  0.5163
 8230TIP3    H146105   1.936   0.890   4.493  1.4641 -0.1798  0.0369
 8230TIP3    H246106   1.958   0.741   4.491 -1.2749 -0.6215 -0.5682
 8231TIP3   OH246107   3.282   0.143  16.580  0.0577  0.1174 -0.6848
 8231TIP3    H146108   3.276   0.142  16.484 -1.5438 -1.5704 -0.6346
 8231TIP3    H246109   3.217   0.209  16.607 -0.5677 -0.4645 -0.7445
 8232TIP3   OH246110   3.699   5.334   2.830  0.3251 -0.4524  0.3769
 8232TIP3    H146111   3.685   5.350   2.923 -0.7589 -0.7163  0.2787
 8232TIP3    H246112   3.697   5.238   2.822 -0.0010 -0.4192  0.0312
 8233TIP3   OH246113   2.475   2.068  15.691 -0.3378  0.1444  0.1678
 8233TIP3    H146114   2.501   1.996  15.749 -2.3898 -0.2431  0.6992
 8233TIP3    H246115   2.413   2.119  15.743 -0.6545  1.0022 -1.0027
 8234TIP3   OH246116   3.088   1.386  14.480 -0.2197 -0.0901 -0.7006
 8234TIP3    H146117   3.116   1.466  14.436  0.2579  0.7932  1.1466
 8234TIP3    H246118   3.079   1.410  14.572  1.5391 -2.5364  0.2319
 8235TIP3   OH246119   2.932   1.113  12.559 -0.2429 -0.2170 -0.3472
 8235TIP3    H146120   3.021   1.145  12.571 -0.4782  0.0086  0.8647
 8235TIP3    H246121   2.880   1.192  12.542 -0.3535 -0.2648 -0.2256
 8236TIP3   OH246122   6.639   2.638  11.779  0.5801 -0.3159  0.2005
 8236TIP3    H146123   6.653   2.584  11.857 -0.5195 -1.7085 -0.5116
 8236TIP3    H246124   6.552   2.613  11.748  1.3710 -0.5251 -2.0396
 8237TIP3   OH246125   5.852   4.998   0.155 -0.4352 -0.4719  0.5044
 8237TIP3    H146126   5.780   4.975   0.213  0.0354 -3.0832  0.2063
 8237TIP3    H246127   5.929   5.002   0.212 -0.4751  0.2075  0.5169
 8238TIP3   OH246128   2.044   0.736  12.044  0.0049  0.2614  0.0482
 8238TIP3    H146129   2.124   0.753  11.994 -0.2942  0.9231 -0.2116
 8238TIP3    H246130   1.996   0.819  12.041 -0.3661  0.0756  0.7968
 8239TIP3   OH246131   5.655   6.159  16.422  0.2932 -0.0546 -0.1611
 8239TIP3    H146132   5.565   6.128  16.434 -0.6952  2.7324  0.2776
 8239TIP3    H246133   5.646   6.253  16.406  3.1953  0.5005  0.9273
 8240TIP3   OH246134   6.732   3.153  12.392 -0.2071 -0.1919  0.3160
 8240TIP3    H146135   6.760   3.242  12.412 -1.9039  0.5717 -0.4667
 8240TIP3    H246136   6.692   3.160  12.305 -1.2087 -1.5137  0.6406
 8241TIP3   OH246137   6.160   2.436   1.516 -0.1696 -0.7674 -0.2978
 8241TIP3    H146138   6.078   2.410   1.473 -0.0198  0.2969 -1.2717
 8241TIP3    H246139   6.226   2.428   1.447  0.3295 -0.3895  0.1341
 8242TIP3   OH246140   6.495   2.646   2.046  0.1145  0.1686 -0.0747
 8242TIP3    H146141   6.444   2.572   2.013  0.0333 -1.2811  2.9071
 8242TIP3    H246142   6.582   2.635   2.007  0.0573 -1.4568  0.1904
 8243TIP3   OH246143   4.075   2.092   6.586 -0.7109  0.0715 -0.2470
 8243TIP3    H146144   4.146   2.145   6.551 -0.0209 -1.5918 -1.4927
 8243TIP3    H246145   4.015   2.155   6.626  0.2711  1.7245 -1.2840
 8244TIP3   OH246146   6.538   1.219  11.220  0.2220  0.3507  0.3550
 8244TIP3    H146147   6.447   1.241  11.204  0.1431  0.0797  0.4199
 8244TIP3    H246148   6.549   1.132  11.182  0.9388  1.1276 -1.2875
 8245TIP3   OH246149   1.207   1.046   4.490 -0.5191 -0.7420  0.3958
 8245TIP3    H146150   1.146   1.120   4.488 -0.9651 -1.1143 -0.9104
 8245TIP3    H246151   1.252   1.054   4.574 -0.6250  0.9494  0.3241
 8246TIP3   OH246152   3.906   2.775   2.601  0.1665 -0.0542 -0.0971
 8246TIP3    H146153   3.947   2.688   2.600  0.0701 -0.1012  0.0229
 8246TIP3    H246154   3.936   2.816   2.521 -0.4925 -0.5246 -0.5979
 8247TIP3   OH246155   5.485   3.180  16.122 -0.0253  0.1090  0.4688
 8247TIP3    H146156   5.419   3.120  16.087 -1.4427  1.5437  0.5799
 8247TIP3    H246157   5.545   3.124  16.170 -2.6018 -1.0542  2.6095
 8248TIP3   OH246158   2.203   5.975  15.898  0.1764  0.0739 -0.3741
 8248TIP3    H146159   2.128   6.001  15.952  1.0249  0.2538  0.7677
 8248TIP3    H246160   2.164   5.929  15.824 -1.1578  1.6198 -0.6929
 8249TIP3   OH246161   3.359   5.844  17.121  0.2882 -0.1881  0.0694
 8249TIP3    H146162   3.286   5.829  17.061  1.8906  3.2432 -3.1930
 8249TIP3    H246163   3.321   5.891  17.195 -1.0314  0.5194 -1.0052
 8250TIP3   OH246164   3.778   6.067   1.075  0.1255 -0.5567  0.1503
 8250TIP3    H146165   3.765   6.145   1.128 -1.6334 -1.1815  0.7235
 8250TIP3    H246166   3.868   6.040   1.092  0.6728  1.1819  0.1307
 8251TIP3   OH246167   5.404   2.039  15.558 -0.4313 -0.1987  0.2959
 8251TIP3    H146168   5.435   2.128  15.575 -1.9456  0.0865  1.8246
 8251TIP3    H246169   5.442   1.987  15.628  0.3831 -0.7591 -0.5480
 8252TIP3   OH246170   5.173   3.768  14.566  0.9161  0.1717 -0.0978
 8252TIP3    H146171   5.138   3.846  14.609 -3.5557 -2.1433  1.0329
 8252TIP3    H246172   5.151   3.778  14.474  0.6543  0.3685 -0.0122
 8253TIP3   OH246173   2.217   2.721  12.448  0.4486 -0.6421 -0.1593
 8253TIP3    H146174   2.174   2.653  12.396  0.7381 -0.8946 -0.0714
 8253TIP3    H246175   2.230   2.793  12.386  3.1412 -1.8831 -1.2103
 8254TIP3   OH246176   0.488   4.591   5.010 -0.4984  0.4692 -0.2804
 8254TIP3    H146177   0.559   4.559   5.065 -0.2831  0.4565 -0.5688
 8254TIP3    H246178   0.514   4.680   4.987 -0.9249  0.7344  0.2238
 8255TIP3   OH246179   4.883   4.599   1.093  0.4459 -0.8217  0.2337
 8255TIP3    H146180   4.893   4.641   1.178  0.2355  1.8162 -0.9588
 8255TIP3    H246181   4.957   4.538   1.087  3.0096  2.0304  0.6152
 8256TIP3   OH246182   4.946   1.449   3.381 -0.0098  0.0899  0.1881
 8256TIP3    H146183   5.034   1.475   3.409 -0.1520 -0.0145  0.7490
 8256TIP3    H246184   4.914   1.392   3.451 -2.2785  3.6211  2.4164
 8257TIP3   OH246185   4.098   2.572   2.583 -0.3516 -0.1924  0.5235
 8257TIP3    H146186   4.168   2.637   2.589 -0.4727  0.1364 -1.2313
 8257TIP3    H246187   4.144   2.488   2.578  0.0223  0.0784 -1.5920
 8258TIP3   OH246188   4.151   2.508  10.425 -0.1306  0.0335  0.4624
 8258TIP3    H146189   4.060   2.538  10.417  0.0088  0.1733 -0.6899
 8258TIP3    H246190   4.145   2.432  10.484 -0.9876  0.0698  0.4465
 8259TIP3   OH246191   0.717   4.998   6.001 -0.1146 -0.5158  0.6754
 8259TIP3    H146192   0.708   5.093   5.996 -0.5085 -0.5873 -0.3770
 8259TIP3    H246193   0.764   4.982   6.083  1.2140  0.6615  0.1870
 8260TIP3   OH246194   3.090   2.517   5.508 -0.0559 -0.0753 -0.1993
 8260TIP3    H146195   3.146   2.441   5.525 -1.0676 -1.0801 -1.2125
 8260TIP3    H246196   3.004   2.491   5.542 -0.7607  0.0109 -1.8195
 8261TIP3   OH246197   3.446   6.144  15.426  0.3249  0.4147  0.3911
 8261TIP3    H146198   3.364   6.193  15.422 -0.1749 -0.3842  0.3908
 8261TIP3    H246199   3.498   6.188  15.493 -0.5477  0.3060  1.1687
 8262TIP3   OH246200   5.515   1.776  13.361 -0.2087 -0.0586  0.6205
 8262TIP3    H146201   5.597   1.729  13.376  0.8905  0.8591 -1.9933
 8262TIP3    H246202   5.453   1.708  13.333 -0.1496 -0.6298  1.7997
 8263TIP3   OH246203   1.981   2.966   1.226 -0.1760  0.0310  0.0577
 8263TIP3    H146204   1.935   3.026   1.168 -0.3374  0.1037  0.2622
 8263TIP3    H246205   1.914   2.933   1.285  0.4492  2.2447  2.1851
 8264TIP3   OH246206   5.865   5.650  16.795 -0.2173 -0.0933  0.2657
 8264TIP3    H146207   5.813   5.643  16.874 -0.3043 -0.9061  0.1384
 8264TIP3    H246208   5.812   5.609  16.726  0.9546 -1.8241  0.3244
 8265TIP3   OH246209   0.483   3.604   5.744  0.1780 -0.1993 -0.2929
 8265TIP3    H146210   0.488   3.664   5.818 -0.6751  1.5247 -1.5540
 8265TIP3    H246211   0.545   3.534   5.765 -1.1316 -0.5937  2.7261
 8266TIP3   OH246212   6.327   5.166   4.457  0.0646 -0.0970  0.6272
 8266TIP3    H146213   6.263   5.155   4.527 -0.1184  1.6019  0.7812
 8266TIP3    H246214   6.409   5.184   4.503  0.5246 -1.5547  0.4190
 8267TIP3   OH246215   1.953   3.516  12.373 -0.3527  0.3653 -0.2859
 8267TIP3    H146216   1.949   3.551  12.284 -1.1548 -1.0331 -0.8287
 8267TIP3    H246217   2.042   3.534  12.402 -0.5664  2.3846 -0.6947
 8268TIP3   OH246218   1.605   0.657   1.375 -0.2547  0.3720  0.6645
 8268TIP3    H146219   1.516   0.684   1.351 -0.1655  1.2924  1.3233
 8268TIP3    H246220   1.650   0.645   1.292 -1.3138 -1.2510  0.2797
 8269TIP3   OH246221   4.304   5.498   7.032  0.0575  0.0227 -0.0118
 8269TIP3    H146222   4.341   5.456   6.954 -0.5215 -0.8286  0.1524
 8269TIP3    H246223   4.372   5.487   7.099  0.6187  0.8890 -0.4175
 8270TIP3   OH246224   5.946   0.209   0.310 -0.2234 -0.4307 -0.6478
 8270TIP3    H146225   5.986   0.280   0.359 -0.9902  0.6333 -1.5260
 8270TIP3    H246226   5.863   0.245   0.278 -0.1408 -1.3596 -1.9980
 8271TIP3   OH246227   0.700   2.970  12.196 -0.1013  0.0113  0.7279
 8271TIP3    H146228   0.607   2.991  12.191 -0.1298 -0.1650  0.5109
 8271TIP3    H246229   0.725   2.995  12.285 -0.3982 -0.1063  0.8475
 8272TIP3   OH246230   4.358   4.148   0.252 -0.5873  0.0268 -0.4899
 8272TIP3    H146231   4.264   4.160   0.234 -0.2090 -0.7214 -3.4680
 8272TIP3    H246232   4.367   4.055   0.270 -0.4750  0.2147  0.4790
 8273TIP3   OH246233   5.828   6.578   2.934 -0.3076  0.3808  0.2937
 8273TIP3    H146234   5.900   6.641   2.936 -1.7509  2.0841  1.3654
 8273TIP3    H246235   5.775   6.603   2.858 -0.7510  0.3036  0.5706
 8274TIP3   OH246236   2.214   1.000  12.220 -0.0647 -0.8819  0.2168
 8274TIP3    H146237   2.254   1.085  12.235 -0.3401 -0.0573 -2.9062
 8274TIP3    H246238   2.171   0.978  12.302 -0.2697  2.1593  1.0303
 8275TIP3   OH246239   5.110   4.252  15.648  0.0742  0.5127 -0.2686
 8275TIP3    H146240   5.205   4.256  15.660 -0.0304  0.1645  0.8044
 8275TIP3    H246241   5.095   4.167  15.606  0.3068  1.0100 -1.4016
 8276TIP3   OH246242   4.110   2.729  12.651 -0.2528  0.1353  0.1169
 8276TIP3    H146243   4.183   2.710  12.710  0.7254 -0.9161 -1.3712
 8276TIP3    H246244   4.098   2.824  12.657  1.2957  0.3387  0.3305
 8277TIP3   OH246245   2.222   0.791  13.442 -0.4976  0.0619  0.6714
 8277TIP3    H146246   2.280   0.750  13.378  0.1917  1.6939  0.2045
 8277TIP3    H246247   2.196   0.720  13.500 -1.3702 -1.5482 -1.5675
 8278TIP3   OH246248   5.599   4.158  17.056 -0.1295 -0.2088  0.4469
 8278TIP3    H146249   5.618   4.232  17.115 -1.5028 -0.1025  0.8123
 8278TIP3    H246250   5.673   4.099  17.067  0.6008  0.7316  0.7745
 8279TIP3   OH246251   6.545   4.914  16.327  0.1820  0.1166  0.9489
 8279TIP3    H146252   6.559   4.891  16.235 -0.2551 -0.0349  0.9186
 8279TIP3    H246253   6.461   4.960  16.328  0.9347  1.5709  1.0250
 8280TIP3   OH246254   3.559   0.603  16.219 -0.8452 -0.8591  0.0211
 8280TIP3    H146255   3.490   0.662  16.190 -0.5738 -1.0753 -1.1076
 8280TIP3    H246256   3.619   0.597  16.144  0.6792 -0.2661  1.1391
 8281TIP3   OH246257   5.156   1.193   1.219 -0.5628 -0.6084  0.2273
 8281TIP3    H146258   5.204   1.147   1.150 -0.4296 -2.9412  1.7274
 8281TIP3    H246259   5.219   1.199   1.291 -1.1213  0.5319  0.6369
 8282TIP3   OH246260   1.857   5.118   1.693 -0.3231  0.0696 -0.2471
 8282TIP3    H146261   1.929   5.162   1.738  0.3774  0.2168 -1.4619
 8282TIP3    H246262   1.807   5.188   1.653 -0.2880 -0.1173 -0.6246
 8283TIP3   OH246263   6.287   3.342   0.816  0.2137 -0.1114 -0.3417
 8283TIP3    H146264   6.352   3.348   0.746  0.8182  1.2999  0.3007
 8283TIP3    H246265   6.216   3.399   0.787  0.5159  0.5698  0.2194
 8284TIP3   OH246266   5.870   6.103   6.015 -0.2879  0.2792  0.2579
 8284TIP3    H146267   5.897   6.069   6.101  0.5862  1.0266  0.2959
 8284TIP3    H246268   5.774   6.096   6.016 -0.1696 -1.6525  0.4606
 8285TIP3   OH246269   3.340   0.718  11.216 -0.3332  0.0344 -0.3278
 8285TIP3    H146270   3.327   0.760  11.301 -0.2911  0.8550 -0.7093
 8285TIP3    H246271   3.252   0.714  11.177 -0.1423  1.3326 -0.9790
 8286TIP3   OH246272   6.078   4.780  13.600  0.4162  0.4062 -0.8276
 8286TIP3    H146273   6.007   4.837  13.632 -1.0371 -1.1300 -1.2011
 8286TIP3    H246274   6.111   4.737  13.679  0.3365  0.4569 -0.7657
 8287TIP3   OH246275   2.560   2.122  16.220 -0.1363 -0.3952  0.1595
 8287TIP3    H146276   2.583   2.060  16.151 -3.6507 -1.1905 -0.4798
 8287TIP3    H246277   2.535   2.201  16.173 -0.0602 -0.0468  0.7007
 8288TIP3   OH246278   5.013   5.715  10.712 -0.1351  0.0312  0.0400
 8288TIP3    H146279   4.936   5.658  10.717 -0.8437  1.0398  1.3233
 8288TIP3    H246280   5.087   5.655  10.712 -0.8243 -0.9233  2.2055
 8289TIP3   OH246281   6.151   3.084  16.807 -0.2222 -0.0891  0.3465
 8289TIP3    H146282   6.168   3.025  16.733  2.5134 -0.3613  1.0845
 8289TIP3    H246283   6.093   3.151  16.771 -0.8872 -1.5036 -1.3686
 8290TIP3   OH246284   3.581   0.039  16.112 -0.0437  0.2386 -0.4895
 8290TIP3    H146285   3.564   0.133  16.110 -0.5686  0.1595 -0.0051
 8290TIP3    H246286   3.536   0.008  16.191 -0.0726 -0.4576 -0.7726
 8291TIP3   OH246287   3.688   5.985  13.797  0.3356  0.2515 -0.1602
 8291TIP3    H146288   3.662   5.905  13.752  1.0500  0.0842 -0.2869
 8291TIP3    H246289   3.611   6.041  13.793 -0.3715 -0.6438  0.4273
 8292TIP3   OH246290   3.730   4.242  11.148 -1.0416 -0.2480 -0.4696
 8292TIP3    H146291   3.642   4.223  11.180 -0.8191 -0.6809 -0.0998
 8292TIP3    H246292   3.718   4.258  11.054 -1.3341 -1.7008 -0.7103
 8293TIP3   OH246293   2.864   5.263  13.350  0.3327 -0.2271 -0.2857
 8293TIP3    H146294   2.872   5.172  13.320 -1.3787 -1.0127  1.4411
 8293TIP3    H246295   2.842   5.312  13.270 -0.6729 -1.6665 -0.9469
 8294TIP3   OH246296   3.073   4.195  10.910 -0.1341  0.1528  0.5212
 8294TIP3    H146297   2.996   4.249  10.930  0.9750  1.3734  1.6158
 8294TIP3    H246298   3.080   4.199  10.815 -0.4482  1.4188  0.5360
 8295TIP3   OH246299   1.605   4.225  14.753 -0.0350 -0.6657 -0.3750
 8295TIP3    H146300   1.663   4.151  14.737  1.6778  0.6739 -0.7923
 8295TIP3    H246301   1.626   4.287  14.683  0.2736  1.1315  1.1870
 8296TIP3   OH246302   1.931   4.404  15.896 -0.3881 -0.4001  0.2316
 8296TIP3    H146303   1.862   4.365  15.842  0.2408 -0.1538 -0.7718
 8296TIP3    H246304   1.990   4.447  15.834  0.5017 -0.3238  1.0916
 8297TIP3   OH246305   5.093   5.462  13.567 -0.0614 -0.1534 -0.2501
 8297TIP3    H146306   5.052   5.511  13.496 -0.8183  0.1705  0.3932
 8297TIP3    H246307   5.186   5.459  13.543 -0.3630 -0.4106 -1.4429
 8298TIP3   OH246308   5.572   2.965   4.789 -0.0224 -0.3890  0.2326
 8298TIP3    H146309   5.588   2.965   4.883  0.4792  0.3808  0.1526
 8298TIP3    H246310   5.534   3.051   4.771  0.8028 -0.1484 -0.4099
 8299TIP3   OH246311   1.393   4.931  14.699 -0.3177  0.0724 -0.2490
 8299TIP3    H146312   1.453   4.880  14.753 -0.5295  0.9142  0.8068
 8299TIP3    H246313   1.309   4.887  14.708 -1.1497  1.9629  2.8011
 8300TIP3   OH246314   2.339   4.855  12.797  0.0733 -0.1384 -0.7851
 8300TIP3    H146315   2.266   4.917  12.803 -0.6629 -1.0834  0.6459
 8300TIP3    H246316   2.403   4.886  12.861 -0.1645 -0.6521 -0.2847
 8301TIP3   OH246317   0.463   5.550  12.484  0.2362  0.2678  0.5865
 8301TIP3    H146318   0.393   5.529  12.547 -0.4187 -1.4479 -0.6432
 8301TIP3    H246319   0.507   5.467  12.468  0.4085  0.6534 -1.1905
 8302TIP3   OH246320   6.688   4.287  16.310 -0.0980  0.4225  0.4611
 8302TIP3    H146321   6.717   4.277  16.401  1.8828  0.6572 -0.0758
 8302TIP3    H246322   6.736   4.365  16.279 -0.2015 -0.0568 -0.9723
 8303TIP3   OH246323   4.942   3.248   1.900  0.1325 -0.0633 -0.1422
 8303TIP3    H146324   4.869   3.189   1.920 -1.0020  1.5838  0.8796
 8303TIP3    H246325   5.016   3.213   1.950 -0.9419  0.2623  1.7477
 8304TIP3   OH246326   3.626   2.841   5.159 -0.1148 -0.0308 -0.2609
 8304TIP3    H146327   3.708   2.884   5.134 -0.5968 -0.2501 -2.3827
 8304TIP3    H246328   3.606   2.783   5.086 -1.2690 -1.3228  1.0163
 8305TIP3   OH246329   2.252   5.103   5.610 -0.0383  0.0913 -0.4585
 8305TIP3    H146330   2.239   5.071   5.699  0.7270  0.8777 -0.0428
 8305TIP3    H246331   2.192   5.177   5.603 -0.8748 -0.6223 -0.9741
 8306TIP3   OH246332   2.747   4.918  17.169 -0.3674 -0.1277  0.8406
 8306TIP3    H146333   2.842   4.922  17.163 -0.2894 -1.8181  0.4560
 8306TIP3    H246334   2.716   4.985  17.107  0.5712 -0.6252 -0.1956
 8307TIP3   OH246335   0.163   3.749   5.633 -0.2320 -0.0553 -0.2090
 8307TIP3    H146336   0.101   3.775   5.565 -0.1345 -0.2022 -0.3557
 8307TIP3    H246337   0.241   3.802   5.616  0.5555 -1.5379 -1.4795
 8308TIP3   OH246338   0.154   0.796  12.679 -0.4483 -0.4025  0.3211
 8308TIP3    H146339   0.067   0.832  12.668 -0.8138 -1.1586  0.6423
 8308TIP3    H246340   0.140   0.709  12.716  0.3550 -1.2254 -1.2016
 8309TIP3   OH246341   5.735   0.094   5.282  0.0265  0.2354  0.2087
 8309TIP3    H146342   5.830   0.087   5.267 -0.0959  0.4405 -0.7018
 8309TIP3    H246343   5.697   0.018   5.238 -0.2941  0.5481 -0.0609
 8310TIP3   OH246344   5.183   5.936  12.258  0.2528  0.4589  0.1389
 8310TIP3    H146345   5.120   5.953  12.188 -0.4547 -2.7154 -0.1546
 8310TIP3    H246346   5.239   5.866  12.223  1.8054  0.8626  1.6688
 8311TIP3   OH246347   1.917   1.726   0.264  0.0805 -0.0290 -0.1948
 8311TIP3    H146348   1.985   1.668   0.297  2.5686  2.7925  0.0982
 8311TIP3    H246349   1.952   1.759   0.181 -1.5941  0.4385 -0.7505
 8312TIP3   OH246350   3.149   2.564  13.686 -0.1105 -0.8904 -0.3046
 8312TIP3    H146351   3.203   2.539  13.610 -0.9707  0.4992 -1.4259
 8312TIP3    H246352   3.209   2.613  13.742  0.3496 -1.2831 -0.4438
 8313TIP3   OH246353   4.403   1.885   3.437  0.1960  0.2252  0.1843
 8313TIP3    H146354   4.434   1.954   3.496  0.6206 -1.1467  1.6264
 8313TIP3    H246355   4.380   1.813   3.495 -1.6488 -0.3446 -1.1826
 8314TIP3   OH246356   2.217   1.162   0.208 -0.4428  0.6310 -0.7700
 8314TIP3    H146357   2.137   1.156   0.156 -1.6448 -2.2864  1.1484
 8314TIP3    H246358   2.269   1.087   0.180 -1.1214 -1.0228  1.9898
 8315TIP3   OH246359   6.208   1.948   0.496 -0.6440  0.3951  0.2454
 8315TIP3    H146360   6.112   1.949   0.495 -0.6520 -0.0684 -0.4207
 8315TIP3    H246361   6.233   2.035   0.464 -0.8434  0.4071  0.1225
 8316TIP3   OH246362   5.737   4.491   3.320  0.4780 -0.3435  0.1304
 8316TIP3    H146363   5.652   4.513   3.282  0.8989  0.6021 -0.2962
 8316TIP3    H246364   5.723   4.496   3.414 -0.4824 -2.3455  0.1335
 8317TIP3   OH246365   3.060   6.579  11.797  0.3968  0.0317  0.1249
 8317TIP3    H146366   3.090   6.488  11.787 -1.8105 -0.6356 -1.1233
 8317TIP3    H246367   2.970   6.571  11.828  0.2477  1.8115  0.2397
 8318TIP3   OH246368   5.795   3.505   3.077 -0.4731 -0.4611  0.1838
 8318TIP3    H146369   5.744   3.564   3.132 -1.7640 -0.3955 -1.0394
 8318TIP3    H246370   5.733   3.438   3.049  0.6135 -1.5686  0.3260
 8319TIP3   OH246371   3.616   2.027  16.881  0.2616 -0.6601 -0.2400
 8319TIP3    H146372   3.541   1.978  16.916  0.0254  0.6031  1.1305
 8319TIP3    H246373   3.589   2.051  16.792  0.3556 -2.8613 -0.9307
 8320TIP3   OH246374   0.522   4.530  16.349 -0.4827  0.0310 -0.0314
 8320TIP3    H146375   0.526   4.508  16.256  1.2591  0.7277 -0.1658
 8320TIP3    H246376   0.614   4.536  16.375 -0.8823 -1.9161  2.1818
 8321TIP3   OH246377   3.337   5.271   0.086  0.2888 -0.5094 -0.1248
 8321TIP3    H146378   3.325   5.351   0.035 -0.4656 -0.4391  0.1548
 8321TIP3    H246379   3.304   5.292   0.173 -0.9023 -1.4330 -0.3258
 8322TIP3   OH246380   1.005   2.329  15.362 -0.7431  0.1157 -0.0529
 8322TIP3    H146381   1.092   2.321  15.322 -1.9314 -1.7418 -2.5145
 8322TIP3    H246382   0.996   2.422  15.382  1.2412  0.5685 -1.0699
 8323TIP3   OH246383   3.686   3.729  12.325  0.6014  0.6591  0.3100
 8323TIP3    H146384   3.759   3.778  12.287  1.3021 -0.3185  0.3804
 8323TIP3    H246385   3.726   3.675  12.393 -0.4067  1.2022  1.3639
 8324TIP3   OH246386   5.046   1.660  17.221 -0.5145  0.4103 -0.2135
 8324TIP3    H146387   4.993   1.664  17.142  0.0439  1.6516 -0.5459
 8324TIP3    H246388   4.982   1.662  17.293 -1.0238 -0.7798 -0.6055
 8325TIP3   OH246389   4.262   1.144  15.562 -0.3737  0.0360 -0.3584
 8325TIP3    H146390   4.315   1.139  15.482 -0.8624  1.0853 -0.7544
 8325TIP3    H246391   4.319   1.107  15.630  1.0666  1.5436 -0.6864
 8326TIP3   OH246392   3.564   3.142  16.057  0.4605  0.5322 -0.3673
 8326TIP3    H146393   3.584   3.236  16.062  0.4329  0.4772  1.0882
 8326TIP3    H246394   3.510   3.134  15.979  1.5246  1.5279 -1.2588
 8327TIP3   OH246395   2.813   2.823  12.384 -0.9576 -0.2033 -0.0146
 8327TIP3    H146396   2.841   2.744  12.337  2.5390  0.3670  0.8444
 8327TIP3    H246397   2.797   2.794  12.473  0.4997  0.0570  0.3426
 8328TIP3   OH246398   2.138   3.501   6.210 -0.3746 -0.2620  0.4103
 8328TIP3    H146399   2.081   3.537   6.277  1.0785  1.1085  0.9747
 8328TIP3    H246400   2.170   3.418   6.246 -1.4480 -0.7191  0.3569
 8329TIP3   OH246401   5.086   1.469  14.932 -0.2816  0.3722 -0.4583
 8329TIP3    H146402   5.037   1.471  15.014  1.1213 -3.5042  0.6906
 8329TIP3    H246403   5.019   1.461  14.864 -1.4087  2.3455  0.3270
 8330TIP3   OH246404   5.354   0.409  14.448 -0.1070 -0.0828  0.1508
 8330TIP3    H146405   5.407   0.337  14.483  0.0174  0.0127  0.1584
 8330TIP3    H246406   5.360   0.477  14.515 -0.2945 -0.0966  0.1824
 8331TIP3   OH246407   2.331   6.029   6.537 -0.3542  0.2785 -0.1495
 8331TIP3    H146408   2.421   6.014   6.508 -0.3952 -1.1532  0.3385
 8331TIP3    H246409   2.336   6.105   6.594  0.8220 -0.5915  0.9670
 8332TIP3   OH246410   0.636   6.405  15.450 -0.6538  0.4010  0.5251
 8332TIP3    H146411   0.657   6.339  15.384  1.0235  0.5193  0.8927
 8332TIP3    H246412   0.576   6.361  15.510 -1.3147 -0.0599 -0.4552
 8333TIP3   OH246413   0.657   3.476   3.111  0.2875 -0.3491 -0.5096
 8333TIP3    H146414   0.657   3.435   3.197  2.0433  0.0340 -0.2755
 8333TIP3    H246415   0.601   3.553   3.120  0.0757 -0.5847  0.1556
 8334TIP3   OH246416   3.944   2.680   3.759  0.5761  0.4782  0.4108
 8334TIP3    H146417   3.991   2.657   3.679  2.2365  1.8691  0.9103
 8334TIP3    H246418   3.992   2.756   3.794 -0.2166  0.0527  2.6082
 8335TIP3   OH246419   3.464   0.295   2.301  0.0483  0.1186 -0.0299
 8335TIP3    H146420   3.557   0.284   2.322 -0.2413 -4.5361 -0.1328
 8335TIP3    H246421   3.461   0.286   2.206 -0.5134  0.2207 -0.0194
 8336TIP3   OH246422   6.445   6.622   0.910  0.2881  0.2238 -0.3580
 8336TIP3    H146423   6.531   6.601   0.946  0.4598  1.1096 -0.2247
 8336TIP3    H246424   6.463   6.655   0.822  0.3367  2.6585  0.5054
 8337TIP3   OH246425   0.599   6.401   1.354 -0.3957 -0.3398 -0.1120
 8337TIP3    H146426   0.693   6.406   1.370 -0.6495  0.7088  1.2044
 8337TIP3    H246427   0.571   6.319   1.395  0.1150 -1.2570 -1.5514
 8338TIP3   OH246428   0.391   0.702   0.491  0.5554 -0.1556  0.7809
 8338TIP3    H146429   0.344   0.669   0.415  1.2830  0.4719  0.0384
 8338TIP3    H246430   0.482   0.711   0.462  1.0777 -0.9549  2.0632
 8339TIP3   OH246431   0.639   1.292  14.037  0.0861  0.7854  0.1100
 8339TIP3    H146432   0.595   1.322  13.958  3.0503  0.6874 -1.7590
 8339TIP3    H246433   0.608   1.202  14.049  0.1091  0.5530 -1.4044
 8340TIP3   OH246434   3.940   4.707  13.519 -0.3322  0.0145 -0.5879
 8340TIP3    H146435   4.009   4.644  13.538 -0.8525 -0.7119 -1.0723
 8340TIP3    H246436   3.886   4.707  13.598  0.1352  0.4856 -0.2604
 8341TIP3   OH246437   0.558   2.225   6.155  0.4178 -0.2438  0.2150
 8341TIP3    H146438   0.595   2.192   6.237  1.6528  0.5975  0.0166
 8341TIP3    H246439   0.467   2.246   6.177  1.1714  1.6657  1.8943
 8342TIP3   OH246440   5.632   1.305  10.135  0.0417  0.1751 -0.4805
 8342TIP3    H146441   5.685   1.227  10.124  1.6808  0.8937  1.6280
 8342TIP3    H246442   5.560   1.295  10.072  1.7008 -1.6652 -2.2080
 8343TIP3   OH246443   4.290   0.152   5.252  0.1178 -0.1213 -0.6224
 8343TIP3    H146444   4.370   0.201   5.270 -0.8049  1.2402 -0.0481
 8343TIP3    H246445   4.221   0.205   5.290 -1.1861 -0.6750 -2.0992
 8344TIP3   OH246446   4.606   4.114   4.916 -0.6441  0.2120  0.3350
 8344TIP3    H146447   4.596   4.134   4.823 -0.0561 -0.0763  0.2018
 8344TIP3    H246448   4.681   4.055   4.920 -0.5115  0.4105  1.0172
 8345TIP3   OH246449   5.164   5.681  11.818  0.1436  0.9492  0.3222
 8345TIP3    H146450   5.076   5.644  11.819  0.7953 -0.6822 -0.3980
 8345TIP3    H246451   5.207   5.640  11.743  2.5411 -0.7725  2.4675
 8346TIP3   OH246452   3.530   2.666   5.659 -0.3758  0.2338  0.0578
 8346TIP3    H146453   3.534   2.599   5.728  0.8032 -0.4307 -0.6024
 8346TIP3    H246454   3.622   2.690   5.645 -0.8439  2.9293  1.1164
 8347TIP3   OH246455   1.356   2.371   2.542  0.0610  0.4258 -0.4423
 8347TIP3    H146456   1.447   2.390   2.518 -0.2370 -0.2684 -2.3336
 8347TIP3    H246457   1.361   2.336   2.631  1.6192  0.5842 -0.4399
 8348TIP3   OH246458   6.631   6.312   6.138 -0.0396 -0.5336 -0.0342
 8348TIP3    H146459   6.681   6.244   6.183  0.3189 -1.3062 -1.5413
 8348TIP3    H246460   6.664   6.394   6.174  0.0488 -1.1174  1.2800
 8349TIP3   OH246461   0.305   4.229   2.009  0.2338  0.3144  0.0905
 8349TIP3    H146462   0.249   4.289   2.058 -0.5848 -0.5584  0.2282
 8349TIP3    H246463   0.341   4.169   2.074  2.3139  1.5683  0.2011
 8350TIP3   OH246464   6.576   0.200   2.058 -0.4465 -0.0180  0.3411
 8350TIP3    H146465   6.559   0.188   2.152 -1.5039 -0.3126  0.1248
 8350TIP3    H246466   6.491   0.183   2.016 -0.2501  1.1522 -0.5799
 8351TIP3   OH246467   0.282   1.037   2.635  0.0250 -0.4094  0.2977
 8351TIP3    H146468   0.276   0.941   2.641  0.1703 -0.5719 -1.5137
 8351TIP3    H246469   0.191   1.066   2.631 -0.1307 -0.2170  3.0952
 8352TIP3   OH246470   3.031   5.044   1.249  0.1807 -0.2757  0.1198
 8352TIP3    H146471   2.952   5.001   1.283  0.5553 -1.0834 -0.0067
 8352TIP3    H246472   3.092   5.042   1.322 -0.1156  0.9365  0.4316
 8353TIP3   OH246473   0.217   2.398  11.168  0.3679 -0.3406  0.0499
 8353TIP3    H146474   0.208   2.457  11.243  0.3979 -0.5654  0.2321
 8353TIP3    H246475   0.285   2.437  11.114 -0.1752  0.2154 -0.2323
 8354TIP3   OH246476   4.600   5.177  11.544 -0.4588 -0.6658 -0.2623
 8354TIP3    H146477   4.652   5.253  11.519 -1.1019 -0.3842 -0.7733
 8354TIP3    H246478   4.620   5.163  11.637  0.1903 -0.2985 -0.3470
 8355TIP3   OH246479   3.213   5.836  11.192 -0.2842  0.7994  0.1069
 8355TIP3    H146480   3.227   5.905  11.257  0.6281 -1.1506  2.1682
 8355TIP3    H246481   3.146   5.779  11.232 -1.9329  1.0675 -2.0784
 8356TIP3   OH246482   5.492   6.746  14.918  0.5302 -0.2034 -0.1457
 8356TIP3    H146483   5.437   6.742  14.997  0.2194  3.0037 -0.0602
 8356TIP3    H246484   5.550   6.820  14.934  0.1360  0.8812 -3.0895
 8357TIP3   OH246485   0.301   0.150   0.790 -0.4468 -0.2617  0.1264
 8357TIP3    H146486   0.267   0.177   0.875 -0.5718  2.8734 -0.7653
 8357TIP3    H246487   0.272   0.060   0.779 -0.9059 -0.5770  3.1182
 8358TIP3   OH246488   5.443   0.596   3.635  0.5983 -0.3572  0.1676
 8358TIP3    H146489   5.514   0.539   3.606  1.7781  0.5162  1.2199
 8358TIP3    H246490   5.390   0.542   3.693 -0.9983 -1.7105 -2.3569
 8359TIP3   OH246491   6.719   6.576  15.382  0.2569 -0.4734 -0.3875
 8359TIP3    H146492   6.725   6.507  15.315  0.6296 -1.3780  0.5497
 8359TIP3    H246493   6.768   6.649  15.344 -0.7808 -0.4296 -1.7228
 8360TIP3   OH246494   6.126   1.572  11.704 -0.0768 -0.7649 -0.1401
 8360TIP3    H146495   6.204   1.518  11.692 -0.5482 -1.2480 -1.0328
 8360TIP3    H246496   6.144   1.620  11.785  0.1483 -2.5848  0.9410
 8361TIP3   OH246497   4.615   2.403  13.992  0.3952 -0.3934 -1.0572
 8361TIP3    H146498   4.693   2.365  14.032 -1.0742 -2.8374 -0.2796
 8361TIP3    H246499   4.555   2.416  14.066 -0.4885 -0.0400 -1.8220
 8362TIP3   OH246500   1.246   3.249  15.063  0.5997 -0.4323  0.4188
 8362TIP3    H146501   1.181   3.221  15.128  0.5890  0.6764  0.9152
 8362TIP3    H246502   1.294   3.169  15.042 -1.4718 -1.4667 -0.6343
 8363TIP3   OH246503   3.695   2.268   1.200  0.0187  0.3355  0.0578
 8363TIP3    H146504   3.744   2.257   1.119 -1.1866  0.5441 -0.7223
 8363TIP3    H246505   3.680   2.363   1.207 -0.2146  0.2833  0.3224
 8364TIP3   OH246506   3.993   6.215  11.750 -0.6934  0.2586 -0.1585
 8364TIP3    H146507   4.031   6.287  11.800  0.2607 -0.4138  0.1038
 8364TIP3    H246508   3.995   6.140  11.810 -0.3200 -0.3454 -0.9042
 8365TIP3   OH246509   5.980   3.029   5.390  0.1573  0.1201 -0.3267
 8365TIP3    H146510   5.932   3.066   5.465 -1.3722 -0.7043 -0.8554
 8365TIP3    H246511   6.035   2.961   5.428 -0.9497 -0.6091  0.0361
 8366TIP3   OH246512   0.775   4.969  14.434  0.1541  0.2207 -0.2665
 8366TIP3    H146513   0.828   4.917  14.374 -0.5694  0.2676 -0.9644
 8366TIP3    H246514   0.758   4.911  14.508  0.1475 -0.2180 -0.6063
 8367TIP3   OH246515   4.415   3.911   4.783  0.4563  0.0636 -0.4854
 8367TIP3    H146516   4.351   3.906   4.854 -0.1346  1.0842 -0.9306
 8367TIP3    H246517   4.483   3.970   4.815 -0.7050  1.9799 -1.4179
 8368TIP3   OH246518   1.663   3.473   4.343  0.5451  0.2978 -0.0824
 8368TIP3    H146519   1.632   3.518   4.422  2.5746  2.6414 -0.4758
 8368TIP3    H246520   1.757   3.489   4.342  0.6181  0.2601 -2.9073
 8369TIP3   OH246521   3.869   5.806   5.561  0.3604  0.9105 -0.2386
 8369TIP3    H146522   3.942   5.754   5.595  1.1297  3.1034  1.7596
 8369TIP3    H246523   3.818   5.745   5.508  2.4784 -1.2249  0.0283
 8370TIP3   OH246524   3.570   6.419   2.670  0.1595  0.0474 -0.3195
 8370TIP3    H146525   3.548   6.499   2.622  0.7442 -0.6447 -1.8215
 8370TIP3    H246526   3.486   6.378   2.688 -0.0551 -0.6363 -2.5384
 8371TIP3   OH246527   3.756   4.445  14.740 -0.3625  0.5642 -0.0201
 8371TIP3    H146528   3.744   4.405  14.654  0.5531  1.3892 -0.5600
 8371TIP3    H246529   3.787   4.534  14.720  3.4178 -0.3261  1.1419
 8372TIP3   OH246530   4.237   5.555  11.637 -0.2537 -0.4517 -0.3629
 8372TIP3    H146531   4.245   5.470  11.594  2.0195 -1.0110  1.0206
 8372TIP3    H246532   4.206   5.534  11.726  0.5387  0.1169  0.0604
 8373TIP3   OH246533   0.072   5.020   2.638 -0.1333  0.1915  0.1913
 8373TIP3    H146534   0.102   4.933   2.610  0.9736  0.3206  0.9185
 8373TIP3    H246535   0.096   5.078   2.566  1.8638  0.3728  0.9485
 8374TIP3   OH246536   4.189   2.867  14.349  0.4322 -0.7073 -0.4257
 8374TIP3    H146537   4.151   2.838  14.266 -3.4869  0.4310  0.7544
 8374TIP3    H246538   4.225   2.954  14.330 -0.8453 -0.2541 -0.8597
 8375TIP3   OH246539   5.810   5.942   5.382 -0.0775 -0.1911  0.6137
 8375TIP3    H146540   5.872   5.873   5.360  3.0058  2.2943  0.8619
 8375TIP3    H246541   5.799   5.991   5.300 -1.2608 -0.2084  0.7394
 8376TIP3   OH246542   4.316   5.566   1.575 -0.0913 -0.7355 -0.1124
 8376TIP3    H146543   4.371   5.598   1.504  0.0167  1.0301  0.7267
 8376TIP3    H246544   4.229   5.557   1.536  0.1520 -0.6573 -0.6837
 8377TIP3   OH246545   3.381   0.572   5.565 -0.2187  0.1618 -0.3834
 8377TIP3    H146546   3.389   0.668   5.567 -0.1137  0.1432  0.3487
 8377TIP3    H246547   3.464   0.541   5.601  0.0185 -0.2278 -1.2337
 8378TIP3   OH246548   6.720   5.844  14.758  0.1328  0.0351  0.3886
 8378TIP3    H146549   6.782   5.786  14.714  0.6130  0.1627  0.8813
 8378TIP3    H246550   6.769   5.878  14.834 -0.6231 -0.0848  0.9429
 8379TIP3   OH246551   3.059   2.520   2.535  0.6056 -0.4058  0.0101
 8379TIP3    H146552   3.062   2.589   2.602  0.3161  0.6438 -1.0244
 8379TIP3    H246553   3.015   2.447   2.578 -0.2744  0.5180  0.7264
 8380TIP3   OH246554   0.930   6.123   2.800 -0.4679  0.3828  0.3291
 8380TIP3    H146555   0.887   6.147   2.882  0.0071 -0.0760  0.7171
 8380TIP3    H246556   0.994   6.057   2.825  0.1381  0.7195 -0.3094
 8381TIP3   OH246557   5.331   6.443  15.430 -0.1093 -0.0203 -0.5996
 8381TIP3    H146558   5.272   6.498  15.378 -0.2759 -0.7403 -1.1905
 8381TIP3    H246559   5.376   6.504  15.489 -0.8821  0.6350 -0.6793
 8382TIP3   OH246560   1.446   2.122   3.466 -0.2495 -0.1633 -0.2138
 8382TIP3    H146561   1.394   2.122   3.386  0.2056 -0.4529 -0.5163
 8382TIP3    H246562   1.519   2.182   3.446  0.6773 -1.3750 -0.5653
 8383TIP3   OH246563   5.807   6.018  14.144  0.0104 -0.2005  0.3892
 8383TIP3    H146564   5.891   5.988  14.109 -1.2482  0.0658 -3.2982
 8383TIP3    H246565   5.830   6.070  14.221  3.1842 -0.2980 -0.3599
 8384TIP3   OH246566   0.014   2.170  11.765 -0.3528  0.5656  0.2100
 8384TIP3    H146567   0.067   2.127  11.697  0.6498 -0.7713  1.7779
 8384TIP3    H246568   0.046   2.261  11.765  0.7354  0.2074 -0.0532
 8385TIP3   OH246569   1.869   5.801  11.491  0.2816  0.0607  0.0589
 8385TIP3    H146570   1.901   5.889  11.472 -0.0361  0.3125  0.6533
 8385TIP3    H246571   1.948   5.749  11.506  0.4453  0.4944  0.7371
 8386TIP3   OH246572   3.876   3.273   6.575 -0.2630  0.1314  0.1821
 8386TIP3    H146573   3.847   3.194   6.621 -0.0991  0.5819  1.0743
 8386TIP3    H246574   3.819   3.278   6.498 -0.0195 -1.0646 -0.0987
 8387TIP3   OH246575   2.521   1.209   5.542 -0.2167  0.3364  0.6263
 8387TIP3    H146576   2.602   1.187   5.496 -0.0438  0.1117  1.0345
 8387TIP3    H246577   2.529   1.302   5.563 -1.5457  1.2678 -2.3417
 8388TIP3   OH246578   4.546   0.672   5.025  0.3236  0.7034 -0.5664
 8388TIP3    H146579   4.523   0.743   4.966 -0.0990  0.3597 -0.8240
 8388TIP3    H246580   4.482   0.603   5.006 -0.0224  0.7081  0.5202
 8389TIP3   OH246581   2.414   6.588  16.742  0.2919 -0.5297  0.0614
 8389TIP3    H146582   2.336   6.538  16.763 -0.8275  0.8883 -0.5600
 8389TIP3    H246583   2.418   6.589  16.646  0.7853 -0.1651  0.0754
 8390TIP3   OH246584   6.226   4.857  16.100  0.1732  0.3630  0.2096
 8390TIP3    H146585   6.196   4.771  16.132  0.8240 -0.3463 -1.0189
 8390TIP3    H246586   6.313   4.840  16.064  1.3175  2.0117  2.0084
 8391TIP3   OH246587   6.018   0.286   1.326  0.2104 -0.3860 -0.4842
 8391TIP3    H146588   6.035   0.362   1.382 -1.8459  0.1906 -0.5665
 8391TIP3    H246589   6.037   0.316   1.238 -0.2375 -0.0695 -0.4765
 8392TIP3   OH246590   1.608   2.523  11.552  0.0624  0.5787 -0.0061
 8392TIP3    H146591   1.640   2.555  11.467  0.6561 -0.8344 -0.3419
 8392TIP3    H246592   1.662   2.568  11.617  2.2015 -1.0730 -0.5307
 8393TIP3   OH246593   1.318   2.365   4.990  0.1080  0.0458 -0.6036
 8393TIP3    H146594   1.241   2.343   4.937 -1.4362 -0.1994  1.6245
 8393TIP3    H246595   1.341   2.454   4.962  0.0214 -0.4521 -2.3868
 8394TIP3   OH246596   2.438   5.635  15.565 -0.0194 -0.3208  0.7616
 8394TIP3    H146597   2.348   5.654  15.593 -0.0798 -2.4327  2.2206
 8394TIP3    H246598   2.428   5.568  15.497  0.4419 -0.7975  1.1559
 8395TIP3   OH246599   3.557   0.955   6.108 -0.1415 -0.1038  0.7378
 8395TIP3    H146600   3.472   1.000   6.115 -1.1694 -1.5988 -1.0055
 8395TIP3    H246601   3.553   0.886   6.174 -0.7318 -0.7867  0.0085
 8396TIP3   OH246602   3.726   3.508  16.340  0.1182 -0.0696 -0.0409
 8396TIP3    H146603   3.658   3.440  16.333 -1.4144  1.3149  0.6247
 8396TIP3    H246604   3.735   3.523  16.434 -0.8893  1.8483 -0.1959
 8397TIP3   OH246605   5.523   4.988  12.199  0.2844  0.1062  0.0373
 8397TIP3    H146606   5.579   5.002  12.275 -0.4695 -0.6281  0.7429
 8397TIP3    H246607   5.441   5.032  12.220 -0.3390 -1.0690  0.1701
 8398TIP3   OH246608   3.198   1.141   4.611  0.3022  0.6007  0.2030
 8398TIP3    H146609   3.173   1.117   4.522  1.2051 -0.7306  0.2764
 8398TIP3    H246610   3.132   1.100   4.667  1.0854 -0.6566  0.2515
 8399TIP3   OH246611   6.178   3.822   3.589 -0.4495  0.1034 -0.1235
 8399TIP3    H146612   6.083   3.811   3.595 -0.3115 -0.9105  0.2254
 8399TIP3    H246613   6.195   3.829   3.495 -0.7418 -0.9520 -0.2662
 8400TIP3   OH246614   3.719   4.221   2.442  0.2628  0.1603  0.1861
 8400TIP3    H146615   3.757   4.194   2.359  0.0730 -1.6993  0.6506
 8400TIP3    H246616   3.635   4.259   2.419  0.9437  1.2446 -0.5851
 8401TIP3   OH246617   0.391   1.696  13.625  0.1235 -0.7956 -0.2091
 8401TIP3    H146618   0.334   1.640  13.571 -1.6222  0.4640  0.2529
 8401TIP3    H246619   0.356   1.784  13.613  0.2626 -0.3515  2.2504
 8402TIP3   OH246620   5.722   2.561  12.091  0.3571 -0.8439  0.4333
 8402TIP3    H146621   5.662   2.557  12.017  0.1178 -0.8849  0.6282
 8402TIP3    H246622   5.667   2.588  12.165  0.4346 -1.5560  0.7606
 8403TIP3   OH246623   1.498   5.649  16.642 -0.2776 -0.0892 -0.3715
 8403TIP3    H146624   1.495   5.602  16.725  3.0584  0.8365  0.4622
 8403TIP3    H246625   1.474   5.739  16.665  1.5746  0.3893 -0.0853
 8404TIP3   OH246626   3.796   5.961  14.123 -0.0190 -0.1035  0.3973
 8404TIP3    H146627   3.712   5.995  14.092  0.8773  1.1465 -0.7499
 8404TIP3    H246628   3.835   6.034  14.171 -0.0373 -1.0292  1.8853
 8405TIP3   OH246629   4.734   3.975   4.027  0.6312  0.2482 -0.4213
 8405TIP3    H146630   4.715   4.057   3.980  1.5063  0.4514 -0.4361
 8405TIP3    H246631   4.729   3.998   4.119 -1.0732 -0.1472 -0.3902
 8406TIP3   OH246632   2.851   2.148  12.297  0.0478 -0.0071 -0.0693
 8406TIP3    H146633   2.782   2.098  12.253 -1.4824  0.7085  1.3800
 8406TIP3    H246634   2.925   2.146  12.237 -0.3336 -2.9942 -0.6022
 8407TIP3   OH246635   2.901   4.879  14.183  0.1881  0.0037  0.2516
 8407TIP3    H146636   2.943   4.963  14.205 -0.4828  0.5290 -0.4328
 8407TIP3    H246637   2.810   4.890  14.210  0.1117 -0.5400  0.2230
 8408TIP3   OH246638   5.395   4.585   2.701 -0.0704 -0.3192  0.1903
 8408TIP3    H146639   5.490   4.594   2.703 -0.0045 -0.6211  3.3072
 8408TIP3    H246640   5.370   4.572   2.793 -3.0686 -0.8947 -0.5950
 8409TIP3   OH246641   3.770   1.540  14.076  0.2870  0.1907  0.1104
 8409TIP3    H146642   3.855   1.516  14.039  0.2618 -1.3013  0.9388
 8409TIP3    H246643   3.758   1.632  14.052  1.7527  0.1894 -0.7218
 8410TIP3   OH246644   2.442   2.746   3.423 -0.6112 -0.0863  0.4200
 8410TIP3    H146645   2.418   2.783   3.508 -1.2011 -0.0928  0.2590
 8410TIP3    H246646   2.518   2.690   3.442 -0.7686 -0.1231  0.9472
 8411TIP3   OH246647   4.237   0.192   2.506  0.1909  0.6293 -0.1628
 8411TIP3    H146648   4.232   0.179   2.601  0.2754 -1.1567 -0.3696
 8411TIP3    H246649   4.184   0.121   2.469 -0.2694  1.6020 -1.4460
 8412TIP3   OH246650   6.339   1.048   1.526 -0.0168 -0.5329 -0.0997
 8412TIP3    H146651   6.404   1.016   1.463  0.5157  0.1889  0.0653
 8412TIP3    H246652   6.255   1.038   1.482  0.2718 -0.8134 -0.5955
 8413TIP3   OH246653   3.760   0.677   4.683 -0.3507  0.2808  0.0778
 8413TIP3    H146654   3.746   0.754   4.628  1.4866  0.5547 -0.0738
 8413TIP3    H246655   3.744   0.603   4.624  1.9693  0.5670 -1.0348
 8414TIP3   OH246656   5.823   4.447  14.423 -0.1773 -0.4781  0.4114
 8414TIP3    H146657   5.753   4.383  14.427 -0.2595 -0.3094  2.1761
 8414TIP3    H246658   5.779   4.531  14.412 -0.0679 -0.6414 -1.9405
 8415TIP3   OH246659   1.930   4.504   5.203 -0.1890  0.2964 -0.0428
 8415TIP3    H146660   1.916   4.457   5.285  0.6015 -0.1674 -0.1594
 8415TIP3    H246661   1.861   4.471   5.145  0.7878 -1.3175 -0.3560
 8416TIP3   OH246662   2.180   2.079  16.487  0.8806 -0.7852  0.3440
 8416TIP3    H146663   2.270   2.077  16.519  0.7971  0.1653  0.6713
 8416TIP3    H246664   2.168   2.168  16.453 -0.7272  0.0301  2.7340
 8417TIP3   OH246665   6.210   5.498   1.227 -0.8522  0.0564  0.3558
 8417TIP3    H146666   6.119   5.493   1.198 -1.3598  2.9501  1.1093
 8417TIP3    H246667   6.205   5.529   1.317  0.8831 -0.1451  0.5565
 8418TIP3   OH246668   5.981   2.146   3.326 -0.0639  0.0261  0.9528
 8418TIP3    H146669   5.979   2.221   3.386  0.8861  0.9104 -0.0786
 8418TIP3    H246670   6.039   2.083   3.370 -0.6176  0.0052  1.6797
 8419TIP3   OH246671   4.822   5.844   4.982 -0.0401 -0.2374 -0.0584
 8419TIP3    H146672   4.788   5.933   4.977  0.2412 -0.1137  0.1987
 8419TIP3    H246673   4.819   5.823   5.075  2.5196  0.5450  0.2746
 8420TIP3   OH246674   6.810   5.376  11.789 -0.1174 -0.5690 -0.0858
 8420TIP3    H146675   6.822   5.465  11.821  0.5333 -1.0232  1.0176
 8420TIP3    H246676   6.893   5.332  11.810 -0.7526 -1.6551  0.2347
 8421TIP3   OH246677   3.807   4.079  16.789  0.2814 -0.1823 -0.6939
 8421TIP3    H146678   3.866   4.031  16.847 -1.9704 -0.6683  1.3562
 8421TIP3    H246679   3.807   4.169  16.824 -0.3206 -0.2342 -0.5519
 8422TIP3   OH246680   4.919   1.277  13.740 -0.1570 -0.1931  0.2842
 8422TIP3    H146681   4.943   1.340  13.672  1.1416  0.7603  1.5743
 8422TIP3    H246682   4.854   1.322  13.794  0.9616  0.1743  1.3595
 8423TIP3   OH246683   5.562   1.728   6.361  0.0213 -0.5709 -0.4472
 8423TIP3    H146684   5.654   1.747   6.379 -0.4269  0.9095  0.5187
 8423TIP3    H246685   5.536   1.793   6.296 -0.5916 -0.2688  0.0772
 8424TIP3   OH246686   3.260   4.194  12.101 -0.4031 -0.2582  0.0589
 8424TIP3    H146687   3.319   4.169  12.030  0.1384 -3.5555  1.4635
 8424TIP3    H246688   3.317   4.237  12.165 -0.5241  0.9909 -0.6551
 8425TIP3   OH246689   4.289   0.472   5.330  0.7412 -0.0288  0.2032
 8425TIP3    H146690   4.314   0.553   5.287 -0.9075  0.2189 -0.3402
 8425TIP3    H246691   4.199   0.456   5.303 -0.1776 -0.2170  3.0366
 8426TIP3   OH246692   3.068   1.348  13.652 -0.1036 -0.1905  0.4797
 8426TIP3    H146693   3.124   1.425  13.658 -0.7707  0.9154 -3.8290
 8426TIP3    H246694   2.986   1.382  13.617 -0.6210 -2.7521 -0.9934
 8427TIP3   OH246695   0.583   5.306  14.670  0.8454 -0.3877 -0.0999
 8427TIP3    H146696   0.656   5.359  14.637 -2.2047  3.7813 -0.9129
 8427TIP3    H246697   0.568   5.241  14.601  3.1914 -0.9054 -0.2306
 8428TIP3   OH246698   1.356   0.115  14.855 -0.1953  0.9807 -0.2552
 8428TIP3    H146699   1.441   0.084  14.827  0.1511  2.3046 -0.7537
 8428TIP3    H246700   1.348   0.202  14.816 -1.9873  0.6883 -0.6316
 8429TIP3   OH246701   6.752   6.744   1.359  0.4160 -0.3376  0.0901
 8429TIP3    H146702   6.761   6.683   1.285  0.2165 -1.7996  1.2114
 8429TIP3    H246703   6.794   6.699   1.432  1.4660  1.4963  0.6641
 8430TIP3   OH246704   5.905   5.764   0.827 -0.6578  0.4319  0.2677
 8430TIP3    H146705   5.899   5.825   0.900  1.0590  0.3389  0.5112
 8430TIP3    H246706   5.951   5.812   0.759 -1.9286  0.3940 -0.6701
 8431TIP3   OH246707   2.274   4.847   4.053 -0.3144 -0.3767 -0.2351
 8431TIP3    H146708   2.222   4.837   4.133 -0.5905  1.7460 -0.1119
 8431TIP3    H246709   2.215   4.888   3.990  0.2032 -1.1131 -1.2414
 8432TIP3   OH246710   6.135   2.097   2.885  0.2133  0.1567  0.4390
 8432TIP3    H146711   6.185   2.022   2.853  1.9911 -0.1982  3.6488
 8432TIP3    H246712   6.089   2.065   2.962  0.9683  2.2739  1.8695
 8433TIP3   OH246713   5.191   4.816  14.401  0.0869  0.2633  0.7367
 8433TIP3    H146714   5.151   4.735  14.434 -0.7865  0.0233 -0.8084
 8433TIP3    H246715   5.210   4.866  14.480 -1.2676 -0.5709  1.6529
 8434TIP3   OH246716   5.351   5.223   6.894  0.7144 -0.0569 -1.1252
 8434TIP3    H146717   5.422   5.188   6.841  2.2244 -1.6381  1.6892
 8434TIP3    H246718   5.394   5.285   6.953  0.2919 -2.4022  1.8896
 8435TIP3   OH246719   5.540   5.199   1.705  0.4583  0.0877 -0.2825
 8435TIP3    H146720   5.469   5.193   1.770 -0.9304 -1.1023 -1.8089
 8435TIP3    H246721   5.521   5.280   1.657 -0.1280 -0.4194 -0.9322
 8436TIP3   OH246722   5.414   1.898  12.156  0.2920 -1.0328  0.0544
 8436TIP3    H146723   5.465   1.838  12.210  1.5353 -1.8890 -1.9265
 8436TIP3    H246724   5.442   1.985  12.184 -0.6296 -1.3572  2.1359
 8437TIP3   OH246725   2.082   4.594   3.503 -0.0205 -0.8266  0.0525
 8437TIP3    H146726   2.083   4.647   3.424  1.2677  1.3570  1.4069
 8437TIP3    H246727   2.168   4.608   3.542 -1.3002 -0.0377  2.8887
 8438TIP3   OH246728   0.051   1.478   0.083  0.6640  0.2283 -0.4630
 8438TIP3    H146729   0.069   1.454   0.173  0.2543  1.7218  0.0414
 8438TIP3    H246730   0.065   1.573   0.080 -1.9696  0.6685 -1.2713
 8439TIP3   OH246731   5.446   0.514   1.191  0.2888 -0.3729  0.6364
 8439TIP3    H146732   5.453   0.470   1.107 -1.3819 -1.4960  1.0364
 8439TIP3    H246733   5.356   0.546   1.194  0.5718  0.3656  1.6529
 8440TIP3   OH246734   3.873   5.371   2.307 -0.4830 -0.2177  0.0459
 8440TIP3    H146735   3.874   5.394   2.400  0.0469  0.1051 -0.0390
 8440TIP3    H246736   3.825   5.443   2.265 -1.4188 -0.7544  0.1649
 8441TIP3   OH246737   0.567   5.838   3.829  0.2948  0.4707  0.4703
 8441TIP3    H146738   0.540   5.910   3.772 -3.2080  0.2780  1.6166
 8441TIP3    H246739   0.607   5.880   3.904  0.3024  1.0671  0.1375
 8442TIP3   OH246740   1.169   1.272   5.491  0.0423  0.6527 -0.6023
 8442TIP3    H146741   1.077   1.244   5.487 -0.0846  1.1386 -1.3029
 8442TIP3    H246742   1.187   1.306   5.404 -0.4681  4.7203  0.6758
 8443TIP3   OH246743   3.896   4.569   3.358  0.2226  0.2130 -0.1009
 8443TIP3    H146744   3.823   4.506   3.355  2.1524 -2.1383 -2.0102
 8443TIP3    H246745   3.941   4.549   3.440 -0.0524  0.1797  0.0446
 8444TIP3   OH246746   0.511   1.661   5.330  0.0476  0.6360 -0.2042
 8444TIP3    H146747   0.462   1.585   5.361 -0.7991  0.8295 -1.0276
 8444TIP3    H246748   0.602   1.631   5.325 -0.3903 -0.5823 -1.2759
 8445TIP3   OH246749   4.024   3.814  13.511  0.0230 -0.1044  0.5589
 8445TIP3    H146750   4.027   3.834  13.417  0.7123 -0.4457  0.5038
 8445TIP3    H246751   3.955   3.871  13.545 -0.5684 -0.3152 -0.2394
 8446TIP3   OH246752   4.705   5.096   1.429 -0.1315 -0.3339  0.0279
 8446TIP3    H146753   4.672   5.152   1.358  2.0926 -0.3274 -1.1064
 8446TIP3    H246754   4.664   5.011   1.414 -0.6332  0.0016 -0.5388
 8447TIP3   OH246755   4.223   3.158  15.326  0.3865  0.1035 -0.0460
 8447TIP3    H146756   4.185   3.226  15.381 -1.4078  0.3684 -1.4874
 8447TIP3    H246757   4.315   3.154  15.351 -0.4863 -0.5019  3.6290
 8448TIP3   OH246758   3.581   0.551   0.300  0.1535 -0.5434 -0.2853
 8448TIP3    H146759   3.642   0.494   0.252 -0.1464 -0.2598 -1.0188
 8448TIP3    H246760   3.512   0.492   0.331 -0.2766 -0.5561 -1.2417
 8449TIP3   OH246761   4.761   6.546  13.386 -0.4690  0.2479 -0.0035
 8449TIP3    H146762   4.804   6.631  13.388 -1.4943  0.8005 -0.3827
 8449TIP3    H246763   4.672   6.565  13.356 -0.3261 -1.1232 -1.4418
 8450TIP3   OH246764   1.505   4.320  13.146  0.4566 -0.0834  0.2389
 8450TIP3    H146765   1.483   4.231  13.172 -1.1708  0.8940  2.5887
 8450TIP3    H246766   1.470   4.329  13.058 -0.2799 -1.4620  0.3665
 8451TIP3   OH246767   4.594   3.335   1.456  0.0009 -0.0524  0.3233
 8451TIP3    H146768   4.636   3.352   1.371  0.0326  1.5370  0.6118
 8451TIP3    H246769   4.536   3.410   1.468 -0.9127 -0.8801  1.1609
 8452TIP3   OH246770   5.105   5.201   0.372  0.1326  0.0209  0.5148
 8452TIP3    H146771   5.191   5.230   0.341  0.6267  0.6155  2.3422
 8452TIP3    H246772   5.049   5.278   0.362 -0.0373 -0.1687 -0.0470
 8453TIP3   OH246773   1.904   4.738  14.784  0.6458 -0.4744  0.2568
 8453TIP3    H146774   1.897   4.691  14.701 -2.0385  0.0427  0.0945
 8453TIP3    H246775   1.844   4.692  14.843 -0.8285  1.6954  0.5623
 8454TIP3   OH246776   5.646   0.940  12.379 -0.6805 -0.2906 -0.1025
 8454TIP3    H146777   5.589   1.016  12.363 -1.0147 -0.4862  0.1458
 8454TIP3    H246778   5.720   0.953  12.320 -0.5695  0.4044  0.1742
 8455TIP3   OH246779   0.719   5.449  13.235  0.4274  0.6086  0.3335
 8455TIP3    H146780   0.813   5.441  13.249  0.3785 -0.3485  0.1419
 8455TIP3    H246781   0.711   5.502  13.156  0.7780  1.3122  0.7491
 8456TIP3   OH246782   2.464   1.551   1.375  0.6468 -0.8474 -0.2156
 8456TIP3    H146783   2.439   1.578   1.287 -1.9220 -2.0509  0.0425
 8456TIP3    H246784   2.430   1.620   1.432  2.0030 -0.2403 -0.1086
 8457TIP3   OH246785   0.658   4.596  10.830 -0.5215 -0.7207 -0.4370
 8457TIP3    H146786   0.650   4.627  10.740 -0.4584 -0.6718 -0.4252
 8457TIP3    H246787   0.747   4.562  10.837 -1.2317 -2.9088 -1.0933
 8458TIP3   OH246788   1.546   6.376   1.494  0.3852 -0.2587 -0.2641
 8458TIP3    H146789   1.599   6.455   1.483  1.4466 -0.7558  0.9990
 8458TIP3    H246790   1.462   6.398   1.454  0.4583  1.7267  0.5626
 8459TIP3   OH246791   4.324   2.304  11.719  0.4727  0.0420  0.4123
 8459TIP3    H146792   4.402   2.306  11.774  0.1377  1.9967  0.8693
 8459TIP3    H246793   4.349   2.353  11.640  0.4397 -1.3874 -0.5436
 8460TIP3   OH246794   4.392   5.913   0.233  0.5946 -0.1453  0.1293
 8460TIP3    H146795   4.345   5.987   0.272  1.3783 -0.1790  1.1709
 8460TIP3    H246796   4.381   5.924   0.139  0.0414  0.8592  0.3035
 8461TIP3   OH246797   6.205   5.470  12.872 -0.1261  0.0298 -0.5608
 8461TIP3    H146798   6.113   5.457  12.897 -0.6289 -2.0305 -3.0896
 8461TIP3    H246799   6.221   5.564  12.887 -2.2976  0.2443  0.8708
 8462TIP3   OH246800   5.808   0.313   4.110  0.4052 -0.7634  0.5236
 8462TIP3    H146801   5.774   0.253   4.176 -1.5914 -0.1581  0.1156
 8462TIP3    H246802   5.785   0.400   4.143 -0.7693 -0.4536 -0.9815
 8463TIP3   OH246803   6.015   6.545  13.050 -0.1667  0.1560  0.6270
 8463TIP3    H146804   6.068   6.623  13.067  0.3805  0.0213 -0.4153
 8463TIP3    H246805   6.047   6.511  12.967 -1.3008 -0.4300  0.4021
 8464TIP3   OH246806   0.795   1.659  13.921  0.1252 -0.4575  0.5762
 8464TIP3    H146807   0.721   1.641  13.863  0.7698 -1.0989 -0.0698
 8464TIP3    H246808   0.828   1.744  13.893  1.5852 -1.5667 -1.2932
 8465TIP3   OH246809   4.458   0.042  11.994 -0.3910 -0.1260 -0.1505
 8465TIP3    H146810   4.531  -0.018  11.977 -0.9310 -0.4795 -1.2916
 8465TIP3    H246811   4.404  -0.004  12.058  1.0198  0.6888  1.7247
 8466TIP3   OH246812   1.162   2.811   2.941 -0.1487 -0.3823 -0.0073
 8466TIP3    H146813   1.245   2.859   2.938 -0.0167 -0.6478 -0.6611
 8466TIP3    H246814   1.094   2.878   2.931 -0.0045 -0.2156  0.1203
 8467TIP3   OH246815   3.376   3.584  13.954 -0.5099 -0.3733 -0.0124
 8467TIP3    H146816   3.459   3.630  13.960 -0.9156  0.6773 -1.7781
 8467TIP3    H246817   3.313   3.650  13.924 -1.4503 -1.6893 -1.0929
 8468TIP3   OH246818   5.449   3.794  13.215  0.8140 -0.4277 -0.4474
 8468TIP3    H146819   5.394   3.866  13.185  0.5875 -0.9521 -1.3368
 8468TIP3    H246820   5.521   3.837  13.261 -0.1653  0.2728  0.4649
 8469TIP3   OH246821   0.355   2.679   0.574  0.4373 -0.2623  0.0574
 8469TIP3    H146822   0.450   2.670   0.561  0.9868  1.4835  2.3395
 8469TIP3    H246823   0.326   2.591   0.598  1.2094 -1.1019 -1.8394
 8470TIP3   OH246824   4.426   5.098   4.092  1.0550 -0.7292  0.3181
 8470TIP3    H146825   4.380   5.038   4.033  1.0310 -0.5575  0.1637
 8470TIP3    H246826   4.492   5.140   4.038 -1.3448  2.2037 -0.5748
 8471TIP3   OH246827   4.899   4.213   0.866 -0.1179  0.1311 -0.1649
 8471TIP3    H146828   4.893   4.204   0.961  1.1590  1.7855  0.1217
 8471TIP3    H246829   4.815   4.250   0.839 -1.3613 -2.3652 -0.0432
 8472TIP3   OH246830   5.118   3.715  10.707  0.7599 -0.6799  0.0921
 8472TIP3    H146831   5.145   3.642  10.763  2.0143 -0.3164 -0.0149
 8472TIP3    H246832   5.186   3.721  10.640  1.4759  1.4757  0.9165
 8473TIP3   OH246833   4.692   5.094  12.900 -0.8000 -0.8305 -0.1410
 8473TIP3    H146834   4.764   5.092  12.963 -0.2117 -1.4837 -0.7964
 8473TIP3    H246835   4.731   5.134  12.822 -0.4416 -3.1807 -1.2592
 8474TIP3   OH246836   0.947   2.522  11.938 -0.4540 -0.4427 -0.1667
 8474TIP3    H146837   0.901   2.577  11.874 -0.6038 -0.7768 -0.3482
 8474TIP3    H246838   1.039   2.544  11.926 -0.5417  0.0777  0.0547
 8475TIP3   OH246839   4.160   1.697   1.761  0.1322 -0.0746  0.2326
 8475TIP3    H146840   4.098   1.756   1.718  0.2554 -0.1075  0.0059
 8475TIP3    H246841   4.133   1.696   1.853 -1.4556 -1.6380 -0.1981
 8476TIP3   OH246842   0.578   0.083   5.373  0.1262 -0.1070 -0.0466
 8476TIP3    H146843   0.561   0.072   5.467  0.0711  0.8284  0.0619
 8476TIP3    H246844   0.590   0.178   5.362 -2.1788  0.1065 -1.3769
 8477TIP3   OH246845   5.583   6.077  12.276 -0.0335 -0.2580  0.7522
 8477TIP3    H146846   5.540   6.123  12.348  2.4333  0.0749  2.1478
 8477TIP3    H246847   5.600   5.990  12.311 -1.6351 -1.1832 -0.6531
 8478TIP3   OH246848   2.695   3.050   4.563  0.0991  0.5768 -0.0924
 8478TIP3    H146849   2.645   3.128   4.586 -1.9003 -1.0070  1.3026
 8478TIP3    H246850   2.772   3.053   4.620  0.2797  1.7359 -0.3756
 8479TIP3   OH246851   6.711   2.461  11.963 -0.3234  0.3256 -0.2857
 8479TIP3    H146852   6.757   2.464  12.047  0.5513  0.0460 -0.7425
 8479TIP3    H246853   6.683   2.370  11.953  0.4439  0.1289 -0.7414
 8480TIP3   OH246854   0.161   1.798   2.496 -0.0136  0.2593  0.0959
 8480TIP3    H146855   0.146   1.731   2.431 -1.9782  0.8332 -0.1194
 8480TIP3    H246856   0.188   1.875   2.446 -1.4089  0.6668 -0.0616
 8481TIP3   OH246857   6.101   1.503   0.498  0.2812  0.0659 -0.0042
 8481TIP3    H146858   6.160   1.550   0.439  0.5539 -2.3131 -1.7592
 8481TIP3    H246859   6.045   1.451   0.440 -0.5321 -1.1455  1.7704
 8482TIP3   OH246860   4.167   3.869   3.922  0.4266 -0.4732 -0.2246
 8482TIP3    H146861   4.165   3.808   3.996 -0.4516  0.2338  0.3450
 8482TIP3    H246862   4.234   3.833   3.864  2.0116 -0.4001  1.4588
 8483TIP3   OH246863   1.617   0.212  15.285 -0.4596  0.1824  0.3176
 8483TIP3    H146864   1.634   0.118  15.283 -0.9096  0.1109 -0.6004
 8483TIP3    H246865   1.538   0.224  15.231 -0.3106  1.1021  0.2795
 8484TIP3   OH246866   1.670   5.586  14.800  0.5167 -0.0707 -0.0909
 8484TIP3    H146867   1.706   5.674  14.813  1.0804 -0.2907 -0.1138
 8484TIP3    H246868   1.575   5.599  14.795  0.4619  0.3466  1.4836
 8485TIP3   OH246869   3.642   2.864   2.504 -0.4518 -0.9004  0.1657
 8485TIP3    H146870   3.627   2.795   2.568 -0.5190 -0.9053  0.1448
 8485TIP3    H246871   3.735   2.883   2.510 -0.3092 -1.4370 -0.2782
 8486TIP3   OH246872   0.911   4.924  13.263 -0.1305  0.4578  0.0783
 8486TIP3    H146873   0.906   4.917  13.168  0.6187  1.0808 -0.0209
 8486TIP3    H246874   0.952   4.842  13.291  1.0711  0.9036 -0.2961
 8487TIP3   OH246875   4.706   3.279   0.157  0.1255 -0.2488  0.4109
 8487TIP3    H146876   4.749   3.348   0.206  0.7210  1.1891 -1.9492
 8487TIP3    H246877   4.632   3.322   0.114 -0.0335 -1.2632 -0.3931
 8488TIP3   OH246878   0.967   0.538  14.168 -0.6300  0.5205 -0.0158
 8488TIP3    H146879   0.971   0.443  14.179  0.3347  0.5965  0.3503
 8488TIP3    H246880   0.895   0.551  14.105  1.3104 -0.6794 -2.6720
 8489TIP3   OH246881   2.124   0.412   5.772 -0.5542 -0.7524 -0.2157
 8489TIP3    H146882   2.216   0.389   5.770  0.0229  1.1905  0.6763
 8489TIP3    H246883   2.116   0.485   5.710 -1.3165 -0.4438  0.2286
 8490TIP3   OH246884   0.162   1.828   3.863  0.6846  0.3513 -0.2501
 8490TIP3    H146885   0.137   1.847   3.772 -1.0259  2.1819  0.5161
 8490TIP3    H246886   0.090   1.775   3.897 -0.1828  2.0882  0.7856
 8491TIP3   OH246887   2.562   2.881  13.020  0.1178 -0.1825  0.3083
 8491TIP3    H146888   2.612   2.887  12.938 -0.5029  1.8617  0.0178
 8491TIP3    H246889   2.524   2.968  13.031 -1.5477 -1.0320  1.6959
 8492TIP3   OH246890   4.989   5.899   5.607 -0.2766  0.0911 -0.0216
 8492TIP3    H146891   4.973   5.883   5.514 -0.3956 -0.2263  0.0529
 8492TIP3    H246892   4.902   5.916   5.644 -0.0393  2.3801 -0.3609
 8493TIP3   OH246893   4.171   5.645   2.147 -0.1026 -0.4037  0.1452
 8493TIP3    H146894   4.195   5.582   2.214 -0.6965 -1.9440 -1.0400
 8493TIP3    H246895   4.243   5.709   2.148 -0.2495 -0.1899  2.4168
 8494TIP3   OH246896   5.948   4.145  14.957  0.0061  0.5227  0.3413
 8494TIP3    H146897   5.888   4.184  14.893  0.5541 -2.4182 -2.2333
 8494TIP3    H246898   6.025   4.121  14.906  0.9983 -0.9421  2.3652
 8495TIP3   OH246899   3.230   3.154  11.771  0.4793 -0.5251 -0.3474
 8495TIP3    H146900   3.267   3.149  11.683  0.3479 -0.6356 -0.3978
 8495TIP3    H246901   3.150   3.102  11.766 -0.0294  0.2498 -0.4102
 8496TIP3   OH246902   3.313   0.340   6.327  0.2793  0.0559  0.1894
 8496TIP3    H146903   3.317   0.431   6.358 -1.3572  0.5666 -0.9728
 8496TIP3    H246904   3.255   0.296   6.389 -0.2429  0.2168 -0.1844
 8497TIP3   OH246905   1.713   2.307  10.854  0.1920 -0.2468  0.4250
 8497TIP3    H146906   1.712   2.250  10.777  1.0800 -0.0748  0.2745
 8497TIP3    H246907   1.659   2.382  10.829 -1.3343 -1.1900  0.7789
 8498TIP3   OH246908   5.232   0.265   2.228  0.0295 -0.3103  0.2802
 8498TIP3    H146909   5.277   0.222   2.300 -1.2447 -1.1797  0.5778
 8498TIP3    H246910   5.167   0.202   2.197 -1.3653  1.0719  0.2208
 8499TIP3   OH246911   3.285   5.041  13.642 -0.6879 -0.5793 -0.2680
 8499TIP3    H146912   3.194   5.040  13.672 -0.2368  0.9040  1.3049
 8499TIP3    H246913   3.282   5.003  13.555 -2.6914 -1.3168  0.0722
 8500TIP3   OH246914   2.194   3.629  15.193  0.2881 -0.3131 -0.1671
 8500TIP3    H146915   2.239   3.572  15.256 -0.8991 -0.4922  0.5467
 8500TIP3    H246916   2.264   3.664  15.138  1.3090 -0.4902  0.9793
 8501TIP3   OH246917   3.207   2.214   2.632  0.3303  0.3643  0.0652
 8501TIP3    H146918   3.271   2.150   2.661  1.2688  1.6619  0.9847
 8501TIP3    H246919   3.224   2.225   2.538  1.9686  1.1806  0.4160
 8502TIP3   OH246920   6.011   4.959   0.428 -0.3126  0.4810 -0.6717
 8502TIP3    H146921   5.988   5.002   0.510 -1.0461  2.1979 -1.7259
 8502TIP3    H246922   5.963   4.877   0.429  0.4596  0.0099  1.0249
 8503TIP3   OH246923   1.528   5.020   2.801  0.0284  0.0655  0.1407
 8503TIP3    H146924   1.519   4.930   2.832  1.4175  0.1719  0.9539
 8503TIP3    H246925   1.525   5.013   2.706  0.0044 -0.8278  0.1987
 8504TIP3   OH246926   2.572   1.488   0.355 -0.5204  0.2810 -0.0575
 8504TIP3    H146927   2.599   1.417   0.414  0.1102 -1.4935 -2.3190
 8504TIP3    H246928   2.533   1.554   0.412  2.1019 -0.2722  2.5744
 8505TIP3   OH246929   3.963   4.235   2.798 -0.2771 -0.4648  0.3425
 8505TIP3    H146930   3.972   4.330   2.807 -0.6977 -0.3935  0.0166
 8505TIP3    H246931   3.869   4.221   2.786 -0.5026 -1.0823  2.3725
 8506TIP3   OH246932   3.202   4.599   1.688 -0.0846 -0.3818 -0.0725
 8506TIP3    H146933   3.122   4.604   1.635  1.5220 -0.5791 -2.6786
 8506TIP3    H246934   3.203   4.681   1.737 -0.1247  1.3988 -2.8187
 8507TIP3   OH246935   0.388   5.588  15.350 -0.0294  0.0842 -0.1700
 8507TIP3    H146936   0.392   5.577  15.255  0.1946  0.7225 -0.2395
 8507TIP3    H246937   0.477   5.612  15.375  0.0379 -0.6151  0.2744
 8508TIP3   OH246938   2.593   1.861  13.192 -0.5034  0.0718  0.2195
 8508TIP3    H146939   2.541   1.853  13.111 -0.1718  1.0618 -0.1035
 8508TIP3    H246940   2.591   1.773  13.230  0.2731 -0.7153 -1.4436
 8509TIP3   OH246941   2.817   6.500   3.904  0.1421 -0.7436  0.1207
 8509TIP3    H146942   2.877   6.558   3.858 -0.3845 -0.7782 -0.6400
 8509TIP3    H246943   2.737   6.552   3.914 -0.7361 -1.6601 -1.5754
 8510TIP3   OH246944   4.765   3.965   1.815 -0.5884  0.0587  0.1179
 8510TIP3    H146945   4.723   4.050   1.797  1.2234  1.0435  0.2615
 8510TIP3    H246946   4.694   3.901   1.807 -1.6654  1.3702 -1.8725
 8511TIP3   OH246947   2.120   2.289   1.889  0.0510  0.3023  0.4462
 8511TIP3    H146948   2.068   2.208   1.886  0.9491 -0.2751 -2.0157
 8511TIP3    H246949   2.062   2.355   1.851  0.4789  0.0460 -0.6741
 8512TIP3   OH246950   5.456   2.925  11.650  0.4480 -0.2923  0.8852
 8512TIP3    H146951   5.382   2.919  11.710 -0.0331 -1.8043  0.1979
 8512TIP3    H246952   5.428   2.876  11.573  1.0106  1.6508 -0.6478
 8513TIP3   OH246953   1.656   0.452   0.382  0.4405 -0.1373 -0.2518
 8513TIP3    H146954   1.579   0.418   0.336  1.1246 -0.2431 -1.3415
 8513TIP3    H246955   1.718   0.379   0.381  0.5700 -0.0489  0.6185
 8514TIP3   OH246956   3.071   6.398  14.332 -0.1840  0.1209  0.3093
 8514TIP3    H146957   3.145   6.385  14.273 -0.8742 -0.1589 -0.5253
 8514TIP3    H246958   3.055   6.311  14.370  0.6020  0.4117  1.3541
 8515TIP3   OH246959   3.494   4.259   1.606  0.2960 -0.1234 -0.2318
 8515TIP3    H146960   3.500   4.219   1.692 -1.8244  0.0189  0.0320
 8515TIP3    H246961   3.555   4.208   1.552 -0.7414 -2.3853  0.5807
 8516TIP3   OH246962   3.802   0.994  15.239  0.3083  0.0372 -0.0038
 8516TIP3    H146963   3.735   0.929  15.257  0.2517  0.6336  2.1470
 8516TIP3    H246964   3.885   0.949  15.256  0.3581  0.0181 -0.2816
 8517TIP3   OH246965   1.110   0.618  16.998 -1.1322  0.5663 -0.1935
 8517TIP3    H146966   1.180   0.673  16.963 -2.1757  2.5199  0.6293
 8517TIP3    H246967   1.076   0.667  17.073 -1.3710 -1.7718  1.3462
 8518TIP3   OH246968   0.023   3.813  11.728  1.0224 -0.1167  0.1374
 8518TIP3    H146969  -0.041   3.862  11.677  0.3670 -0.3806  0.6905
 8518TIP3    H246970   0.092   3.790  11.665 -0.0989 -1.0407 -0.7885
 8519TIP3   OH246971   0.822   0.048  11.782  0.0068 -0.4545 -0.4577
 8519TIP3    H146972   0.903   0.084  11.747  0.3191  0.3460  1.0020
 8519TIP3    H246973   0.806  -0.031  11.731  1.2454 -0.1628 -1.3263
 8520TIP3   OH246974   3.519   0.027  11.585  0.1256  0.0009  0.1906
 8520TIP3    H146975   3.527   0.108  11.634  0.0153  0.3016 -0.2801
 8520TIP3    H246976   3.608  -0.004  11.575  0.3149  0.8120 -0.8498
 8521TIP3   OH246977   1.545   0.798  15.683 -0.1638  0.0969  0.2607
 8521TIP3    H146978   1.602   0.859  15.636 -0.2851  0.9931  1.2390
 8521TIP3    H246979   1.472   0.852  15.713  0.1786 -0.3151  1.9350
 8522TIP3   OH246980   2.944   6.487  12.881 -0.3138 -0.5980 -0.2386
 8522TIP3    H146981   2.927   6.569  12.928  0.7922 -0.7330  0.4416
 8522TIP3    H246982   2.972   6.427  12.950  0.9899 -0.9131 -1.0269
 8523TIP3   OH246983   3.628   4.024   5.256 -0.2327 -0.2830 -0.4060
 8523TIP3    H146984   3.574   3.947   5.274 -0.7808  0.1361 -0.2222
 8523TIP3    H246985   3.685   4.032   5.332 -0.7331 -0.0424 -0.0522
 8524TIP3   OH246986   6.476   3.171  14.235 -0.2707 -0.0737 -0.1594
 8524TIP3    H146987   6.568   3.155  14.257  0.1453  0.1345 -1.6188
 8524TIP3    H246988   6.477   3.252  14.185 -1.4178  0.5631  0.7973
 8525TIP3   OH246989   6.319   1.246  14.577  0.3790  0.8182  0.0621
 8525TIP3    H146990   6.348   1.201  14.498  0.0878 -1.6002  1.2387
 8525TIP3    H246991   6.399   1.259  14.628  0.4841  1.8159 -0.3445
 8526TIP3   OH246992   5.993   5.822   3.620  0.2801 -0.0272  0.1786
 8526TIP3    H146993   6.005   5.728   3.605 -0.4595 -0.0058 -0.6334
 8526TIP3    H246994   6.004   5.861   3.534  0.8736  0.6789  0.5627
 8527TIP3   OH246995   3.652   4.263   6.266 -0.2667 -0.1958 -0.3501
 8527TIP3    H146996   3.698   4.243   6.348  0.3264  1.3320 -0.2641
 8527TIP3    H246997   3.569   4.300   6.294  0.5456  1.7765 -0.3257
 8528TIP3   OH246998   0.226   1.233  10.627 -0.2428 -1.0832  0.3348
 8528TIP3    H146999   0.223   1.141  10.655 -3.4471 -0.9393  0.7841
 8528TIP3    H247000   0.175   1.235  10.547 -0.8666  0.4228  0.7394
 8529TIP3   OH247001   5.035   5.097  11.282 -0.3795  0.4622  0.4990
 8529TIP3    H147002   4.955   5.146  11.267 -1.3802 -1.1640  0.3317
 8529TIP3    H247003   5.052   5.052  11.199 -0.2687 -0.5437  1.0488
 8530TIP3   OH247004   2.728   0.070   2.688  0.3467  0.2507 -0.1599
 8530TIP3    H147005   2.772   0.150   2.659 -0.2411  0.6708  0.0805
 8530TIP3    H247006   2.674   0.098   2.762  0.9869 -0.5921  0.6518
 8531TIP3   OH247007   2.730   4.226  16.712  0.1987  0.5681 -0.5635
 8531TIP3    H147008   2.703   4.197  16.625 -1.4200  2.5341 -0.7971
 8531TIP3    H247009   2.825   4.225  16.709  0.1827  1.0482 -2.5338
 8532TIP3   OH247010   2.286   5.387  15.150 -1.0305 -0.3520 -0.0971
 8532TIP3    H147011   2.318   5.371  15.061 -1.8464 -3.0339  0.0023
 8532TIP3    H247012   2.201   5.431  15.138 -0.5220  0.5202 -0.5708
 8533TIP3   OH247013   6.000   0.568   0.662  0.4388 -0.6605 -0.3582
 8533TIP3    H147014   6.055   0.641   0.634  4.0713 -3.1377 -0.3250
 8533TIP3    H247015   6.021   0.555   0.754 -1.2440 -0.8980  0.0261
 8534TIP3   OH247016   1.770   5.650  13.207 -0.0379  0.5875 -0.5883
 8534TIP3    H147017   1.783   5.623  13.116  1.4326  1.7118 -0.7492
 8534TIP3    H247018   1.859   5.663  13.241 -0.5955  1.5664  0.5691
 8535TIP3   OH247019   4.560   1.559  12.921 -0.5432 -0.0117  0.5958
 8535TIP3    H147020   4.495   1.498  12.885 -0.4291 -0.6421  1.4189
 8535TIP3    H247021   4.611   1.505  12.982 -1.0424  1.1149  2.0703
 8536TIP3   OH247022   2.370   0.805   3.093  0.3835  0.1067 -0.0377
 8536TIP3    H147023   2.464   0.822   3.093  0.4189 -0.0421  0.5345
 8536TIP3    H247024   2.329   0.890   3.077  0.6182  0.1554 -0.3743
 8537TIP3   OH247025   0.582   5.693   2.071 -0.2385  0.1296  0.7001
 8537TIP3    H147026   0.535   5.765   2.029 -2.3812 -0.7102  1.5080
 8537TIP3    H247027   0.635   5.654   2.001 -2.4300 -0.2188 -0.8706
 8538TIP3   OH247028   1.015   4.655  13.363  0.4688 -0.1802 -0.1513
 8538TIP3    H147029   1.081   4.639  13.295  0.9621 -0.9725  0.4995
 8538TIP3    H247030   0.984   4.568  13.387  0.5355  0.0690  0.8627
 8539TIP3   OH247031   6.024   1.622   3.970 -0.2245  0.2766  0.5276
 8539TIP3    H147032   6.057   1.711   3.980  2.2017 -0.1737 -2.1008
 8539TIP3    H247033   5.944   1.633   3.918 -0.0069  0.9383  0.3159
 8540TIP3   OH247034   1.411   4.202   3.554  0.1807 -0.4757  0.1954
 8540TIP3    H147035   1.411   4.107   3.539  2.1902 -0.7764  1.6676
 8540TIP3    H247036   1.406   4.211   3.649  1.5494  0.8167  0.1754
 8541TIP3   OH247037   0.250   0.222   5.475  0.0344 -0.0504  0.1033
 8541TIP3    H147038   0.177   0.277   5.449  0.3796  0.5766  0.4237
 8541TIP3    H247039   0.220   0.177   5.554  0.3397  0.9774  0.8225
 8542TIP3   OH247040   0.599   6.597   5.592 -0.4612 -0.9300  0.2147
 8542TIP3    H147041   0.648   6.516   5.578 -0.3546 -0.5206 -2.0676
 8542TIP3    H247042   0.665   6.666   5.590 -0.9323 -0.4954 -1.5093
 8543TIP3   OH247043   2.042   4.640  14.195 -0.0745 -0.2723 -0.6412
 8543TIP3    H147044   2.008   4.555  14.223  0.6297 -0.8610 -1.5190
 8543TIP3    H247045   2.127   4.647  14.239 -0.4981  0.3675  0.0937
 8544TIP3   OH247046   1.829   0.129   3.866 -0.2411 -0.0878  0.4558
 8544TIP3    H147047   1.756   0.084   3.822  1.0918 -0.6424 -1.3320
 8544TIP3    H247048   1.797   0.148   3.954 -2.4928 -0.3886 -0.2519
 8545TIP3   OH247049   1.507   3.338   4.744 -0.3480 -0.6348 -0.0513
 8545TIP3    H147050   1.556   3.317   4.665 -1.3506  0.1317 -0.8979
 8545TIP3    H247051   1.418   3.356   4.714 -1.0154 -1.3588  1.3802
 8546TIP3   OH247052   1.243   2.256  14.577  0.4942 -0.5122  0.5828
 8546TIP3    H147053   1.243   2.345  14.610 -3.0606  0.8120 -2.3646
 8546TIP3    H247054   1.330   2.222  14.600  2.4092  3.9904  0.9599
 8547TIP3   OH247055   2.062   4.565   4.089 -0.3988 -0.2661  0.0300
 8547TIP3    H147056   1.990   4.626   4.103 -0.9464 -0.8936  0.0279
 8547TIP3    H247057   2.095   4.585   4.001 -4.9182 -4.1689 -3.1053
 8548TIP3   OH247058   3.914   2.513   4.226  0.3522  0.0810 -0.0876
 8548TIP3    H147059   3.826   2.506   4.190 -0.2055  0.4910  1.1475
 8548TIP3    H247060   3.909   2.584   4.290  1.7035  0.4347 -0.3205
 8549TIP3   OH247061   2.560   2.644   2.253  0.2500  0.2747 -0.6626
 8549TIP3    H147062   2.553   2.677   2.343  0.1588  0.3322 -0.6903
 8549TIP3    H247063   2.629   2.578   2.257  1.1732  1.2128 -0.8256
 8550TIP3   OH247064   5.956   4.299   2.540 -0.7794  0.1782  0.2288
 8550TIP3    H147065   6.034   4.292   2.484 -0.5039 -1.5219  0.7537
 8550TIP3    H247066   5.918   4.384   2.518 -0.7621 -0.4668 -2.6574
 8551TIP3   OH247067   4.305   6.150   5.206  0.4219  0.0372 -0.0178
 8551TIP3    H147068   4.274   6.061   5.189  0.0735 -0.5137  2.9717
 8551TIP3    H247069   4.400   6.141   5.213  0.4477  0.0401 -0.3296
 8552TIP3   OH247070   1.415   3.303  15.734 -0.1244 -0.1402  0.7290
 8552TIP3    H147071   1.328   3.266  15.754 -0.2659 -2.0465 -2.6882
 8552TIP3    H247072   1.398   3.369  15.667  1.0156 -0.6715 -0.1218
 8553TIP3   OH247073   1.226   1.692   6.792 -0.3183 -0.2948 -0.4244
 8553TIP3    H147074   1.272   1.726   6.715 -0.2021  0.0678 -0.1955
 8553TIP3    H247075   1.222   1.766   6.852  1.5638 -1.1261  0.8276
 8554TIP3   OH247076   1.725   4.240  16.320 -0.0076 -0.0047 -0.2618
 8554TIP3    H147077   1.773   4.174  16.371  1.9358  1.0799 -0.5819
 8554TIP3    H247078   1.648   4.260  16.373  1.9494  1.1533  2.4405
 8555TIP3   OH247079   6.066   1.425  12.595  0.1653  0.1075 -0.0183
 8555TIP3    H147080   6.108   1.381  12.522  0.8605  0.7834 -0.0423
 8555TIP3    H247081   6.115   1.507  12.605  1.1749 -0.7034  2.2784
 8556TIP3   OH247082   2.028   0.647  12.341 -0.3307 -0.7660 -0.0269
 8556TIP3    H147083   2.038   0.676  12.250 -1.1940 -0.9271 -0.1787
 8556TIP3    H247084   2.113   0.610  12.364 -0.2227 -1.0564 -0.8876
 8557TIP3   OH247085   6.428   3.057  15.105 -0.4421 -0.0585 -0.5048
 8557TIP3    H147086   6.343   3.070  15.063 -0.1949 -1.5955 -1.5887
 8557TIP3    H247087   6.461   3.145  15.120 -2.3885  0.5957  0.3483
 8558TIP3   OH247088   3.847   2.854   4.878 -0.4616 -0.1872  0.2124
 8558TIP3    H147089   3.775   2.849   4.816 -0.8905 -1.7592  0.8057
 8558TIP3    H247090   3.822   2.925   4.938 -1.2272 -0.3404  0.0752
 8559TIP3   OH247091   5.522   6.208  12.919 -0.4598  0.0842 -0.2147
 8559TIP3    H147092   5.586   6.171  12.980 -1.6436 -1.4582  0.1466
 8559TIP3    H247093   5.569   6.280  12.876  0.3025  1.5459  2.7966
 8560TIP3   OH247094   5.485   5.867  16.620 -0.4237  0.2571 -0.0730
 8560TIP3    H147095   5.445   5.949  16.592 -2.7148 -0.7637  0.0256
 8560TIP3    H247096   5.442   5.799  16.567  0.5771 -1.0116  0.6619
 8561TIP3   OH247097   3.093   4.051   0.998  0.0423  0.3045  0.1304
 8561TIP3    H147098   3.071   4.036   1.089  0.2692  0.2326  0.1752
 8561TIP3    H247099   3.178   4.096   1.000 -1.1268  2.6776  0.0374
 8562TIP3   OH247100   0.435   0.131  14.203 -0.1449  0.1317 -0.4997
 8562TIP3    H147101   0.477   0.072  14.266 -1.7573  0.1420  0.6385
 8562TIP3    H247102   0.484   0.213  14.213 -0.5446  0.2242  1.0000
 8563TIP3   OH247103   4.331   0.020   5.568 -0.2115 -0.0745  0.5426
 8563TIP3    H147104   4.275  -0.044   5.525 -2.2383  0.2145  2.5645
 8563TIP3    H247105   4.287   0.104   5.553  0.4014  0.3464  1.0560
 8564TIP3   OH247106   5.709   0.534   5.229  0.6991  0.1400  0.3695
 8564TIP3    H147107   5.639   0.552   5.292  1.1231  0.7358  0.6838
 8564TIP3    H247108   5.665   0.536   5.144  0.2265 -0.0860  0.6016
 8565TIP3   OH247109   5.271   1.038  15.870 -0.4561  0.2535 -0.2125
 8565TIP3    H147110   5.196   1.045  15.929 -1.3230 -0.6571 -1.1604
 8565TIP3    H247111   5.234   1.006  15.788  0.9755 -0.2470 -0.6945
 8566TIP3   OH247112   6.086   3.978   2.013 -0.2724  0.6418 -0.2006
 8566TIP3    H147113   6.027   3.937   2.077  0.6617  0.0049  0.2748
 8566TIP3    H247114   6.062   3.938   1.930  0.9374 -1.3171  0.3189
 8567TIP3   OH247115   4.448   5.939  13.172 -0.1370 -0.1264  0.0352
 8567TIP3    H147116   4.444   5.883  13.094  0.8998 -0.6366  0.3270
 8567TIP3    H247117   4.359   5.940  13.206 -0.8564  0.9566 -1.7241
 8568TIP3   OH247118   6.468   6.236   3.999 -0.2922  0.0258  0.0918
 8568TIP3    H147119   6.397   6.198   4.050 -1.2717 -1.0568 -1.9512
 8568TIP3    H247120   6.517   6.289   4.062 -1.8155 -0.6587  1.9613
 8569TIP3   OH247121   6.067   1.818  16.209 -0.3338  1.0559  0.1811
 8569TIP3    H147122   6.058   1.813  16.304 -0.2814  0.2789  0.1538
 8569TIP3    H247123   6.142   1.762  16.189 -0.7349  0.7053 -0.3796
 8570TIP3   OH247124   1.451   1.188   0.290  0.3233  0.2458 -0.6256
 8570TIP3    H147125   1.510   1.215   0.361  0.5284  1.8636 -1.3794
 8570TIP3    H247126   1.368   1.171   0.334  0.6062  0.6360  0.0831
 8571TIP3   OH247127   2.771   0.448   0.801  0.0566 -0.4136  0.2810
 8571TIP3    H147128   2.809   0.513   0.742  0.2685 -1.4622 -0.7846
 8571TIP3    H247129   2.709   0.400   0.746 -1.2655 -0.1095  1.4588
 8572TIP3   OH247130   2.886   5.001  14.492 -0.2845  0.0584 -0.2402
 8572TIP3    H147131   2.878   4.923  14.547  1.1008  1.0005  1.3915
 8572TIP3    H247132   2.831   5.067  14.536 -0.9645  0.1941 -1.2670
 8573TIP3   OH247133   6.073   1.712   4.646  0.0144 -0.5638 -0.1981
 8573TIP3    H147134   6.169   1.708   4.649  0.1412  1.5452 -0.2495
 8573TIP3    H247135   6.049   1.656   4.573  1.3350  0.1798 -1.2343
 8574TIP3   OH247136   4.035   3.697   0.747  0.4935  0.0964  0.6307
 8574TIP3    H147137   4.112   3.743   0.781 -0.2571  0.8091  1.4284
 8574TIP3    H247138   4.006   3.751   0.674  1.0976 -0.5099 -0.0759
 8575TIP3   OH247139   1.622   4.506   3.775 -0.1915 -0.1112  0.9269
 8575TIP3    H147140   1.700   4.538   3.730 -0.3382 -0.8039  0.1544
 8575TIP3    H247141   1.556   4.499   3.706 -0.9676  0.5303  1.5816
 8576TIP3   OH247142   3.100   4.473  15.157 -0.2121 -0.3937  0.2130
 8576TIP3    H147143   3.145   4.406  15.105 -0.0074 -0.0329 -0.0828
 8576TIP3    H247144   3.107   4.442  15.248  0.9493 -0.1895  0.2202
 8577TIP3   OH247145   5.701   3.119   0.389  0.2672 -0.1034 -0.3777
 8577TIP3    H147146   5.695   3.057   0.462  2.1335  0.9139  0.7310
 8577TIP3    H247147   5.669   3.201   0.426  0.4072  0.2139 -0.9637
 8578TIP3   OH247148   4.679   0.294   3.028 -0.0237  0.2703 -0.6058
 8578TIP3    H147149   4.600   0.240   3.035 -1.1593  1.8721 -0.5574
 8578TIP3    H247150   4.668   0.361   3.095  1.5520  0.3440 -0.3827
 8579TIP3   OH247151   2.036   0.229  15.865  0.2156  0.2770 -0.0546
 8579TIP3    H147152   2.075   0.152  15.824 -2.8174 -0.5556 -1.6608
 8579TIP3    H247153   2.009   0.199  15.952  0.4293 -0.0013 -0.0851
 8580TIP3   OH247154   6.068   3.626   3.376 -0.0688  0.3636  0.1697
 8580TIP3    H147155   6.029   3.705   3.339  0.6296  0.1892 -1.0198
 8580TIP3    H247156   6.113   3.585   3.302  1.9687  0.3225  1.3711
 8581TIP3   OH247157   6.587   1.864  13.616  0.0721 -0.3634  0.2149
 8581TIP3    H147158   6.609   1.957  13.608 -0.5698 -0.2209  0.0818
 8581TIP3    H247159   6.493   1.863  13.633 -0.3418 -1.0527 -1.8511
 8582TIP3   OH247160   4.772   1.279  15.520 -0.8831  0.6285 -0.1537
 8582TIP3    H147161   4.771   1.374  15.528 -0.3770  0.5524  1.2749
 8582TIP3    H247162   4.838   1.261  15.453  0.6542  1.2553  1.1152
 8583TIP3   OH247163   2.537   0.814   3.438  0.8242  0.0899 -0.5485
 8583TIP3    H147164   2.479   0.889   3.432 -0.6377 -0.6929  2.0919
 8583TIP3    H247165   2.558   0.807   3.531  3.7298 -0.7685 -1.1558
 8584TIP3   OH247166   3.033   1.438  15.968 -0.0150 -0.3611 -0.2667
 8584TIP3    H147167   3.057   1.528  15.991  0.3448 -0.2816 -0.9243
 8584TIP3    H247168   2.968   1.447  15.898  0.0990 -0.6056 -0.4064
 8585TIP3   OH247169   0.020   6.772   1.838 -0.0611 -0.4703  0.3282
 8585TIP3    H147170  -0.064   6.729   1.820 -0.7509 -0.1464  2.4775
 8585TIP3    H247171  -0.004   6.856   1.877  1.2777  0.1613 -0.1753
 8586TIP3   OH247172   0.680   3.365  14.434  0.7526  0.5521 -0.2071
 8586TIP3    H147173   0.611   3.407  14.383  0.9895 -0.8626 -1.8122
 8586TIP3    H247174   0.648   3.366  14.524 -1.3565  0.0254 -0.8897
 8587TIP3   OH247175   3.291   4.028   6.713  0.1735 -0.0908  0.0778
 8587TIP3    H147176   3.211   3.976   6.701  1.4242 -2.4190  1.1515
 8587TIP3    H247177   3.276   4.076   6.795 -1.1631  1.6607 -1.1370
 8588TIP3   OH247178   1.137   0.650   1.893 -0.0744 -0.5648 -0.0059
 8588TIP3    H147179   1.152   0.657   1.798 -0.5812 -0.5382 -0.0882
 8588TIP3    H247180   1.125   0.556   1.908 -1.4143 -0.4497 -0.2043
 8589TIP3   OH247181   5.777   0.128   2.958  0.3880 -0.0089 -0.0712
 8589TIP3    H147182   5.849   0.098   2.903  0.0722 -0.4445 -0.2584
 8589TIP3    H247183   5.727   0.188   2.902 -1.2359 -2.1768 -1.1000
 8590TIP3   OH247184   4.296   1.415  12.418 -0.2637 -0.2039 -0.7483
 8590TIP3    H147185   4.296   1.321  12.434  1.5111  0.0844  1.4150
 8590TIP3    H247186   4.388   1.437  12.404 -0.5490  1.3279 -0.4526
 8591TIP3   OH247187   4.987   6.808  15.173  0.0814 -0.4874 -0.2661
 8591TIP3    H147188   4.892   6.817  15.173  0.1394  0.1542 -0.3597
 8591TIP3    H247189   5.020   6.898  15.172  0.6891 -0.6956  0.2774
 8592TIP3   OH247190   5.394   2.661  11.907  0.0943 -0.7957 -0.1365
 8592TIP3    H147191   5.340   2.648  11.830 -2.1724 -2.3284  1.5954
 8592TIP3    H247192   5.367   2.746  11.941  0.3416 -0.5985 -0.4226
 8593TIP3   OH247193   3.145   2.243   5.122 -0.9866 -0.5845  0.0438
 8593TIP3    H147194   3.168   2.151   5.137 -0.5622 -0.2049  1.9422
 8593TIP3    H247195   3.064   2.256   5.170 -0.4866  0.2848  0.6910
 8594TIP3   OH247196   1.850   0.651  12.968 -0.3275 -0.2574  0.6576
 8594TIP3    H147197   1.864   0.718  13.035 -3.5536 -0.6246  1.8647
 8594TIP3    H247198   1.861   0.568  13.014 -1.1710 -0.5256  0.3860
 8595TIP3   OH247199   3.374   4.376  13.593  0.4905 -0.3196  0.3641
 8595TIP3    H147200   3.368   4.282  13.611  1.0570 -1.1100 -2.9026
 8595TIP3    H247201   3.452   4.405  13.640  0.2307 -1.4025  1.5296
 8596TIP3   OH247202   5.889   3.686   6.248  0.0222 -0.4848 -0.0748
 8596TIP3    H147203   5.950   3.717   6.181  0.9562  1.2730  1.5431
 8596TIP3    H247204   5.944   3.654   6.319 -0.9553 -0.3365  0.7724
 8597TIP3   OH247205   0.061   0.020   2.780 -0.4280 -0.3057 -0.0948
 8597TIP3    H147206   0.125   0.066   2.725  1.1663 -1.8139  0.4048
 8597TIP3    H247207   0.073   0.058   2.867 -0.0412 -0.7267  0.0409
 8598TIP3   OH247208   3.974   6.370  16.145 -0.5007 -0.2543 -0.7306
 8598TIP3    H147209   3.982   6.333  16.057 -1.3409 -2.0064 -0.1065
 8598TIP3    H247210   3.969   6.465  16.131  1.9864 -0.2868 -2.3710
 8599TIP3   OH247211   1.209   1.394  15.816  0.4041  0.7219  0.1600
 8599TIP3    H147212   1.304   1.398  15.826  0.2818  0.3458  1.7941
 8599TIP3    H247213   1.175   1.422  15.901 -0.9672  1.2542 -0.5328
 8600TIP3   OH247214   1.380   6.564   6.646  0.1285 -0.2841 -0.0351
 8600TIP3    H147215   1.472   6.566   6.670  0.1880 -0.7220 -0.2087
 8600TIP3    H247216   1.380   6.576   6.551 -0.0438  0.4550  0.0482
 8601TIP3   OH247217   1.880   0.531   0.921  0.2746 -0.0749  0.4580
 8601TIP3    H147218   1.953   0.482   0.958 -0.7146 -0.6295  1.7715
 8601TIP3    H247219   1.827   0.465   0.875 -0.2959  0.0021  0.9899
 8602TIP3   OH247220   2.002   1.779   2.733  0.0964  0.3798 -0.5915
 8602TIP3    H147221   2.072   1.843   2.744 -0.9256  1.4979 -0.3853
 8602TIP3    H247222   1.921   1.831   2.732 -0.7665 -0.9033 -0.4750
 8603TIP3   OH247223   5.389   2.114  12.323 -0.2452  0.1061 -0.2318
 8603TIP3    H147224   5.396   2.209  12.324  0.4660  0.0561 -0.1602
 8603TIP3    H247225   5.299   2.096  12.352 -1.3953  0.8257 -3.0611
 8604TIP3   OH247226   0.525   3.621  11.508 -0.5412 -0.3474  0.7322
 8604TIP3    H147227   0.555   3.694  11.455 -0.5989 -1.0194 -0.2632
 8604TIP3    H247228   0.575   3.627  11.589 -0.6618  0.8749  0.7261
 8605TIP3   OH247229   6.289   1.045  13.040  0.5104 -0.3881  0.3004
 8605TIP3    H147230   6.214   1.070  12.985  1.5127 -1.4113 -1.6445
 8605TIP3    H247231   6.355   1.112  13.022  0.3766  0.0306  1.3370
 8606TIP3   OH247232   6.251   4.102  12.445  0.2852 -0.2905 -0.1511
 8606TIP3    H147233   6.160   4.090  12.472  0.5600 -0.1126  0.8843
 8606TIP3    H247234   6.286   4.013  12.442  0.2424 -0.3159  0.0574
 8607TIP3   OH247235   4.980   0.336   4.851 -0.5623 -0.2295  0.9782
 8607TIP3    H147236   4.921   0.303   4.920 -1.4835 -1.0563 -0.1650
 8607TIP3    H247237   4.925   0.341   4.773  0.7659 -0.5174 -0.0131
 8608TIP3   OH247238   2.993   5.664   3.195  0.2320 -0.1278 -0.1009
 8608TIP3    H147239   3.078   5.632   3.164  0.3704 -0.0601  0.2012
 8608TIP3    H247240   3.009   5.757   3.215  0.5328 -0.5078  1.5438
 8609TIP3   OH247241   4.750   4.400   0.555 -1.3209 -0.0513 -0.3448
 8609TIP3    H147242   4.718   4.361   0.473  0.5004  0.9137 -1.5583
 8609TIP3    H247243   4.785   4.485   0.530 -0.4470  0.1507  1.4073
 8610TIP3   OH247244   1.668   1.764   3.481 -0.2082  0.3211  0.2294
 8610TIP3    H147245   1.747   1.801   3.442  1.0973 -0.1560  2.2823
 8610TIP3    H247246   1.679   1.669   3.473 -0.6853  0.2534  0.3409
 8611TIP3   OH247247   4.185   0.303  11.552  0.1604  0.3804 -0.2037
 8611TIP3    H147248   4.248   0.246  11.508 -1.1115  0.7283 -2.6586
 8611TIP3    H247249   4.169   0.374  11.490 -0.9106  1.5355  1.3180
 8612TIP3   OH247250   5.894   1.430   5.327 -1.1567  0.8646 -0.4370
 8612TIP3    H147251   5.977   1.449   5.371 -0.9951  1.2524 -0.8992
 8612TIP3    H247252   5.845   1.377   5.389 -0.2048 -0.1273 -0.5141
 8613TIP3   OH247253   3.107   5.561  13.091  0.2709  0.1691 -0.8644
 8613TIP3    H147254   3.056   5.641  13.101 -1.3396 -0.9474  0.3683
 8613TIP3    H247255   3.189   5.579  13.138 -1.8264 -0.3186  3.4015
 8614TIP3   OH247256   2.332   2.780   0.293 -0.5183 -0.6899  0.2185
 8614TIP3    H147257   2.259   2.794   0.233 -0.9680  1.2563  1.1398
 8614TIP3    H247258   2.295   2.793   0.380  0.9138  0.5859  0.6960
 8615TIP3   OH247259   5.850   5.875   4.098  0.4270  0.2726  0.4879
 8615TIP3    H147260   5.798   5.953   4.111 -2.6067 -1.4967 -0.0777
 8615TIP3    H247261   5.891   5.887   4.012 -1.7419  0.4344 -0.5960
 8616TIP3   OH247262   1.167   0.888   0.786  0.4795 -0.3630 -0.5822
 8616TIP3    H147263   1.205   0.957   0.732  0.5590  0.1419  0.1064
 8616TIP3    H247264   1.237   0.861   0.845  0.2908 -0.6598 -0.4866
 8617TIP3   OH247265   5.534   6.620  14.692 -0.0882 -0.3024 -0.1414
 8617TIP3    H147266   5.517   6.526  14.700  1.8704 -0.6407  0.6825
 8617TIP3    H247267   5.503   6.658  14.774 -1.2899 -0.1287 -0.6548
 8618TIP3   OH247268   1.169   6.021   0.271  0.0202 -0.0461  0.4860
 8618TIP3    H147269   1.205   6.109   0.268  1.9049 -0.7651  0.2995
 8618TIP3    H247270   1.162   6.001   0.364  0.0904  0.1045  0.5236
 8619TIP3   OH247271   1.079   3.050   1.497 -0.0981 -0.2002  0.0568
 8619TIP3    H147272   1.122   3.005   1.570  1.2016  1.9429  0.7265
 8619TIP3    H247273   1.102   2.999   1.420 -0.3416 -1.7530  0.9816
 8620TIP3   OH247274   4.740   4.151  12.620  0.4357  0.4049  0.6087
 8620TIP3    H147275   4.791   4.074  12.594 -1.2777 -0.5506 -0.0709
 8620TIP3    H247276   4.723   4.138  12.713 -3.0396 -2.1371 -0.1704
 8621TIP3   OH247277   3.513   1.519  17.205 -0.4905 -0.6513 -0.0597
 8621TIP3    H147278   3.420   1.496  17.203 -0.5626 -0.4118  0.4289
 8621TIP3    H247279   3.531   1.538  17.297  0.3183 -1.8408  0.0477
 8622TIP3   OH247280   4.381   2.163   4.914  0.6436  0.6104 -0.1320
 8622TIP3    H147281   4.430   2.112   4.979 -0.4875 -3.9478 -2.4065
 8622TIP3    H247282   4.445   2.226   4.881  2.6536 -0.0783  2.0833
 8623TIP3   OH247283   6.218   3.610  15.690 -0.1069 -0.6878 -0.4867
 8623TIP3    H147284   6.161   3.682  15.719  0.1811 -0.5043 -0.3672
 8623TIP3    H247285   6.169   3.568  15.620 -0.4614 -0.6321 -0.2770
 8624TIP3   OH247286   4.718   1.205  17.103 -0.7676  0.5916 -0.2539
 8624TIP3    H147287   4.737   1.134  17.165  1.4438  0.4435 -0.9927
 8624TIP3    H247288   4.747   1.284  17.148 -1.7528  0.8537 -0.0532
 8625TIP3   OH247289   1.160   0.036  16.270  0.3630  0.0497 -0.2571
 8625TIP3    H147290   1.195   0.110  16.320 -0.5503  1.4590 -1.6061
 8625TIP3    H247291   1.145   0.072  16.182  1.5819 -2.2187 -1.4827
 8626TIP3   OH247292   0.931   5.924  14.544  0.2390  0.1554 -0.5476
 8626TIP3    H147293   0.838   5.934  14.525  0.0549 -0.0506  0.2151
 8626TIP3    H247294   0.940   5.956  14.634  0.6475 -1.1817 -0.0952
 8627TIP3   OH247295   4.981   3.080  11.587  0.1462 -0.5752 -0.5141
 8627TIP3    H147296   4.909   3.053  11.645  2.0697 -3.0192  0.9062
 8627TIP3    H247297   5.009   3.000  11.543  1.1145  0.5920 -2.1325
 8628TIP3   OH247298   5.274   6.351  14.511  0.4767 -0.3917  0.0250
 8628TIP3    H147299   5.364   6.335  14.539  0.4170 -1.5263 -0.3725
 8628TIP3    H247300   5.248   6.270  14.468 -0.6104  0.0661 -0.2079
 8629TIP3   OH247301   1.715   0.605  17.008 -0.4319 -0.0860  0.3942
 8629TIP3    H147302   1.677   0.656  16.937 -0.0421  0.1334  0.3404
 8629TIP3    H247303   1.715   0.515  16.976  0.0105  0.0540 -0.0007
 8630TIP3   OH247304   4.386   4.661   0.782  0.1019 -0.0800  0.0443
 8630TIP3    H147305   4.443   4.738   0.771  2.2818 -1.2790  1.9238
 8630TIP3    H247306   4.411   4.603   0.711 -0.6742  0.4238 -0.6572
 8631TIP3   OH247307   3.205   0.130  16.016 -0.0837  0.0657 -0.2336
 8631TIP3    H147308   3.112   0.145  16.001 -0.4601 -1.8312 -0.1020
 8631TIP3    H247309   3.246   0.215  16.004 -1.8432  0.9544 -0.2058
 8632TIP3   OH247310   0.219   5.287   0.975 -0.2820  0.2158 -0.2321
 8632TIP3    H147311   0.313   5.304   0.977 -0.0315 -0.9775 -0.7382
 8632TIP3    H247312   0.203   5.257   0.886 -1.0449 -0.1029  0.0095
 8633TIP3   OH247313   5.840   5.167   5.317 -0.0831  0.0910  0.0073
 8633TIP3    H147314   5.896   5.243   5.301 -2.9841  2.6519  1.0057
 8633TIP3    H247315   5.792   5.189   5.397 -0.7969 -3.0176  0.5561
 8634TIP3   OH247316   3.153   4.970   3.450 -0.3440 -0.1190 -0.3554
 8634TIP3    H147317   3.080   4.953   3.390 -1.5869 -0.0268  1.0834
 8634TIP3    H247318   3.218   4.903   3.428 -1.4229 -1.0764 -0.7450
 8635TIP3   OH247319   2.189   3.886  12.828 -0.3454 -0.0711 -0.0076
 8635TIP3    H147320   2.095   3.886  12.808 -0.0569  1.0074 -1.4916
 8635TIP3    H247321   2.229   3.937  12.758  1.3297 -0.2243  0.7829
 8636TIP3   OH247322   0.046   2.102  14.015  0.0366  0.3111 -0.4705
 8636TIP3    H147323   0.133   2.064  14.026 -0.9859 -1.7275  1.2426
 8636TIP3    H247324   0.059   2.196  14.032  2.2148  0.4432 -2.3953
 8637TIP3   OH247325   3.228   1.081  12.919 -0.4134 -0.1560  0.1915
 8637TIP3    H147326   3.170   1.127  12.979  0.1193 -0.6685  1.1222
 8637TIP3    H247327   3.235   1.139  12.843 -0.7744  0.6929  0.7961
 8638TIP3   OH247328   0.372   2.498   1.306  0.2820  0.0909 -0.4313
 8638TIP3    H147329   0.442   2.462   1.361 -2.4822  1.4089  4.6516
 8638TIP3    H247330   0.311   2.426   1.294  0.7279 -0.1086 -1.5524
 8639TIP3   OH247331   0.538   2.148  13.769 -0.0724 -0.0850 -0.0148
 8639TIP3    H147332   0.570   2.123  13.682 -0.2081 -1.3995  0.2867
 8639TIP3    H247333   0.471   2.214  13.752 -1.4786 -1.6885 -1.0694
 8640TIP3   OH247334   2.853   1.567  17.111  0.3226  0.0670 -0.6841
 8640TIP3    H147335   2.807   1.564  17.194  1.6905  0.4357  0.1182
 8640TIP3    H247336   2.790   1.605  17.050 -0.6389 -0.0402  0.2179
 8641TIP3   OH247337   3.022   4.619  13.770 -0.1263 -0.0461 -0.0840
 8641TIP3    H147338   2.996   4.631  13.678 -0.4718 -0.1841 -0.0033
 8641TIP3    H247339   2.972   4.544  13.800  1.7282 -1.5221 -0.4535
 8642TIP3   OH247340   4.495   1.024  13.674  0.8204  0.4698 -0.0826
 8642TIP3    H147341   4.529   1.038  13.586  0.7148  2.2496  0.1149
 8642TIP3    H247342   4.504   1.109  13.717  0.5278 -0.2649  1.5108
 8643TIP3   OH247343   1.876   2.475   5.746 -0.0075 -0.0564  0.0822
 8643TIP3    H147344   1.947   2.535   5.766 -0.6440  1.2471 -1.3398
 8643TIP3    H247345   1.803   2.505   5.802  0.0780 -0.3890  0.3764
 8644TIP3   OH247346   2.705   4.528   1.494  0.6064 -0.3006  0.2153
 8644TIP3    H147347   2.623   4.481   1.510  2.3459 -3.5135  0.3362
 8644TIP3    H247348   2.707   4.541   1.399 -0.2022  0.1678  0.2530
 8645TIP3   OH247349   0.112   0.515  16.262  0.6650  0.0769 -0.4212
 8645TIP3    H147350   0.165   0.594  16.252  1.3073 -0.3023 -0.1352
 8645TIP3    H247351   0.048   0.536  16.329  1.0393  0.2520 -0.1172
 8646TIP3   OH247352   5.345   4.169   0.355  0.0711  0.0653  0.0096
 8646TIP3    H147353   5.436   4.195   0.368  0.6325 -0.8257 -1.8835
 8646TIP3    H247354   5.346   4.073   0.359 -0.9543  0.0692  0.8749
 8647TIP3   OH247355   4.372   3.742  16.519  0.3630 -0.4042  0.4073
 8647TIP3    H147356   4.336   3.657  16.494  2.0510 -1.0988  0.1939
 8647TIP3    H247357   4.302   3.805  16.500  0.2639 -1.3057 -2.7089
 8648TIP3   OH247358   5.336   2.717  16.681  0.0725 -0.4448  0.6501
 8648TIP3    H147359   5.330   2.635  16.632  0.1700 -0.8199  1.2545
 8648TIP3    H247360   5.255   2.764  16.660  0.6648 -0.0387 -0.8400
 8649TIP3   OH247361   3.649   4.178   4.650 -0.1908 -0.2994  0.1871
 8649TIP3    H147362   3.580   4.180   4.716  0.0438 -2.4881  0.5984
 8649TIP3    H247363   3.667   4.269   4.630 -0.9891  0.3918  2.3825
 8650TIP3   OH247364   1.138   6.527   3.887  0.1295 -0.0216  0.4629
 8650TIP3    H147365   1.199   6.455   3.875 -1.9931 -2.0193  0.9308
 8650TIP3    H247366   1.161   6.590   3.819  1.8800 -1.2725 -0.1572
 8651TIP3   OH247367   3.315   4.224  11.080  0.4200 -1.0091 -0.3514
 8651TIP3    H147368   3.262   4.244  11.157  0.8539 -0.1110 -0.2708
 8651TIP3    H247369   3.252   4.221  11.008  0.3645  1.3731 -0.4783
 8652TIP3   OH247370   5.952   2.227  12.497  0.1528  0.2876 -0.5791
 8652TIP3    H147371   5.884   2.172  12.537 -0.0459  2.5137  2.5762
 8652TIP3    H247372   6.033   2.181  12.516 -0.0955  0.3904  0.8358
 8653TIP3   OH247373   0.859   2.079  12.400 -0.2561 -0.1668 -0.6826
 8653TIP3    H147374   0.872   2.087  12.306  2.5037  0.9694 -0.3072
 8653TIP3    H247375   0.871   2.168  12.433 -0.6834 -0.6342  0.7977
 8654TIP3   OH247376   3.093   0.127   4.317  0.4812  0.3784  0.0099
 8654TIP3    H147377   3.070   0.034   4.311 -0.4887  0.6268 -0.2078
 8654TIP3    H247378   3.186   0.130   4.292  1.0037 -0.7293  1.6453
 8655TIP3   OH247379   0.803   0.896  14.256 -0.1776 -0.2536  0.2569
 8655TIP3    H147380   0.746   0.896  14.334 -0.0456  0.7631  0.3651
 8655TIP3    H247381   0.884   0.938  14.285 -0.0470 -0.0570 -0.3744
 8656TIP3   OH247382   6.376   5.272   5.689 -0.2697  0.0680  0.4210
 8656TIP3    H147383   6.401   5.188   5.727 -0.6013  0.3566  1.2936
 8656TIP3    H247384   6.280   5.275   5.699 -0.2668  0.5177  0.3299
 8657TIP3   OH247385   3.283   0.065  14.351  0.3147 -0.2113  0.0312
 8657TIP3    H147386   3.194   0.091  14.372  0.2234  0.1043 -0.7498
 8657TIP3    H247387   3.276  -0.028  14.330  0.1312 -0.1277 -0.2763
 8658TIP3   OH247388   2.136   3.366   5.045 -0.0483 -0.1963 -0.5006
 8658TIP3    H147389   2.097   3.339   5.128 -1.3147 -1.1621 -1.3763
 8658TIP3    H247390   2.195   3.294   5.022 -0.0289 -0.1339 -0.6506
 8659TIP3   OH247391   1.567   2.797  17.197 -0.2273  0.9309 -0.0684
 8659TIP3    H147392   1.617   2.773  17.275 -0.0137 -2.5996 -1.0984
 8659TIP3    H247393   1.633   2.805  17.128 -0.6577  1.2717 -0.4449
 8660TIP3   OH247394   6.690   0.792  12.706  0.3919  0.1000 -0.1640
 8660TIP3    H147395   6.692   0.823  12.615  1.6042 -0.8951 -0.5131
 8660TIP3    H247396   6.645   0.861  12.754 -2.4188 -0.3924 -1.8866
 8661TIP3   OH247397   6.594   2.798   5.262 -0.3825  0.7037  0.4035
 8661TIP3    H147398   6.662   2.743   5.223 -1.1885  0.2905 -0.4534
 8661TIP3    H247399   6.612   2.886   5.228 -0.0668  0.6696  0.4754
 8662TIP3   OH247400   2.597   2.413   5.612  0.2992 -0.1808 -0.3313
 8662TIP3    H147401   2.677   2.393   5.563  1.4212  1.8918  0.5274
 8662TIP3    H247402   2.601   2.355   5.688  0.3350 -0.9588 -0.9152
 8663TIP3   OH247403   1.109   5.164  11.969  0.9521  0.3054 -0.1810
 8663TIP3    H147404   1.031   5.110  11.954  0.0167  1.4913  0.1979
 8663TIP3    H247405   1.146   5.176  11.882  0.4644  0.0767 -0.4281
 8664TIP3   OH247406   5.393   3.210   5.036 -0.0447 -0.0678 -0.1120
 8664TIP3    H147407   5.412   3.156   5.113  1.0677  0.9281  0.3395
 8664TIP3    H247408   5.372   3.296   5.072 -0.9991  0.0327 -0.8643
 8665TIP3   OH247409   4.550   5.420  11.390 -0.3873  0.0137  0.5014
 8665TIP3    H147410   4.640   5.447  11.408  0.4003 -1.6893 -0.6424
 8665TIP3    H247411   4.555   5.377  11.304 -2.6757  1.7578 -0.6251
 8666TIP3   OH247412   1.829   0.843   5.880 -0.1633  0.4711 -0.4974
 8666TIP3    H147413   1.839   0.914   5.943  0.2375 -0.6730  0.7740
 8666TIP3    H247414   1.915   0.835   5.839  0.1611 -0.1177  0.2876
 8667TIP3   OH247415   0.298   4.590   1.943  0.2159  0.4920  0.3395
 8667TIP3    H147416   0.353   4.517   1.971 -0.4617 -0.1822 -0.0664
 8667TIP3    H247417   0.215   4.575   1.987 -0.2391  0.4770 -0.5157
 8668TIP3   OH247418   6.199   3.523   5.025  0.0251 -0.3895  0.4942
 8668TIP3    H147419   6.204   3.445   5.080  1.7784 -0.3321  0.4717
 8668TIP3    H247420   6.239   3.496   4.942 -1.6090 -0.1640 -0.4124
 8669TIP3   OH247421   1.565   0.376  16.885 -0.3151  0.0857 -0.0477
 8669TIP3    H147422   1.492   0.406  16.832 -0.1356  0.4017 -0.1197
 8669TIP3    H247423   1.636   0.361  16.822 -0.2703 -0.0717  0.0394
 8670TIP3   OH247424   1.691   4.952   1.564  0.3534 -0.0094 -0.0530
 8670TIP3    H147425   1.603   4.932   1.597  0.2450 -2.1361 -1.3774
 8670TIP3    H247426   1.725   5.018   1.624 -2.0286  0.6820  0.6749
 8671TIP3   OH247427   1.176   0.404   5.727 -0.0755  0.2080 -0.3805
 8671TIP3    H147428   1.140   0.360   5.803  0.5627  0.2139 -0.0632
 8671TIP3    H247429   1.197   0.334   5.666 -0.0043  0.1542 -0.2936
 8672TIP3   OH247430   6.721   4.371  13.882 -0.0881 -0.2440 -0.0203
 8672TIP3    H147431   6.637   4.336  13.912  0.3414 -0.5129  0.9049
 8672TIP3    H247432   6.704   4.400  13.793 -0.8543 -1.3981 -0.2702
 8673TIP3   OH247433   0.167   3.489   2.237  0.3924  0.3373 -0.4390
 8673TIP3    H147434   0.202   3.431   2.305  1.1096  0.5208 -0.6550
 8673TIP3    H247435   0.111   3.432   2.184 -0.5241  0.2786  0.5543
 8674TIP3   OH247436   6.007   1.793  14.613 -0.4713 -0.6635 -0.4145
 8674TIP3    H147437   6.074   1.857  14.587  0.0403 -0.8174  0.4815
 8674TIP3    H247438   5.925   1.841  14.604 -0.0914  0.1664  0.3127
 8675TIP3   OH247439   4.163   3.671  14.534 -0.4240 -0.0665 -0.6251
 8675TIP3    H147440   4.237   3.620  14.567 -0.3601  1.0569  1.0590
 8675TIP3    H247441   4.118   3.611  14.474  0.5431 -1.5430  0.0598
 8676TIP3   OH247442   2.025   6.430   2.426  0.0659 -0.0748  0.0788
 8676TIP3    H147443   1.947   6.452   2.374 -0.4222 -1.0521  0.3866
 8676TIP3    H247444   2.088   6.398   2.361 -0.1193 -0.1742 -0.0537
 8677TIP3   OH247445   6.108   6.668  15.771  0.0424  0.0149  0.3891
 8677TIP3    H147446   6.200   6.687  15.755 -0.0011  0.9545  1.1635
 8677TIP3    H247447   6.061   6.736  15.723 -0.3281 -1.3942 -1.3303
 8678TIP3   OH247448   0.893   3.060   5.892 -0.3329 -0.1947 -0.3932
 8678TIP3    H147449   0.840   3.094   5.820 -0.2830 -1.3042 -0.9717
 8678TIP3    H247450   0.835   2.999   5.938  0.2662 -1.0274 -0.7245
 8679TIP3   OH247451   1.062   5.997  12.483 -0.1467 -0.1303  0.0041
 8679TIP3    H147452   1.040   6.079  12.439  0.9575  0.6628  0.9073
 8679TIP3    H247453   1.020   5.930  12.429 -1.0302  1.0078 -0.7753
 8680TIP3   OH247454   5.710   6.381  16.946 -0.0020 -0.1830 -0.0194
 8680TIP3    H147455   5.709   6.285  16.952  1.6060 -0.1503  3.3860
 8680TIP3    H247456   5.803   6.403  16.942 -0.3626  1.2764 -1.1084
 8681TIP3   OH247457   2.786   2.827   6.344  0.0494 -0.0009  0.2521
 8681TIP3    H147458   2.851   2.772   6.387 -1.0358 -2.4993 -1.0720
 8681TIP3    H247459   2.712   2.831   6.405  0.2292  0.2031  0.4564
 8682TIP3   OH247460   2.790   1.250   5.220  0.0700  0.4700 -0.3403
 8682TIP3    H147461   2.732   1.324   5.202  0.5137  0.7705 -0.5671
 8682TIP3    H247462   2.731   1.175   5.234 -0.4808  1.2471  1.9005
 8683TIP3   OH247463   4.895   4.623  11.964 -0.2152  0.3067  0.5291
 8683TIP3    H147464   4.959   4.687  11.992 -0.3330  0.3663  0.6620
 8683TIP3    H247465   4.829   4.622  12.033 -2.1072  2.6483 -1.0781
 8684TIP3   OH247466   2.175   2.324   3.867  0.0545 -0.2412  0.0306
 8684TIP3    H147467   2.100   2.380   3.850 -0.0169 -0.3878 -0.1387
 8684TIP3    H247468   2.210   2.355   3.951  1.0066  1.1382 -0.8371
 8685TIP3   OH247469   3.507   3.679   1.066  0.0592 -0.2319  0.5651
 8685TIP3    H147470   3.600   3.673   1.044 -0.3481 -1.2651 -1.0330
 8685TIP3    H247471   3.473   3.745   1.006 -0.5581 -1.1045 -0.0670
 8686TIP3   OH247472   0.550   1.787  12.947 -0.1800  0.5824 -0.4123
 8686TIP3    H147473   0.507   1.856  12.896  1.1692  0.6966 -1.4546
 8686TIP3    H247474   0.633   1.826  12.974  0.7341 -0.6902 -1.2525
 8687TIP3   OH247475   2.794   0.423  11.658 -0.5160  0.2552  0.7254
 8687TIP3    H147476   2.857   0.375  11.710  0.5051 -1.0300 -1.5533
 8687TIP3    H247477   2.848   0.481  11.603 -1.4572  0.7067  0.2569
 8688TIP3   OH247478   6.539   0.347  10.802 -0.0706 -0.2525  0.2220
 8688TIP3    H147479   6.564   0.273  10.747  0.6212  0.2271 -0.1237
 8688TIP3    H247480   6.519   0.417  10.740  0.3392  0.1781  0.5701
 8689TIP3   OH247481   2.126   4.053   4.888  0.3874  0.5902  0.0444
 8689TIP3    H147482   2.055   4.034   4.948 -0.6605  0.9431 -1.0395
 8689TIP3    H247483   2.083   4.080   4.807  1.7465  0.4148 -0.7835
 8690TIP3   OH247484   3.149   0.966   5.435 -0.3605 -0.0898  0.2129
 8690TIP3    H147485   3.064   0.962   5.390 -0.4763 -3.2764  0.5521
 8690TIP3    H247486   3.126   0.967   5.528 -0.0117  0.0101  0.2974
 8691TIP3   OH247487   5.745   0.992   1.974  0.2492 -0.4372 -0.2769
 8691TIP3    H147488   5.705   0.932   2.037 -2.0702  1.7157  0.4534
 8691TIP3    H247489   5.687   0.988   1.898  0.7739 -0.0286 -0.7047
 8692TIP3   OH247490   3.615   5.155  11.344 -0.1350 -0.2664 -0.0919
 8692TIP3    H147491   3.551   5.087  11.322 -2.3602  1.4789  0.4769
 8692TIP3    H247492   3.574   5.236  11.312  2.4663  0.8219 -0.9025
 8693TIP3   OH247493   2.647   1.755   3.329 -0.0740 -0.3201  0.6870
 8693TIP3    H147494   2.586   1.710   3.388 -0.7868 -1.2045 -0.6945
 8693TIP3    H247495   2.592   1.793   3.261  0.9054 -1.7047 -0.9606
 8694TIP3   OH247496   1.699   4.447   1.776 -0.5384 -0.1393 -0.1815
 8694TIP3    H147497   1.754   4.516   1.738 -0.0080 -0.6323 -0.3258
 8694TIP3    H247498   1.724   4.368   1.728  0.2003 -0.8020  1.2322
 8695TIP3   OH247499   5.844   2.499  16.004  0.7208  0.7183  0.1751
 8695TIP3    H147500   5.824   2.443  16.079  0.7589  1.5449  0.8206
 8695TIP3    H247501   5.782   2.572  16.012  1.0871  1.0869 -0.2959
 8696TIP3   OH247502   1.653   0.786  16.234  0.0889 -0.6734 -0.3524
 8696TIP3    H147503   1.744   0.760  16.248  0.3643  0.2532 -0.3109
 8696TIP3    H247504   1.651   0.879  16.257 -1.2006 -1.0017  1.0319
 8697TIP3   OH247505   1.953   5.967  16.350  0.4528 -0.6419 -0.5769
 8697TIP3    H147506   1.892   5.914  16.401  0.9122 -0.7847 -0.1725
 8697TIP3    H247507   2.038   5.955  16.393  0.5577  0.4609 -0.4373
 8698TIP3   OH247508   6.614   4.634   2.762 -0.2310  0.3300 -0.3460
 8698TIP3    H147509   6.689   4.583   2.793 -0.6955  0.8168  1.7381
 8698TIP3    H247510   6.548   4.623   2.831 -0.7412  2.8394 -0.3468
 8699TIP3   OH247511   6.143   0.686   6.108 -0.9662  0.2600 -0.0940
 8699TIP3    H147512   6.194   0.725   6.179 -1.9209  1.7847 -0.1977
 8699TIP3    H247513   6.203   0.624   6.066  1.1821  2.6630 -0.8410
 8700TIP3   OH247514   6.421   4.647   5.066  0.2069 -0.0574 -0.3522
 8700TIP3    H147515   6.374   4.572   5.101 -1.6503  1.6356  1.0651
 8700TIP3    H247516   6.507   4.645   5.108 -0.1522 -0.8806  0.3659
 8701TIP3   OH247517   3.994   3.136  12.263  0.7389 -0.7687 -0.2697
 8701TIP3    H147518   4.081   3.178  12.256  0.3893  0.3066  1.1469
 8701TIP3    H247519   3.950   3.187  12.332 -1.1061 -1.1568 -1.1260
 8702TIP3   OH247520   0.610   3.025   5.853  0.6940  0.0750  0.3995
 8702TIP3    H147521   0.573   3.025   5.941 -0.8506  0.9088 -0.2110
 8702TIP3    H247522   0.556   2.963   5.804 -0.8175  2.2341 -0.8206
 8703TIP3   OH247523   2.445   3.880  16.683 -0.0376  0.5530  0.4783
 8703TIP3    H147524   2.470   3.888  16.591 -1.0333 -0.8956  0.0399
 8703TIP3    H247525   2.355   3.911  16.686  0.2997  1.5102  1.1763
 8704TIP3   OH247526   0.979   2.923   6.312  0.1492 -0.3496 -0.7413
 8704TIP3    H147527   1.047   2.988   6.296 -0.1491 -0.3568 -2.1394
 8704TIP3    H247528   0.984   2.906   6.406  2.0381 -0.3299 -0.8070
 8705TIP3   OH247529   0.408   1.906   1.989 -0.7107 -0.1100 -0.4874
 8705TIP3    H147530   0.378   1.855   2.064  0.6931 -2.0500 -1.1689
 8705TIP3    H247531   0.469   1.970   2.028  1.2625 -2.1340 -0.0484
 8706TIP3   OH247532   5.854   5.244  12.975 -0.2396 -0.0151 -0.1020
 8706TIP3    H147533   5.870   5.173  13.038 -1.1115 -0.0165  0.1274
 8706TIP3    H247534   5.760   5.239  12.957 -0.2919  1.0291 -0.1525
 8707TIP3   OH247535   4.118   0.899  13.454  0.2412  0.5511  0.1049
 8707TIP3    H147536   4.093   0.976  13.505  1.4470  1.4085 -0.5569
 8707TIP3    H247537   4.210   0.885  13.473 -0.2700 -1.6478  1.3266
 8708TIP3   OH247538   2.516   1.830   1.878  0.3141 -0.0917  0.1395
 8708TIP3    H147539   2.431   1.867   1.898  1.4768  2.3405  0.9680
 8708TIP3    H247540   2.539   1.866   1.792  0.8691 -0.0333  0.3072
 8709TIP3   OH247541   0.418   2.874   3.857  0.0406  0.1207  0.1812
 8709TIP3    H147542   0.506   2.898   3.828 -0.8211 -0.8192 -3.8629
 8709TIP3    H247543   0.417   2.778   3.852 -1.4278  0.1578 -0.7632
 8710TIP3   OH247544   0.361   2.406  14.139  0.0466 -0.2846 -0.1407
 8710TIP3    H147545   0.299   2.333  14.142 -1.0461  0.6374  0.8347
 8710TIP3    H247546   0.429   2.378  14.078 -1.1769 -1.4604 -1.0207
 8711TIP3   OH247547   2.597   6.547  12.335 -0.3646  0.4455  0.5043
 8711TIP3    H147548   2.580   6.473  12.276 -0.2799  0.6371  0.2353
 8711TIP3    H247549   2.565   6.518  12.420 -0.0220 -0.0322  0.4728
 8712TIP3   OH247550   2.989   2.421   4.308 -0.7442  0.0937 -0.0723
 8712TIP3    H147551   2.918   2.357   4.308 -1.8108  1.2420 -0.3675
 8712TIP3    H247552   2.954   2.497   4.354  1.5723 -0.5712  3.1509
 8713TIP3   OH247553   1.808   2.122   2.647  0.0903 -0.5528  0.2857
 8713TIP3    H147554   1.817   2.058   2.576 -0.3864  0.3079 -0.5842
 8713TIP3    H247555   1.891   2.169   2.648  0.4454 -1.1712  0.9335
 8714TIP3   OH247556   1.169   3.320   6.702  0.1235 -0.0812  0.3948
 8714TIP3    H147557   1.109   3.368   6.645  0.2673 -1.0490 -0.6055
 8714TIP3    H247558   1.114   3.255   6.745  0.2049 -0.0234  0.5898
 8715TIP3   OH247559   0.636   5.119   0.734 -0.1307  0.4705  0.0646
 8715TIP3    H147560   0.566   5.082   0.787  0.9707  0.7982  1.8273
 8715TIP3    H247561   0.618   5.213   0.731 -1.4594  0.2103 -2.1708
 8716TIP3   OH247562   4.657   4.712  15.241 -0.2385 -0.0456 -0.1941
 8716TIP3    H147563   4.745   4.721  15.205 -0.7549 -0.0999 -1.5472
 8716TIP3    H247564   4.612   4.792  15.216 -1.2019 -0.9343 -1.4814
 8717TIP3   OH247565   3.335   4.673   0.414 -0.4076 -0.1410 -0.0151
 8717TIP3    H147566   3.406   4.646   0.355  0.4095  0.0096  0.8806
 8717TIP3    H247567   3.373   4.669   0.501 -1.7688 -0.8789  0.5765
 8718TIP3   OH247568   1.445   2.185   1.981  0.4029 -0.2733 -0.5178
 8718TIP3    H147569   1.445   2.092   1.959 -2.0690  0.1494 -2.8773
 8718TIP3    H247570   1.391   2.191   2.059  1.4131 -0.8761  0.2508
 8719TIP3   OH247571   6.337   5.815  11.291 -0.3722 -0.5563 -0.4238
 8719TIP3    H147572   6.257   5.766  11.269 -0.2627  0.1109 -2.5732
 8719TIP3    H247573   6.305   5.900  11.322 -0.5074 -0.8901  0.3742
 8720TIP3   OH247574   6.520   6.549  16.511  0.3046 -0.1051  0.1968
 8720TIP3    H147575   6.525   6.577  16.602  2.3452 -0.7933  0.3435
 8720TIP3    H247576   6.433   6.508  16.504 -0.7168  1.7452  1.2420
 8721TIP3   OH247577   0.889   5.232   5.725  0.1524 -0.1002  0.0551
 8721TIP3    H147578   0.926   5.320   5.739  1.6479 -0.5976 -0.5976
 8721TIP3    H247579   0.803   5.249   5.686  0.1195  1.0810  0.5776
 8722TIP3   OH247580   0.175   5.754  12.403  0.2994 -0.4053 -0.0549
 8722TIP3    H147581   0.203   5.673  12.445  1.0266 -0.8891 -1.3953
 8722TIP3    H247582   0.086   5.768  12.434  1.2101 -0.0298  2.5935
 8723TIP3   OH247583   0.520   5.641   3.350  0.0401  0.2214  0.1545
 8723TIP3    H147584   0.505   5.730   3.382  2.8260  0.5079  0.9493
 8723TIP3    H247585   0.511   5.585   3.428  1.8161  0.3095  0.4758
 8724TIP3   OH247586   6.172   2.749   4.054  0.5095 -0.1167 -0.0687
 8724TIP3    H147587   6.253   2.791   4.026  0.1595  1.2600  0.9143
 8724TIP3    H247588   6.130   2.812   4.112  0.1396 -1.9682  1.8090
 8725TIP3   OH247589   0.999   4.554   1.175 -0.4665 -0.5072 -0.2429
 8725TIP3    H147590   1.015   4.623   1.239  0.0387 -0.1694 -0.7233
 8725TIP3    H247591   1.064   4.486   1.198  1.9702  0.9489 -2.3159
 8726TIP3   OH247592   2.987   5.662  11.240 -0.2872  0.0836 -0.1904
 8726TIP3    H147593   2.943   5.744  11.263  0.0235  0.3878 -0.6825
 8726TIP3    H247594   2.972   5.605  11.316  1.7831  1.4725  1.3474
 8727TIP3   OH247595   0.217   5.189  16.426  0.2738  0.0592  0.2432
 8727TIP3    H147596   0.207   5.138  16.346 -0.4580  0.5654  0.0000
 8727TIP3    H247597   0.245   5.276  16.396  2.0043 -0.3168  0.6854
 8728TIP3   OH247598   5.805   2.412  14.611  0.0656 -0.3701  0.1230
 8728TIP3    H147599   5.874   2.395  14.547 -0.4935  2.4443 -1.3853
 8728TIP3    H247600   5.851   2.426  14.694  1.2470  0.5028 -0.6545
 8729TIP3   OH247601   5.307   4.645  12.457  0.0659 -0.1353 -0.1535
 8729TIP3    H147602   5.295   4.649  12.552 -1.4291 -0.2349 -0.3061
 8729TIP3    H247603   5.335   4.733  12.433 -3.1070  1.0758  0.0243
 8730TIP3   OH247604   4.995   4.932  16.185 -0.4268 -0.0308 -0.0626
 8730TIP3    H147605   4.947   5.015  16.187  1.1523  0.9150  0.6147
 8730TIP3    H247606   5.039   4.931  16.099 -1.3006 -0.7095 -0.5228
 8731TIP3   OH247607   4.772   2.202   0.600  0.1023 -0.0265 -0.6161
 8731TIP3    H147608   4.715   2.175   0.672  0.1080 -0.5289 -0.7960
 8731TIP3    H247609   4.858   2.166   0.623  0.8255  2.2362  0.5740
 8732TIP3   OH247610   3.336   3.689  11.597 -0.7284  0.4504 -0.7199
 8732TIP3    H147611   3.282   3.701  11.519 -1.9565  1.2657  0.2184
 8732TIP3    H247612   3.300   3.750  11.661  1.2807  0.9676 -0.0113
 8733TIP3   OH247613   3.047   4.500   4.723  0.3405  0.3612 -0.6099
 8733TIP3    H147614   3.071   4.409   4.708 -2.5765 -0.9011  1.4300
 8733TIP3    H247615   2.999   4.526   4.644 -1.2869 -0.8965 -0.0865
 8734TIP3   OH247616   5.392   1.833  16.781  0.0314 -0.3130  0.2980
 8734TIP3    H147617   5.319   1.891  16.802  0.3709 -0.4802  2.1461
 8734TIP3    H247618   5.408   1.785  16.862  2.4903  0.0484  0.1002
 8735TIP3   OH247619   5.517   0.880  13.942 -0.2202  0.2138 -0.7920
 8735TIP3    H147620   5.527   0.872  13.847 -0.7168 -0.2913 -0.8109
 8735TIP3    H247621   5.435   0.835  13.961 -1.2139  2.1043 -0.3732
 8736TIP3   OH247622   4.546   3.403  15.721  0.4453 -0.0883  0.1126
 8736TIP3    H147623   4.560   3.423  15.628  0.0723 -0.7735 -0.1016
 8736TIP3    H247624   4.498   3.320  15.720  0.3585 -0.0529  0.9197
 8737TIP3   OH247625   1.359   3.390  12.036  0.0588 -0.3202  0.2691
 8737TIP3    H147626   1.418   3.391  11.960 -0.4745  2.4673 -0.2083
 8737TIP3    H247627   1.391   3.317  12.089  1.6335 -1.1898 -1.7054
 8738TIP3   OH247628   2.278   4.996   1.092  0.4455  0.3528  0.4140
 8738TIP3    H147629   2.276   4.955   1.005  0.6264  0.9650  0.1161
 8738TIP3    H247630   2.371   5.004   1.112  0.4151 -1.3194  1.4153
 8739TIP3   OH247631   3.135   1.536  11.828 -0.0416  0.2639  0.1899
 8739TIP3    H147632   3.164   1.626  11.836  1.1755 -0.2163  1.5909
 8739TIP3    H247633   3.130   1.504  11.918  0.1993 -1.2653 -0.3021
 8740TIP3   OH247634   1.997   6.594  14.003  0.0788  0.1368  0.6235
 8740TIP3    H147635   1.945   6.518  14.026  0.8018 -0.6579 -0.2815
 8740TIP3    H247636   2.086   6.561  13.993  0.3165  0.9892 -0.2878
 8741TIP3   OH247637   4.370   0.381   6.413 -0.6355  0.1246 -0.2829
 8741TIP3    H147638   4.440   0.385   6.348  0.4344 -3.3790  0.4283
 8741TIP3    H247639   4.385   0.457   6.469  2.0423  0.0273 -0.7391
 8742TIP3   OH247640   4.880   3.226  13.713  0.3034 -0.0567  1.4820
 8742TIP3    H147641   4.887   3.273  13.630  0.7602 -2.8703 -0.2145
 8742TIP3    H247642   4.834   3.286  13.771  1.3255  2.6272 -0.2976
 8743TIP3   OH247643   1.151   0.364   3.858 -0.3711  0.2277  0.1791
 8743TIP3    H147644   1.068   0.357   3.812  0.2309 -2.3901 -0.6820
 8743TIP3    H247645   1.189   0.276   3.852  0.8911  0.4042  3.5703
 8744TIP3   OH247646   3.786   5.902   2.874  0.0355 -0.0123 -0.0036
 8744TIP3    H147647   3.824   5.814   2.879 -0.6353 -0.2411  2.5396
 8744TIP3    H247648   3.717   5.895   2.808 -0.8434 -1.7683  1.0345
 8745TIP3   OH247649   5.982   4.951  14.571  0.0608 -0.1928 -0.1725
 8745TIP3    H147650   5.913   4.914  14.515 -0.3510 -0.4901  0.5151
 8745TIP3    H247651   6.008   4.878  14.628 -1.3355  0.7370  1.7668
 8746TIP3   OH247652   2.269   5.847  15.216 -0.8836 -0.9650 -0.7086
 8746TIP3    H147653   2.184   5.842  15.260 -1.0009 -0.7764 -0.9121
 8746TIP3    H247654   2.280   5.761  15.176 -0.7363 -1.1693 -0.2434
 8747TIP3   OH247655   6.439   0.542   3.281  0.2005 -0.2213 -0.6145
 8747TIP3    H147656   6.363   0.598   3.297 -0.2890 -1.2123  0.8237
 8747TIP3    H247657   6.502   0.598   3.237 -0.7588  1.0752 -0.4017
 8748TIP3   OH247658   5.564   3.902  12.856  0.1927  0.0448  0.1618
 8748TIP3    H147659   5.589   3.994  12.856  1.6418 -0.2351 -2.4961
 8748TIP3    H247660   5.642   3.856  12.824 -1.0535 -1.8941 -0.2503
 8749TIP3   OH247661   1.310   1.685   1.449  0.3384  0.5538 -0.1961
 8749TIP3    H147662   1.360   1.766   1.453 -1.6068  1.9381 -1.7950
 8749TIP3    H247663   1.239   1.697   1.512 -0.7966  0.7638 -1.4667
 8750TIP3   OH247664   2.117   4.685   0.034  0.4131 -0.1512  0.8059
 8750TIP3    H147665   2.077   4.767   0.006 -0.2133 -0.8133 -0.3710
 8750TIP3    H247666   2.202   4.709   0.068  1.1514  0.8082 -1.4940
 8751TIP3   OH247667   3.700   3.325  11.636  0.3898  0.8403 -0.4954
 8751TIP3    H147668   3.633   3.283  11.689 -0.4301 -0.1152 -2.1927
 8751TIP3    H247669   3.670   3.416  11.626 -1.5793  0.0765 -2.4910
 8752TIP3   OH247670   3.883   5.579   1.928  0.1294  0.0358  0.8779
 8752TIP3    H147671   3.865   5.672   1.912  1.2955  0.2575  0.7363
 8752TIP3    H247672   3.940   5.578   2.005  2.0779 -0.3442 -0.4849
 8753TIP3   OH247673   2.989   0.570   3.457 -0.2508 -0.0500 -0.0068
 8753TIP3    H147674   2.968   0.659   3.486 -0.0921  0.6488 -1.8499
 8753TIP3    H247675   2.918   0.516   3.492 -0.7197  0.9157  0.5814
 8754TIP3   OH247676   2.318   6.382  15.348 -0.0027 -0.7326 -0.0613
 8754TIP3    H147677   2.331   6.352  15.438  0.8936 -1.2201 -0.3457
 8754TIP3    H247678   2.373   6.461  15.341  0.3029 -0.9657 -0.3168
 8755TIP3   OH247679   2.935   5.800  16.266  0.6095  0.2419  0.4702
 8755TIP3    H147680   3.025   5.829  16.280  0.1650  2.3629 -0.5826
 8755TIP3    H247681   2.943   5.722  16.211  1.8042  0.0137  0.9376
 8756TIP3   OH247682   2.356   6.457   5.615 -0.0574 -0.1568  0.6181
 8756TIP3    H147683   2.260   6.455   5.616 -0.1864  2.2806 -0.2990
 8756TIP3    H247684   2.382   6.370   5.585 -2.1618  0.3749 -3.3281
 8757TIP3   OH247685   2.230   3.855  13.127  0.1033 -0.2064  0.2372
 8757TIP3    H147686   2.246   3.763  13.105 -0.1272 -0.5106  1.3132
 8757TIP3    H247687   2.236   3.900  13.042 -1.5307 -1.4329 -0.5945
 8758TIP3   OH247688   3.696   3.368  12.685 -0.0370  0.2821  0.0036
 8758TIP3    H147689   3.730   3.306  12.749  1.6225  1.2177  0.0769
 8758TIP3    H247690   3.678   3.447  12.736  2.7410  1.5638 -0.8145
 8759TIP3   OH247691   6.632   4.664   3.221 -0.1112  0.2935 -0.7912
 8759TIP3    H147692   6.620   4.705   3.307 -1.0335 -0.6887 -0.4420
 8759TIP3    H247693   6.548   4.675   3.177  0.1889  0.3077 -1.3765
 8760TIP3   OH247694   4.101   5.736  12.128 -0.0574  0.5114  0.0554
 8760TIP3    H147695   4.122   5.686  12.207 -1.1574 -0.8808 -0.5020
 8760TIP3    H247696   4.142   5.687  12.057  0.6789  1.6004 -0.3096
 8761TIP3   OH247697   1.244   0.152   5.657 -0.2012 -0.5860 -0.3317
 8761TIP3    H147698   1.325   0.107   5.636  0.2363  0.1449 -0.2648
 8761TIP3    H247699   1.206   0.104   5.730 -0.3690 -1.5590 -1.0428
 8762TIP3   OH247700   0.952   3.527   2.926  0.3103 -0.1049 -0.2913
 8762TIP3    H147701   0.981   3.547   2.837 -3.1325  3.2949 -0.9113
 8762TIP3    H247702   0.884   3.460   2.915  0.0712  0.1181 -0.1631
 8763TIP3   OH247703   4.758   2.749   6.105  0.1521  0.2175 -0.4933
 8763TIP3    H147704   4.797   2.822   6.057  0.9498 -0.9406 -1.6876
 8763TIP3    H247705   4.786   2.761   6.196  2.3929  0.0746 -1.0957
 8764TIP3   OH247706   5.537   2.805   4.545  0.3572 -0.4065 -0.4805
 8764TIP3    H147707   5.502   2.857   4.473 -0.2491 -1.2546 -0.8080
 8764TIP3    H247708   5.474   2.816   4.616 -1.2790 -2.8426 -1.4356
 8765TIP3   OH247709   2.234   5.420  13.453  0.3022 -0.1904 -0.1456
 8765TIP3    H147710   2.203   5.338  13.491  2.2438 -1.3486 -0.9424
 8765TIP3    H247711   2.247   5.478  13.529  1.8958 -1.6942  0.8118
 8766TIP3   OH247712   1.720   5.731  12.604 -0.1999 -0.4568 -0.2454
 8766TIP3    H147713   1.729   5.715  12.510  2.5648 -1.3760  0.0862
 8766TIP3    H247714   1.783   5.800  12.623 -3.1048  2.2709  0.4925
 8767TIP3   OH247715   3.911   1.043   6.345 -0.0648 -0.2765  0.4968
 8767TIP3    H147716   3.843   1.064   6.409 -0.0166 -1.6901  1.0466
 8767TIP3    H247717   3.993   1.059   6.391  0.0205  1.7007 -0.2580
 8768TIP3   OH247718   1.935   5.791   4.127 -0.2199 -0.4903 -0.2626
 8768TIP3    H147719   2.017   5.769   4.082 -0.0005  0.1818 -0.1907
 8768TIP3    H247720   1.957   5.866   4.182 -0.2370 -1.8477  1.7141
 8769TIP3   OH247721   4.642   6.760  15.462 -0.7215  0.2047  0.0311
 8769TIP3    H147722   4.682   6.842  15.492 -1.8731  0.6813  0.3313
 8769TIP3    H247723   4.583   6.787  15.391  0.2862 -0.6253 -1.1622
 8770TIP3   OH247724   6.513   0.269   3.629  0.2099  0.2264  0.2474
 8770TIP3    H147725   6.475   0.181   3.640  0.6708 -0.0395 -0.2383
 8770TIP3    H247726   6.576   0.259   3.558  1.4855  0.5641  1.2871
 8771TIP3   OH247727   6.210   1.211  14.823  0.4935 -0.2830 -0.1415
 8771TIP3    H147728   6.264   1.237  14.898 -1.4617  1.1620  0.8574
 8771TIP3    H247729   6.267   1.221  14.747  0.7898  4.5712  0.4208
 8772TIP3   OH247730   3.658   4.848  11.422  0.7585 -0.4431 -0.5716
 8772TIP3    H147731   3.651   4.775  11.483  2.3311  0.7447  1.1820
 8772TIP3    H247732   3.584   4.905  11.444  1.2386 -0.0883  0.1867
 8773TIP3   OH247733   1.551   1.163   3.232  0.0153 -0.4323  0.6764
 8773TIP3    H147734   1.478   1.107   3.205  1.9827 -2.8572  0.1201
 8773TIP3    H247735   1.608   1.167   3.155  0.2062  2.0153  0.8583
 8774TIP3   OH247736   2.711   1.924  11.917  0.1135  0.0454  0.2279
 8774TIP3    H147737   2.724   1.972  11.834  1.8067 -0.5486  0.1126
 8774TIP3    H247738   2.637   1.865  11.899  0.5840 -0.2236 -0.9428
 8775TIP3   OH247739   4.065   6.618   5.555  0.0314  0.0338  0.5557
 8775TIP3    H147740   4.029   6.700   5.588 -0.0793 -0.3861  1.5186
 8775TIP3    H247741   3.993   6.556   5.560  0.7304 -0.7225  2.1716
 8776TIP3   OH247742   0.424   0.303   1.659 -0.3197  0.3177 -0.4871
 8776TIP3    H147743   0.445   0.285   1.568  1.7031 -2.6582  0.4315
 8776TIP3    H247744   0.328   0.305   1.661 -0.5599 -2.9704 -2.1953
 8777TIP3   OH247745   5.348   2.797  11.434  0.3634 -0.1850  0.1576
 8777TIP3    H147746   5.355   2.722  11.375 -0.6672 -0.5540  0.4865
 8777TIP3    H247747   5.381   2.871  11.383  0.8754 -0.7604 -0.3613
 8778TIP3   OH247748   0.498   5.039   2.991 -0.0904 -0.3153  0.3002
 8778TIP3    H147749   0.519   4.970   2.928 -1.6977  1.1039 -1.9473
 8778TIP3    H247750   0.428   5.002   3.044 -0.1238 -0.8255 -0.0906
 8779TIP3   OH247751   4.084   1.952  15.066  0.2807  0.1249  0.4483
 8779TIP3    H147752   4.111   1.927  14.978 -0.5555 -0.3862  0.3374
 8779TIP3    H247753   4.046   1.873  15.104  0.4448  0.3921  1.2042
 8780TIP3   OH247754   2.303   4.979   3.792  0.1236  0.7115 -0.0341
 8780TIP3    H147755   2.293   5.074   3.788 -0.0855  0.8365  2.1620
 8780TIP3    H247756   2.345   4.963   3.877  0.2568 -1.1500 -0.4114
 8781TIP3   OH247757   3.985   4.165  14.347 -0.0336  0.0766 -0.1325
 8781TIP3    H147758   4.004   4.071  14.348  0.3712  0.1294 -1.3358
 8781TIP3    H247759   4.071   4.206  14.340 -0.1697  0.5689  0.8934
 8782TIP3   OH247760   5.397   2.742   4.903 -0.9150 -0.5424  0.2526
 8782TIP3    H147761   5.347   2.663   4.880  0.5683 -1.2324 -0.7265
 8782TIP3    H247762   5.352   2.813   4.858 -2.5440 -0.7077  1.5108
 8783TIP3   OH247763   3.680   4.878  10.996  0.0983 -0.2883 -0.0700
 8783TIP3    H147764   3.594   4.908  10.966  0.3190  0.2293 -0.1941
 8783TIP3    H247765   3.684   4.787  10.969  0.0599  0.0090 -1.1005
 8784TIP3   OH247766   3.699   0.012  15.701  0.2360  0.2395  0.4351
 8784TIP3    H147767   3.634   0.057  15.756  0.2631  0.5487  0.2152
 8784TIP3    H247768   3.649  -0.016  15.624  0.0596 -0.7419  0.8960
 8785TIP3   OH247769   3.496   5.769  11.168  0.9774  0.4708  0.0747
 8785TIP3    H147770   3.406   5.790  11.192  0.3209 -0.3807 -1.4895
 8785TIP3    H247771   3.513   5.820  11.089  1.1590 -0.8266 -0.7597
 8786TIP3   OH247772   5.996   4.512  16.923  0.3250  0.1656 -0.2632
 8786TIP3    H147773   5.955   4.548  16.844  1.1509  1.9735  0.0733
 8786TIP3    H247774   6.088   4.503  16.899  0.2347 -1.2567 -0.1403
 8787TIP3   OH247775   4.350   4.859  17.193  0.4512 -0.2668  0.0896
 8787TIP3    H147776   4.258   4.833  17.189  0.3458 -0.0806  1.0221
 8787TIP3    H247777   4.348   4.954  17.183  0.5731 -0.2912 -0.1793
 8788TIP3   OH247778   6.568   2.030  14.908  0.5473 -0.1432  0.0355
 8788TIP3    H147779   6.551   1.950  14.958 -0.5934  0.0562 -0.0161
 8788TIP3    H247780   6.508   2.095  14.945  2.1774  1.0021  0.7757
 8789TIP3   OH247781   5.046   3.621   1.387 -0.0225  0.0381  0.1628
 8789TIP3    H147782   4.964   3.610   1.338  0.7415 -2.1943 -0.7470
 8789TIP3    H247783   5.089   3.695   1.344 -0.3456 -0.5158 -1.1784
 8790TIP3   OH247784   3.990   1.211   5.456  0.4424  0.1510  0.0803
 8790TIP3    H147785   4.030   1.144   5.400 -1.9124 -0.9645 -0.3817
 8790TIP3    H247786   4.040   1.207   5.537  1.2995 -1.1364 -0.4749
 8791TIP3   OH247787   2.510   3.156  14.936  0.0868 -0.1201 -0.3131
 8791TIP3    H147788   2.605   3.144  14.941 -0.1149 -2.0808 -0.4117
 8791TIP3    H247789   2.487   3.198  15.018  0.7235 -2.2860  1.0365
 8792TIP3   OH247790   4.848   2.916   0.729 -0.5092 -0.5830 -0.2190
 8792TIP3    H147791   4.900   2.950   0.802 -3.2302  4.6232 -0.1960
 8792TIP3    H247792   4.896   2.942   0.651 -0.1063 -1.4667 -0.2745
 8793TIP3   OH247793   4.170   0.414   0.635 -1.1189  0.6309 -0.3462
 8793TIP3    H147794   4.190   0.483   0.698  2.7868 -0.2008 -0.4130
 8793TIP3    H247795   4.190   0.453   0.550 -1.5557  0.2560 -0.6228
 8794TIP3   OH247796   0.131   0.443   3.850 -0.1563 -0.1188 -0.2369
 8794TIP3    H147797   0.076   0.483   3.783  0.8553  1.3064 -0.2356
 8794TIP3    H247798   0.150   0.514   3.911  2.3936 -0.3433 -0.6973
 8795TIP3   OH247799   1.046   2.215  13.139  0.3616  0.1486 -0.0355
 8795TIP3    H147800   1.013   2.302  13.118 -1.9754 -0.8962 -0.9679
 8795TIP3    H247801   1.109   2.196  13.069 -0.0819  0.5816 -0.5585
 8796TIP3   OH247802   1.129   1.291   0.827 -0.2554 -0.4316 -0.3192
 8796TIP3    H147803   1.084   1.307   0.910 -0.6438 -0.3200 -0.5476
 8796TIP3    H247804   1.209   1.343   0.832 -1.5343  1.6967 -1.0823
 8797TIP3   OH247805   5.637   1.083  15.564 -0.4725  0.7000  0.4234
 8797TIP3    H147806   5.683   1.020  15.510 -0.8050  0.8828 -0.0819
 8797TIP3    H247807   5.560   1.036  15.596 -0.9500  0.9679 -0.3043
 8798TIP3   OH247808   5.411   5.425  17.222  0.3397  0.3078 -0.1296
 8798TIP3    H147809   5.361   5.481  17.162 -0.0186  0.3617  0.2115
 8798TIP3    H247810   5.479   5.482  17.258 -0.0678  0.5510  0.2698
 8799TIP3   OH247811   0.336   5.511   1.299  0.0886  0.0880 -0.5341
 8799TIP3    H147812   0.297   5.425   1.314 -2.3336  1.4052  1.4613
 8799TIP3    H247813   0.355   5.545   1.387  1.5552  1.3987 -1.2935
 8800TIP3   OH247814   6.279   6.619  14.846  0.8153  0.3154  0.0601
 8800TIP3    H147815   6.227   6.540  14.828  2.1539 -0.6214  0.0934
 8800TIP3    H247816   6.265   6.636  14.939 -1.6003  1.7658 -0.4819
 8801TIP3   OH247817   1.146   0.672   5.774  0.1788 -0.0357 -1.0304
 8801TIP3    H147818   1.187   0.707   5.695 -1.0783 -1.2667 -2.3125
 8801TIP3    H247819   1.158   0.577   5.766  1.4745 -0.1142  1.1400
 8802TIP3   OH247820   5.818   1.163   4.195  0.3218  0.8250 -0.0827
 8802TIP3    H147821   5.771   1.080   4.184 -1.3550  1.5446  1.3556
 8802TIP3    H247822   5.816   1.204   4.108 -0.5084  0.2296 -0.3482
 8803TIP3   OH247823   0.710   2.803  15.634 -0.0380  0.0428 -0.3643
 8803TIP3    H147824   0.694   2.710  15.650 -0.7770 -0.0737 -1.6722
 8803TIP3    H247825   0.800   2.817  15.664 -0.2810 -0.8273  0.8638
 8804TIP3   OH247826   4.362   1.470  14.342  0.2760  0.4456 -0.6702
 8804TIP3    H147827   4.425   1.451  14.272  0.2868 -1.8981 -0.1047
 8804TIP3    H247828   4.283   1.423  14.316  0.8282 -2.0420  1.6367
 8805TIP3   OH247829   4.167   3.141  11.490 -0.3331 -0.4064  0.0193
 8805TIP3    H147830   4.105   3.171  11.558  0.5275 -0.1369  0.7072
 8805TIP3    H247831   4.111   3.108  11.420 -1.2743  0.2741  0.4196
 8806TIP3   OH247832   5.918   1.998   5.211 -0.2092  0.2836 -0.4790
 8806TIP3    H147833   5.971   2.029   5.285 -0.1905 -0.2324 -0.2719
 8806TIP3    H247834   5.916   1.903   5.222 -1.8469  0.3394 -0.0043
 8807TIP3   OH247835   3.751   3.084   1.400  0.5465  0.2612  0.3419
 8807TIP3    H147836   3.833   3.044   1.372  0.1475 -0.8171  0.6734
 8807TIP3    H247837   3.735   3.153   1.335  1.1982 -0.1718 -0.2980
 8808TIP3   OH247838   5.057   1.018  15.109  0.0363  0.1251 -0.1025
 8808TIP3    H147839   5.047   0.979  15.196 -0.9602 -2.0518 -1.1147
 8808TIP3    H247840   5.040   0.946  15.049  0.3302  1.6666 -2.1162
 8809TIP3   OH247841   5.014   6.445  11.363  0.9244  0.1788  0.5871
 8809TIP3    H147842   5.000   6.500  11.286  1.9160 -1.0641 -0.5369
 8809TIP3    H247843   5.069   6.498  11.421 -1.2805  1.8168  1.2860
 8810TIP3   OH247844   1.035   5.439   2.116 -0.2251 -0.0326 -0.0937
 8810TIP3    H147845   1.039   5.405   2.205  0.7753  0.5410  0.0980
 8810TIP3    H247846   0.967   5.506   2.119 -2.7973 -2.4500 -0.6688
 8811TIP3   OH247847   2.037   2.708   0.947 -0.4384 -0.5389 -0.0152
 8811TIP3    H147848   2.046   2.783   1.006 -2.7127  0.4682 -0.8079
 8811TIP3    H247849   2.126   2.681   0.928  0.5252  2.3571 -0.1365
 8812TIP3   OH247850   5.264   6.263  16.308  0.2719 -0.1345  0.1110
 8812TIP3    H147851   5.302   6.291  16.225 -1.3472 -0.7976 -0.9017
 8812TIP3    H247852   5.201   6.332  16.330  0.1553 -0.3289  0.3964
 8813TIP3   OH247853   6.037   6.401  12.446 -0.4628  0.2194  0.4470
 8813TIP3    H147854   5.986   6.385  12.526 -0.1996  1.5841  0.9177
 8813TIP3    H247855   6.041   6.315  12.403 -1.7432 -0.2613  1.2181
 8814TIP3   OH247856   1.959   3.747  11.542  0.3652 -0.1568  0.0067
 8814TIP3    H147857   2.049   3.778  11.537  0.5868 -0.8327 -0.3432
 8814TIP3    H247858   1.930   3.740  11.451  0.4148 -1.2014  0.0555
 8815TIP3   OH247859   5.958   0.852  14.419 -0.1276  0.2032 -0.5065
 8815TIP3    H147860   5.985   0.861  14.327 -2.1276  2.4993 -0.9997
 8815TIP3    H247861   6.037   0.869  14.469  0.7207  0.2959 -1.8120
 8816TIP3   OH247862   0.019   0.669  13.426 -0.0052  0.2088  0.1006
 8816TIP3    H147863   0.052   0.620  13.502  0.2879 -0.9698 -0.7580
 8816TIP3    H247864  -0.020   0.602  13.370 -1.6995  1.2683 -0.0547
 8817TIP3   OH247865   4.415   0.286   1.715 -0.4980 -0.2923 -0.1926
 8817TIP3    H147866   4.425   0.377   1.686 -1.5474  0.0227  0.4000
 8817TIP3    H247867   4.468   0.236   1.654 -0.1017  0.6934 -0.6811
 8818TIP3   OH247868   6.561   5.005  16.797  0.4176 -0.3875  0.2516
 8818TIP3    H147869   6.552   4.934  16.734 -2.1480  1.0386 -1.1510
 8818TIP3    H247870   6.645   4.988  16.840  1.2094 -2.6839 -1.9278
 8819TIP3   OH247871   1.809   6.336  10.887 -0.8122 -0.8215  0.4492
 8819TIP3    H147872   1.821   6.251  10.845 -1.8070 -0.5973 -0.3196
 8819TIP3    H247873   1.782   6.395  10.816  0.6586  0.3508  0.8069
 8820TIP3   OH247874   5.831   5.588  11.530  0.1299 -0.2764  0.0493
 8820TIP3    H147875   5.819   5.682  11.515 -0.3976 -0.5378 -1.4015
 8820TIP3    H247876   5.793   5.547  11.452  0.9500 -1.6655  0.3490
 8821TIP3   OH247877   5.602   5.266   5.796  0.1876 -0.0037  0.0497
 8821TIP3    H147878   5.539   5.293   5.863 -1.1068 -1.8306 -0.3316
 8821TIP3    H247879   5.618   5.173   5.815 -0.0386 -0.5072 -2.0121
 8822TIP3   OH247880   0.644   1.442   5.063  0.3972 -0.2175  0.6720
 8822TIP3    H147881   0.705   1.443   4.990  0.4861 -0.1017  0.7466
 8822TIP3    H247882   0.692   1.484   5.135  0.6649 -1.1851  1.0815
 8823TIP3   OH247883   6.345   1.160  17.202 -0.7286 -0.3622 -0.2143
 8823TIP3    H147884   6.335   1.071  17.168 -2.1979  0.2379 -1.4844
 8823TIP3    H247885   6.437   1.165  17.230 -0.7468 -2.4214  0.3897
 8824TIP3   OH247886   4.052   2.526   0.392  0.4527  0.1171 -0.0569
 8824TIP3    H147887   4.002   2.488   0.464  0.8661  0.8280  0.6261
 8824TIP3    H247888   4.137   2.483   0.396 -0.3051 -1.7225 -1.7501
 8825TIP3   OH247889   5.819   4.316  15.765  0.3069  0.1625 -0.4054
 8825TIP3    H147890   5.798   4.290  15.675  0.6900 -0.5723 -0.2876
 8825TIP3    H247891   5.902   4.273  15.784  0.5903  0.8925  0.0562
 8826TIP3   OH247892   3.695   2.822   4.172 -0.0374  0.4886  0.3452
 8826TIP3    H147893   3.765   2.888   4.173 -0.9662  1.5219 -0.4727
 8826TIP3    H247894   3.724   2.758   4.107  0.9203  0.0023  1.2121
 8827TIP3   OH247895   3.132   3.743  11.411  0.1468  0.7034  0.1692
 8827TIP3    H147896   3.165   3.827  11.378  0.8874  0.7757  1.0678
 8827TIP3    H247897   3.107   3.695  11.332  0.6577  1.3719 -0.4183
 8828TIP3   OH247898   3.320   3.362   5.553 -0.2289 -0.1538  0.1016
 8828TIP3    H147899   3.229   3.393   5.553  0.0939  0.9177  1.9863
 8828TIP3    H247900   3.313   3.267   5.561 -1.1766 -0.1459 -0.4760
 8829TIP3   OH247901   1.338   6.789  11.951  0.4613  0.2508 -0.3732
 8829TIP3    H147902   1.303   6.723  11.891 -0.1246  0.0465  0.1837
 8829TIP3    H247903   1.309   6.761  12.038 -2.5550  2.8704 -0.3689
 8830TIP3   OH247904   0.198   5.699   4.880 -0.0743  0.0416  0.2228
 8830TIP3    H147905   0.251   5.708   4.801  1.2884  0.7374  1.1789
 8830TIP3    H247906   0.215   5.779   4.930 -1.2071 -0.2096  1.0463
 8831TIP3   OH247907   5.348   5.354   5.695  0.7418 -0.3023  0.1399
 8831TIP3    H147908   5.333   5.294   5.768  0.2767 -0.0495  0.2571
 8831TIP3    H247909   5.441   5.344   5.675  0.8749 -0.3782  0.7637
 8832TIP3   OH247910   4.336   6.781   0.214 -0.5295 -0.2763 -0.0836
 8832TIP3    H147911   4.274   6.803   0.283 -1.4703  1.2928 -1.3520
 8832TIP3    H247912   4.404   6.730   0.258 -1.6055 -0.2030  1.7735
 8833TIP3   OH247913   3.389   0.401  12.581 -0.0373 -0.7874 -0.1185
 8833TIP3    H147914   3.377   0.449  12.499  0.5989  2.0327  1.2931
 8833TIP3    H247915   3.304   0.362  12.600 -0.4609 -0.6321 -1.6109
 8834TIP3   OH247916   1.198   4.578   0.586 -0.2091  0.2962 -0.1673
 8834TIP3    H147917   1.199   4.572   0.682  1.0889  0.6064 -0.1498
 8834TIP3    H247918   1.113   4.617   0.566 -0.1202  1.1005  0.9228
 8835TIP3   OH247919   5.684   6.093   4.151 -0.1448  0.1314 -0.5254
 8835TIP3    H147920   5.588   6.087   4.152 -0.2152  0.9795  0.4891
 8835TIP3    H247921   5.701   6.187   4.161  0.7481 -0.2485  3.0729
 8836TIP3   OH247922   6.551   6.174   0.395  0.2633  0.5969 -0.5766
 8836TIP3    H147923   6.484   6.130   0.447 -1.1019 -0.3294 -2.9268
 8836TIP3    H247924   6.522   6.265   0.389  0.1378  0.5840 -0.1492
 8837TIP3   OH247925   3.577   6.564   3.363  0.3024 -0.6067 -0.3184
 8837TIP3    H147926   3.643   6.629   3.340 -2.3099  2.4735  0.1375
 8837TIP3    H247927   3.535   6.599   3.441 -0.5589 -3.5170  0.6809
 8838TIP3   OH247928   2.399   3.356   2.724 -0.3236  0.0668 -0.5883
 8838TIP3    H147929   2.434   3.420   2.786 -1.7680  1.1740 -0.8593
 8838TIP3    H247930   2.404   3.273   2.770 -0.1897  0.6781  0.5322
 8839TIP3   OH247931   6.529   0.642   3.808 -0.7672 -0.5109 -0.8245
 8839TIP3    H147932   6.597   0.582   3.777  1.2771  0.8114  0.7864
 8839TIP3    H247933   6.537   0.640   3.903 -0.5104  2.3411 -0.6991
 8840TIP3   OH247934   1.866   2.126  17.135 -0.7092  0.0306  0.6115
 8840TIP3    H147935   1.845   2.183  17.061  0.3935 -0.9246 -0.4948
 8840TIP3    H247936   1.824   2.043  17.114 -0.2382 -0.3026  0.9637
 8841TIP3   OH247937   4.835   1.728  11.758  0.8388 -0.2855 -0.1433
 8841TIP3    H147938   4.743   1.713  11.740  1.0679  0.2763 -1.9236
 8841TIP3    H247939   4.875   1.641  11.753  0.4327 -0.5205  0.5679
 8842TIP3   OH247940   5.647   6.483  13.234  0.3577 -0.2421  0.5564
 8842TIP3    H147941   5.606   6.455  13.316  0.8718 -1.0768  0.5357
 8842TIP3    H247942   5.740   6.463  13.246  0.4397 -0.3509 -0.2329
 8843TIP3   OH247943   4.559   1.995   2.311  0.3381  0.0154  0.1395
 8843TIP3    H147944   4.589   1.906   2.331  0.5872 -0.0910 -0.6698
 8843TIP3    H247945   4.616   2.051   2.362  0.1223 -0.2855  0.7283
 8844TIP3   OH247946   1.051   1.426   0.508  0.2414 -0.1566  0.2064
 8844TIP3    H147947   1.136   1.388   0.484 -0.5656 -1.7835 -0.2389
 8844TIP3    H247948   1.057   1.517   0.480  1.1728 -0.7166 -1.5919
 8845TIP3   OH247949   2.382   2.169   2.966 -0.1647  0.3446  0.5147
 8845TIP3    H147950   2.414   2.080   2.951  0.2208  0.3962  1.0380
 8845TIP3    H247951   2.292   2.157   2.996 -0.7499  0.2110 -1.1847
 8846TIP3   OH247952   6.628   1.534  11.818 -0.0008 -0.0751  0.1287
 8846TIP3    H147953   6.661   1.610  11.769 -1.3156 -0.5324 -1.5593
 8846TIP3    H247954   6.707   1.489  11.849  0.9928 -0.5729 -2.8642
 8847TIP3   OH247955   3.262   6.393  13.621 -0.1231  0.3778  0.0454
 8847TIP3    H147956   3.248   6.299  13.631  0.3229  0.1369 -1.3761
 8847TIP3    H247957   3.342   6.400  13.568 -0.1612  1.5579  0.1161
 8848TIP3   OH247958   4.688   2.032  11.858  0.0113 -0.9336  0.3348
 8848TIP3    H147959   4.687   2.039  11.763 -1.9618 -1.7945  0.2458
 8848TIP3    H247960   4.781   2.031  11.881  0.5449  0.9925 -1.4093
 8849TIP3   OH247961   1.367   3.255  13.652  0.2192  0.5746 -0.4253
 8849TIP3    H147962   1.280   3.218  13.639  1.3086 -2.1124 -0.5627
 8849TIP3    H247963   1.397   3.219  13.735  1.9054 -0.0463 -1.2654
 8850TIP3   OH247964   3.760   3.706  10.561 -0.3059 -0.6068  0.1234
 8850TIP3    H147965   3.803   3.775  10.611  0.5631  0.6064 -2.1572
 8850TIP3    H247966   3.671   3.738  10.546  0.2139  0.2571 -1.2694
 8851TIP3   OH247967   2.279   5.380  13.113  0.5178 -0.1063  0.8305
 8851TIP3    H147968   2.255   5.338  13.031 -0.5594  2.0933 -0.0688
 8851TIP3    H247969   2.212   5.353  13.175  0.5064 -0.6343  0.5876
 8852TIP3   OH247970   1.057   2.930  11.762 -0.7754 -0.6036  0.5343
 8852TIP3    H147971   1.101   2.934  11.678 -0.8915  0.2730  0.5070
 8852TIP3    H247972   0.968   2.960  11.745 -1.9917 -3.9182  0.2518
 8853TIP3   OH247973   3.837   2.106  15.637 -0.3050 -0.6823  0.6301
 8853TIP3    H147974   3.925   2.106  15.599 -0.3815 -1.3189  0.4466
 8853TIP3    H247975   3.779   2.129  15.565 -0.7728 -4.6155 -0.4833
 8854TIP3   OH247976   3.035   4.266  15.796  0.4610 -0.0877  0.3944
 8854TIP3    H147977   3.013   4.183  15.838 -0.6786 -1.1634 -2.0888
 8854TIP3    H247978   2.951   4.310  15.783  0.8123  0.4060 -0.3134
 8855TIP3   OH247979   5.553   6.463   4.806  0.5048 -0.1443  0.0596
 8855TIP3    H147980   5.492   6.393   4.830  0.7981 -0.1040  0.9675
 8855TIP3    H247981   5.630   6.417   4.773 -0.1197 -0.1907 -1.4376
 8856TIP3   OH247982   5.448   1.478   1.907 -0.0331  0.1831 -0.1419
 8856TIP3    H147983   5.394   1.513   1.978  0.5846  1.5772 -0.3189
 8856TIP3    H247984   5.418   1.388   1.895  0.0624 -0.1940  2.0925
 8857TIP3   OH247985   4.643   3.407   4.912 -0.2425 -0.9000 -0.0741
 8857TIP3    H147986   4.628   3.456   4.993 -2.8552 -0.2291 -0.8921
 8857TIP3    H247987   4.666   3.473   4.847  2.5688 -1.5043  0.1639
 8858TIP3   OH247988   2.850   0.511   1.382  0.1628  0.2838  0.5454
 8858TIP3    H147989   2.834   0.420   1.406 -0.2368  0.0294 -0.6265
 8858TIP3    H247990   2.862   0.509   1.287 -0.3218  1.5088  0.4384
 8859TIP3   OH247991   5.378   6.015   4.551 -0.3271 -0.3656  0.3077
 8859TIP3    H147992   5.335   5.957   4.614 -0.2961  0.9524  1.5865
 8859TIP3    H247993   5.306   6.053   4.500 -0.5246  0.2754  1.0624
 8860TIP3   OH247994   2.502   1.058  14.484 -0.0605  0.4919  0.5041
 8860TIP3    H147995   2.507   1.145  14.444 -0.7185  1.6829  2.8621
 8860TIP3    H247996   2.568   1.060  14.554  0.9230 -1.4543 -0.2828
 8861TIP3   OH247997   4.418   4.136  13.687  0.2148  0.1815 -0.1848
 8861TIP3    H147998   4.465   4.063  13.727 -0.1520  0.0258 -0.0360
 8861TIP3    H247999   4.427   4.122  13.593  0.1895 -0.0249 -0.1560
 8862TIP3   OH248000   6.001   3.896   2.262  0.0194 -0.1650  0.3567
 8862TIP3    H148001   5.933   3.829   2.253  0.8802 -0.9446 -0.6860
 8862TIP3    H248002   6.064   3.858   2.324  0.7575 -0.5654 -0.6107
 8863TIP3   OH248003   1.685   1.537  12.321 -0.0024  0.7426 -0.3498
 8863TIP3    H148004   1.680   1.521  12.416  0.1711  0.8881 -0.3144
 8863TIP3    H248005   1.653   1.627  12.311 -2.0684  0.0302 -0.6698
 8864TIP3   OH248006   6.697   0.050   2.299  0.0484  0.7130  0.2347
 8864TIP3    H148007   6.758   0.050   2.225 -1.5201  0.2070 -1.1034
 8864TIP3    H248008   6.688  -0.043   2.322 -0.9401  0.6939 -0.2055
 8865TIP3   OH248009   5.784   1.142  12.026  0.0182 -0.1333  0.1372
 8865TIP3    H148010   5.694   1.117  12.047  0.0585  0.6720  1.3961
 8865TIP3    H248011   5.776   1.222  11.975  0.0111 -0.5831 -0.5885
 8866TIP3   OH248012   3.828   0.786  12.239 -0.0550  0.0645 -0.4449
 8866TIP3    H148013   3.887   0.847  12.284  2.0202 -0.3614 -2.4353
 8866TIP3    H248014   3.882   0.746  12.171 -2.2931 -1.4568 -1.4291
 8867TIP3   OH248015   6.250   0.403  10.839 -0.3327 -0.6834  0.8817
 8867TIP3    H148016   6.339   0.431  10.818  0.1355 -1.2699  2.0072
 8867TIP3    H248017   6.226   0.454  10.916 -0.9908 -0.5120  0.5707
 8868TIP3   OH248018   3.830   1.916   4.033 -0.1145  0.3023 -0.3819
 8868TIP3    H148019   3.818   1.846   4.097  1.4136  0.0958 -0.2699
 8868TIP3    H248020   3.894   1.975   4.073 -2.3816  2.5826  0.1276
 8869TIP3   OH248021   6.313   0.973  13.308 -0.0340 -0.3453 -0.6509
 8869TIP3    H148022   6.395   0.926  13.321  0.2977 -0.0624 -1.6368
 8869TIP3    H248023   6.322   1.015  13.222 -1.4857 -0.8982 -1.1199
 8870TIP3   OH248024   4.703   4.458   5.659 -0.2293  0.1035 -0.4566
 8870TIP3    H148025   4.724   4.371   5.691 -2.8080 -0.1071  0.9393
 8870TIP3    H248026   4.770   4.477   5.593  0.0870 -3.1277 -1.2047
 8871TIP3   OH248027   6.213   3.849  16.118 -0.3661  0.0544 -0.2714
 8871TIP3    H148028   6.241   3.888  16.034 -0.0907 -0.6273 -0.5054
 8871TIP3    H248029   6.244   3.758  16.113 -0.6502 -0.0819  0.4307
 8872TIP3   OH248030   5.958   3.606  12.531 -0.0064  0.2252 -0.5628
 8872TIP3    H148031   6.021   3.677  12.544  1.2202 -0.3238 -2.9684
 8872TIP3    H248032   5.949   3.565  12.618 -0.3464  2.9098  0.7709
 8873TIP3   OH248033   4.373   0.372   0.064 -0.2595 -0.2733  0.5318
 8873TIP3    H148034   4.344   0.307  -0.001  2.5711 -0.6342 -0.5034
 8873TIP3    H248035   4.442   0.327   0.113  1.0512  1.6103  0.4857
 8874TIP3   OH248036   3.318   3.497   0.971 -1.0324  0.0751 -0.0218
 8874TIP3    H148037   3.385   3.554   1.009 -1.9435  0.0839  1.6533
 8874TIP3    H248038   3.270   3.554   0.911 -1.9173  1.1444  1.6142
 8875TIP3   OH248039   6.115   3.164  11.635 -0.8077 -0.2699 -0.1544
 8875TIP3    H148040   6.030   3.208  11.627 -0.5123  0.0657 -2.0391
 8875TIP3    H248041   6.094   3.071  11.640 -1.3132 -0.1241  0.5950
 8876TIP3   OH248042   6.722   3.766   1.547 -0.9221  0.2988  0.0809
 8876TIP3    H148043   6.682   3.698   1.603  0.6298 -0.5277  0.2560
 8876TIP3    H248044   6.723   3.844   1.602 -2.4677  0.4015 -0.0102
 8877TIP3   OH248045   1.331   2.995  14.667  0.3072  0.2507  0.6296
 8877TIP3    H148046   1.371   2.910  14.650  0.6569  0.7852 -1.5091
 8877TIP3    H248047   1.332   3.040  14.582 -2.5428  1.2967  1.0352
 8878TIP3   OH248048   2.935   3.717   5.764 -0.2344 -0.3616 -0.5659
 8878TIP3    H148049   2.901   3.736   5.676  0.6152  2.1276 -0.4215
 8878TIP3    H248050   3.030   3.726   5.755 -0.0062 -1.6044  0.3113
 8879TIP3   OH248051   3.878   3.402  17.058  0.2507  0.4930  0.0746
 8879TIP3    H148052   3.970   3.380  17.043  0.2588 -0.7439  1.5936
 8879TIP3    H248053   3.876   3.436  17.147 -0.5749  1.8846 -0.4571
 8880TIP3   OH248054   1.635   3.066   4.895  0.3729 -0.3970 -0.0616
 8880TIP3    H148055   1.702   3.012   4.854 -1.2072 -1.5756 -1.2311
 8880TIP3    H248056   1.683   3.126   4.952  2.3807 -1.2150 -0.8233
 8881TIP3   OH248057   4.360   0.746   5.330  0.6152 -0.1031 -0.3144
 8881TIP3    H148058   4.271   0.750   5.365  0.3563 -0.3129 -0.9352
 8881TIP3    H248059   4.352   0.777   5.240  0.7167 -2.4072 -1.1935
 8882TIP3   OH248060   2.310   5.556  16.299  0.0882  0.5907  0.1076
 8882TIP3    H148061   2.313   5.610  16.378  0.0333  1.5546 -0.5306
 8882TIP3    H248062   2.402   5.538  16.278  0.0663 -1.4533  1.5543
 8883TIP3   OH248063   5.700   5.214   2.225  0.2224  0.0560 -0.6835
 8883TIP3    H148064   5.655   5.144   2.178 -1.0867 -1.0255  1.9726
 8883TIP3    H248065   5.641   5.289   2.218 -0.3365 -0.3223 -0.1934
 8884TIP3   OH248066   2.176   6.606  13.638  0.0142  0.3950 -0.1526
 8884TIP3    H148067   2.206   6.545  13.704 -0.9409  0.6053  0.5101
 8884TIP3    H248068   2.179   6.692  13.682  1.5062  0.8759 -1.1205
 8885TIP3   OH248069   2.556   0.200   4.808 -0.7088  0.4939 -0.0042
 8885TIP3    H148070   2.649   0.226   4.810  0.6635 -3.6327  0.3750
 8885TIP3    H248071   2.530   0.196   4.900 -0.1265 -1.4013  0.1339
 8886TIP3   OH248072   2.995   3.140  12.796 -0.0616  0.2558 -0.6418
 8886TIP3    H148073   3.048   3.186  12.862 -0.3546 -1.0551  0.5614
 8886TIP3    H248074   2.943   3.077  12.847 -1.2040  0.0398 -2.0165
 8887TIP3   OH248075   0.483   3.487   5.255 -0.1434 -0.4797  0.0637
 8887TIP3    H148076   0.578   3.501   5.255 -0.1057 -0.6012 -1.2024
 8887TIP3    H248077   0.450   3.545   5.187 -1.1691  0.5774  1.4082
 8888TIP3   OH248078   6.083   5.908  13.330  0.6609  0.2719 -0.0475
 8888TIP3    H148079   6.084   5.824  13.375 -0.8278 -0.2963 -0.9852
 8888TIP3    H248080   6.082   5.974  13.400  1.0976 -0.5016  0.6967
 8889TIP3   OH248081   1.883   4.076  11.654 -0.3211  0.0931 -0.1620
 8889TIP3    H148082   1.936   4.121  11.720  0.2294 -0.4317 -0.2290
 8889TIP3    H248083   1.837   4.008  11.703 -0.8456  0.4717 -0.1244
 8890TIP3   OH248084   2.389   2.001   6.427  0.1736  0.7680  0.3359
 8890TIP3    H148085   2.439   1.956   6.359  0.7172  0.7846  0.7200
 8890TIP3    H248086   2.356   1.930   6.483  0.9962  0.8389  0.9182
 8891TIP3   OH248087   3.559   1.717  12.405  0.0163  0.0914  0.2310
 8891TIP3    H148088   3.575   1.799  12.359 -0.3079  0.1993  0.3089
 8891TIP3    H248089   3.640   1.700  12.453  1.0622 -0.9744 -1.7905
 8892TIP3   OH248090   4.628   0.815  15.370  0.3374  0.2744  0.2278
 8892TIP3    H148091   4.591   0.903  15.363  0.6680  0.2833 -2.4634
 8892TIP3    H248092   4.658   0.809  15.461 -1.8146  2.0352  1.1609
 8893TIP3   OH248093   3.736   3.815  13.243 -0.1853  0.4000  0.4976
 8893TIP3    H148094   3.659   3.862  13.210  0.4260  1.6831  0.8358
 8893TIP3    H248095   3.709   3.783  13.329 -0.5550  0.2858  0.3403
 8894TIP3   OH248096   6.413   2.638   3.273  0.3687 -0.7590  0.3027
 8894TIP3    H148097   6.504   2.617   3.251  0.6037  0.9145 -0.4762
 8894TIP3    H248098   6.362   2.579   3.217  0.9750 -1.1161  0.1090
 8895TIP3   OH248099   2.121   1.997   0.449  0.5669  0.1086  0.0308
 8895TIP3    H148100   2.187   2.056   0.412  1.1716 -0.8842 -0.5314
 8895TIP3    H248101   2.041   2.016   0.399  1.3269 -1.0917 -1.7561
 8896TIP3   OH248102   4.562   5.023  13.993  0.1290  0.1786 -0.4646
 8896TIP3    H148103   4.584   5.056  14.081  2.3650  0.5698 -1.1183
 8896TIP3    H248104   4.471   5.050  13.981  0.4831  2.2353  0.8153
 8897TIP3   OH248105   2.056   0.088   4.250  0.6058  0.5517  0.1199
 8897TIP3    H148106   2.035   0.168   4.201  1.6950  0.9556  0.2736
 8897TIP3    H248107   2.030   0.107   4.340  1.0100  0.7943  0.1859
 8898TIP3   OH248108   0.751   6.216   2.631 -0.1294  0.1797 -0.8192
 8898TIP3    H148109   0.811   6.181   2.697 -0.0062  0.9745 -0.4996
 8898TIP3    H248110   0.707   6.289   2.675 -0.2333  0.5553 -1.5352
 8899TIP3   OH248111   0.287   0.223  16.896 -0.2388 -0.1449  0.1494
 8899TIP3    H148112   0.252   0.212  16.985 -1.3213 -1.4559 -0.3988
 8899TIP3    H248113   0.321   0.136  16.873  0.3462  0.2671 -0.6099
 8900TIP3   OH248114   5.419   4.087   0.064  0.6119 -0.2912  1.0125
 8900TIP3    H148115   5.453   4.003   0.093 -0.0199 -0.7932  0.3450
 8900TIP3    H248116   5.446   4.093  -0.028  1.1219  0.4834  1.2074
 8901TIP3   OH248117   2.477   5.262  15.796  0.8984 -0.1865  0.1455
 8901TIP3    H148118   2.434   5.246  15.711  0.4181 -1.6636  0.6313
 8901TIP3    H248119   2.482   5.357  15.802 -1.7571  0.0722 -0.2370
 8902TIP3   OH248120   5.520   3.679  11.745  0.0902  0.0646 -0.3356
 8902TIP3    H148121   5.596   3.738  11.751  1.2803 -1.4310 -0.1577
 8902TIP3    H248122   5.493   3.667  11.836 -0.3708  0.5732 -0.3975
 8903TIP3   OH248123   3.382   5.055   2.136  0.0020  0.2987 -0.6609
 8903TIP3    H148124   3.358   4.985   2.196 -0.4674  0.7578 -0.3009
 8903TIP3    H248125   3.342   5.030   2.052  1.4397 -0.8151 -1.0582
 8904TIP3   OH248126   6.012   3.569  15.449  0.0962 -0.1262  0.0464
 8904TIP3    H148127   5.948   3.537  15.386  0.8577 -0.1485 -0.7302
 8904TIP3    H248128   5.963   3.631  15.504 -0.9823 -1.3476  0.5153
 8905TIP3   OH248129   2.485   2.314  13.682  0.2505  0.1786 -0.0930
 8905TIP3    H148130   2.571   2.350  13.660 -0.0793  0.9480 -0.1426
 8905TIP3    H248131   2.494   2.220  13.667  1.2456  0.1746  0.4309
 8906TIP3   OH248132   2.720   6.792  12.231  0.2551  0.0522  0.1222
 8906TIP3    H148133   2.703   6.699  12.246 -1.4792  0.2875 -0.1132
 8906TIP3    H248134   2.645   6.821  12.178 -0.2666  2.0011  1.8125
 8907TIP3   OH248135   0.855   5.122   0.917 -0.3520  0.4782  0.6787
 8907TIP3    H148136   0.772   5.107   0.872  0.6342 -0.0100 -1.0513
 8907TIP3    H248137   0.860   5.052   0.982 -1.3581  0.6246  0.9390
 8908TIP3   OH248138   1.405   6.443   5.213 -0.7151 -0.6048 -0.6362
 8908TIP3    H148139   1.389   6.523   5.262 -0.2600  0.4592 -2.1501
 8908TIP3    H248140   1.403   6.373   5.279  0.4860  0.8043  0.9813
 8909TIP3   OH248141   2.936   2.100   0.032  0.5406 -0.2117  0.3393
 8909TIP3    H148142   2.950   2.192   0.052  0.9849 -0.2649  0.2786
 8909TIP3    H248143   2.851   2.079   0.071  0.5549  0.1571  0.5697
 8910TIP3   OH248144   2.472   4.036   6.731  0.2253 -0.5971 -0.2586
 8910TIP3    H148145   2.512   4.042   6.817  1.9445 -1.9003 -0.9200
 8910TIP3    H248146   2.441   3.946   6.725 -1.8219  0.0602 -0.2307
 8911TIP3   OH248147   0.042   4.530  11.850 -0.2773  0.3496 -0.2408
 8911TIP3    H148148   0.052   4.514  11.756 -1.5870 -0.8306 -0.2021
 8911TIP3    H248149   0.132   4.541  11.881  0.2684 -0.5324 -1.4108
 8912TIP3   OH248150   5.668   0.123   3.895  0.7496 -0.2383 -0.3942
 8912TIP3    H148151   5.745   0.170   3.929  0.2570 -0.6140  1.3127
 8912TIP3    H248152   5.685   0.031   3.915  0.7087 -0.5657 -1.7586
 8913TIP3   OH248153   0.406   0.493   3.720 -0.2645  0.1856 -0.3129
 8913TIP3    H148154   0.316   0.526   3.709 -0.4560 -0.3423 -0.3482
 8913TIP3    H248155   0.443   0.549   3.789 -0.2949  1.0441 -0.9793
 8914TIP3   OH248156   2.165   6.254   1.221  0.0299  0.0977 -0.0395
 8914TIP3    H148157   2.171   6.163   1.252 -0.7011  0.0832  0.0854
 8914TIP3    H248158   2.082   6.257   1.173 -0.0646  0.7583  0.1561
 8915TIP3   OH248159   2.956   1.041   1.940  0.1901  0.1362 -0.3771
 8915TIP3    H148160   2.979   1.052   2.033 -2.1956  0.7023  0.1975
 8915TIP3    H248161   3.035   1.069   1.893  0.7754  1.8031  1.4474
 8916TIP3   OH248162   0.769   3.065   4.563  0.0120  0.5937 -0.2799
 8916TIP3    H148163   0.732   3.124   4.497 -0.9655  0.4586  0.1224
 8916TIP3    H248164   0.787   3.121   4.638  2.2214  0.9614 -1.0286
 8917TIP3   OH248165   0.900   0.918  10.484  0.0271  0.0824 -0.0535
 8917TIP3    H148166   0.959   0.878  10.548 -1.5506  0.8559  2.0053
 8917TIP3    H248167   0.909   1.012  10.497 -2.1062  0.2260  0.8622
 8918TIP3   OH248168   1.676   5.733   5.302 -0.0118  0.2066  0.1371
 8918TIP3    H148169   1.651   5.758   5.391 -0.3747  2.7324 -0.5981
 8918TIP3    H248170   1.600   5.753   5.249  0.5956 -0.1880 -0.9236
 8919TIP3   OH248171   3.543   4.718   1.266  0.8371 -0.6298  0.4186
 8919TIP3    H148172   3.484   4.706   1.191  0.0108 -1.5312  1.1938
 8919TIP3    H248173   3.506   4.792   1.314  0.5025 -0.9987  0.7366
 8920TIP3   OH248174   0.289   4.804  16.059  0.2064  0.4947 -0.3787
 8920TIP3    H148175   0.267   4.779  15.969  1.9491 -0.9530 -0.4625
 8920TIP3    H248176   0.217   4.860  16.087 -0.3711  1.0088 -2.6796
 8921TIP3   OH248177   2.120   3.705   3.519 -0.5624  0.4378 -0.4495
 8921TIP3    H148178   2.041   3.751   3.546 -0.9442 -0.4758  0.0207
 8921TIP3    H248179   2.191   3.765   3.540 -0.9542  0.3275  1.3194
 8922TIP3   OH248180   0.168   4.271   1.752  0.1432  0.5080  0.4074
 8922TIP3    H148181   0.207   4.253   1.838 -1.6336 -1.7310  0.8337
 8922TIP3    H248182   0.219   4.217   1.692 -1.5059 -1.6160  0.8155
 8923TIP3   OH248183   2.840   3.441   5.243  0.5762 -0.2790 -0.2692
 8923TIP3    H148184   2.844   3.508   5.311  0.5663  0.2006 -0.7273
 8923TIP3    H248185   2.748   3.442   5.214 -0.4410 -3.1664  2.3167
 8924TIP3   OH248186   3.925   0.309  11.135 -0.2152  0.6269 -0.1893
 8924TIP3    H148187   3.983   0.337  11.065 -0.0574  0.0270 -0.3029
 8924TIP3    H248188   3.837   0.329  11.103 -0.1622  0.0856 -0.6885
 8925TIP3   OH248189   0.465   3.349   4.595 -0.2605  0.6181 -0.3880
 8925TIP3    H148190   0.436   3.273   4.545 -0.7238 -0.0996  0.9331
 8925TIP3    H248191   0.554   3.327   4.622 -0.6831  0.1571  0.6906
 8926TIP3   OH248192   1.638   4.945  12.202 -0.1232 -0.0222 -0.5042
 8926TIP3    H148193   1.705   4.933  12.268  0.0515  3.7964  0.2329
 8926TIP3    H248194   1.559   4.967  12.251 -0.9563 -0.7060 -1.4879
 8927TIP3   OH248195   5.944   3.474  12.264  0.4404 -0.0445 -0.4183
 8927TIP3    H148196   5.904   3.518  12.339  1.2949 -1.4636  0.9294
 8927TIP3    H248197   5.880   3.408  12.238  0.3706  0.1007 -0.6251
 8928TIP3   OH248198   2.471   2.957   3.945  0.0461 -0.2227 -0.0714
 8928TIP3    H148199   2.494   2.882   4.000 -1.9289 -1.2895 -0.5833
 8928TIP3    H248200   2.485   3.033   4.000 -0.7395 -1.1861  1.5294
 8929TIP3   OH248201   6.262   0.091   4.182 -0.1079  0.5585 -0.1080
 8929TIP3    H148202   6.180   0.042   4.195  1.1341 -1.4070  0.8159
 8929TIP3    H248203   6.297   0.102   4.271  1.3617 -0.0136 -0.5935
 8930TIP3   OH248204   3.211   6.051  11.376 -0.0629  0.1658  0.4065
 8930TIP3    H148205   3.131   6.104  11.376  0.6299  1.2493  0.6340
 8930TIP3    H248206   3.279   6.110  11.344  0.5607 -0.8964 -0.2926
 8931TIP3   OH248207   5.451   5.464  16.871 -0.3677 -0.1473  0.2962
 8931TIP3    H148208   5.376   5.502  16.917  0.1119  0.4119  0.6327
 8931TIP3    H248209   5.454   5.373  16.901 -0.7455 -0.1018  0.4837
 8932TIP3   OH248210   1.998   0.410   4.452 -0.2838 -0.8461  0.3995
 8932TIP3    H148211   1.912   0.420   4.493  1.2510  3.4085  3.3036
 8932TIP3    H248212   2.046   0.354   4.512  0.4012  1.1325  1.8120
 8933TIP3   OH248213   3.171   1.594  14.341 -0.2975  0.1795  0.1480
 8933TIP3    H148214   3.242   1.651  14.373 -1.0299  1.1243  0.1335
 8933TIP3    H248215   3.126   1.647  14.275 -0.8168 -0.5364 -0.0809
 8934TIP3   OH248216   4.443   2.903   1.506 -0.4268  0.2962 -0.0197
 8934TIP3    H148217   4.471   2.840   1.439  1.1858 -0.4003  1.2282
 8934TIP3    H248218   4.513   2.900   1.572 -1.0147  2.3735  0.7726
 8935TIP3   OH248219   4.920   6.099   3.313  0.3182 -0.3002 -0.5660
 8935TIP3    H148220   4.942   6.136   3.398  0.6973  0.2583 -0.8987
 8935TIP3    H248221   4.832   6.131   3.295 -0.1409 -1.1919  0.0312
 8936TIP3   OH248222   2.447   3.310  12.095 -0.9046 -0.3367  0.6620
 8936TIP3    H148223   2.510   3.377  12.124 -0.7457  0.3163 -1.0650
 8936TIP3    H248224   2.458   3.239  12.158 -0.3490  0.8454  1.9601
 8937TIP3   OH248225   6.118   3.428  14.059 -0.5142  0.2531  0.0867
 8937TIP3    H148226   6.181   3.435  14.131 -1.4580  1.9541  0.8194
 8937TIP3    H248227   6.151   3.356  14.005  1.0567 -0.0771  1.3949
 8938TIP3   OH248228   0.322   1.759   2.205 -0.0791 -0.4358  0.5329
 8938TIP3    H148229   0.390   1.692   2.218 -0.2539 -1.2770 -2.1220
 8938TIP3    H248230   0.240   1.711   2.215 -0.2108 -0.3418 -0.0331
 8939TIP3   OH248231   5.509   4.000   0.673 -0.2595 -0.0524 -0.5339
 8939TIP3    H148232   5.507   3.909   0.702  0.1991  0.0692 -0.1058
 8939TIP3    H248233   5.602   4.022   0.669 -0.3857  0.6666  0.2536
 8940TIP3   OH248234   6.466   3.446   5.341 -0.1051 -0.4740  0.2305
 8940TIP3    H148235   6.517   3.380   5.294  1.1740 -0.1577  1.1250
 8940TIP3    H248236   6.468   3.417   5.432 -0.2911  0.3199  0.4950
 8941TIP3   OH248237   0.455   4.818  15.089  0.0352  0.5532 -0.0274
 8941TIP3    H148238   0.499   4.735  15.070 -0.6132  0.3925 -0.9217
 8941TIP3    H248239   0.521   4.871  15.134  0.5967 -0.2875  0.1565
 8942TIP3   OH248240   3.248   6.487  10.600 -0.3011 -0.0108 -0.0620
 8942TIP3    H148241   3.323   6.546  10.611 -0.8511  0.6570  0.1934
 8942TIP3    H248242   3.172   6.545  10.599 -0.7769 -0.6289 -0.8807
 8943TIP3   OH248243   1.368   2.912  16.710 -0.3400 -0.1372  0.2583
 8943TIP3    H148244   1.442   2.852  16.701  1.4905  2.1388 -0.8848
 8943TIP3    H248245   1.407   2.997  16.731 -2.7202  0.9510  0.7031
 8944TIP3   OH248246   4.223   1.567  13.195  0.9445 -0.0052 -0.1169
 8944TIP3    H148247   4.139   1.576  13.240  0.0282 -2.9191 -1.0596
 8944TIP3    H248248   4.260   1.655  13.198 -2.0493  1.3875  0.4704
 8945TIP3   OH248249   6.639   3.155  12.132 -0.1643 -0.1951  0.1186
 8945TIP3    H148250   6.708   3.114  12.080 -0.2771  0.4695 -0.5662
 8945TIP3    H248251   6.654   3.249  12.122  0.8410  0.0047  2.6515
 8946TIP3   OH248252   5.901   1.773   4.231  0.6757  0.1746  0.7512
 8946TIP3    H148253   5.995   1.786   4.244  1.4392 -2.3636 -1.3466
 8946TIP3    H248254   5.891   1.678   4.228 -1.8564  0.4169  0.0976
 8947TIP3   OH248255   4.596   6.067   1.511 -0.5447 -0.1926  0.5916
 8947TIP3    H148256   4.584   5.986   1.460  1.5369 -0.6514  0.7355
 8947TIP3    H248257   4.638   6.128   1.450 -3.3910  1.3779  0.0356
 8948TIP3   OH248258   5.096   2.098   1.902  0.2252 -0.3612 -0.2277
 8948TIP3    H148259   5.080   2.031   1.837 -0.0338 -1.4011  0.8653
 8948TIP3    H248260   5.191   2.099   1.914  0.2422 -0.4245 -0.3666
 8949TIP3   OH248261   4.709   3.949   2.425  0.0366 -0.7060  0.6736
 8949TIP3    H148262   4.734   3.859   2.402  0.7235 -0.3956  0.1892
 8949TIP3    H248263   4.628   3.939   2.476 -0.6142 -1.5103 -0.4918
 8950TIP3   OH248264   0.443   5.781   1.157  0.3558  0.3875  0.8461
 8950TIP3    H148265   0.452   5.697   1.201  0.5779 -0.0669 -0.0458
 8950TIP3    H248266   0.381   5.765   1.086  0.2431  1.0265  0.7895
 8951TIP3   OH248267   4.640   5.508   3.440  0.1524 -0.2897  0.0191
 8951TIP3    H148268   4.579   5.472   3.377 -1.4149 -1.3295  2.0304
 8951TIP3    H248269   4.706   5.440   3.452 -0.1776 -0.5650  0.3063
 8952TIP3   OH248270   4.081   6.799   1.571  0.4612  0.0953  0.2760
 8952TIP3    H148271   4.011   6.853   1.533 -0.1182 -1.1678 -0.5206
 8952TIP3    H248272   4.126   6.761   1.495  1.9221  0.7478  0.7826
 8953TIP3   OH248273   0.030   0.028  12.647 -0.0376  0.4358  0.0235
 8953TIP3    H148274  -0.053   0.012  12.693  0.3965 -1.8297  0.1586
 8953TIP3    H248275   0.030   0.122  12.629 -3.6773  0.2268 -2.0073
 8954TIP3   OH248276   4.621   3.437  15.456 -0.6022  0.3734 -0.3447
 8954TIP3    H148277   4.695   3.391  15.496 -0.6630  0.8679  0.3656
 8954TIP3    H248278   4.660   3.492  15.388 -0.4776 -0.3680 -0.8775
 8955TIP3   OH248279   0.485   3.315   5.578  0.0053  0.1623 -0.1214
 8955TIP3    H148280   0.413   3.275   5.529 -0.4878  1.4566 -0.5071
 8955TIP3    H248281   0.442   3.361   5.650  0.7166 -1.6469  1.5419
 8956TIP3   OH248282   1.689   6.158  10.607  0.1904  0.0587 -0.4672
 8956TIP3    H148283   1.616   6.098  10.591 -0.1939 -0.0659  1.4849
 8956TIP3    H248284   1.768   6.105  10.595 -0.1483 -1.0536  1.6852
 8957TIP3   OH248285   6.015   4.333   6.219 -0.5879 -0.4582  0.6051
 8957TIP3    H148286   5.982   4.382   6.294  0.0301 -0.2618  0.7542
 8957TIP3    H248287   6.106   4.315   6.241 -0.6084 -1.0414  0.2255
 8958TIP3   OH248288   3.995   3.874   2.083  0.0745 -0.4952  0.0148
 8958TIP3    H148289   4.035   3.866   2.170 -2.7648  1.8730  1.7150
 8958TIP3    H248290   3.957   3.788   2.066 -0.4502 -0.6491  1.7917
 8959TIP3   OH248291   6.512   2.162   0.682 -1.0073 -0.2605 -0.2752
 8959TIP3    H148292   6.485   2.219   0.754  1.0597  0.3759  0.0371
 8959TIP3    H248293   6.433   2.111   0.662 -1.4240 -1.1422  3.0470
 8960TIP3   OH248294   5.271   5.054  14.720 -0.2661  0.2555 -0.0060
 8960TIP3    H148295   5.250   5.139  14.681  1.1913  0.3778 -0.5563
 8960TIP3    H248296   5.363   5.060  14.746 -0.6403 -0.5229  1.6579
 8961TIP3   OH248297   3.774   4.569   2.446  0.6503  0.2511  0.1246
 8961TIP3    H148298   3.756   4.498   2.508  0.3529 -1.4198 -1.7809
 8961TIP3    H248299   3.866   4.558   2.423  0.4839  0.1822 -0.5242
 8962TIP3   OH248300   1.467   4.084   3.027  0.3793 -0.6928 -0.3897
 8962TIP3    H148301   1.497   4.051   3.112  0.1225  0.2926  0.0983
 8962TIP3    H248302   1.514   4.031   2.963 -1.0094 -2.9351  0.3290
 8963TIP3   OH248303   1.279   6.034   2.374  0.0764  0.3329 -0.0342
 8963TIP3    H148304   1.271   6.127   2.397  0.1729  0.2593  0.3025
 8963TIP3    H248305   1.363   6.028   2.328  0.0288  0.4264 -0.1350
 8964TIP3   OH248306   2.227   3.473   3.611  0.3561 -0.3463  0.4021
 8964TIP3    H148307   2.193   3.532   3.545  1.1299  0.9191  1.0899
 8964TIP3    H248308   2.156   3.464   3.675  0.2794 -0.0618  0.3565
 8965TIP3   OH248309   1.425   0.106  15.122  0.7520  0.2688 -0.1792
 8965TIP3    H148310   1.493   0.039  15.123 -0.4869 -1.0431 -0.5791
 8965TIP3    H248311   1.405   0.118  15.029  1.4446  1.7353 -0.1618
 8966TIP3   OH248312   6.766   2.575   1.616 -0.6695  0.1993 -0.0666
 8966TIP3    H148313   6.694   2.616   1.568 -0.7066  0.3449  0.1126
 8966TIP3    H248314   6.816   2.648   1.651 -1.6319  0.1248  1.6079
 8967TIP3   OH248315   0.294   2.678   5.350 -0.4456 -0.4138 -0.0605
 8967TIP3    H148316   0.220   2.617   5.354  0.2404 -1.4038 -1.6613
 8967TIP3    H248317   0.306   2.696   5.257  0.7940  0.4135  0.2342
 8968TIP3   OH248318   2.492   4.774   5.652 -0.3606  0.2302  0.2556
 8968TIP3    H148319   2.557   4.794   5.720 -0.9592 -0.8611  1.1727
 8968TIP3    H248320   2.418   4.737   5.700 -1.1477  0.2562 -0.9151
 8969TIP3   OH248321   4.951   2.069  16.157 -0.1580 -1.3603  0.1875
 8969TIP3    H148322   5.002   2.133  16.207  1.3378 -2.8371  0.6260
 8969TIP3    H248323   4.867   2.114  16.141  1.2749  1.2171 -0.7246
 8970TIP3   OH248324   1.497   2.851   3.726 -0.1783  0.2023 -0.4199
 8970TIP3    H148325   1.560   2.779   3.721 -1.6280 -1.1798 -0.0802
 8970TIP3    H248326   1.473   2.868   3.635 -2.3912 -2.2580 -0.4392
 8971TIP3   OH248327   0.891   6.629  13.168 -0.0095  0.4780  0.0384
 8971TIP3    H148328   0.826   6.558  13.160 -1.4753  1.8705 -1.0107
 8971TIP3    H248329   0.945   6.619  13.089 -0.0658  0.3849  0.0101
 8972TIP3   OH248330   2.577   5.917   6.483  0.3153  0.5585  0.4425
 8972TIP3    H148331   2.620   5.841   6.522 -1.0593 -0.4527  0.0801
 8972TIP3    H248332   2.524   5.881   6.411 -0.9364  1.7523  0.7167
 8973TIP3   OH248333   5.360   6.498   4.587  0.5796 -0.3480 -0.0981
 8973TIP3    H148334   5.353   6.578   4.534  1.6644 -1.0256 -1.3232
 8973TIP3    H248335   5.450   6.498   4.619  0.5157 -0.9690  0.0908
 8974TIP3   OH248336   6.612   5.044  12.208  0.0531 -0.0001 -0.2564
 8974TIP3    H148337   6.530   4.995  12.218  0.0120  0.0390 -0.4005
 8974TIP3    H248338   6.585   5.127  12.170  0.1442  0.0648 -0.1766
 8975TIP3   OH248339   3.171   0.224   0.415 -0.3512  0.3154 -0.4510
 8975TIP3    H148340   3.214   0.180   0.342 -0.5916  0.2852 -0.5746
 8975TIP3    H248341   3.100   0.274   0.375 -0.9591 -0.2970 -0.1616
 8976TIP3   OH248342   1.664   6.619   4.823  0.2607  0.0570 -0.9527
 8976TIP3    H148343   1.663   6.592   4.732 -0.6968 -0.3613 -0.8342
 8976TIP3    H248344   1.621   6.548   4.870 -0.2854  0.7754 -0.3352
 8977TIP3   OH248345   4.073   5.440   6.425  0.1435 -0.2220 -0.3853
 8977TIP3    H148346   3.999   5.500   6.438  0.1211 -0.3684  0.1748
 8977TIP3    H248347   4.129   5.453   6.502 -1.7972 -3.7344  1.8822
 8978TIP3   OH248348   2.719   4.104   0.863  0.9128 -0.1043 -0.0540
 8978TIP3    H148349   2.678   4.077   0.781  1.2111  0.1904 -0.3031
 8978TIP3    H248350   2.708   4.029   0.922  0.7488 -0.3385 -0.3818
 8979TIP3   OH248351   3.057   4.084   5.720 -0.1535 -0.0992  0.4964
 8979TIP3    H148352   3.119   4.155   5.735 -0.3235  0.8318 -2.5954
 8979TIP3    H248353   2.975   4.115   5.760 -0.1145  1.3031 -0.4496
 8980TIP3   OH248354   3.670   1.775   2.371  0.5406  0.3731  0.3387
 8980TIP3    H148355   3.697   1.785   2.280  0.4429  2.3559  0.4819
 8980TIP3    H248356   3.680   1.681   2.389 -1.0087 -0.3720 -2.1877
 8981TIP3   OH248357   2.720   2.609  11.130  0.0801 -0.0763  0.1378
 8981TIP3    H148358   2.797   2.573  11.087  1.1588  1.3840  0.7887
 8981TIP3    H248359   2.695   2.684  11.076 -1.5042 -1.0665 -0.6092
 8982TIP3   OH248360   2.423   1.699   0.775  0.5062  0.4514  0.3974
 8982TIP3    H148361   2.389   1.620   0.732  0.6984 -0.1691  1.3507
 8982TIP3    H248362   2.488   1.667   0.837  0.7036  1.3800  0.6918
 8983TIP3   OH248363   2.715   1.858  16.279  0.3667  0.8239  0.0828
 8983TIP3    H148364   2.713   1.822  16.191  0.3847  1.1141 -0.0366
 8983TIP3    H248365   2.629   1.899  16.290 -0.0500 -0.1485  0.5957
 8984TIP3   OH248366   5.085   4.119  12.668 -0.2658  0.2778  0.3021
 8984TIP3    H148367   5.085   4.204  12.711  1.1137 -0.0760  1.0551
 8984TIP3    H248368   5.162   4.074  12.703 -0.9649 -1.2850 -0.0683
 8985TIP3   OH248369   3.571   5.095  16.261 -0.1979  0.8341  0.2352
 8985TIP3    H148370   3.602   5.158  16.196  0.0607  0.9166  0.4378
 8985TIP3    H248371   3.622   5.016  16.243 -1.4066  0.2571 -0.8380
 8986TIP3   OH248372   1.573   6.769   1.695 -0.1987 -0.1143  0.2062
 8986TIP3    H148373   1.600   6.769   1.604  0.8690 -0.3646  0.5110
 8986TIP3    H248374   1.586   6.678   1.724 -4.8616 -1.2806 -0.5917
 8987TIP3   OH248375   1.971   4.929  14.509  0.2161  0.0460 -0.2778
 8987TIP3    H148376   2.032   4.927  14.583  0.0181  1.4940 -0.0492
 8987TIP3    H248377   1.932   4.841  14.508 -0.5276  0.3002  1.9904
 8988TIP3   OH248378   4.450   4.860  12.009  0.2390  0.1509  0.3571
 8988TIP3    H148379   4.447   4.877  11.915  0.7032  0.5477  0.4116
 8988TIP3    H248380   4.537   4.889  12.036  0.6340 -1.2411  0.6659
 8989TIP3   OH248381   5.553   0.605  11.203  0.3381 -0.2742 -0.1292
 8989TIP3    H148382   5.582   0.525  11.158  1.5378 -0.0999  0.2930
 8989TIP3    H248383   5.586   0.676  11.149 -0.9216 -0.0439 -0.6241
 8990TIP3   OH248384   1.182   4.758  12.643 -0.5798  0.0113 -0.8800
 8990TIP3    H148385   1.163   4.688  12.580 -1.4703 -0.0155 -0.5915
 8990TIP3    H248386   1.132   4.734  12.721  2.9680 -1.7285  1.1160
 8991TIP3   OH248387   5.612   5.588  12.918 -0.1666  0.1385  0.9849
 8991TIP3    H148388   5.523   5.563  12.893  0.5544 -0.0777 -1.6529
 8991TIP3    H248389   5.608   5.683  12.929 -0.6610  0.1759  0.5135
 8992TIP3   OH248390   5.303   3.710   0.355  0.0950 -0.2404 -0.7198
 8992TIP3    H148391   5.213   3.680   0.363 -0.1755  0.2787 -1.7204
 8992TIP3    H248392   5.356   3.633   0.375 -0.4935  0.0190  2.3474
 8993TIP3   OH248393   0.748   2.301  11.748  0.1749 -0.1972 -0.1361
 8993TIP3    H148394   0.766   2.230  11.810 -0.3110  1.0371  1.5129
 8993TIP3    H248395   0.767   2.264  11.662  1.7921 -1.7122  0.8074
 8994TIP3   OH248396   2.589   3.249   1.564  0.2148 -0.3434 -0.4565
 8994TIP3    H148397   2.589   3.235   1.469  1.8873  0.4096 -0.5914
 8994TIP3    H248398   2.673   3.216   1.594 -0.3297 -0.6643  0.8016
 8995TIP3   OH248399   1.947   6.802  16.463 -0.6534  0.0044  0.1146
 8995TIP3    H148400   2.012   6.760  16.520 -1.2929 -1.2263 -0.0487
 8995TIP3    H248401   1.985   6.888  16.445  0.2750 -0.1525  1.1623
 8996TIP3   OH248402   2.304   4.922   2.224 -0.1680  0.3611  0.4005
 8996TIP3    H148403   2.334   4.916   2.133 -0.6072 -1.4762  0.3557
 8996TIP3    H248404   2.217   4.962   2.219 -0.5296 -0.4699 -0.0742
 8997TIP3   OH248405   0.088   2.406   0.386 -0.5270  0.6204  0.7412
 8997TIP3    H148406   0.154   2.468   0.354 -1.1716  0.7153 -0.4549
 8997TIP3    H248407   0.031   2.459   0.441 -1.1928  1.1572 -0.4395
 8998TIP3   OH248408   3.874   6.301  13.410  0.2206 -0.7603  0.4721
 8998TIP3    H148409   3.814   6.341  13.347  0.0118 -0.8605  0.6041
 8998TIP3    H248410   3.861   6.207  13.399 -1.6332 -0.8065  2.3365
 8999TIP3   OH248411   5.652   6.100  16.077  0.4016 -0.2633 -0.3689
 8999TIP3    H148412   5.704   6.144  16.011 -0.7432 -1.0979 -1.8812
 8999TIP3    H248413   5.585   6.052  16.028  0.0893 -1.6872  1.3296
 9000TIP3   OH248414   5.593   3.320   0.083 -0.5557  0.1155  0.2714
 9000TIP3    H148415   5.646   3.344   0.159 -0.0078 -0.6493  0.1436
 9000TIP3    H248416   5.546   3.400   0.060 -0.0488  0.5941  0.8674
 9001TIP3   OH248417   6.195   3.470  13.347  0.4106  0.0705  0.1818
 9001TIP3    H148418   6.143   3.541  13.385  1.1917 -0.9511  3.5317
 9001TIP3    H248419   6.149   3.390  13.374  0.8807 -0.7605 -1.3719
 9002TIP3   OH248420   6.552   3.964  14.534 -0.5907  0.5699  0.0596
 9002TIP3    H148421   6.621   4.027  14.515  0.4291 -0.5212  0.0748
 9002TIP3    H248422   6.518   3.938  14.448 -0.2786  0.3251  0.0127
 9003TIP3   OH248423   4.429   1.606   1.139  0.2191 -0.1542  0.3182
 9003TIP3    H148424   4.336   1.629   1.145  0.2640  0.5664 -1.1394
 9003TIP3    H248425   4.453   1.579   1.227 -1.4777 -0.7748  0.6236
 9004TIP3   OH248426   6.169   3.046  13.317  0.3605 -0.4835 -0.0076
 9004TIP3    H148427   6.140   2.966  13.359 -0.5211  0.0619  0.4497
 9004TIP3    H248428   6.261   3.056  13.343 -0.0585 -0.3555  1.4841
 9005TIP3   OH248429   3.353   4.847  17.164 -0.0335  0.0820 -0.3171
 9005TIP3    H148430   3.385   4.829  17.075 -1.5712  1.1638 -1.1440
 9005TIP3    H248431   3.425   4.891  17.207  0.3183  0.6483 -1.4503
 9006TIP3   OH248432   3.171   2.829   5.957 -0.1912 -0.4538  0.0305
 9006TIP3    H148433   3.250   2.776   5.950 -0.7117 -1.1903 -0.3855
 9006TIP3    H248434   3.120   2.807   5.878  0.1857  1.6871 -0.8717
 9007TIP3   OH248435   4.989   0.172   5.671  0.4580 -0.3575 -0.2324
 9007TIP3    H148436   5.000   0.266   5.656  0.3489 -0.0613  1.3979
 9007TIP3    H248437   4.925   0.144   5.606 -2.2930  1.4332  1.5317
 9008TIP3   OH248438   3.754   2.357   2.102 -0.1504  0.1048 -0.4054
 9008TIP3    H148439   3.831   2.381   2.153  1.6641 -1.9310 -1.9609
 9008TIP3    H248440   3.681   2.358   2.164  1.2246  1.4550  1.2701
 9009TIP3   OH248441   5.955   0.173  17.124  0.1117 -0.0057  0.3087
 9009TIP3    H148442   5.926   0.262  17.104 -0.5957  0.1954  2.0226
 9009TIP3    H248443   6.026   0.185  17.187  0.3992 -0.6470  0.1100
 9010TIP3   OH248444   4.229   0.841   0.098 -1.0712 -0.2006  0.2565
 9010TIP3    H148445   4.173   0.854   0.175 -0.0771  1.6231  0.7333
 9010TIP3    H248446   4.299   0.905   0.109 -0.1968 -0.8001 -1.5298
 9011TIP3   OH248447   5.754   4.111   0.906 -0.0653  0.0896 -0.3108
 9011TIP3    H148448   5.828   4.072   0.859 -1.5717 -2.6173 -0.6158
 9011TIP3    H248449   5.728   4.186   0.852  2.7332  1.5035  0.1169
 9012TIP3   OH248450   0.902   0.215   1.557  0.2978  0.1520  0.1157
 9012TIP3    H148451   0.987   0.171   1.567  0.0637 -0.3360  0.0025
 9012TIP3    H248452   0.852   0.156   1.500  0.0538  0.6755 -0.2108
 9013TIP3   OH248453   0.832   6.467   1.184 -0.1773 -0.0604  0.3644
 9013TIP3    H148454   0.849   6.504   1.270 -0.4497  1.5516 -0.2269
 9013TIP3    H248455   0.910   6.416   1.163 -0.4958 -1.2590  1.9279
 9014TIP3   OH248456   0.054   4.897  15.929 -0.2968  0.1037  0.0614
 9014TIP3    H148457   0.006   4.814  15.927  2.4424 -1.6431  0.5305
 9014TIP3    H248458   0.015   4.949  15.859 -0.9274 -2.3318 -1.5463
 9015TIP3   OH248459   3.854   6.597   6.015  0.2808 -0.0217  0.2491
 9015TIP3    H148460   3.851   6.651   5.936 -1.4773  0.2801  0.4750
 9015TIP3    H248461   3.945   6.600   6.044  1.4528 -1.6777 -2.8028
 9016TIP3   OH248462   2.639   2.768  15.990 -0.8030 -0.2122 -0.1961
 9016TIP3    H148463   2.715   2.725  15.951  0.5937  0.4808  1.6245
 9016TIP3    H248464   2.589   2.697  16.030  0.2457 -0.4133  0.7811
 9017TIP3   OH248465   1.599   0.999  14.686 -0.3029  0.1935 -0.3249
 9017TIP3    H148466   1.608   0.927  14.749 -3.5884 -2.0335 -2.1253
 9017TIP3    H248467   1.596   1.078  14.741  2.5130 -0.9914  1.7899
 9018TIP3   OH248468   2.469   4.616  16.525 -0.0065  0.2838 -0.0192
 9018TIP3    H148469   2.518   4.635  16.445 -0.1796 -3.3807 -1.2000
 9018TIP3    H248470   2.490   4.524  16.544 -3.7677 -0.4930  1.3046
 9019TIP3   OH248471   2.206   5.549   1.260 -0.3144 -0.2108 -0.2430
 9019TIP3    H148472   2.163   5.613   1.203 -0.5260  0.8862  1.1011
 9019TIP3    H248473   2.164   5.466   1.237 -0.5135  0.2252 -1.5520
 9020TIP3   OH248474   5.737   6.747  13.290  0.0624 -0.3439  0.1259
 9020TIP3    H148475   5.689   6.672  13.324  0.1214 -0.9936 -1.1644
 9020TIP3    H248476   5.721   6.746  13.195  0.7873  0.7494 -0.0384
 9021TIP3   OH248477   1.573   1.729  11.756  0.2663 -0.3289  0.2961
 9021TIP3    H148478   1.644   1.740  11.693 -0.7733  0.4187 -0.8051
 9021TIP3    H248479   1.518   1.660  11.718 -0.5739  0.3897  0.1778
 9022TIP3   OH248480   1.720   1.858   4.146 -0.3187  0.2845 -0.7038
 9022TIP3    H148481   1.659   1.798   4.104 -1.1495  0.0395  0.7917
 9022TIP3    H248482   1.704   1.848   4.240  0.1074  2.2102 -0.3669
 9023TIP3   OH248483   3.918   2.367  15.141  0.0531 -0.3847  0.1716
 9023TIP3    H148484   3.995   2.368  15.197 -0.5343  1.1030  1.0078
 9023TIP3    H248485   3.939   2.304  15.072  1.3861 -1.1380  1.2240
 9024TIP3   OH248486   6.688   0.231   0.529 -0.1349  0.3626  0.1278
 9024TIP3    H148487   6.772   0.247   0.573 -1.1236  1.5123  1.7337
 9024TIP3    H248488   6.633   0.194   0.598 -1.5823  1.6775 -0.2773
 9025TIP3   OH248489   4.562   4.056  15.616  0.2219  0.2498 -0.5125
 9025TIP3    H148490   4.532   4.101  15.696 -2.6401  1.1443 -1.9353
 9025TIP3    H248491   4.648   4.094  15.598 -1.6431  4.8674 -1.1803
 9026TIP3   OH248492   4.612   4.827  12.905  0.6845 -0.9993  0.1191
 9026TIP3    H148493   4.650   4.914  12.907  0.1976 -0.6704 -2.2885
 9026TIP3    H248494   4.660   4.780  12.837 -2.1143 -0.9961 -2.0790
 9027TIP3   OH248495   5.683   0.527  12.195 -0.7644 -0.0875 -0.2518
 9027TIP3    H148496   5.734   0.470  12.252  1.2430  0.2916 -1.5799
 9027TIP3    H248497   5.677   0.610  12.243 -2.0892 -0.7902  0.8664
 9028TIP3   OH248498   2.459   4.280   0.377  0.3242 -0.3595 -0.1804
 9028TIP3    H148499   2.389   4.237   0.427  0.3940 -0.4818 -0.1866
 9028TIP3    H248500   2.497   4.343   0.437  1.8139 -1.9582  0.6523
 9029TIP3   OH248501   4.211   3.569  13.913 -0.2210 -0.1005  0.3250
 9029TIP3    H148502   4.182   3.484  13.881  1.1110 -0.8927  1.1282
 9029TIP3    H248503   4.289   3.550  13.964 -0.6700  1.4529  1.6780
 9030TIP3   OH248504   3.394   1.904  11.537  0.4150 -0.3589 -0.1803
 9030TIP3    H148505   3.401   1.827  11.594 -1.3658 -0.1304  0.4237
 9030TIP3    H248506   3.410   1.978  11.595 -1.2528 -0.1331  0.0624
 9031TIP3   OH248507   0.125   3.158  12.025  0.4275 -0.0610 -0.1066
 9031TIP3    H148508   0.057   3.150  11.958 -0.2853 -0.9814  0.7103
 9031TIP3    H248509   0.202   3.116  11.985  0.1931 -0.0567 -0.5779
 9032TIP3   OH248510   5.471   1.848   6.124  0.1471 -0.5764 -0.6414
 9032TIP3    H148511   5.516   1.780   6.074  0.6134 -0.0934 -0.8962
 9032TIP3    H248512   5.418   1.894   6.059  3.2391  2.2043 -1.5365
 9033TIP3   OH248513   3.278   6.077  13.440 -0.1280  0.1041  0.0700
 9033TIP3    H148514   3.188   6.094  13.411  0.2928  1.6545 -0.4594
 9033TIP3    H248515   3.332   6.109  13.368  0.8551 -1.1399  0.2286
 9034TIP3   OH248516   5.061   5.394  11.228  0.7597  0.3052 -0.4332
 9034TIP3    H148517   4.986   5.335  11.233  0.7538  0.2099 -1.4695
 9034TIP3    H248518   5.061   5.440  11.312 -0.4929  0.3516 -0.4417
 9035TIP3   OH248519   2.661   2.224   5.312  0.3750  0.5121  0.0988
 9035TIP3    H148520   2.667   2.140   5.358  1.3941 -0.6669 -2.0235
 9035TIP3    H248521   2.646   2.200   5.221  0.0078  2.6873 -0.4705
 9036TIP3   OH248522   1.233   4.904  11.883  0.0346  0.1530  0.0018
 9036TIP3    H148523   1.252   4.916  11.790 -2.7817  0.4863 -0.6041
 9036TIP3    H248524   1.303   4.845  11.914  1.1400  0.1720 -2.2438
 9037TIP3   OH248525   6.311   5.065  16.273 -0.1945 -0.2807  0.3360
 9037TIP3    H148526   6.232   5.118  16.284 -0.4635 -0.9404  1.8155
 9037TIP3    H248527   6.295   5.016  16.192 -0.4273  1.0107 -0.4373
 9038TIP3   OH248528   0.482   2.937  15.324 -0.6590 -0.5098 -0.3620
 9038TIP3    H148529   0.511   3.027  15.307  1.8534 -1.1394  0.1192
 9038TIP3    H248530   0.452   2.906  15.239  0.1900  0.2164 -0.9473
 9039TIP3   OH248531   1.701   0.024  11.257  0.5256 -0.1571  0.6017
 9039TIP3    H148532   1.689  -0.062  11.297  0.9151 -0.7271 -0.4675
 9039TIP3    H248533   1.646   0.083  11.309 -1.7402 -1.4897 -0.1677
 9040TIP3   OH248534   1.606   0.591   3.660 -0.7657 -0.3318  0.7770
 9040TIP3    H148535   1.513   0.599   3.642 -0.7817 -0.3527  0.8471
 9040TIP3    H248536   1.642   0.678   3.644 -0.4347 -0.8017 -1.2528
 9041TIP3   OH248537   2.144   6.355  12.852 -0.1502 -0.5906  0.4741
 9041TIP3    H148538   2.237   6.335  12.842  0.2131  0.5515  1.2618
 9041TIP3    H248539   2.126   6.421  12.785 -0.6579 -1.5160 -0.3270
 9042TIP3   OH248540   5.524   3.163   1.694 -0.5063 -0.4314  0.0698
 9042TIP3    H148541   5.517   3.256   1.715  0.2522  0.4178 -2.8838
 9042TIP3    H248542   5.445   3.144   1.643 -1.5408 -1.9397  2.1122
 9043TIP3   OH248543   4.352   6.233  12.874 -0.0206 -0.1351  0.6872
 9043TIP3    H148544   4.441   6.200  12.886  0.1336 -0.8766 -1.9699
 9043TIP3    H248545   4.295   6.158  12.893 -0.0366  0.0016  1.2013
 9044TIP3   OH248546   3.956   0.500   1.519  0.3822 -0.0486 -0.4605
 9044TIP3    H148547   3.974   0.512   1.612  0.2798 -1.1587 -0.2850
 9044TIP3    H248548   3.904   0.577   1.495 -1.3191 -0.7110  0.8792
 9045TIP3   OH248549   3.849   1.472  12.739 -0.3216  0.2890  0.0497
 9045TIP3    H148550   3.806   1.431  12.664 -0.1073  0.6837 -0.2923
 9045TIP3    H248551   3.895   1.401  12.783 -0.9545 -0.0608  0.1656
 9046TIP3   OH248552   1.312   5.477   4.385  0.1125 -0.3865 -0.1238
 9046TIP3    H148553   1.389   5.431   4.419 -0.3316 -0.0398  1.4456
 9046TIP3    H248554   1.347   5.557   4.346  0.6077 -0.5117  0.0542
 9047TIP3   OH248555   0.373   0.055  11.087 -0.6544 -0.2471 -0.0075
 9047TIP3    H148556   0.303   0.027  11.027  0.2858 -0.8856 -0.8323
 9047TIP3    H248557   0.408  -0.027  11.122 -1.6172  0.1305  1.9566
 9048TIP3   OH248558   4.310   5.185   1.109 -0.7069 -0.0837 -0.2522
 9048TIP3    H148559   4.287   5.093   1.120 -2.1014  0.1801 -0.8600
 9048TIP3    H248560   4.283   5.226   1.192 -0.0409 -0.2164  0.0377
 9049TIP3   OH248561   5.207   3.195   2.354 -0.1222  0.2355 -0.3096
 9049TIP3    H148562   5.125   3.163   2.391  0.5029  0.0472  0.9874
 9049TIP3    H248563   5.225   3.276   2.403  0.7667 -0.0534 -0.1427
 9050TIP3   OH248564   4.358   0.230  10.902  0.4064  0.0570 -0.3311
 9050TIP3    H148565   4.340   0.171  10.829 -1.4398 -1.3421  1.1506
 9050TIP3    H248566   4.453   0.234  10.907  0.5778  0.2507 -2.8084
 9051TIP3   OH248567   6.454   6.091  14.087  0.3898  0.6090 -0.2181
 9051TIP3    H148568   6.486   6.015  14.136 -1.5174 -0.4296 -0.4929
 9051TIP3    H248569   6.382   6.125  14.140  0.4813  1.5540 -0.6708
 9052TIP3   OH248570   2.149   6.037  14.748 -0.4761  0.1835  0.7090
 9052TIP3    H148571   2.072   5.985  14.723 -0.7209 -0.3608  2.4401
 9052TIP3    H248572   2.217   5.972  14.764 -0.4102  0.4577  1.6335
 9053TIP3   OH248573   2.821   0.884  11.661  0.0941  0.0023  0.2336
 9053TIP3    H148574   2.872   0.963  11.677  0.3148 -0.3074  1.1841
 9053TIP3    H248575   2.867   0.840  11.589  0.9288 -0.0497  0.7747
 9054TIP3   OH248576   4.660   4.627   5.957  0.1914  0.4871 -0.2588
 9054TIP3    H148577   4.646   4.696   6.022  1.1070  0.7328 -0.3015
 9054TIP3    H248578   4.630   4.666   5.875  2.7164  1.7270 -0.7047
 9055TIP3   OH248579   6.693   2.549   3.886  0.4279 -0.3139  0.1664
 9055TIP3    H148580   6.690   2.545   3.790  0.3412 -0.5426  0.1775
 9055TIP3    H248581   6.695   2.457   3.914  2.1222 -0.2666  0.3366
 9056TIP3   OH248582   0.677   5.657  16.180  0.0249  0.0469 -0.0177
 9056TIP3    H148583   0.661   5.581  16.237  0.0650 -0.6637 -0.9231
 9056TIP3    H248584   0.748   5.629  16.123 -0.9581  0.1804 -1.3713
 9057TIP3   OH248585   0.297   3.281   5.338  0.7562  0.2279  0.2021
 9057TIP3    H148586   0.349   3.339   5.283  1.2294  1.6578  2.0814
 9057TIP3    H248587   0.216   3.329   5.355  0.9041  0.0985  1.3159
 9058TIP3   OH248588   4.814   0.336   3.833  1.3180  0.4494  0.2421
 9058TIP3    H148589   4.812   0.253   3.785  2.0000  0.1780  0.6718
 9058TIP3    H248590   4.723   0.350   3.859  0.6289  1.3580 -2.3769
 9059TIP3   OH248591   5.575   3.808  16.467  0.3040 -0.5925  0.1068
 9059TIP3    H148592   5.485   3.777  16.474  0.6248 -1.5645  0.0867
 9059TIP3    H248593   5.573   3.873  16.397 -0.5066 -0.0923  0.5834
 9060TIP3   OH248594   5.031   0.613  14.215 -0.1807  0.7102 -0.1434
 9060TIP3    H148595   5.125   0.616  14.233  0.2131 -1.7216 -1.4131
 9060TIP3    H248596   5.000   0.701  14.237  1.9834  1.0009  2.2781
 9061TIP3   OH248597   1.814   4.055  11.353  0.0797 -0.8916 -0.0567
 9061TIP3    H148598   1.741   4.096  11.307  0.7022 -1.2797 -1.4548
 9061TIP3    H248599   1.786   4.051  11.444 -0.5748  1.3133 -0.1004
 9062TIP3   OH248600   2.744   6.579   2.027 -0.1896  0.6982 -0.0604
 9062TIP3    H148601   2.744   6.607   2.119 -2.7237  1.2479 -0.1498
 9062TIP3    H248602   2.712   6.488   2.030  0.1031  0.5816 -0.3923
 9063TIP3   OH248603   5.011   3.683   5.659 -0.2105  0.2880  0.0430
 9063TIP3    H148604   5.074   3.705   5.728 -0.6832  0.7226  0.3398
 9063TIP3    H248605   4.946   3.753   5.662 -1.9708 -1.2844  1.2361
 9064TIP3   OH248606   6.146   6.690  17.028 -0.4191  0.3634  0.2761
 9064TIP3    H148607   6.182   6.690  17.117 -0.9351  0.1052  0.4842
 9064TIP3    H248608   6.120   6.781  17.013  0.5874  0.6231  0.0115
 9065TIP3   OH248609   4.129   0.217   4.823 -0.2468 -0.4252 -0.1528
 9065TIP3    H148610   4.106   0.282   4.890  0.6158 -0.1975 -0.0701
 9065TIP3    H248611   4.101   0.257   4.741  1.0222  0.4297 -0.1920
 9066TIP3   OH248612   3.314   6.260   4.387  0.3712  0.4151  0.0527
 9066TIP3    H148613   3.298   6.176   4.342  0.7415 -0.5207  1.5999
 9066TIP3    H248614   3.403   6.284   4.359  0.3434  0.1987 -0.2371
 9067TIP3   OH248615   6.442   3.293   0.159 -0.2386  0.1615 -0.1791
 9067TIP3    H148616   6.425   3.371   0.211  0.3807  0.7885 -0.8856
 9067TIP3    H248617   6.424   3.320   0.069 -1.6884 -1.0210 -0.2695
 9068TIP3   OH248618   0.617   2.059   6.737 -0.0373 -0.2365 -0.0912
 9068TIP3    H148619   0.525   2.040   6.758  0.1750  1.1788  2.5974
 9068TIP3    H248620   0.614   2.144   6.693  0.0758  0.9049  2.0088
 9069TIP3   OH248621   2.654   0.828  15.359 -0.1481  0.2966  0.2206
 9069TIP3    H148622   2.681   0.873  15.440  0.6697 -1.3774  0.9118
 9069TIP3    H248623   2.660   0.735  15.380  0.1137 -0.1855 -1.8032
 9070TIP3   OH248624   6.750   6.620   5.713 -0.5164 -0.1995  0.5738
 9070TIP3    H148625   6.691   6.694   5.726  0.0428  0.0450  1.9253
 9070TIP3    H248626   6.709   6.568   5.644 -0.9616  1.3095 -0.3370
 9071TIP3   OH248627   2.770   3.064   5.840 -0.2945 -0.2589 -0.5454
 9071TIP3    H148628   2.786   3.153   5.873  0.3787 -0.7324  0.4859
 9071TIP3    H248629   2.752   3.013   5.919 -1.0367 -0.9647 -1.1687
 9072TIP3   OH248630   3.046   6.181   2.942  0.1823 -0.1911 -0.6197
 9072TIP3    H148631   3.014   6.264   2.907 -0.7297  0.1222  0.8794
 9072TIP3    H248632   3.126   6.204   2.988 -0.0509 -0.1475 -0.2351
 9073TIP3   OH248633   1.677   2.543   0.710 -0.6949  0.0565 -0.0518
 9073TIP3    H148634   1.635   2.523   0.793  0.9232  1.2475  1.1208
 9073TIP3    H248635   1.610   2.590   0.660 -1.2889  0.4611  1.0885
 9074TIP3   OH248636   5.584   6.388   2.508  0.6777 -1.1199  0.5770
 9074TIP3    H148637   5.572   6.323   2.578 -3.0437 -0.4408  0.7827
 9074TIP3    H248638   5.526   6.460   2.532  0.1577 -0.3211 -2.5924
 9075TIP3   OH248639   4.286   1.909  15.319  0.1397  0.4858 -0.2176
 9075TIP3    H148640   4.256   1.905  15.228  2.0063  0.6505 -0.8845
 9075TIP3    H248641   4.276   2.001  15.343  0.3005  0.5790 -0.5008
 9076TIP3   OH248642   6.514   2.611   0.959 -0.1683  0.0721 -0.2945
 9076TIP3    H148643   6.487   2.703   0.960  0.1662  0.1833 -0.9143
 9076TIP3    H248644   6.601   2.612   0.919  0.0279 -0.4659  0.1174
 9077TIP3   OH248645   2.263   1.094  12.769 -0.6928 -0.0437  0.8065
 9077TIP3    H148646   2.198   1.165  12.770  0.5975  1.1829  1.0415
 9077TIP3    H248647   2.223   1.023  12.820 -2.3676  0.1717 -0.1519
 9078TIP3   OH248648   1.600   1.228  13.963  0.1275  0.4463  0.2428
 9078TIP3    H148649   1.530   1.168  13.987 -0.1080  0.5948 -0.0631
 9078TIP3    H248650   1.677   1.171  13.951 -0.1169  0.1931 -0.1457
 9079TIP3   OH248651   0.088   3.900   0.546 -0.1109 -0.0292  0.2053
 9079TIP3    H148652   0.072   3.854   0.628 -1.3990  0.0166  0.0089
 9079TIP3    H248653   0.174   3.869   0.517  0.1882 -0.3300  1.3684
 9080TIP3   OH248654   6.699   5.165   0.646  0.1133  0.1485  0.2901
 9080TIP3    H148655   6.703   5.237   0.584  2.0841 -0.0825  0.1002
 9080TIP3    H248656   6.789   5.154   0.677 -0.2556 -1.7993  0.8171
 9081TIP3   OH248657   5.369   1.903   2.018 -0.0753  0.5202  0.1058
 9081TIP3    H148658   5.369   1.920   1.924  0.3376 -1.9941 -0.4233
 9081TIP3    H248659   5.451   1.941   2.050  0.1086  0.7869 -0.6779
 9082TIP3   OH248660   0.189   3.737  14.529 -0.1016  0.2559 -0.2353
 9082TIP3    H148661   0.200   3.801  14.459 -2.7998  1.0669 -0.0529
 9082TIP3    H248662   0.232   3.777  14.605  2.1302 -0.2642 -1.1495
 9083TIP3   OH248663   3.643   4.312   5.801 -0.7877  0.7078  0.0870
 9083TIP3    H148664   3.606   4.356   5.878 -1.7010  2.3283 -1.2092
 9083TIP3    H248665   3.587   4.340   5.728 -0.6813 -1.7110 -1.0263
 9084TIP3   OH248666   3.802   0.017   0.515  0.0855 -0.3888  0.0993
 9084TIP3    H148667   3.765  -0.070   0.533 -0.3800 -0.3163 -0.4778
 9084TIP3    H248668   3.731   0.078   0.537  0.8464 -0.0568  1.7620
 9085TIP3   OH248669   3.939   3.140  16.742 -0.1522 -0.1678 -0.1797
 9085TIP3    H148670   3.852   3.114  16.772  0.8686 -1.7710  1.6107
 9085TIP3    H248671   3.951   3.228  16.777 -1.2967  0.3877 -1.0919
 9086TIP3   OH248672   6.136   5.847   4.195  0.0858 -0.0311  0.6575
 9086TIP3    H148673   6.175   5.821   4.111  0.0711 -0.8616  0.8970
 9086TIP3    H248674   6.047   5.873   4.173 -0.4698 -1.8341  0.6130
 9087TIP3   OH248675   5.964   0.284   0.624 -0.4994 -0.2347  0.3426
 9087TIP3    H148676   5.876   0.247   0.615 -0.6525  0.4922 -1.4824
 9087TIP3    H248677   5.951   0.379   0.621  0.4485 -0.1175 -1.5727
 9088TIP3   OH248678   4.793   3.008   1.944 -0.3581  0.5347 -0.1130
 9088TIP3    H148679   4.719   2.956   1.975 -0.7270  0.4763 -1.0807
 9088TIP3    H248680   4.869   2.952   1.961 -0.8641 -1.0075 -2.4778
 9089TIP3   OH248681   3.113   2.753  14.857 -0.3791 -0.1579  0.4992
 9089TIP3    H148682   3.183   2.803  14.815  0.3897  0.7490  2.7277
 9089TIP3    H248683   3.150   2.665  14.869  0.1156  0.1163  1.0135
 9090TIP3   OH248684   2.836   1.559   4.145  0.1381 -0.9388 -0.4633
 9090TIP3    H148685   2.877   1.635   4.103  3.2815 -0.6809  2.6921
 9090TIP3    H248686   2.744   1.585   4.156  0.4254  1.0944 -2.2076
 9091TIP3   OH248687   3.014   0.865   3.191 -0.6115  0.3913  0.0213
 9091TIP3    H148688   3.106   0.886   3.179 -0.7565  0.5752 -0.8122
 9091TIP3    H248689   2.981   0.933   3.249 -0.1425  0.1136  0.6231
 9092TIP3   OH248690   2.758   1.925   4.603 -0.1233  0.2144  0.2744
 9092TIP3    H148691   2.679   1.906   4.552  0.0852  1.1866 -0.4247
 9092TIP3    H248692   2.812   1.847   4.592  0.0033  0.4786 -1.1722
 9093TIP3   OH248693   0.983   1.112  11.437  0.0225  0.1942  0.3676
 9093TIP3    H148694   0.941   1.115  11.351  0.9706  1.4162 -0.0771
 9093TIP3    H248695   1.071   1.079  11.419  0.3012  0.6800  0.8360
 9094TIP3   OH248696   2.251   5.623   0.846 -0.1372  0.1768 -0.0756
 9094TIP3    H148697   2.200   5.635   0.926  0.5562  2.5545  0.1011
 9094TIP3    H248698   2.189   5.637   0.775 -0.2537  0.6303  0.1078
 9095TIP3   OH248699   0.967   4.137  15.625 -0.1215  0.2120  0.2129
 9095TIP3    H148700   0.979   4.195  15.700  3.3258 -0.4197  0.3397
 9095TIP3    H248701   0.974   4.049  15.661  0.1285 -0.1355 -0.6592
 9096TIP3   OH248702   1.040   0.405   1.994 -0.2414 -0.0195 -0.3302
 9096TIP3    H148703   1.104   0.415   2.065 -1.6995 -1.3948  1.2733
 9096TIP3    H248704   1.042   0.312   1.974 -0.2511  0.2712 -1.7660
 9097TIP3   OH248705   5.336   2.604  15.555  0.0315 -0.1345  0.0318
 9097TIP3    H148706   5.370   2.679  15.506 -0.5844  0.3824  0.3744
 9097TIP3    H248707   5.328   2.535  15.489  1.7433 -0.2886 -0.0421
 9098TIP3   OH248708   5.290   5.643   2.803  0.3307  0.1720  0.1549
 9098TIP3    H148709   5.233   5.626   2.879 -1.5890  0.8281 -1.0622
 9098TIP3    H248710   5.302   5.557   2.763  1.7932 -0.2698  1.4327
 9099TIP3   OH248711   3.617   6.254  15.940 -0.0367  1.1671  0.2527
 9099TIP3    H148712   3.535   6.255  15.892 -0.0590 -0.5865  0.2004
 9099TIP3    H248713   3.632   6.162  15.960  0.6688  1.6935  2.4185
 9100TIP3   OH248714   6.055   1.856  14.183  0.1490 -0.3493  0.0156
 9100TIP3    H148715   5.974   1.888  14.144  0.0439  1.0177  1.2760
 9100TIP3    H248716   6.027   1.799  14.255  0.3397 -1.9549 -1.1304
 9101TIP3   OH248717   2.622   2.350   2.553 -0.2318 -0.1310  0.3696
 9101TIP3    H148718   2.571   2.271   2.535 -0.3456 -0.0602  0.3820
 9101TIP3    H248719   2.558   2.420   2.554  0.0511  0.1996 -1.2320
 9102TIP3   OH248720   0.251   6.693   0.752 -0.8451  0.5294  0.5697
 9102TIP3    H148721   0.194   6.628   0.710  0.3594  0.6503 -1.3255
 9102TIP3    H248722   0.276   6.651   0.835 -0.8152 -1.0461 -0.1877
 9103TIP3   OH248723   3.946   1.808   5.647  0.5320  0.2329  0.1661
 9103TIP3    H148724   3.984   1.768   5.568  0.3859  1.2214 -0.4289
 9103TIP3    H248725   4.013   1.797   5.714  0.7327 -0.4716 -0.1408
 9104TIP3   OH248726   4.641   5.878   4.410  1.1624 -0.7204 -0.3151
 9104TIP3    H148727   4.683   5.805   4.366  1.3768 -0.3762 -0.6860
 9104TIP3    H248728   4.569   5.903   4.351 -0.8504 -2.5380  1.1731
 9105TIP3   OH248729   3.945   5.728  13.251 -0.2674  0.1917  0.4730
 9105TIP3    H148730   3.864   5.776  13.235 -0.7132 -0.0164  1.9073
 9105TIP3    H248731   3.951   5.722  13.347  1.4064  0.1321  0.4049
 9106TIP3   OH248732   1.997   5.390  10.480 -0.2405  0.0687 -0.2804
 9106TIP3    H148733   2.014   5.300  10.509 -0.4166  0.7214  2.0770
 9106TIP3    H248734   1.915   5.383  10.430 -1.5553 -0.8063  1.8421
 9107TIP3   OH248735   5.972   3.901   1.542  0.5634  0.2418 -0.3114
 9107TIP3    H148736   5.934   3.959   1.608  0.0699  0.1193 -0.4802
 9107TIP3    H248737   5.903   3.892   1.476  0.7699 -0.2536 -0.4634
 9108TIP3   OH248738   6.709   0.881   0.317  0.0476 -0.5343 -0.5465
 9108TIP3    H148739   6.797   0.879   0.280  0.5166  1.0172  0.3489
 9108TIP3    H248740   6.666   0.954   0.272 -0.9668 -1.5737 -1.3116
 9109TIP3   OH248741   1.520   3.467  17.058 -0.1682  0.4821  0.0950
 9109TIP3    H148742   1.596   3.508  17.098  0.7329 -0.2426 -0.8194
 9109TIP3    H248743   1.542   3.374  17.054 -0.0983  0.5404 -2.2425
 9110TIP3   OH248744   4.245   3.517  14.866 -0.3114 -0.3827 -0.4927
 9110TIP3    H148745   4.241   3.430  14.906  2.2860  0.4088  1.8323
 9110TIP3    H248746   4.286   3.502  14.781  0.1861 -1.4722 -0.0877
 9111TIP3   OH248747   2.287   6.541  15.765  0.3879  0.2594 -0.2825
 9111TIP3    H148748   2.264   6.579  15.680  0.1488  1.7832  0.4221
 9111TIP3    H248749   2.215   6.568  15.823  1.9401  1.7227  1.0560
 9112TIP3   OH248750   1.450   0.118   5.449 -0.4014 -0.4942 -0.1658
 9112TIP3    H148751   1.394   0.191   5.425 -1.3482 -1.2305 -0.2419
 9112TIP3    H248752   1.532   0.159   5.477 -0.7154  0.5581 -0.7497
 9113TIP3   OH248753   3.041   4.840  12.866  0.1066 -0.5689  0.3824
 9113TIP3    H148754   3.015   4.832  12.958  1.1130 -1.0619  0.6402
 9113TIP3    H248755   3.136   4.826  12.867  0.4599  1.4076 -0.4746
 9114TIP3   OH248756   6.705   0.939   4.732 -0.7306  0.4355  0.0238
 9114TIP3    H148757   6.797   0.912   4.734 -0.3030  1.6181 -1.8181
 9114TIP3    H248758   6.699   1.009   4.797 -0.1432  0.8907 -0.4098
 9115TIP3   OH248759   4.409   0.062   4.226 -0.0802  0.6165  0.5485
 9115TIP3    H148760   4.493   0.023   4.203  0.8562  1.9795  1.5736
 9115TIP3    H248761   4.346  -0.009   4.210  1.0092  0.0524 -1.7537
 9116TIP3   OH248762   2.524   1.603   5.848  0.1336  0.0326  0.0344
 9116TIP3    H148763   2.600   1.655   5.878  1.1461 -1.3227 -0.0966
 9116TIP3    H248764   2.481   1.576   5.929 -1.1248  2.0266  0.1029
 9117TIP3   OH248765   1.644   5.115  14.316 -0.0343 -0.2937 -0.0688
 9117TIP3    H148766   1.581   5.108  14.388 -0.0472 -1.0267 -0.1425
 9117TIP3    H248767   1.729   5.115  14.359 -0.0571 -0.2802 -0.0235
 9118TIP3   OH248768   1.426   5.578   3.781 -0.6806  0.6547 -0.2532
 9118TIP3    H148769   1.467   5.664   3.773 -2.6943  1.5665 -1.4389
 9118TIP3    H248770   1.455   5.545   3.866  1.6857  1.6168 -0.6044
 9119TIP3   OH248771   5.055   4.618  13.678 -0.5418 -0.0864 -0.6349
 9119TIP3    H148772   4.967   4.604  13.644 -1.5394  0.5225  1.5242
 9119TIP3    H248773   5.043   4.633  13.772  1.9574 -0.9552 -0.0853
 9120TIP3   OH248774   5.812   4.661   3.984 -0.0159 -0.1681 -0.2932
 9120TIP3    H148775   5.807   4.602   4.058  0.8061 -1.8624 -1.5111
 9120TIP3    H248776   5.892   4.636   3.938  0.3817  1.9245 -0.8690
 9121TIP3   OH248777   3.275   2.675  13.939 -0.1380  0.0312  0.0926
 9121TIP3    H148778   3.363   2.711  13.930 -0.4532  0.5648 -1.0259
 9121TIP3    H248779   3.217   2.750  13.930 -0.7154 -0.3651  0.4800
 9122TIP3   OH248780   0.929   1.662  14.623  0.2286 -0.1435  0.4515
 9122TIP3    H148781   0.941   1.572  14.591  1.5994  0.1361  0.0834
 9122TIP3    H248782   0.975   1.663  14.707  1.0337  0.4397  0.0172
 9123TIP3   OH248783   4.009   1.318  11.520  0.3095 -0.0031  0.1355
 9123TIP3    H148784   3.984   1.396  11.570  2.9330  0.6993  0.5394
 9123TIP3    H248785   3.931   1.294  11.471  0.0914  4.8299 -2.5300
 9124TIP3   OH248786   2.756   5.232  11.399 -0.0034  0.3065  0.3556
 9124TIP3    H148787   2.699   5.276  11.462 -0.5400 -0.3927  0.3702
 9124TIP3    H248788   2.701   5.223  11.321  0.2283 -0.0100  0.2296
 9125TIP3   OH248789   6.023   1.789   2.002  0.1622  0.9763 -0.0173
 9125TIP3    H148790   6.053   1.841   2.077 -0.1691  1.8734 -0.4867
 9125TIP3    H248791   6.099   1.783   1.944  0.9021 -1.0765  1.0797
 9126TIP3   OH248792   4.189   3.723   6.427  0.1070  0.0998  0.4263
 9126TIP3    H148793   4.221   3.809   6.453  0.1243 -0.4101  2.2281
 9126TIP3    H248794   4.142   3.690   6.504  0.3370 -1.6096 -0.1159
 9127TIP3   OH248795   3.731   3.090  11.473 -0.1722 -0.1833 -0.0457
 9127TIP3    H148796   3.753   3.160  11.534  0.1475 -0.8557  0.6304
 9127TIP3    H248797   3.636   3.089  11.469 -0.2122 -0.4557  0.8337
 9128TIP3   OH248798   2.453   6.126  13.529 -0.1417 -0.2321  0.6016
 9128TIP3    H148799   2.374   6.135  13.582  1.0803  0.1906  2.4922
 9128TIP3    H248800   2.457   6.034  13.505 -2.1645  0.0861 -1.2097
 9129TIP3   OH248801   0.058   6.624  12.055  0.2103  0.0990  0.3157
 9129TIP3    H148802   0.093   6.537  12.073  0.6482  0.1040 -0.4495
 9129TIP3    H248803  -0.014   6.634  12.116 -1.4927 -1.8192 -1.2440
 9130TIP3   OH248804   3.544   1.694  14.356  0.6347 -0.6114  0.0590
 9130TIP3    H148805   3.506   1.782  14.355  2.2196  0.0908 -0.6920
 9130TIP3    H248806   3.544   1.667  14.264  1.6109 -0.7287  0.0812
 9131TIP3   OH248807   2.998   5.146  15.782  0.4729  0.0035 -0.3201
 9131TIP3    H148808   3.083   5.154  15.738  0.5674  0.1410 -0.1129
 9131TIP3    H248809   2.946   5.092  15.723  0.7549 -0.2091 -0.3774
 9132TIP3   OH248810   4.613   5.937  16.503 -0.2311 -0.4941 -0.6394
 9132TIP3    H148811   4.616   5.849  16.465 -0.3295  0.4525 -3.0274
 9132TIP3    H248812   4.702   5.971  16.492 -0.7984  0.5970 -2.1163
 9133TIP3   OH248813   2.328   6.113   2.284  0.1084  0.7339 -0.0436
 9133TIP3    H148814   2.267   6.077   2.349  0.1468 -2.0390 -1.3926
 9133TIP3    H248815   2.412   6.116   2.329 -0.1424  0.1997  0.4716
 9134TIP3   OH248816   0.753   2.363   1.741  0.0468  0.3070 -0.1065
 9134TIP3    H148817   0.752   2.458   1.731  0.0452  0.3679  0.4660
 9134TIP3    H248818   0.757   2.348   1.835 -2.2637 -0.2737 -0.0407
 9135TIP3   OH248819   2.045   4.922   5.159 -0.0186 -0.3238  0.5699
 9135TIP3    H148820   2.002   4.959   5.082  0.2915 -0.7236  0.1974
 9135TIP3    H248821   2.086   4.997   5.202  0.4701 -0.2044 -0.0904
 9136TIP3   OH248822   5.287   0.867  16.807 -0.2963  0.1680 -0.4687
 9136TIP3    H148823   5.280   0.776  16.835 -0.5033  0.2725 -0.1785
 9136TIP3    H248824   5.381   0.885  16.806 -0.2448 -0.1273 -0.7810
 9137TIP3   OH248825   2.992   2.965   2.802  0.6425 -0.1323  0.1865
 9137TIP3    H148826   3.051   3.028   2.844  1.5214 -1.2896  0.7307
 9137TIP3    H248827   2.984   2.996   2.712  2.0038  0.0913  0.1281
 9138TIP3   OH248828   3.472   2.745   3.522 -0.0479 -0.3421  0.1509
 9138TIP3    H148829   3.376   2.740   3.513 -0.1041 -1.9659  1.2840
 9138TIP3    H248830   3.486   2.766   3.614  0.6982  0.3616 -0.1170
 9139TIP3   OH248831   3.207   0.931  14.438 -0.5336 -0.2815 -0.0767
 9139TIP3    H148832   3.273   0.983  14.394 -0.7380 -0.0705 -0.1358
 9139TIP3    H248833   3.194   0.974  14.523 -1.5687  0.4744 -0.6023
 9140TIP3   OH248834   5.544   1.787   3.989 -0.9059  0.1924  0.3559
 9140TIP3    H148835   5.468   1.837   4.019 -1.7560 -0.6891 -0.2572
 9140TIP3    H248836   5.560   1.724   4.059 -0.1823  0.9246  0.8739
 9141TIP3   OH248837   3.810   4.570  12.487  0.2397 -0.0800  0.1235
 9141TIP3    H148838   3.783   4.519  12.411 -2.4298  0.8060  0.3498
 9141TIP3    H248839   3.752   4.539  12.557  0.0468  1.7226  0.8016
 9142TIP3   OH248840   0.100   6.085  11.316  0.0890 -0.0571 -0.5138
 9142TIP3    H148841   0.033   6.030  11.275  0.7464 -1.4537  0.1989
 9142TIP3    H248842   0.171   6.024  11.337  0.2872  0.8010  1.5310
 9143TIP3   OH248843   6.214   1.369   2.720  0.0358  0.0557  0.2092
 9143TIP3    H148844   6.238   1.324   2.802 -1.8597  0.2940  0.9414
 9143TIP3    H248845   6.261   1.452   2.724 -1.3636  0.8261  1.9518
 9144TIP3   OH248846   1.878   5.262  12.651  0.3692 -0.2733  0.0373
 9144TIP3    H148847   1.814   5.312  12.600  0.1493 -0.0748  0.5004
 9144TIP3    H248848   1.855   5.170  12.635 -0.2594 -0.1998  0.4746
 9145TIP3   OH248849   3.488   6.026   1.043  0.0198 -0.1285  0.0171
 9145TIP3    H148850   3.582   6.015   1.060 -0.0481  1.5788  1.8275
 9145TIP3    H248851   3.468   6.115   1.073 -1.9723 -0.0304 -1.3800
 9146TIP3   OH248852   1.827   1.645  13.025  0.4223 -0.5560 -0.4927
 9146TIP3    H148853   1.806   1.609  13.111  0.2245  1.8345  0.5362
 9146TIP3    H248854   1.922   1.635  13.018  0.4487 -0.7243  0.0062
 9147TIP3   OH248855   1.864   4.863   3.384 -0.7397 -0.3907  0.0208
 9147TIP3    H148856   1.958   4.852   3.369 -1.1285 -1.3034 -1.9614
 9147TIP3    H248857   1.859   4.919   3.462  1.4302 -0.1947  0.0762
 9148TIP3   OH248858   1.540   0.012  12.520  0.4642  0.0918  0.0985
 9148TIP3    H148859   1.520  -0.078  12.496 -0.9712  0.1898  0.8215
 9148TIP3    H248860   1.462   0.062  12.495  0.9339  1.0037  0.3900
 9149TIP3   OH248861   3.658   1.083   1.311  0.4965 -0.2747 -0.0036
 9149TIP3    H148862   3.715   1.061   1.237 -1.6612 -2.3385 -1.2101
 9149TIP3    H248863   3.681   1.020   1.379  0.6006 -0.2138  0.0165
 9150TIP3   OH248864   3.033   5.335   6.442  0.4456  0.1254  0.4139
 9150TIP3    H148865   2.942   5.321   6.413  0.2504  1.7863  0.1138
 9150TIP3    H248866   3.024   5.384   6.524  1.0703 -1.4493  1.4747
 9151TIP3   OH248867   5.402   0.194   2.012 -0.2375 -0.2357 -0.4042
 9151TIP3    H148868   5.437   0.105   2.012 -1.2382 -0.6434 -0.8223
 9151TIP3    H248869   5.325   0.189   2.069 -1.0259  0.0599 -1.4270
 9152TIP3   OH248870   5.853   4.128   4.464 -0.0027  0.5339 -0.2291
 9152TIP3    H148871   5.800   4.125   4.544 -0.4584 -0.9431 -0.5456
 9152TIP3    H248872   5.816   4.200   4.413 -0.4850  0.7247  0.3826
 9153TIP3   OH248873   5.211   1.587  15.900 -0.4193 -0.2873 -0.0135
 9153TIP3    H148874   5.179   1.570  15.811 -1.0319 -0.4399  0.2272
 9153TIP3    H248875   5.158   1.528  15.955 -0.5017  0.2798  0.5192
 9154TIP3   OH248876   6.520   4.024  15.341 -0.5818  0.3052 -0.1076
 9154TIP3    H148877   6.607   4.057  15.361 -1.2835  1.3310  1.4957
 9154TIP3    H248878   6.466   4.103  15.334 -1.4526 -0.3230 -0.7372
 9155TIP3   OH248879   4.179   1.626  11.666  0.2845  0.3898 -0.1152
 9155TIP3    H148880   4.084   1.635  11.659  0.1264 -1.7529 -1.8228
 9155TIP3    H248881   4.214   1.707  11.627 -0.7235  2.3530  2.7303
 9156TIP3   OH248882   5.407   5.177  16.246 -0.7612  0.2907 -0.1236
 9156TIP3    H148883   5.454   5.260  16.256 -0.4287  0.4365 -2.3873
 9156TIP3    H248884   5.407   5.160  16.152 -2.2703 -1.4641  0.1238
 9157TIP3   OH248885   5.635   1.006   2.674 -0.5527  0.2224 -0.0386
 9157TIP3    H148886   5.541   1.024   2.676 -0.5658  0.1402  0.1536
 9157TIP3    H248887   5.659   0.997   2.766 -0.5688 -0.8636 -0.1309
 9158TIP3   OH248888   4.984   2.261   4.609 -0.4736 -0.9470 -0.3289
 9158TIP3    H148889   4.939   2.273   4.693  0.0866 -1.5612  0.0706
 9158TIP3    H248890   4.978   2.167   4.592  3.5439 -1.7450  1.4544
 9159TIP3   OH248891   6.407   1.946   5.461 -0.0838 -0.4534 -0.1543
 9159TIP3    H148892   6.347   1.876   5.484 -0.3195 -0.4138 -0.6470
 9159TIP3    H248893   6.452   1.967   5.543 -2.4620  1.1882  0.8484
 9160TIP3   OH248894   4.160   3.440   4.359 -0.4322 -0.1458  0.1358
 9160TIP3    H148895   4.107   3.457   4.436  0.2855  1.4509  0.3183
 9160TIP3    H248896   4.250   3.441   4.390 -0.1983 -1.1036 -0.4593
 9161TIP3   OH248897   4.449   1.581   6.141  0.2268 -0.7806 -0.0489
 9161TIP3    H148898   4.484   1.525   6.210 -0.5803 -1.0202  0.1715
 9161TIP3    H248899   4.458   1.670   6.176  0.7673 -0.8221 -0.0693
 9162TIP3   OH248900   3.859   2.035   5.030  0.0041 -0.4619  0.1010
 9162TIP3    H148901   3.946   2.057   4.998  0.0881  1.1775  1.3352
 9162TIP3    H248902   3.864   2.046   5.125 -1.0202 -2.3326  0.4131
 9163TIP3   OH248903   5.298   6.061   3.513 -0.1347  0.0013  0.0694
 9163TIP3    H148904   5.276   6.042   3.421 -2.8231  0.6745  0.4844
 9163TIP3    H248905   5.307   5.975   3.554 -1.8050 -0.3516 -0.2456
 9164TIP3   OH248906   0.930   4.238  13.636 -0.0107 -0.3787  0.0401
 9164TIP3    H148907   0.963   4.327  13.649  0.0898 -0.5124  0.6889
 9164TIP3    H248908   0.937   4.224  13.541 -1.0453  0.6969 -0.2191
 9165TIP3   OH248909   6.777   1.649  15.628 -0.0508  0.3738 -0.3350
 9165TIP3    H148910   6.788   1.717  15.562  1.2124  1.2520  0.7376
 9165TIP3    H248911   6.791   1.567  15.580 -1.3140  0.8390 -1.5849
 9166TIP3   OH248912   2.522   6.080  13.990  0.2237  0.6236 -0.0593
 9166TIP3    H148913   2.564   5.999  14.017 -0.6381  0.6188  1.4318
 9166TIP3    H248914   2.532   6.083  13.895  4.1058  0.9636  0.2004
 9167TIP3   OH248915   6.214   5.561   0.155 -0.7419 -0.3306  0.3181
 9167TIP3    H148916   6.122   5.584   0.141 -0.4598  1.4970  1.2167
 9167TIP3    H248917   6.225   5.562   0.250 -0.0639 -1.7859  0.2798
 9168TIP3   OH248918   3.919   2.558   2.258  0.1457  0.4269  0.0016
 9168TIP3    H148919   4.006   2.530   2.230 -0.6716  0.5485 -2.9577
 9168TIP3    H248920   3.889   2.487   2.316  1.0058 -1.1881 -1.4388
 9169TIP3   OH248921   4.929   5.533  12.523  0.0440  0.2592  0.1594
 9169TIP3    H148922   4.893   5.615  12.490  1.3773  0.9817  0.4839
 9169TIP3    H248923   4.959   5.553  12.611  0.5732 -0.5215  0.1666
 9170TIP3   OH248924   5.878   2.664  13.199  0.0252 -0.8520 -0.0172
 9170TIP3    H148925   5.941   2.684  13.130 -2.0505 -1.5014 -2.2295
 9170TIP3    H248926   5.818   2.601  13.160 -1.8688 -0.4768  2.0509
 9171TIP3   OH248927   4.378   4.655  12.173  0.5102 -0.1862  0.0326
 9171TIP3    H148928   4.409   4.723  12.114 -0.1815  0.3247  0.2451
 9171TIP3    H248929   4.410   4.681  12.260  2.4610 -1.5002 -0.2270
 9172TIP3   OH248930   4.719   1.768  16.428  0.1703  0.3349 -0.1173
 9172TIP3    H148931   4.675   1.700  16.479  1.1862 -0.8573 -0.7836
 9172TIP3    H248932   4.658   1.842  16.429 -2.9085 -1.8949 -2.6915
 9173TIP3   OH248933   2.798   2.795   5.717 -0.2068 -0.1820 -0.1638
 9173TIP3    H148934   2.737   2.803   5.644 -0.5239  1.7394  0.2487
 9173TIP3    H248935   2.796   2.881   5.759  1.4725 -0.6227  0.9158
 9174TIP3   OH248936   5.037   5.818  15.502 -0.0902  0.1086 -0.0646
 9174TIP3    H148937   5.044   5.896  15.557 -0.4166  0.3449 -0.3498
 9174TIP3    H248938   5.035   5.852  15.413 -1.3535 -0.1362 -0.1577
 9175TIP3   OH248939   5.138   3.197  10.523  0.0601 -0.8152 -0.0649
 9175TIP3    H148940   5.129   3.240  10.609  0.3256  0.3085 -0.5792
 9175TIP3    H248941   5.232   3.187  10.512  0.2317  1.5455 -1.3783
 9176TIP3   OH248942   3.280   2.538   1.984 -0.3077  0.6293 -0.6219
 9176TIP3    H148943   3.207   2.517   1.926  0.4118  0.9484 -1.6867
 9176TIP3    H248944   3.358   2.519   1.931  0.3922  0.0111  0.5832
 9177TIP3   OH248945   1.128   5.091  12.926  0.5078  0.4407 -0.2749
 9177TIP3    H148946   1.091   5.143  12.996 -0.1173  1.0957 -1.0705
 9177TIP3    H248947   1.114   5.143  12.847  1.4951 -0.1225 -0.8523
 9178TIP3   OH248948   0.954   0.435   5.237 -0.2324  0.1840 -0.4919
 9178TIP3    H148949   0.868   0.394   5.223  0.2614 -0.5195 -1.6025
 9178TIP3    H248950   0.998   0.377   5.299 -0.5678  0.5651  0.1070
 9179TIP3   OH248951   1.680   2.349   2.699 -0.3866 -0.1352 -0.1146
 9179TIP3    H148952   1.704   2.267   2.656 -1.9526 -0.7457  0.1138
 9179TIP3    H248953   1.747   2.361   2.766  0.4558 -0.6598 -0.8364
 9180TIP3   OH248954   4.706   5.286  16.723  0.9244  0.1144  0.1185
 9180TIP3    H148955   4.611   5.299  16.730  1.0591  2.1516 -1.0530
 9180TIP3    H248956   4.716   5.202  16.679 -0.3115 -0.3939  0.7571
 9181TIP3   OH248957   5.074   5.313  11.684  0.3898  0.3091 -0.0979
 9181TIP3    H148958   5.155   5.261  11.690  1.0440  1.2299 -0.6425
 9181TIP3    H248959   5.005   5.248  11.670  0.9571 -0.5411  0.8532
 9182TIP3   OH248960   1.847   1.025  14.579 -0.0176 -0.5685  0.0144
 9182TIP3    H148961   1.919   1.071  14.622 -1.1612  1.3406 -0.0462
 9182TIP3    H248962   1.768   1.057  14.623 -0.9709 -1.2218 -1.1602
 9183TIP3   OH248963   5.154   5.604   3.073  0.1595  0.0993 -0.3323
 9183TIP3    H148964   5.122   5.514   3.074  2.1375 -0.7169 -1.9104
 9183TIP3    H248965   5.179   5.622   3.163 -1.9324 -0.2232  0.3672
 9184TIP3   OH248966   5.937   0.916   2.464  0.3732  0.7237 -0.0736
 9184TIP3    H148967   5.959   0.995   2.514  0.5017  0.8817 -0.3746
 9184TIP3    H248968   6.009   0.855   2.483  0.6690  0.9547 -0.4332
 9185TIP3   OH248969   0.156   1.990  15.199  0.1020 -0.0930 -0.0547
 9185TIP3    H148970   0.224   2.049  15.165 -0.1054  1.5506  2.1930
 9185TIP3    H248971   0.074   2.030  15.170  0.0005 -0.8338 -0.8357
 9186TIP3   OH248972   3.435   1.429   2.602 -0.2526  0.2899 -0.4587
 9186TIP3    H148973   3.376   1.499   2.628 -1.4003  0.5916 -3.5079
 9186TIP3    H248974   3.436   1.370   2.678 -2.5528  1.4817  0.6145
 9187TIP3   OH248975   3.099   6.733   5.895 -0.6231 -0.1669  0.8341
 9187TIP3    H148976   3.025   6.744   5.835 -0.3901 -2.6833 -0.0393
 9187TIP3    H248977   3.125   6.823   5.917 -3.5903  0.8231  0.8195
 9188TIP3   OH248978   2.271   5.556   4.868 -0.0355  0.1031  0.1258
 9188TIP3    H148979   2.359   5.567   4.905  0.8856  1.1097 -2.1423
 9188TIP3    H248980   2.287   5.529   4.777 -2.1486 -2.2128  0.3388
 9189TIP3   OH248981   4.289   3.476  11.629 -0.1103 -0.1444  0.2226
 9189TIP3    H148982   4.364   3.535  11.624 -0.4808  0.3611  0.4213
 9189TIP3    H248983   4.213   3.533  11.614 -0.4827 -0.5585  0.4820
 9190TIP3   OH248984   0.068   4.465   3.947 -0.1093 -0.2279 -0.4963
 9190TIP3    H148985   0.126   4.456   4.022  0.8812 -1.9471 -1.4071
 9190TIP3    H248986   0.028   4.552   3.958  1.3109  0.2905  1.0688
 9191TIP3   OH248987   0.847   6.028   0.249 -0.0015  0.0213  0.1886
 9191TIP3    H148988   0.914   5.960   0.235  1.2352  1.1681  0.3726
 9191TIP3    H248989   0.891   6.110   0.225 -0.7670  1.0169  2.0571
 9192TIP3   OH248990   0.512   3.230  16.625 -0.2914  0.4620 -0.6653
 9192TIP3    H148991   0.485   3.286  16.552 -0.2335  0.7577 -0.4647
 9192TIP3    H248992   0.563   3.160  16.585  1.7564  1.8646 -0.7263
 9193TIP3   OH248993   0.575   2.033  15.317  0.4738 -0.5736  0.0669
 9193TIP3    H148994   0.576   2.059  15.409  0.5502 -1.2660  0.2627
 9193TIP3    H248995   0.642   2.088  15.276  0.0345  0.1566  0.2997
 9194TIP3   OH248996   6.593   2.180   3.167  0.2777 -0.0955 -0.5192
 9194TIP3    H148997   6.687   2.166   3.152  0.1184 -0.4082 -1.2281
 9194TIP3    H248998   6.551   2.149   3.088 -0.3895  0.5627 -0.4319
 9195TIP3   OH248999   1.282   6.074   5.569 -0.0082 -0.2910 -0.1488
 9195TIP3    H149000   1.228   6.152   5.557 -0.7851 -0.8708 -0.5441
 9195TIP3    H249001   1.369   6.099   5.537 -0.1528  0.5143  0.0732
 9196TIP3   OH249002   5.525   5.903   0.508 -0.3577  0.1338  0.0869
 9196TIP3    H149003   5.614   5.897   0.474 -0.5888 -1.2516 -0.3055
 9196TIP3    H249004   5.528   5.979   0.567  0.9698  0.3529 -0.2182
 9197TIP3   OH249005   6.056   2.372  16.762  0.8607  0.1505 -0.2239
 9197TIP3    H149006   6.030   2.462  16.742  0.6761  0.5068  1.4715
 9197TIP3    H249007   6.152   2.373  16.759  0.9154  0.7607  1.0883
 9198TIP3   OH249008   2.835   2.602  11.385 -0.2338 -0.0963 -0.1145
 9198TIP3    H149009   2.768   2.590  11.318 -0.3821  0.3088 -0.0436
 9198TIP3    H249010   2.882   2.681  11.358 -0.7471  0.4852  0.6157
 9199TIP3   OH249011   1.016   0.845   4.870 -0.2549 -0.2226  0.0225
 9199TIP3    H149012   0.985   0.903   4.801  1.4335 -2.5616 -2.9180
 9199TIP3    H249013   0.960   0.767   4.863  0.4382 -0.8066  0.7737
 9200TIP3   OH249014   2.933   1.384  12.790  0.0096  0.3989  0.5147
 9200TIP3    H149015   2.962   1.470  12.821 -0.6565  0.1725  1.8213
 9200TIP3    H249016   2.877   1.404  12.715  2.7290  0.8891 -1.5580
 9201TIP3   OH249017   4.822   1.304   3.624 -0.0098  0.2467  0.1880
 9201TIP3    H149018   4.753   1.281   3.686  0.9034  0.2296  1.2366
 9201TIP3    H249019   4.860   1.220   3.599  0.1132  0.2977  0.2019
 9202TIP3   OH249020   1.871   1.464   0.753  0.0716 -0.4034  0.3662
 9202TIP3    H149021   1.909   1.435   0.836  1.1619  0.1680  0.0779
 9202TIP3    H249022   1.943   1.460   0.690 -1.0568 -2.1868 -0.9289
 9203TIP3   OH249023   2.486   4.439  14.806  0.1414  0.3077  0.0902
 9203TIP3    H149024   2.478   4.370  14.740 -0.4258  0.3204  0.1460
 9203TIP3    H249025   2.571   4.423  14.847  1.1417  1.1026 -1.5593
 9204TIP3   OH249026   5.811   2.730   0.514 -0.2372  0.3806 -0.5938
 9204TIP3    H149027   5.811   2.800   0.579  0.3576 -0.1575  0.0017
 9204TIP3    H249028   5.728   2.742   0.466 -0.7371  0.7226  0.3240
 9205TIP3   OH249029   6.269   2.997  13.772 -0.6205 -0.2618  0.3971
 9205TIP3    H149030   6.357   2.994  13.734 -0.4781  3.5191  0.0662
 9205TIP3    H249031   6.268   3.076  13.825 -3.4212 -0.9562  1.5865
 9206TIP3   OH249032   0.659   1.613   3.770 -0.6083 -0.8672  0.5309
 9206TIP3    H149033   0.703   1.670   3.833 -1.6408 -0.5247  0.9549
 9206TIP3    H249034   0.575   1.655   3.753 -0.7631 -1.4846 -0.3126
 9207TIP3   OH249035   4.719   2.444   3.832  0.3072  0.5169  0.6563
 9207TIP3    H149036   4.750   2.384   3.901  0.7272  0.7316  0.6560
 9207TIP3    H249037   4.634   2.474   3.863 -2.0851 -3.4312 -1.3010
 9208TIP3   OH249038   2.268   1.605  15.282 -0.1590 -0.3631 -0.1940
 9208TIP3    H149039   2.252   1.631  15.191  0.9231  1.0494 -0.0098
 9208TIP3    H249040   2.181   1.589  15.318 -0.8025  1.4529 -0.8212
 9209TIP3   OH249041   1.243   0.830  14.104  0.3025 -0.0803 -0.4212
 9209TIP3    H149042   1.228   0.751  14.157  0.9890  0.4085  0.5407
 9209TIP3    H249043   1.163   0.840  14.053 -0.6429 -0.2691  0.9596
 9210TIP3   OH249044   0.462   6.681   2.960  0.2433  0.0892 -0.1416
 9210TIP3    H149045   0.370   6.668   2.938  0.0733  1.6243 -0.4044
 9210TIP3    H249046   0.506   6.694   2.876  0.6781 -0.3898  0.0009
 9211TIP3   OH249047   5.757   3.585  16.771 -0.4359 -0.5082 -0.4199
 9211TIP3    H149048   5.787   3.675  16.774  1.1556 -1.0167 -0.1146
 9211TIP3    H249049   5.785   3.553  16.685 -2.0013 -0.4130 -1.0041
 9212TIP3   OH249050   1.089   6.787   0.812 -0.0157  0.6270  0.2256
 9212TIP3    H149051   1.003   6.791   0.772  0.0438 -1.4099 -0.2190
 9212TIP3    H249052   1.137   6.722   0.760  0.5402 -1.0658  2.6497
 9213TIP3   OH249053   4.713   4.657   4.570 -0.1191  0.3238 -0.0851
 9213TIP3    H149054   4.677   4.725   4.514  0.0231  1.8380  1.5816
 9213TIP3    H249055   4.643   4.635   4.631  0.7273  1.0769  1.2113
 9214TIP3   OH249056   2.367   5.975   4.848  0.0039  0.6600 -0.0278
 9214TIP3    H149057   2.401   6.019   4.926  0.8995 -1.8813  1.0999
 9214TIP3    H249058   2.440   5.923   4.815 -1.5166 -1.6632  0.0026
 9215TIP3   OH249059   5.129   3.535  15.050 -0.3647 -0.0918 -0.6201
 9215TIP3    H149060   5.120   3.454  15.000 -2.7511  0.4338 -1.1479
 9215TIP3    H249061   5.133   3.604  14.984 -2.4068  0.5136 -0.1735
 9216TIP3   OH249062   5.235   2.510   4.914 -0.2780 -0.2991 -0.4769
 9216TIP3    H149063   5.204   2.457   4.840  0.4409 -1.8138  0.2641
 9216TIP3    H249064   5.155   2.535   4.961 -0.6800 -0.0081 -1.2984
 9217TIP3   OH249065   5.631   2.305  11.359 -0.0999  0.6626  0.2771
 9217TIP3    H149066   5.714   2.338  11.324  0.7461  0.0860  1.6516
 9217TIP3    H249067   5.634   2.328  11.452 -0.6706 -0.9357  0.7170
 9218TIP3   OH249068   0.291   2.585  12.576 -0.0278 -0.0065  0.1076
 9218TIP3    H149069   0.267   2.510  12.521  3.7162 -1.0928 -0.3835
 9218TIP3    H249070   0.347   2.639  12.520  1.6398  0.3072  1.9375
 9219TIP3   OH249071   6.364   1.963  12.899 -0.0080 -0.1380 -0.0113
 9219TIP3    H149072   6.342   2.055  12.915  1.2733 -0.1469  2.3335
 9219TIP3    H249073   6.284   1.915  12.919 -0.5690  0.4245 -0.8640
 9220TIP3   OH249074   2.413   3.904  16.419  0.1879 -0.2152 -0.4540
 9220TIP3    H149075   2.320   3.895  16.397  0.1323 -0.6838 -0.0217
 9220TIP3    H249076   2.450   3.951  16.344 -0.4551  0.2538 -0.4891
 9221TIP3   OH249077   2.746   6.608   2.857  0.1232  1.1242 -0.7078
 9221TIP3    H149078   2.799   6.672   2.809 -0.4403  2.0413 -0.1309
 9221TIP3    H249079   2.794   6.526   2.848  1.1127  1.7231 -1.0556
 9222TIP3   OH249080   6.400   0.642  13.665 -0.4011 -0.4261 -0.0246
 9222TIP3    H149081   6.450   0.614  13.588  0.9147  2.6541 -0.4660
 9222TIP3    H249082   6.456   0.620  13.739  0.5444  0.7832 -0.3473
 9223TIP3   OH249083   2.696   2.001  13.734  0.1709  0.0047  0.2147
 9223TIP3    H149084   2.772   1.989  13.677 -0.0410 -1.3861  0.1943
 9223TIP3    H249085   2.724   2.068  13.797  0.1442  2.1363 -1.9198
 9224TIP3   OH249086   6.631   5.072   1.406  0.2713  0.1172  0.2403
 9224TIP3    H149087   6.553   5.121   1.430  1.1133  1.9367 -0.5340
 9224TIP3    H249088   6.612   5.036   1.319 -0.6135 -1.6222  1.0978
 9225TIP3   OH249089   5.023   0.860   4.737 -0.1798 -0.9474  0.4331
 9225TIP3    H149090   4.936   0.834   4.768 -1.0279  0.9745 -0.1596
 9225TIP3    H249091   5.024   0.955   4.747  1.2710 -0.7607 -1.0382
 9226TIP3   OH249092   5.971   1.595  16.590  0.1793  0.0270 -0.2930
 9226TIP3    H149093   6.032   1.558  16.526 -0.0909 -0.7713 -0.0976
 9226TIP3    H249094   6.001   1.560  16.674 -0.9106 -0.8897 -0.2624
 9227TIP3   OH249095   6.327   2.470  16.131  0.0381  0.4155 -0.2689
 9227TIP3    H149096   6.354   2.389  16.176  0.4769  0.5474 -0.2814
 9227TIP3    H249097   6.323   2.445  16.039  1.4028  0.7009 -0.4339
 9228TIP3   OH249098   6.318   0.905  13.641 -0.4368 -0.2605 -0.2339
 9228TIP3    H149099   6.400   0.948  13.618 -0.7012 -0.6862 -2.1193
 9228TIP3    H249100   6.343   0.816  13.664 -0.5723 -1.7022 -4.6888
 9229TIP3   OH249101   0.111   1.439   2.124  0.2573  0.5549 -0.6568
 9229TIP3    H149102   0.110   1.411   2.033  1.0086 -1.5259 -0.0876
 9229TIP3    H249103   0.157   1.369   2.170  0.0884  1.6505  1.2987
 9230TIP3   OH249104   4.237   5.917   0.738  0.0970  0.2840  0.0299
 9230TIP3    H149105   4.273   5.864   0.809  1.7269  1.3578  0.0524
 9230TIP3    H249106   4.245   5.862   0.661 -1.0069 -0.6105  0.5228
 9231TIP3   OH249107   4.615   2.864  13.090 -0.8461 -0.0938  0.3424
 9231TIP3    H149108   4.643   2.774  13.108  1.4470  0.5671  0.3873
 9231TIP3    H249109   4.689   2.904  13.044 -1.8773  1.7292  0.1575
 9232TIP3   OH249110   0.529   4.381  15.680 -0.4062 -0.4711  0.3471
 9232TIP3    H149111   0.545   4.331  15.761  0.8025 -1.0863 -0.2501
 9232TIP3    H249112   0.434   4.376  15.669 -0.3215 -3.3396 -0.0667
 9233TIP3   OH249113   4.201   5.625  15.516  0.2577  0.0500  0.1258
 9233TIP3    H149114   4.274   5.579  15.474  0.4081  1.1233 -0.8288
 9233TIP3    H249115   4.221   5.621  15.610  1.0790 -0.4311 -0.0580
 9234TIP3   OH249116   1.291   3.772  16.477 -0.2282  0.3319 -0.6245
 9234TIP3    H149117   1.309   3.808  16.391  2.1310  0.3646 -0.2050
 9234TIP3    H249118   1.342   3.691  16.480  0.0738  0.5389  0.8644
 9235TIP3   OH249119   2.555   6.329  16.511 -0.5292 -0.8092  0.0112
 9235TIP3    H149120   2.514   6.409  16.478  0.2058 -0.7122 -0.7283
 9235TIP3    H249121   2.490   6.290  16.569 -1.1086  0.0427 -0.0472
 9236TIP3   OH249122   5.054   2.095   0.008  0.1047  0.0692  0.6011
 9236TIP3    H149123   5.068   2.183   0.042 -0.2251 -0.2276  1.5291
 9236TIP3    H249124   4.977   2.063   0.055  1.0393 -1.2355  1.2917
 9237TIP3   OH249125   0.837   4.175  16.707 -0.3151 -0.1851 -0.2953
 9237TIP3    H149126   0.917   4.149  16.755 -2.1909 -1.1336  2.6041
 9237TIP3    H249127   0.838   4.271  16.709 -0.7750 -0.1202  2.8021
 9238TIP3   OH249128   0.724   6.410  13.100  0.6190 -0.0883 -0.1788
 9238TIP3    H149129   0.708   6.335  13.043  1.1883 -1.0165  0.8376
 9238TIP3    H249130   0.660   6.400  13.171 -0.9569  1.7547 -1.2463
 9239TIP3   OH249131   6.246   0.418   0.543  0.0704  0.0731  0.6301
 9239TIP3    H149132   6.314   0.468   0.589 -1.1513  1.5164  0.9231
 9239TIP3    H249133   6.214   0.356   0.608  0.5456 -0.0775  0.7297
 9240TIP3   OH249134   6.577   3.682  16.339  0.3464  0.8167  0.0174
 9240TIP3    H149135   6.509   3.620  16.366  0.4587  0.2143 -0.9927
 9240TIP3    H249136   6.552   3.765  16.379  0.1159  0.1544  1.3002
 9241TIP3   OH249137   4.151   2.782   4.237  0.2791 -0.0496  0.6016
 9241TIP3    H149138   4.099   2.771   4.317 -0.1676 -1.6231  0.1455
 9241TIP3    H249139   4.087   2.806   4.170 -0.2715 -3.3758 -0.2890
 9242TIP3   OH249140   0.283   0.820  11.658  1.0085  0.8389  0.0303
 9242TIP3    H149141   0.319   0.800  11.745 -0.2085  0.0565  0.3789
 9242TIP3    H249142   0.230   0.743  11.636  0.3717  1.5251 -0.9023
 9243TIP3   OH249143   5.408   3.473   2.347 -0.4163  0.0025 -0.8727
 9243TIP3    H149144   5.466   3.397   2.350  0.5291  0.7212 -0.3378
 9243TIP3    H249145   5.385   3.489   2.438  1.2166  1.6749 -0.6909
 9244TIP3   OH249146   2.169   5.566  15.647  0.1659 -0.4290 -0.3628
 9244TIP3    H149147   2.201   5.477  15.630  1.2617 -0.1458  0.1506
 9244TIP3    H249148   2.086   5.553  15.692 -0.3735 -1.1838 -1.5243
 9245TIP3   OH249149   4.530   1.430  14.135  0.1627 -0.0661 -0.3064
 9245TIP3    H149150   4.610   1.384  14.109 -1.0611 -0.5930 -3.6390
 9245TIP3    H249151   4.551   1.523  14.119  0.4701 -0.0843 -0.0317
 9246TIP3   OH249152   1.238   3.363   0.047 -0.1560  0.0416  0.4239
 9246TIP3    H149153   1.295   3.299   0.004  0.5984 -1.6642  3.6128
 9246TIP3    H249154   1.165   3.310   0.081 -0.4412  1.1663  1.6272
 9247TIP3   OH249155   2.537   1.867  12.366 -0.1199 -0.3478 -0.0382
 9247TIP3    H149156   2.549   1.873  12.461 -0.5459  1.5687 -0.0440
 9247TIP3    H249157   2.442   1.860  12.355  0.0176 -2.0433 -0.3067
 9248TIP3   OH249158   1.096   0.633  13.799  0.2037 -0.3602  0.7955
 9248TIP3    H149159   1.106   0.615  13.706  1.5377  1.4242  0.5297
 9248TIP3    H249160   1.181   0.611  13.837  0.0194 -0.0730  1.3897
 9249TIP3   OH249161   3.867   3.207  15.151 -0.2429 -0.5190 -0.3913
 9249TIP3    H149162   3.831   3.179  15.236  0.9529  1.2005  0.7452
 9249TIP3    H249163   3.826   3.292  15.135  1.1373  0.1536 -0.4623
 9250TIP3   OH249164   5.219   3.446  12.431  0.0615  0.4880 -0.1314
 9250TIP3    H149165   5.246   3.526  12.476 -2.3459  0.2825  1.9292
 9250TIP3    H249166   5.143   3.472  12.379 -0.8405 -0.4453  0.6767
 9251TIP3   OH249167   5.258   2.397   5.348  0.1642 -0.1802  0.2750
 9251TIP3    H149168   5.268   2.486   5.382 -2.3867 -0.4023  1.8196
 9251TIP3    H249169   5.300   2.341   5.414  0.1133 -0.2541  0.2449
 9252TIP3   OH249170   3.731   0.035   2.568  0.2176 -0.4088  0.3925
 9252TIP3    H149171   3.699  -0.037   2.514  1.5397 -0.0934 -0.9025
 9252TIP3    H249172   3.659   0.055   2.628 -1.7986 -0.0490 -1.9936
 9253TIP3   OH249173   2.217   3.883  12.485  0.8493 -0.0820  0.4376
 9253TIP3    H149174   2.193   3.949  12.419  0.7624 -0.6470 -0.1073
 9253TIP3    H249175   2.278   3.928  12.543 -1.9894  1.6284  2.2782
 9254TIP3   OH249176   3.463   1.069  12.221  0.1259 -0.1386  0.8096
 9254TIP3    H149177   3.487   0.978  12.202  0.1344 -0.0663  0.4729
 9254TIP3    H249178   3.531   1.121  12.179 -1.0205  0.1019 -0.8345
 9255TIP3   OH249179   2.298   4.627  14.321  0.4981  0.0181 -0.0921
 9255TIP3    H149180   2.307   4.719  14.347 -0.5504  0.2433 -0.4996
 9255TIP3    H249181   2.295   4.579  14.403  0.6989  0.3786  0.1293
 9256TIP3   OH249182   6.539   6.038  10.768 -1.0273  0.2033 -0.6921
 9256TIP3    H149183   6.488   6.099  10.716 -1.0936  1.3428  0.6462
 9256TIP3    H249184   6.627   6.074  10.769 -0.3598 -1.2804 -2.2488
 9257TIP3   OH249185   3.590   4.740   2.575 -0.2074  0.0256  0.5235
 9257TIP3    H149186   3.646   4.667   2.548 -2.1560 -0.8092 -1.5877
 9257TIP3    H249187   3.643   4.790   2.637  1.7389 -2.3393  0.8844
 9258TIP3   OH249188   0.224   5.796  11.295  0.2475 -0.4149  0.2098
 9258TIP3    H149189   0.289   5.726  11.304  0.9100 -0.0508 -1.3708
 9258TIP3    H249190   0.167   5.766  11.223  0.2968  0.4715 -0.2107
 9259TIP3   OH249191   0.479   2.204  11.939 -0.7284  0.2774 -0.2251
 9259TIP3    H149192   0.400   2.159  11.970 -0.2792  0.2697  0.9465
 9259TIP3    H249193   0.547   2.136  11.939 -0.3999  0.6008  0.1072
 9260TIP3   OH249194   5.235   2.408   1.798  0.3979 -0.4828  0.0131
 9260TIP3    H149195   5.232   2.324   1.843 -1.3094  0.1465  1.1853
 9260TIP3    H249196   5.226   2.473   1.867  1.7252  0.6843 -0.8680
 9261TIP3   OH249197   6.730   0.745  15.241  0.2885 -0.0843  0.1662
 9261TIP3    H149198   6.739   0.793  15.323  1.7318  0.2325 -0.1549
 9261TIP3    H249199   6.783   0.666  15.254 -0.5946 -0.7149  0.0252
 9262TIP3   OH249200   3.882   4.313  12.767 -0.2413 -0.0802  0.0473
 9262TIP3    H149201   3.928   4.275  12.843 -1.3020 -1.7205 -0.0760
 9262TIP3    H249202   3.899   4.252  12.696 -0.0680  0.9339 -0.8012
 9263TIP3   OH249203   6.432   0.800   3.607 -0.7519 -0.6242 -0.2341
 9263TIP3    H149204   6.474   0.733   3.661 -0.7207 -0.4342 -0.0212
 9263TIP3    H249205   6.341   0.769   3.598 -1.1159 -0.0047  1.0333
 9264TIP3   OH249206   4.490   1.360   6.302  0.2113  0.4057  0.4601
 9264TIP3    H149207   4.466   1.268   6.304  1.0962  0.1532  2.9915
 9264TIP3    H249208   4.585   1.361   6.314  0.5326  1.6356 -1.5752
 9265TIP3   OH249209   2.536   0.920   5.560  0.1453  0.0814  0.5052
 9265TIP3    H149210   2.504   1.011   5.562 -0.7185 -0.1679 -0.9361
 9265TIP3    H249211   2.458   0.867   5.546  1.0190 -0.5806 -2.7851
 9266TIP3   OH249212   4.965   3.528   2.055 -0.6939  0.2096  0.2519
 9266TIP3    H149213   5.015   3.456   2.017 -0.7918 -0.1622  0.8230
 9266TIP3    H249214   4.991   3.605   2.004  0.3500 -0.0064  0.4574
 9267TIP3   OH249215   4.480   3.822  13.166 -0.2269  0.1270 -0.2649
 9267TIP3    H149216   4.471   3.871  13.084  1.3253  0.0946 -0.4922
 9267TIP3    H249217   4.569   3.842  13.196  0.1025 -1.7716  0.1353
 9268TIP3   OH249218   1.675   1.141   1.991 -0.4280  0.1750 -0.1700
 9268TIP3    H149219   1.666   1.081   2.065 -1.4647 -0.3269 -0.6937
 9268TIP3    H249220   1.759   1.116   1.951 -0.6653 -0.6876 -0.1572
 9269TIP3   OH249221   0.506   3.994   5.323 -0.4646  0.2093 -0.7993
 9269TIP3    H149222   0.528   4.039   5.242 -0.0654  1.6472  0.0593
 9269TIP3    H249223   0.590   3.976   5.365 -0.7030  0.9421  0.0289
 9270TIP3   OH249224   0.305   1.032  15.788  0.4489 -0.0930  0.1920
 9270TIP3    H149225   0.380   0.989  15.830  1.2140  0.2090 -0.8185
 9270TIP3    H249226   0.344   1.102  15.735 -0.6256  0.6047  0.2967
 9271TIP3   OH249227   1.031   0.640   0.253 -0.1671 -0.5905 -0.2729
 9271TIP3    H149228   1.051   0.693   0.331 -0.4152  0.1359 -0.6895
 9271TIP3    H249229   0.951   0.593   0.276 -0.0825 -0.5975  0.0145
 9272TIP3   OH249230   3.819   2.869  10.652 -0.1315  0.3021 -0.0574
 9272TIP3    H149231   3.816   2.777  10.680  1.8106  0.0347 -0.5867
 9272TIP3    H249232   3.814   2.866  10.557 -0.4529  0.7789 -0.0599
 9273TIP3   OH249233   1.884   1.553   5.268 -0.5350 -0.5819 -0.3187
 9273TIP3    H149234   1.861   1.636   5.225  3.0285 -0.0001 -1.4332
 9273TIP3    H249235   1.934   1.579   5.345 -1.3014 -1.7070  0.5859
 9274TIP3   OH249236   2.719   5.163  17.010  0.5395  0.0223  0.3336
 9274TIP3    H149237   2.808   5.197  17.009  0.6896 -0.2219  1.8562
 9274TIP3    H249238   2.695   5.155  16.918  2.7196 -1.5132 -0.2086
 9275TIP3   OH249239   0.284   0.010  12.505 -0.0656 -0.0073 -0.4346
 9275TIP3    H149240   0.196   0.039  12.527 -0.1597  0.2377 -1.1229
 9275TIP3    H249241   0.306   0.058  12.425  0.7544  0.0589 -0.1802
 9276TIP3   OH249242   2.514   3.500   5.352 -0.1458  0.0341 -0.6663
 9276TIP3    H149243   2.596   3.546   5.372  0.7677 -1.7790 -0.0511
 9276TIP3    H249244   2.446   3.567   5.359  1.0966  1.2242  0.4402
 9277TIP3   OH249245   5.740   3.520  14.416  0.1658 -0.4238  0.2546
 9277TIP3    H149246   5.812   3.486  14.470  0.2626 -0.3787  0.1531
 9277TIP3    H249247   5.782   3.549  14.336  0.1386  0.3035  0.4988
 9278TIP3   OH249248   3.223   3.565  14.205 -0.6182  0.2638  0.5607
 9278TIP3    H149249   3.275   3.593  14.130 -1.5534  0.8237  0.0979
 9278TIP3    H249250   3.250   3.623  14.276 -1.0957  1.0118  0.1412
 9279TIP3   OH249251   4.075   1.764  14.041  0.1586 -0.8822 -0.0279
 9279TIP3    H149252   4.150   1.754  14.099  1.9311  1.8145 -1.6865
 9279TIP3    H249253   4.066   1.858  14.028 -2.0238 -1.2434 -1.8119
 9280TIP3   OH249254   5.657   6.367   1.070 -0.0538  0.1309  0.0573
 9280TIP3    H149255   5.585   6.335   1.015  0.1847  0.6905 -0.5921
 9280TIP3    H249256   5.735   6.361   1.014  0.2847  0.2253  0.5057
 9281TIP3   OH249257   1.282   5.341   3.094 -0.2386  0.0620  0.0973
 9281TIP3    H149258   1.252   5.287   3.167 -1.1570  1.0397  0.4645
 9281TIP3    H249259   1.357   5.293   3.058 -0.4379 -0.9666  1.0021
 9282TIP3   OH249260   6.460   6.614   3.973  0.2067  0.0734 -0.4789
 9282TIP3    H149261   6.477   6.632   3.880 -0.9802  2.5454 -0.3091
 9282TIP3    H249262   6.508   6.682   4.020 -2.5798  1.5569  0.4330
 9283TIP3   OH249263   6.296   4.444   4.809 -0.0588 -0.1595  0.1778
 9283TIP3    H149264   6.338   4.413   4.729  0.2132  1.1518 -0.2220
 9283TIP3    H249265   6.318   4.379   4.876 -0.6976 -1.5371 -0.8941
 9284TIP3   OH249266   3.515   1.386  15.798  0.3157  0.6590 -0.4549
 9284TIP3    H149267   3.604   1.392  15.834  0.4767  1.1864 -0.9229
 9284TIP3    H249268   3.502   1.292  15.783 -0.1334  0.3018  1.8612
 9285TIP3   OH249269   6.623   0.580  13.828  0.8931  0.3036 -0.4490
 9285TIP3    H149270   6.614   0.576  13.923  3.2849  1.9636 -0.0338
 9285TIP3    H249271   6.681   0.507  13.807  0.1192 -0.2457 -0.6822
 9286TIP3   OH249272   1.397   5.590  10.825  0.0757  0.1706 -0.3436
 9286TIP3    H149273   1.369   5.531  10.895  0.6111 -2.2084 -2.0080
 9286TIP3    H249274   1.315   5.617  10.782 -0.2854  1.9778  1.3488
 9287TIP3   OH249275   2.928   3.770   2.084 -0.0574  0.6205  0.0834
 9287TIP3    H149276   2.847   3.796   2.128 -0.9798  0.4370 -1.4398
 9287TIP3    H249277   2.949   3.844   2.027  0.9194  0.7124  0.5534
 9288TIP3   OH249278   0.894   5.350   5.215  0.2693 -0.0692 -0.3613
 9288TIP3    H149279   0.924   5.315   5.131  2.5891 -2.1380  1.1765
 9288TIP3    H249280   0.974   5.354   5.269 -1.1236  1.1669  1.7653
 9289TIP3   OH249281   5.084   0.710   2.146  0.7717 -0.1649  0.8624
 9289TIP3    H149282   5.127   0.642   2.196 -0.1930 -0.0116  1.9356
 9289TIP3    H249283   5.142   0.786   2.152  2.6653 -1.2858 -1.6954
 9290TIP3   OH249284   6.132   2.274   1.746  0.1253 -0.1382 -0.0752
 9290TIP3    H149285   6.173   2.297   1.663 -1.1855  1.8799 -0.2312
 9290TIP3    H249286   6.164   2.340   1.808  1.0355 -1.5746  1.0497
 9291TIP3   OH249287   1.740   5.174   4.484  0.0363  0.4546  0.2536
 9291TIP3    H149288   1.805   5.162   4.414 -0.5591 -2.1703  0.0502
 9291TIP3    H249289   1.787   5.151   4.564 -0.5108 -1.2185  0.1320
 9292TIP3   OH249290   2.547   0.306   6.378  0.0564  0.7578 -0.4411
 9292TIP3    H149291   2.574   0.385   6.332 -2.8487  1.1592 -1.7027
 9292TIP3    H249292   2.573   0.235   6.320  0.0529  1.0044 -0.7503
 9293TIP3   OH249293   0.950   0.580  10.661 -0.1926 -0.6044  0.1369
 9293TIP3    H149294   1.009   0.516  10.702  0.4650  1.2152  2.1889
 9293TIP3    H249295   0.984   0.590  10.572  2.5760  0.2390  1.1739
 9294TIP3   OH249296   0.358   2.400   0.629  0.1870 -0.3574  0.7043
 9294TIP3    H149297   0.410   2.347   0.689 -0.6028 -1.0852  0.7620
 9294TIP3    H249298   0.400   2.390   0.544  1.0243  0.2829  1.0277
 9295TIP3   OH249299   0.311   1.176  13.717  0.3139 -0.5088  0.5397
 9295TIP3    H149300   0.288   1.179  13.624  0.1084  1.9140  0.5993
 9295TIP3    H249301   0.397   1.135  13.720  0.3268 -0.5921 -0.7238
 9296TIP3   OH249302   4.050   1.040  10.435  0.5727 -0.1246  0.2218
 9296TIP3    H149303   3.959   1.019  10.414  0.2667  2.3850 -1.4525
 9296TIP3    H249304   4.101   0.978  10.382 -0.1570 -0.5666  0.0113
 9297TIP3   OH249305   0.222   5.256   4.669 -0.6790  0.6915  0.3912
 9297TIP3    H149306   0.215   5.257   4.764 -0.4464 -1.3888  0.4743
 9297TIP3    H249307   0.190   5.169   4.643  1.5792  0.2309 -1.1913
 9298TIP3   OH249308   2.961   1.556   3.292  0.1538 -0.3148  0.1290
 9298TIP3    H149309   2.966   1.626   3.227  1.4519 -0.7639 -0.2922
 9298TIP3    H249310   2.874   1.566   3.332  0.1079  1.1901 -0.2862
 9299TIP3   OH249311   0.233   4.463  12.341  0.5811  0.2685  0.1974
 9299TIP3    H149312   0.277   4.386  12.377  0.4759  0.3049  0.4051
 9299TIP3    H249313   0.288   4.537  12.369 -0.6173  0.5134  2.1374
 9300TIP3   OH249314   6.234   0.551  16.570  0.6080  0.1305 -0.1329
 9300TIP3    H149315   6.154   0.537  16.619 -1.1253 -0.1257 -2.8233
 9300TIP3    H249316   6.266   0.636  16.600  0.0593 -0.3252  1.8611
 9301TIP3   OH249317   5.024   1.147   4.802 -0.0114 -0.0001 -0.5367
 9301TIP3    H149318   5.023   1.187   4.715  1.6692  1.4411  0.0489
 9301TIP3    H249319   5.041   1.219   4.862  0.8916 -1.2383  0.7899
 9302TIP3   OH249320   2.744   1.541   1.194  0.6495 -0.4302  0.1965
 9302TIP3    H149321   2.822   1.517   1.145  1.3087  1.5891  0.1463
 9302TIP3    H249322   2.675   1.547   1.128  0.9190 -0.3337 -0.0829
 9303TIP3   OH249323   2.881   3.660  14.401 -0.0703  0.6194  1.1253
 9303TIP3    H149324   2.792   3.654  14.365 -0.0466  1.4168  0.9095
 9303TIP3    H249325   2.889   3.585  14.460 -0.5617  0.0127  0.4351
 9304TIP3   OH249326   6.583   1.465  16.943 -0.2461 -0.3467  0.3270
 9304TIP3    H149327   6.610   1.554  16.969 -0.0742 -0.4855  0.6351
 9304TIP3    H249328   6.588   1.466  16.848 -1.5287  0.3758  0.2494
 9305TIP3   OH249329   2.852   3.851   3.618  0.2350 -0.3062 -0.0083
 9305TIP3    H149330   2.926   3.802   3.584  1.4731  2.9063 -2.4799
 9305TIP3    H249331   2.892   3.917   3.676 -1.1733 -1.0472  1.8952
 9306TIP3   OH249332   5.964   4.467  14.123 -0.1035 -0.2992 -0.1277
 9306TIP3    H149333   5.908   4.432  14.054  0.1831 -0.8790 -0.0734
 9306TIP3    H249334   5.981   4.392  14.180  0.8525 -0.1724 -0.2290
 9307TIP3   OH249335   1.778   5.568  12.909  0.2469  0.0008  0.1114
 9307TIP3    H149336   1.749   5.496  12.853  0.8213  0.0944 -0.3251
 9307TIP3    H249337   1.717   5.639  12.890 -0.1099 -0.2588  0.2796
 9308TIP3   OH249338   2.102   1.919  15.367 -0.4031 -0.1313  0.2258
 9308TIP3    H149339   2.159   1.935  15.292 -1.7552 -1.7955 -1.2648
 9308TIP3    H249340   2.048   1.998  15.374  0.8066  0.6915  0.4988
 9309TIP3   OH249341   1.671   3.375  16.811  0.1411 -0.5831  0.7391
 9309TIP3    H149342   1.606   3.438  16.840 -0.2385 -0.9231  0.6399
 9309TIP3    H249343   1.738   3.427  16.766 -0.6843 -0.3691 -0.2582
 9310TIP3   OH249344   4.368   5.586  14.481  0.2080  0.0838 -0.1808
 9310TIP3    H149345   4.310   5.608  14.408  0.4556 -0.2235 -0.4636
 9310TIP3    H249346   4.313   5.602  14.559  0.4130  1.8818 -0.3548
 9311TIP3   OH249347   0.920   4.556   3.348 -0.2669  0.1793 -0.2957
 9311TIP3    H149348   1.001   4.543   3.300 -0.4583  0.8134 -0.7979
 9311TIP3    H249349   0.874   4.625   3.301 -0.8063  0.2837  0.3591
 9312TIP3   OH249350   5.691   1.588  14.678 -0.3071 -0.1081  0.4831
 9312TIP3    H149351   5.691   1.495  14.701  1.6622 -0.1072  0.6647
 9312TIP3    H249352   5.669   1.589  14.585 -0.2391 -0.7662  0.4531
 9313TIP3   OH249353   6.379   5.883  13.492 -0.2222  0.2682  0.2733
 9313TIP3    H149354   6.458   5.902  13.544 -0.6466 -1.5139  1.6358
 9313TIP3    H249355   6.378   5.788  13.484 -2.3123  0.2497  0.3900
 9314TIP3   OH249356   1.758   6.563   0.577 -0.6367 -0.0603  0.0198
 9314TIP3    H149357   1.756   6.499   0.507  0.5513  0.7165 -0.7705
 9314TIP3    H249358   1.821   6.527   0.640 -1.3929 -0.5604  0.5003
 9315TIP3   OH249359   5.337   4.378   0.601  0.2316 -0.4199 -0.0987
 9315TIP3    H149360   5.371   4.318   0.535  1.9226 -0.5180  0.7925
 9315TIP3    H249361   5.243   4.378   0.587  0.3732 -1.7888 -1.3620
 9316TIP3   OH249362   0.060   5.023  13.117 -0.2856  0.1645 -0.2918
 9316TIP3    H149363  -0.021   4.985  13.151 -0.0128  1.2591  1.7435
 9316TIP3    H249364   0.128   4.964  13.148 -0.1753  0.1055 -0.6442
 9317TIP3   OH249365   4.510   4.993  12.552  0.2593 -0.0831  0.4006
 9317TIP3    H149366   4.423   5.023  12.527 -0.8311 -2.8711  0.4315
 9317TIP3    H249367   4.566   5.016  12.478 -0.5684  1.3355  0.1852
 9318TIP3   OH249368   2.493   3.113   2.787  0.1267 -0.4274  0.1635
 9318TIP3    H149369   2.439   3.075   2.857 -0.6549 -0.3844 -0.4021
 9318TIP3    H249370   2.471   3.061   2.710  1.3393 -0.7828  0.0425
 9319TIP3   OH249371   4.066   2.860  15.874  0.5365 -0.2902 -0.2302
 9319TIP3    H149372   4.070   2.922  15.801  2.2461 -0.6889 -0.5292
 9319TIP3    H249373   3.975   2.831  15.876  0.2553  0.3967 -1.6324
 9320TIP3   OH249374   1.540   3.817  12.274  0.5946 -0.8725  0.1307
 9320TIP3    H149375   1.552   3.786  12.364  0.4521 -0.9671  0.1162
 9320TIP3    H249376   1.470   3.763  12.238 -1.4162  1.0618  0.8805
 9321TIP3   OH249377   1.443   0.831   0.467 -0.3015  0.0442  0.3629
 9321TIP3    H149378   1.536   0.809   0.456 -0.4085 -1.1604  1.6220
 9321TIP3    H249379   1.407   0.824   0.379  0.4584 -1.2264  0.1190
 9322TIP3   OH249380   6.015   4.424   5.490  0.1663  0.1219 -0.5983
 9322TIP3    H149381   6.106   4.450   5.502 -0.2792  1.1139  1.0356
 9322TIP3    H249382   6.014   4.330   5.504  0.9511  0.0679 -0.8411
 9323TIP3   OH249383   0.937   4.574   6.073  0.2935  0.0694 -0.0992
 9323TIP3    H149384   0.911   4.559   6.163 -1.7478  0.9072 -0.4855
 9323TIP3    H249385   0.972   4.663   6.072  0.0038  0.1865 -0.1658
 9324TIP3   OH249386   5.692   0.010   2.005  0.0572 -0.2355 -0.2665
 9324TIP3    H149387   5.765  -0.006   2.065  0.7874  0.9555 -0.8048
 9324TIP3    H249388   5.614  -0.016   2.054  0.5280  1.5517  1.5565
 9325TIP3   OH249389   4.551   3.671   4.495 -0.4034 -0.4720 -0.2394
 9325TIP3    H149390   4.541   3.576   4.487 -3.0305 -0.2635 -0.1589
 9325TIP3    H249391   4.565   3.686   4.588 -0.7798 -0.7237 -0.1410
 9326TIP3   OH249392   2.908   1.755  11.688 -0.1892  0.1175  0.1137
 9326TIP3    H149393   2.971   1.738  11.618  0.5924 -2.0302  1.2658
 9326TIP3    H249394   2.822   1.741  11.648  0.2417 -0.8159 -0.4988
 9327TIP3   OH249395   4.266   2.144   4.598  0.8023 -0.4880  0.4898
 9327TIP3    H149396   4.311   2.102   4.525  0.7140  0.9757 -0.4602
 9327TIP3    H249397   4.194   2.086   4.620  1.5720 -1.5607  0.2622
 9328TIP3   OH249398   1.431   1.119  15.557  0.1253 -0.1333 -0.0808
 9328TIP3    H149399   1.526   1.108  15.554  0.0842 -0.3591 -1.2126
 9328TIP3    H249400   1.404   1.081  15.641  1.1076  0.6114  0.5790
 9329TIP3   OH249401   4.842   5.048  15.874  0.7480  0.3835 -0.1373
 9329TIP3    H149402   4.774   4.988  15.842 -0.5260  1.8250 -0.2671
 9329TIP3    H249403   4.820   5.060  15.967  1.6324 -0.1537  0.1495
 9330TIP3   OH249404   3.002   0.300   4.995  0.2186  0.0347  0.6742
 9330TIP3    H149405   3.090   0.264   4.996  0.4158  0.2831 -1.5932
 9330TIP3    H249406   3.014   0.393   5.014  0.7032  0.3918 -1.1479
 9331TIP3   OH249407   6.258   5.317  13.834  0.1039  0.1293 -0.7905
 9331TIP3    H149408   6.239   5.406  13.863 -1.3671 -0.1052 -0.9307
 9331TIP3    H249409   6.352   5.306  13.849 -0.2451  0.5951  2.2489
 9332TIP3   OH249410   6.081   1.799  16.898 -0.0706 -0.5797  0.3525
 9332TIP3    H149411   6.063   1.890  16.876 -0.1828 -1.0395 -1.6790
 9332TIP3    H249412   6.177   1.795  16.903 -0.0933 -0.1513  1.5780
 9333TIP3   OH249413   1.893   2.562   0.303  0.0599  0.6159  0.0894
 9333TIP3    H149414   1.887   2.543   0.396 -3.1230 -0.0877 -0.1411
 9333TIP3    H249415   1.913   2.478   0.262 -4.2389 -0.5309 -0.1547
 9334TIP3   OH249416   0.581   6.416  11.390  0.6327 -0.9734 -0.6682
 9334TIP3    H149417   0.580   6.351  11.460  0.7970  0.0500  0.3150
 9334TIP3    H249418   0.517   6.482  11.418 -0.8695 -1.5418 -2.4967
 9335TIP3   OH249419   3.316   3.425  11.905  0.4191  0.2836  0.0215
 9335TIP3    H149420   3.357   3.390  11.984 -1.0534 -0.9333  0.3010
 9335TIP3    H249421   3.314   3.351  11.844  0.6183  0.9252 -0.7824
 9336TIP3   OH249422   5.342   5.777   0.316  0.2801 -0.4882  0.5614
 9336TIP3    H149423   5.294   5.859   0.300 -0.3943 -1.3610 -2.6054
 9336TIP3    H249424   5.417   5.803   0.369 -0.2217  2.1056  0.1306
 9337TIP3   OH249425   1.074   0.736   2.671 -0.4083 -0.0534  0.2293
 9337TIP3    H149426   0.982   0.748   2.648 -1.1092 -1.7719  1.9372
 9337TIP3    H249427   1.121   0.748   2.589 -2.0552  1.5598 -0.5510
 9338TIP3   OH249428   5.967   4.584  16.661 -0.1181 -0.3270  0.4106
 9338TIP3    H149429   6.033   4.609  16.596 -0.1602  1.3873  0.9863
 9338TIP3    H249430   5.889   4.564  16.609 -0.0865  0.7979 -0.0990
 9339TIP3   OH249431   4.083   5.808  14.992 -0.0531 -0.0765 -0.1662
 9339TIP3    H149432   3.999   5.765  15.005  0.1193 -0.5850 -0.6929
 9339TIP3    H249433   4.146   5.751  15.036  0.2746 -0.7777 -1.4873
 9340TIP3   OH249434   5.256   5.147  15.031  0.1217  0.5723 -0.1197
 9340TIP3    H149435   5.244   5.213  15.099  0.2228 -0.3608  0.8315
 9340TIP3    H249436   5.209   5.070  15.063  2.8840 -0.9821  0.5062
 9341TIP3   OH249437   2.108   6.772  14.438  0.3787  0.1952  0.2866
 9341TIP3    H149438   2.124   6.679  14.421 -1.0101  0.3306 -2.3306
 9341TIP3    H249439   2.026   6.774  14.488 -0.4749  0.0050 -1.0512
 9342TIP3   OH249440   0.966   4.813   0.151 -0.0713  0.6063 -0.6311
 9342TIP3    H149441   1.040   4.764   0.115  0.4703 -0.4031  1.6709
 9342TIP3    H249442   1.007   4.878   0.209 -0.9325  1.5457 -1.0429
 9343TIP3   OH249443   6.071   5.438  11.380  0.1094 -0.4154  0.2164
 9343TIP3    H149444   6.004   5.379  11.347  0.4656 -1.1594  0.7689
 9343TIP3    H249445   6.027   5.492  11.445 -0.2756  0.0977 -0.4655
 9344TIP3   OH249446   0.147   6.321  14.807  0.2681 -0.1272 -0.2417
 9344TIP3    H149447   0.166   6.415  14.811 -0.5005 -0.0112  1.4418
 9344TIP3    H249448   0.180   6.286  14.890  2.4406 -1.7627 -1.6789
 9345TIP3   OH249449   2.901   5.658  12.528 -0.0807 -0.1829  0.1908
 9345TIP3    H149450   2.937   5.738  12.490 -2.0894  0.1603 -1.1292
 9345TIP3    H249451   2.925   5.663  12.621 -0.3851  2.1001  0.2125
 9346TIP3   OH249452   1.708   4.490  14.868  0.1142 -0.0614 -0.3604
 9346TIP3    H149453   1.671   4.497  14.956  2.1934  0.2011  0.5505
 9346TIP3    H249454   1.635   4.462  14.813 -1.8836  2.2703  0.9363
 9347TIP3   OH249455   2.366   5.703  12.262 -0.2369  0.1620  0.0046
 9347TIP3    H149456   2.315   5.624  12.241  0.8358 -0.4538 -0.3639
 9347TIP3    H249457   2.316   5.774  12.221 -0.2690 -0.5493 -1.2621
 9348TIP3   OH249458   3.263   2.770   4.033  0.0162  0.1493  0.2599
 9348TIP3    H149459   3.266   2.810   3.946 -1.9175 -1.3550 -0.5520
 9348TIP3    H249460   3.299   2.838   4.091 -1.2069  2.2739 -1.3237
 9349TIP3   OH249461   5.954   2.922  12.274  0.0697 -0.1247  0.6068
 9349TIP3    H149462   6.014   2.996  12.276 -0.1522  0.0633  0.4196
 9349TIP3    H249463   5.907   2.927  12.357 -0.1051  0.0795  0.4958
 9350TIP3   OH249464   1.557   5.325  13.248  0.0374  0.1429 -0.2272
 9350TIP3    H149465   1.579   5.306  13.339  0.6714  1.2506 -0.1356
 9350TIP3    H249466   1.641   5.342  13.206  0.1917 -3.8201 -1.9217
 9351TIP3   OH249467   4.363   0.777  12.279  0.1418  0.2759 -0.0387
 9351TIP3    H149468   4.428   0.764  12.348 -0.5344 -1.0514  0.3834
 9351TIP3    H249469   4.414   0.796  12.200  0.9169  2.3949  0.8974
 9352TIP3   OH249470   4.954   4.152  14.757 -0.4148  0.1330  0.0487
 9352TIP3    H149471   4.869   4.141  14.801 -0.6289  2.7849  0.4334
 9352TIP3    H249472   4.933   4.192  14.673  0.4967  2.7786  0.9842
 9353TIP3   OH249473   3.898   1.332   3.122  0.0591  0.2858 -0.0108
 9353TIP3    H149474   3.932   1.285   3.198  1.7094  0.5508 -0.5536
 9353TIP3    H249475   3.956   1.408   3.113 -1.6009  1.5985 -0.0904
 9354TIP3   OH249476   0.572   2.985   6.104 -0.7647 -0.6289  0.3065
 9354TIP3    H149477   0.506   2.925   6.141  1.1815 -2.0273  1.7652
 9354TIP3    H249478   0.592   3.045   6.176 -1.2996  0.5825 -0.5273
 9355TIP3   OH249479   0.350   6.261  15.871  0.3924  0.0879  0.3150
 9355TIP3    H149480   0.332   6.331  15.933  0.4752  0.3268  0.0706
 9355TIP3    H249481   0.306   6.185  15.907  0.6131  0.1758  0.7748
 9356TIP3   OH249482   6.599   1.801  11.581 -0.0571 -0.3251 -0.2966
 9356TIP3    H149483   6.678   1.750  11.599 -0.9553 -1.6795 -0.0455
 9356TIP3    H249484   6.540   1.739  11.539 -1.6023  0.2174  1.0045
 9357TIP3   OH249485   6.041   0.672  17.187  0.1008  0.3044 -0.1171
 9357TIP3    H149486   6.130   0.639  17.175 -0.5129 -1.3641 -0.3299
 9357TIP3    H249487   6.017   0.644  17.276  0.0518  1.4500  0.2522
 9358TIP3   OH249488   5.901   3.236   5.124  0.3347  0.2308  0.0751
 9358TIP3    H149489   5.821   3.289   5.128 -0.6275 -1.2159  0.7787
 9358TIP3    H249490   5.887   3.166   5.188  1.8711 -0.4710 -0.3068
 9359TIP3   OH249491   0.104   1.020  12.892 -0.2415  0.1035 -0.0365
 9359TIP3    H149492   0.115   1.012  12.798  0.3106  1.4372 -0.1029
 9359TIP3    H249493   0.095   1.114  12.908  3.1942  0.3365  1.5665
 9360TIP3   OH249494   6.034   3.994  16.725 -0.2793  0.3451 -0.4536
 9360TIP3    H149495   6.000   3.994  16.814 -0.0873 -0.9960 -0.3569
 9360TIP3    H249496   6.072   4.081  16.714 -1.4412  0.9839  0.3138
 9361TIP3   OH249497   0.728   0.162   6.349  0.1352  0.2215 -0.1738
 9361TIP3    H149498   0.672   0.153   6.271 -1.4623 -0.3424  0.9853
 9361TIP3    H249499   0.745   0.256   6.355  0.9282  0.1940 -1.6197
 9362TIP3   OH249500   5.756   2.977   6.039  0.0080  0.5449  0.3640
 9362TIP3    H149501   5.820   3.047   6.029  0.0541  0.3321 -0.9447
 9362TIP3    H249502   5.716   2.993   6.124  0.7714  1.5310  0.5464
 9363TIP3   OH249503   5.717   2.170   6.423  0.1019 -0.0629 -0.1220
 9363TIP3    H149504   5.803   2.206   6.402 -0.5681  2.6584  1.4012
 9363TIP3    H249505   5.685   2.136   6.339  1.0951  2.4203 -1.6146
 9364TIP3   OH249506   4.981   3.654   3.794  0.1462 -0.9661 -0.5526
 9364TIP3    H149507   5.048   3.591   3.820  0.7747  0.2109  0.8519
 9364TIP3    H249508   4.928   3.666   3.873 -2.1887 -2.3384 -1.7945
 9365TIP3   OH249509   1.429   5.717  17.013  0.0995  0.3686 -0.4467
 9365TIP3    H149510   1.364   5.668  17.063  0.8969 -1.9034 -1.5188
 9365TIP3    H249511   1.378   5.774  16.955 -0.8710  0.1733  0.1941
 9366TIP3   OH249512   1.640   0.891   2.812  0.4664  0.3020  0.0238
 9366TIP3    H149513   1.628   0.852   2.726  0.0334 -0.3058  0.3558
 9366TIP3    H249514   1.735   0.900   2.822  0.5019  0.9067 -0.7430
 9367TIP3   OH249515   1.242   2.249  13.340  0.3094 -0.4336 -0.1012
 9367TIP3    H149516   1.298   2.309  13.290 -1.0084  0.1800 -0.8920
 9367TIP3    H249517   1.177   2.219  13.277 -0.2160 -1.1960  0.7749
 9368TIP3   OH249518   2.818   3.825  10.616  0.0489  0.6526 -0.8300
 9368TIP3    H149519   2.847   3.877  10.541  0.8696  3.1976  1.0884
 9368TIP3    H249520   2.899   3.794  10.656 -0.3802 -0.8038 -1.0614
 9369TIP3   OH249521   2.842   5.506   2.486 -0.0592 -0.2195  0.1604
 9369TIP3    H149522   2.851   5.592   2.445  2.4300 -0.6044 -0.2711
 9369TIP3    H249523   2.827   5.525   2.579 -2.6151  0.6300 -0.3395
 9370TIP3   OH249524   6.737   0.555   1.814 -0.0005  0.4885 -0.2211
 9370TIP3    H149525   6.665   0.617   1.800  0.3130  0.3963 -2.5721
 9370TIP3    H249526   6.708   0.475   1.770  1.3825  0.3682 -0.9475
 9371TIP3   OH249527   3.951   6.650  16.102 -0.0539 -0.7000 -0.2018
 9371TIP3    H149528   3.967   6.684  16.014  0.8672 -0.7413 -0.0594
 9371TIP3    H249529   4.017   6.693  16.157 -1.4341  0.3314  0.7287
 9372TIP3   OH249530   6.117   0.128  16.915 -0.2077  0.0362 -0.2974
 9372TIP3    H149531   6.056   0.159  16.982 -0.0050  0.9674 -0.5318
 9372TIP3    H249532   6.177   0.201  16.900  1.0084 -0.8740 -0.0441
 9373TIP3   OH249533   2.515   5.799   4.333  0.4460 -0.0035 -0.3264
 9373TIP3    H149534   2.508   5.744   4.255  1.6123 -0.7350  0.0617
 9373TIP3    H249535   2.570   5.873   4.305  0.4044  0.0255 -0.3337
 9374TIP3   OH249536   2.835   2.421  16.282  0.2933 -0.6470  0.5343
 9374TIP3    H149537   2.911   2.478  16.273  0.6096 -1.1838 -0.3794
 9374TIP3    H249538   2.790   2.427  16.197 -1.4548  0.7109  1.4938
 9375TIP3   OH249539   3.059   0.336  11.436  0.0847  0.5293  0.9073
 9375TIP3    H149540   3.120   0.273  11.475  0.5490  1.8770  2.4855
 9375TIP3    H249541   3.095   0.352  11.349 -1.2918 -2.9816 -0.5210
 9376TIP3   OH249542   4.203   5.786  13.427 -0.8452 -0.0710 -0.4622
 9376TIP3    H149543   4.200   5.707  13.373 -2.1731 -0.1469 -0.3173
 9376TIP3    H249544   4.287   5.782  13.472 -0.8382 -1.3339 -0.5681
 9377TIP3   OH249545   0.048   0.601  15.842 -0.2047  0.4503  0.1559
 9377TIP3    H149546   0.067   0.674  15.783 -2.4410  0.5926 -0.4770
 9377TIP3    H249547  -0.033   0.626  15.887 -0.4128 -1.1604  0.7611
 9378TIP3   OH249548   5.770   5.856  11.869 -0.1227  0.9406 -0.8182
 9378TIP3    H149549   5.764   5.952  11.865 -0.7913  0.9627  0.2593
 9378TIP3    H249550   5.777   5.829  11.778 -2.6520  1.8785 -1.4004
 9379TIP3   OH249551   5.069   5.334   3.063 -0.3657  0.0841 -0.3708
 9379TIP3    H149552   5.016   5.305   2.988 -0.3704  1.5488 -0.9853
 9379TIP3    H249553   5.157   5.302   3.044 -0.5017 -0.1140 -0.6774
 9380TIP3   OH249554   4.739   5.055   5.203  0.0813  0.0588  0.2340
 9380TIP3    H149555   4.810   5.079   5.143  0.5613 -0.0116  0.7631
 9380TIP3    H249556   4.749   5.115   5.277  1.0897 -1.4773  1.4238
 9381TIP3   OH249557   5.888   1.188  12.361 -0.5360  0.0990  0.0328
 9381TIP3    H149558   5.868   1.209  12.270 -2.0360  3.5484  0.9880
 9381TIP3    H249559   5.803   1.169  12.400  0.0322 -0.8419  0.8653
 9382TIP3   OH249560   1.293   6.559  15.153  0.0516  0.0052 -0.4215
 9382TIP3    H149561   1.269   6.487  15.211  1.3087  0.1148  0.2836
 9382TIP3    H249562   1.218   6.569  15.095 -0.1706 -1.8528 -0.5326
 9383TIP3   OH249563   0.084   3.057  15.974  0.3460 -0.1599  0.1085
 9383TIP3    H149564   0.153   3.098  16.027  1.0272  1.0106 -1.5882
 9383TIP3    H249565   0.119   3.059  15.884 -1.5188 -0.3951 -0.6590
 9384TIP3   OH249566   4.687   1.767   1.419  0.1323  0.1719 -0.3184
 9384TIP3    H149567   4.708   1.837   1.357 -2.8775  1.0715 -0.4938
 9384TIP3    H249568   4.640   1.703   1.366 -2.1984  0.7988  0.8553
 9385TIP3   OH249569   3.554   4.755  14.572  0.5808  0.2034 -0.7712
 9385TIP3    H149570   3.568   4.845  14.602 -0.0588 -0.4402  1.7731
 9385TIP3    H249571   3.641   4.715  14.575  0.6431  0.3580 -0.4223
 9386TIP3   OH249572   1.095   6.195   3.405  0.0030 -0.1840 -0.6246
 9386TIP3    H149573   1.022   6.206   3.466  0.2901 -0.2089 -0.2708
 9386TIP3    H249574   1.084   6.106   3.370  0.9714 -0.9581  0.9276
 9387TIP3   OH249575   5.813   4.040  14.502  0.2559 -0.1573  0.8710
 9387TIP3    H149576   5.754   4.042  14.427  1.9091  2.2487 -0.5045
 9387TIP3    H249577   5.786   4.114  14.556 -0.0179 -1.0127  1.9304
 9388TIP3   OH249578   4.019   3.740   1.100 -0.3731  0.6595 -0.3289
 9388TIP3    H149579   3.948   3.750   1.037 -1.7401 -0.2750  1.0056
 9388TIP3    H249580   4.047   3.829   1.119  0.4965  0.9566 -2.6538
 9389TIP3   OH249581   5.800   5.183   1.792  0.5451 -0.2695 -0.1936
 9389TIP3    H149582   5.712   5.156   1.764  0.1853  1.0476 -0.3997
 9389TIP3    H249583   5.809   5.273   1.761  0.8069  0.6950  2.3585
 9390TIP3   OH249584   2.031   4.551  15.675  0.3838  0.1356 -0.2156
 9390TIP3    H149585   2.097   4.617  15.658 -0.2734  0.0263 -4.1026
 9390TIP3    H249586   2.064   4.472  15.632 -1.1217 -0.6441 -0.0250
 9391TIP3   OH249587   0.280   4.321   4.542  0.0644 -0.3080  0.1589
 9391TIP3    H149588   0.233   4.297   4.622 -3.7815  0.7977 -1.5144
 9391TIP3    H249589   0.345   4.384   4.570 -0.1993 -1.0021  2.5662
 9392TIP3   OH249590   5.628   3.417  16.124 -0.3928  0.4495 -0.3240
 9392TIP3    H149591   5.664   3.371  16.200 -0.9054 -0.8168 -0.8198
 9392TIP3    H249592   5.540   3.381  16.114 -0.1744  0.2671 -1.7771
 9393TIP3   OH249593   4.395   1.270   2.210  0.3937  0.3323 -0.1144
 9393TIP3    H149594   4.337   1.197   2.231  0.4701  0.0636 -0.8212
 9393TIP3    H249595   4.339   1.335   2.168  0.7613 -0.3167 -1.6505
 9394TIP3   OH249596   1.334   5.084   6.092 -0.8333  0.1934  0.2826
 9394TIP3    H149597   1.338   5.159   6.152 -0.8346 -0.2183  0.8073
 9394TIP3    H249598   1.261   5.104   6.034  0.2028  1.3979 -0.6849
 9395TIP3   OH249599   2.385   0.137  15.547 -0.5325 -0.3942  0.0739
 9395TIP3    H149600   2.376   0.232  15.539  1.2720 -0.1219  0.7080
 9395TIP3    H249601   2.416   0.109  15.461  3.2748  0.3051  1.0049
 9396TIP3   OH249602   3.225   0.390   2.365  0.0978 -0.2007 -0.0495
 9396TIP3    H149603   3.309   0.355   2.337  0.3673  1.6390 -1.7420
 9396TIP3    H249604   3.161   0.323   2.339  0.8404 -0.7568 -0.4620
 9397TIP3   OH249605   6.376   0.427   2.337 -0.2339 -0.1940  0.2070
 9397TIP3    H149606   6.350   0.432   2.429  0.3445 -1.8909  0.4852
 9397TIP3    H249607   6.303   0.382   2.294  1.0496 -2.7168  0.5382
 9398TIP3   OH249608   2.529   4.825  16.716  0.2435 -0.1831  0.0978
 9398TIP3    H149609   2.499   4.864  16.634 -1.4366 -0.7871  0.3956
 9398TIP3    H249610   2.513   4.731  16.705 -2.0969 -0.0858  1.8992
 9399TIP3   OH249611   2.461   4.215  13.552  0.3899  0.3466 -0.1920
 9399TIP3    H149612   2.535   4.265  13.519  0.4095 -0.5485 -1.6271
 9399TIP3    H249613   2.400   4.210  13.478  0.3147 -1.5549 -0.0662
 9400TIP3   OH249614   5.264   6.334  12.041 -0.1716 -0.5630  0.2818
 9400TIP3    H149615   5.335   6.342  12.104 -0.5970 -1.0500  0.8329
 9400TIP3    H249616   5.288   6.259  11.987 -0.6405 -1.2375  0.9822
 9401TIP3   OH249617   6.199   3.290  15.254  0.1503  0.4481  0.1483
 9401TIP3    H149618   6.239   3.373  15.228 -2.4327  1.4026 -1.0931
 9401TIP3    H249619   6.204   3.289  15.349  1.6641  1.2315  0.0935
 9402TIP3   OH249620   3.702   3.776  16.205  0.3951 -0.1251  0.0613
 9402TIP3    H149621   3.734   3.691  16.235  0.7877 -0.2097 -0.5888
 9402TIP3    H249622   3.781   3.827  16.187  0.1614  0.1804 -0.1138
 9403TIP3   OH249623   0.013   3.735  15.523  0.1128 -0.0841 -0.3649
 9403TIP3    H149624  -0.065   3.709  15.475  0.4999 -1.4237 -0.3266
 9403TIP3    H249625   0.015   3.677  15.599  1.4291 -0.4679 -0.6678
 9404TIP3   OH249626   4.281   6.095   4.829 -0.6893 -0.3015  0.3005
 9404TIP3    H149627   4.263   6.159   4.898  2.6287 -2.3087  3.4582
 9404TIP3    H249628   4.258   6.139   4.748 -1.6152  3.6158  2.4386
 9405TIP3   OH249629   1.332   4.204   2.538  0.4161  0.2545 -0.2727
 9405TIP3    H149630   1.358   4.278   2.592  0.8283  1.5374 -2.1428
 9405TIP3    H249631   1.414   4.162   2.513  0.2519 -0.0581 -0.3064
 9406TIP3   OH249632   0.297   1.816  15.362 -0.6263 -0.0065  0.3594
 9406TIP3    H149633   0.318   1.879  15.431 -3.1600  0.9485  0.3520
 9406TIP3    H249634   0.239   1.864  15.302 -0.5554 -1.5928 -1.0445
 9407TIP3   OH249635   1.562   2.153  15.371 -0.3109 -0.1233  0.5705
 9407TIP3    H149636   1.544   2.164  15.464  0.5769 -0.1106  0.7436
 9407TIP3    H249637   1.557   2.058  15.357 -0.8714 -0.0934  0.5346
 9408TIP3   OH249638   0.519   4.145  14.283 -0.2314  0.4646 -0.5044
 9408TIP3    H149639   0.572   4.071  14.254  2.1856  0.4565  3.1872
 9408TIP3    H249640   0.561   4.222  14.246  1.2441  0.3054  0.7290
 9409TIP3   OH249641   0.040   1.807   3.631  0.4942 -0.1320 -0.4093
 9409TIP3    H149642   0.015   1.716   3.612  1.5622 -0.4939 -0.1304
 9409TIP3    H249643   0.012   1.856   3.553 -0.0639 -0.6965 -0.5734
 9410TIP3   OH249644   3.775   5.309   6.842 -0.0307 -0.3528  0.1350
 9410TIP3    H149645   3.804   5.390   6.800  0.8938 -0.6423  0.1894
 9410TIP3    H249646   3.756   5.333   6.932 -1.4308  0.1480 -0.2768
 9411TIP3   OH249647   4.023   5.745  14.038  0.9566 -0.4799  0.3521
 9411TIP3    H149648   3.987   5.758  13.950  1.1377 -1.2431  0.1597
 9411TIP3    H249649   3.979   5.811  14.092  1.4635  0.5545 -0.4782
 9412TIP3   OH249650   1.239   5.230  14.429 -0.0691 -0.1624  0.5809
 9412TIP3    H149651   1.229   5.137  14.408 -0.6433  0.2467 -1.1029
 9412TIP3    H249652   1.307   5.232  14.496 -1.3036 -1.9424  2.0140
 9413TIP3   OH249653   5.071   4.947  15.437 -0.8989 -0.0174  0.1828
 9413TIP3    H149654   5.128   4.932  15.361 -1.0387 -2.0712  0.4214
 9413TIP3    H249655   4.983   4.951  15.400 -1.1706 -2.7519  0.2823
 9414TIP3   OH249656   2.031   6.534   5.107  0.0740  0.5538  0.0316
 9414TIP3    H149657   2.001   6.571   5.024 -0.4377 -0.4961 -0.2752
 9414TIP3    H249658   2.084   6.603   5.147  0.2732  1.0999 -1.1358
 9415TIP3   OH249659   5.880   4.003  13.885  0.1064  0.2167  0.2206
 9415TIP3    H149660   5.891   4.097  13.900 -0.9429  0.0602  2.4020
 9415TIP3    H249661   5.950   3.962  13.936  0.1830 -0.2080 -0.2178
 9416TIP3   OH249662   1.060   0.255   0.967 -0.7079  0.2338  0.1283
 9416TIP3    H149663   1.087   0.247   1.058  2.2707  0.1681 -0.6602
 9416TIP3    H249664   1.110   0.188   0.921 -2.6462 -0.1992 -1.5225
 9417TIP3   OH249665   6.295   4.499  13.292  0.2006 -0.1851 -0.1007
 9417TIP3    H149666   6.360   4.476  13.358  0.3728 -0.3882 -0.3378
 9417TIP3    H249667   6.267   4.587  13.314  0.4969 -0.1308  0.0521
 9418TIP3   OH249668   6.777   3.044  13.929  0.1467 -0.4507 -0.7184
 9418TIP3    H149669   6.705   3.082  13.981 -0.1195 -1.8112 -0.0595
 9418TIP3    H249670   6.851   3.104  13.944 -0.4699  0.2287 -0.3238
 9419TIP3   OH249671   3.420   4.983   0.613 -0.2019 -0.2505 -0.1471
 9419TIP3    H149672   3.499   5.007   0.662 -1.0471 -0.5240  1.4128
 9419TIP3    H249673   3.379   5.067   0.592 -1.3647 -0.1279  2.2881
 9420TIP3   OH249674   3.440   3.165   6.076 -0.1730  0.5019 -0.1507
 9420TIP3    H149675   3.438   3.242   6.019 -0.2655 -0.4716 -1.5137
 9420TIP3    H249676   3.477   3.198   6.159  2.1395  1.5258 -1.4621
 9421TIP3   OH249677   5.079   0.675   3.544 -0.0593 -0.4728 -0.3741
 9421TIP3    H149678   5.018   0.645   3.611 -2.8671 -4.8402 -4.2456
 9421TIP3    H249679   5.154   0.616   3.551  0.0178 -0.3982 -0.5579
 9422TIP3   OH249680   2.788   3.097  13.028  0.2482  0.2003 -0.2708
 9422TIP3    H149681   2.835   3.019  13.056  0.6664  1.0882  1.6938
 9422TIP3    H249682   2.702   3.065  13.000  0.6459 -1.0136 -0.1697
 9423TIP3   OH249683   0.299   6.157   2.351 -1.3080 -0.3528  0.3790
 9423TIP3    H149684   0.313   6.064   2.369 -0.4854 -0.2137  0.5147
 9423TIP3    H249685   0.365   6.201   2.405 -2.3758  0.3771  1.1284
 9424TIP3   OH249686   3.032   5.671  12.300 -0.2994  0.3680  0.3404
 9424TIP3    H149687   3.044   5.743  12.362 -0.4142 -1.2556  2.3267
 9424TIP3    H249688   2.945   5.637  12.318  0.5448 -1.6157  0.9885
 9425TIP3   OH249689   1.333   1.454   6.609  0.0524 -0.3148 -0.5532
 9425TIP3    H149690   1.290   1.406   6.680  0.3104 -0.6264 -0.6054
 9425TIP3    H249691   1.277   1.530   6.594 -1.2148 -1.3895 -1.5332
 9426TIP3   OH249692   4.368   5.846  17.080  0.1934  0.0338 -0.6990
 9426TIP3    H149693   4.373   5.785  17.007  0.5441  0.1482 -0.7731
 9426TIP3    H249694   4.280   5.834  17.115  1.1165 -2.4860  1.0220
 9427TIP3   OH249695   2.697   3.393   2.407 -0.6978 -0.2925 -0.3871
 9427TIP3    H149696   2.692   3.460   2.475  2.2509 -0.8558  0.5466
 9427TIP3    H249697   2.745   3.435   2.335  0.6519 -1.1308 -0.0266
 9428TIP3   OH249698   4.996   4.487   4.285 -0.4312  0.0888 -0.2401
 9428TIP3    H149699   5.044   4.469   4.205 -0.8430  1.6977 -0.8909
 9428TIP3    H249700   4.912   4.443   4.274  0.3183 -1.5680  0.3110
 9429TIP3   OH249701   2.144   6.538   4.185 -0.2231  0.4477 -0.1876
 9429TIP3    H149702   2.238   6.555   4.177 -0.0121 -0.8808 -0.9213
 9429TIP3    H249703   2.106   6.575   4.106  0.0797 -1.3257 -1.2171
 9430TIP3   OH249704   0.772   5.358  11.714  0.2296  0.1677  0.3231
 9430TIP3    H149705   0.758   5.376  11.807  0.4703  0.1669  0.3601
 9430TIP3    H249706   0.860   5.393  11.696  0.1791  0.1763  0.0953
 9431TIP3   OH249707   1.184   4.709  10.604  0.2165 -0.3164  0.2387
 9431TIP3    H149708   1.208   4.801  10.614 -1.0450 -0.1752  2.3961
 9431TIP3    H249709   1.267   4.662  10.610  0.6595  0.5512  1.2035
 9432TIP3   OH249710   2.366   3.729   4.813 -0.2690 -0.2247  0.1228
 9432TIP3    H149711   2.272   3.713   4.814 -0.1516 -1.0680 -0.9007
 9432TIP3    H249712   2.376   3.816   4.852 -1.1512 -1.5166  3.5900
 9433TIP3   OH249713   6.086   0.804  13.538 -0.2378 -0.3151 -0.4376
 9433TIP3    H149714   6.102   0.809  13.444 -1.5250  0.7568 -0.6239
 9433TIP3    H249715   6.172   0.814  13.578  0.3877 -1.2463 -1.4936
 9434TIP3   OH249716   4.882   5.487   6.217  0.3258  0.0741  0.0282
 9434TIP3    H149717   4.872   5.396   6.245 -2.4787  0.0210 -0.8078
 9434TIP3    H249718   4.794   5.524   6.224  1.1910  2.4462 -0.6072
 9435TIP3   OH249719   3.814   0.213   3.240 -0.4260  0.1065 -0.9312
 9435TIP3    H149720   3.750   0.172   3.298  0.2459  0.0230 -0.2425
 9435TIP3    H249721   3.798   0.307   3.250  1.7055  0.2974  1.8333
 9436TIP3   OH249722   1.075   0.713   4.267 -0.3675  0.1823  0.1297
 9436TIP3    H149723   1.075   0.745   4.358 -1.9672 -0.0000  0.2217
 9436TIP3    H249724   1.015   0.639   4.267  0.9287 -0.9193 -0.7470
 9437TIP3   OH249725   4.871   3.951  11.528 -0.3565  0.2262  0.3476
 9437TIP3    H149726   4.844   3.964  11.619  1.5282 -1.1963  1.1824
 9437TIP3    H249727   4.834   3.867  11.503 -0.0753  0.1661  0.1277
 9438TIP3   OH249728   5.067   0.250   2.697  0.0015 -0.1317 -0.2672
 9438TIP3    H149729   4.991   0.250   2.639 -0.8184  0.3062  0.7694
 9438TIP3    H249730   5.033   0.218   2.781  0.9760  0.0154  0.1952
 9439TIP3   OH249731   3.414   6.560   3.950  0.1936 -0.0400 -0.4177
 9439TIP3    H149732   3.414   6.465   3.960  1.9604 -0.3867 -2.7450
 9439TIP3    H249733   3.324   6.586   3.969  0.3278 -1.6790  3.4661
 9440TIP3   OH249734   4.007   1.622   4.894 -0.3310  0.2474 -0.1314
 9440TIP3    H149735   4.059   1.542   4.903 -0.1814  0.4772  1.2121
 9440TIP3    H249736   4.038   1.661   4.813  0.5491 -0.3752 -0.1105
 9441TIP3   OH249737   5.316   6.708  15.146 -0.5223  0.0234  0.1857
 9441TIP3    H149738   5.253   6.693  15.075  1.0193  3.0183 -2.0291
 9441TIP3    H249739   5.262   6.708  15.225 -3.2094  1.4606 -1.4974
 9442TIP3   OH249740   4.341   4.876   4.258 -0.2118 -0.7597  0.4064
 9442TIP3    H149741   4.338   4.904   4.166 -1.2670  0.8305  0.8874
 9442TIP3    H249742   4.341   4.781   4.254  1.8805 -0.7616 -1.2836
 9443TIP3   OH249743   6.708   2.911   1.969  0.3980 -0.2752  0.2366
 9443TIP3    H149744   6.774   2.959   1.919  0.9761 -0.8358  0.4566
 9443TIP3    H249745   6.691   2.832   1.917 -0.9055  0.3636 -0.3682
 9444TIP3   OH249746   6.698   6.719   4.334  1.0449 -0.0089 -0.4192
 9444TIP3    H149747   6.693   6.744   4.241  3.0530  0.6501 -0.4097
 9444TIP3    H249748   6.637   6.778   4.378  0.4328  0.0073 -1.2692
 9445TIP3   OH249749   0.152   3.639  12.706 -0.3154  0.0205 -0.3572
 9445TIP3    H149750   0.244   3.617  12.687 -0.5891 -1.2620 -0.3387
 9445TIP3    H249751   0.151   3.734  12.714  1.0504  0.0415 -0.1659
 9446TIP3   OH249752   3.940   6.289  10.952  0.1894  0.2521  0.4171
 9446TIP3    H149753   3.912   6.379  10.936  0.7422  0.3071 -0.3165
 9446TIP3    H249754   3.860   6.237  10.941  0.0845  0.5451 -0.2682
 9447TIP3   OH249755   4.676   5.879   5.451 -0.2127 -0.0624  0.0075
 9447TIP3    H149756   4.768   5.875   5.424  0.1826  1.1639  1.0469
 9447TIP3    H249757   4.666   5.804   5.509 -0.0967 -0.6565 -0.7232
 9448TIP3   OH249758   5.747   1.330   4.517  0.6945  0.3117 -0.1263
 9448TIP3    H149759   5.788   1.320   4.603 -2.4313  0.0592  1.4667
 9448TIP3    H249760   5.678   1.395   4.530  0.7936  1.0701 -2.7614
 9449TIP3   OH249761   3.107   6.011  13.841 -0.4215 -0.1887  0.0820
 9449TIP3    H149762   3.082   5.986  13.752 -0.1097 -0.1428 -0.0214
 9449TIP3    H249763   3.040   6.073  13.869 -0.8910 -0.7121  0.1289
 9450TIP3   OH249764   4.704   0.617  14.814 -0.3444 -0.0408  0.2163
 9450TIP3    H149765   4.727   0.623  14.722 -1.2066  0.6768  0.0309
 9450TIP3    H249766   4.701   0.708  14.844 -0.6650 -0.2359  0.7980
 9451TIP3   OH249767   2.781   0.557  15.694  0.5466 -0.4438 -0.4110
 9451TIP3    H149768   2.687   0.563  15.714  0.3929 -1.3843 -0.7728
 9451TIP3    H249769   2.799   0.631  15.637 -0.2642 -0.9365 -1.3456
 9452TIP3   OH249770   4.530   5.329   3.009  0.0109 -0.5980 -0.1172
 9452TIP3    H149771   4.450   5.337   2.957 -1.0222 -0.2413  1.4611
 9452TIP3    H249772   4.584   5.402   2.981 -1.9961  1.7460  1.6664
 9453TIP3   OH249773   4.208   4.973  12.165  0.1075 -0.2961 -0.4815
 9453TIP3    H149774   4.126   4.927  12.145  1.4665 -3.0673 -0.2664
 9453TIP3    H249775   4.261   4.961  12.086  0.5058  1.0657 -0.4428
 9454TIP3   OH249776   3.673   0.220  13.123  0.3184  0.1796 -0.6262
 9454TIP3    H149777   3.721   0.163  13.183 -0.9593 -0.0828  0.1815
 9454TIP3    H249778   3.593   0.242  13.170 -0.7940 -0.1474 -2.2830
 9455TIP3   OH249779   3.033   6.037  14.645 -0.3508  0.0318 -0.4043
 9455TIP3    H149780   3.048   6.033  14.740  1.5807 -0.7540 -0.6976
 9455TIP3    H249781   2.975   5.962  14.628 -0.6313  0.1150  0.1331
 9456TIP3   OH249782   5.945   4.629  12.207  0.6891  0.6792  0.6434
 9456TIP3    H149783   5.862   4.646  12.251  0.0435  0.3757 -0.4082
 9456TIP3    H249784   5.983   4.555  12.254  0.6222  1.1597  1.4622
 9457TIP3   OH249785   1.981   4.921   3.680 -0.8893 -0.2189 -0.5790
 9457TIP3    H149786   1.981   5.012   3.709  1.0864 -0.4427  0.3071
 9457TIP3    H249787   1.900   4.884   3.716 -0.5112  0.5798  1.2292
 9458TIP3   OH249788   1.774   4.258   4.391  0.7019  0.1240 -0.2217
 9458TIP3    H149789   1.748   4.206   4.315  0.0507  0.5269 -0.2840
 9458TIP3    H249790   1.692   4.288   4.428  1.0303  0.1192  0.5156
 9459TIP3   OH249791   0.953   1.341   2.277  0.7395  0.1981  0.3716
 9459TIP3    H149792   0.901   1.393   2.340  1.2002  0.2550  0.7099
 9459TIP3    H249793   0.896   1.267   2.255  0.1269  0.7835 -0.0192
 9460TIP3   OH249794   0.146   4.653  16.816 -0.2023 -0.3075  0.0993
 9460TIP3    H149795   0.141   4.561  16.843  1.5611  0.1071  2.1829
 9460TIP3    H249796   0.180   4.650  16.727 -2.2339 -1.6917 -0.6919
 9461TIP3   OH249797   5.731   3.298   4.583  0.0529  0.1245 -0.2236
 9461TIP3    H149798   5.823   3.322   4.575  0.1304 -0.2968 -0.6282
 9461TIP3    H249799   5.694   3.364   4.641  1.6768 -2.4038  4.1725
 9462TIP3   OH249800   0.235   2.787  15.747 -0.3065 -0.2036  0.2460
 9462TIP3    H149801   0.193   2.702  15.736  0.5281 -0.6955  0.7903
 9462TIP3    H249802   0.219   2.811  15.838 -0.2605  0.0696  0.1851
 9463TIP3   OH249803   2.782   4.863  15.557 -0.0663 -0.0059 -0.3053
 9463TIP3    H149804   2.784   4.941  15.614  0.7376 -0.0824 -0.2111
 9463TIP3    H249805   2.875   4.840  15.546 -0.3106 -1.1641 -0.0391
 9464TIP3   OH249806   5.959   5.227  15.972  0.5185 -0.3985 -0.0689
 9464TIP3    H149807   5.991   5.149  15.927  0.7131 -0.2967 -0.1102
 9464TIP3    H249808   5.866   5.209  15.989  0.4964 -0.5273 -0.3183
 9465TIP3   OH249809   2.061   2.673   5.713 -0.2773  0.4251 -0.2104
 9465TIP3    H149810   1.982   2.727   5.720  0.8433  2.3887 -1.5755
 9465TIP3    H249811   2.115   2.718   5.648  1.0639 -2.0182 -0.9356
 9466TIP3   OH249812   4.127   4.810  16.560  0.7617 -0.4584  0.2513
 9466TIP3    H149813   4.036   4.790  16.539  0.1999  0.3853  1.7677
 9466TIP3    H249814   4.170   4.817  16.474 -1.1311  1.5602 -0.6174
 9467TIP3   OH249815   3.282   4.728  15.087  0.5208  0.1569 -0.6125
 9467TIP3    H149816   3.334   4.673  15.029  0.3876  1.2020 -1.7715
 9467TIP3    H249817   3.205   4.675  15.108 -0.1557  0.2626 -2.6023
 9468TIP3   OH249818   3.686   5.148  11.771 -0.0024 -0.5633  0.6150
 9468TIP3    H149819   3.618   5.213  11.792 -0.8967 -0.8153 -1.3011
 9468TIP3    H249820   3.718   5.119  11.857 -2.2038 -0.3132  1.5962
 9469TIP3   OH249821   4.099   0.370  10.947 -0.1107 -0.1962 -0.4261
 9469TIP3    H149822   4.104   0.415  10.862  2.5152  0.0708 -0.2037
 9469TIP3    H249823   4.171   0.308  10.945  0.3680  0.2063  1.8286
 9470TIP3   OH249824   3.972   5.811   2.182  0.2306 -0.5435  0.7606
 9470TIP3    H149825   4.034   5.754   2.135 -1.6283 -0.3479 -2.2036
 9470TIP3    H249826   4.027   5.879   2.220  1.9591 -0.7767 -1.1132
 9471TIP3   OH249827   4.173   2.470   2.265 -0.7301  0.2541 -0.2794
 9471TIP3    H149828   4.169   2.437   2.355  1.0373 -0.4877 -0.4263
 9471TIP3    H249829   4.199   2.561   2.274 -0.0168  0.0329 -0.0437
 9472TIP3   OH249830   4.691   1.194   3.212  0.4301 -0.0009 -0.2166
 9472TIP3    H149831   4.673   1.163   3.122  1.8648  0.1372 -0.5657
 9472TIP3    H249832   4.785   1.213   3.213  0.1976  1.2298  0.9597
 9473TIP3   OH249833   4.667   1.122  12.737  0.6471 -0.3652 -0.0884
 9473TIP3    H149834   4.737   1.164  12.788  2.1104 -2.4484 -0.2760
 9473TIP3    H249835   4.712   1.085  12.661 -0.7063 -1.6184 -0.3128
 9474TIP3   OH249836   1.468   6.430   4.934 -0.2767 -0.3041  0.1500
 9474TIP3    H149837   1.389   6.387   4.901 -0.7076  0.9751 -0.5390
 9474TIP3    H249838   1.446   6.459   5.022 -0.4552 -0.2544  0.0880
 9475TIP3   OH249839   4.957   6.231  15.832 -0.1780  0.8085  0.1999
 9475TIP3    H149840   4.913   6.183  15.903 -1.7339  1.6433 -0.1627
 9475TIP3    H249841   4.886   6.276  15.786  0.8567  0.6683 -1.6094
 9476TIP3   OH249842   2.290   4.362  10.939  0.6489 -0.2311 -0.4399
 9476TIP3    H149843   2.352   4.434  10.954  0.0514 -0.1161  1.7591
 9476TIP3    H249844   2.228   4.398  10.875 -0.4887  1.8287  1.6703
 9477TIP3   OH249845   1.976   5.491  12.469 -0.8955 -0.4911 -0.5563
 9477TIP3    H149846   1.891   5.456  12.496 -0.4570 -0.0067  1.6442
 9477TIP3    H249847   2.033   5.414  12.462 -1.2645 -0.7202 -1.0928
 9478TIP3   OH249848   0.199   6.180   1.492  0.1750  0.2604  0.1903
 9478TIP3    H149849   0.232   6.097   1.527  1.2968  0.5647 -0.1024
 9478TIP3    H249850   0.217   6.176   1.398 -2.3375 -0.3266 -0.3383
 9479TIP3   OH249851   5.754   3.909  12.606  0.4168  0.0743 -0.2006
 9479TIP3    H149852   5.811   3.950  12.671 -0.3498  0.4723  0.2362
 9479TIP3    H249853   5.741   3.820  12.638  1.7057 -0.3790 -0.9021
 9480TIP3   OH249854   2.858   2.641   0.728 -0.5168 -0.0746  0.0364
 9480TIP3    H149855   2.894   2.561   0.764 -1.1641  0.1226  1.1871
 9480TIP3    H249856   2.919   2.709   0.754 -0.3408 -0.0926 -0.3217
 9481TIP3   OH249857   1.297   0.461   2.768 -0.2875  0.3332 -0.0647
 9481TIP3    H149858   1.335   0.517   2.701  1.4876 -1.1901 -0.4354
 9481TIP3    H249859   1.244   0.519   2.822  1.6129  2.4096 -0.2949
 9482TIP3   OH249860   4.816   4.324   1.123  0.6116  0.5748 -0.0839
 9482TIP3    H149861   4.844   4.395   1.065  2.2490 -0.8642 -1.1824
 9482TIP3    H249862   4.891   4.310   1.181  0.3305 -0.2624  0.0916
 9483TIP3   OH249863   0.207   1.436  11.982  0.2490 -0.3259 -0.4717
 9483TIP3    H149864   0.115   1.413  11.992 -0.1032  1.1853  0.0858
 9483TIP3    H249865   0.232   1.399  11.898 -1.1770  0.1558 -1.1400
 9484TIP3   OH249866   6.398   3.442   4.237 -0.1081 -0.2704  0.1858
 9484TIP3    H149867   6.311   3.438   4.195 -0.8041 -1.6208  1.6751
 9484TIP3    H249868   6.417   3.352   4.261  1.7998 -0.0098 -0.1980
 9485TIP3   OH249869   1.293   6.780   1.623  0.0491 -0.1904  0.5522
 9485TIP3    H149870   1.282   6.855   1.564 -1.6710 -1.3375 -0.6820
 9485TIP3    H249871   1.386   6.779   1.643  0.5429  0.8256 -1.4177
 9486TIP3   OH249872   5.642   6.234   0.123 -0.5418 -0.5393  0.2596
 9486TIP3    H149873   5.702   6.288   0.072 -1.5096  0.1788 -0.1578
 9486TIP3    H249874   5.697   6.166   0.161  0.4354 -0.2338 -0.5672
 9487TIP3   OH249875   3.187   3.477  15.962 -0.3606  0.0943 -0.2199
 9487TIP3    H149876   3.094   3.467  15.984 -0.2947  1.2690  0.7092
 9487TIP3    H249877   3.187   3.512  15.873 -0.9798  3.0194  0.8195
 9488TIP3   OH249878   4.725   4.839  13.331 -0.0834  0.4092 -0.3942
 9488TIP3    H149879   4.709   4.926  13.295 -2.7441  0.3567  0.4618
 9488TIP3    H249880   4.795   4.803  13.276  0.7198  2.8451 -1.0992
 9489TIP3   OH249881   4.598   1.660  14.269 -0.0346 -0.3233  0.6986
 9489TIP3    H149882   4.649   1.737  14.244  0.5661 -1.2972 -1.3001
 9489TIP3    H249883   4.561   1.682  14.354  1.5475  1.4606  0.9802
 9490TIP3   OH249884   3.566   3.419  15.222  0.6756  0.5463 -0.3330
 9490TIP3    H149885   3.592   3.511  15.211 -0.5453  1.2022  1.7199
 9490TIP3    H249886   3.592   3.398  15.311  0.9772 -1.1456 -0.7942
 9491TIP3   OH249887   0.659   2.448  15.123 -0.3502 -0.4811 -0.3615
 9491TIP3    H149888   0.669   2.510  15.195 -1.4802  0.0833 -0.6593
 9491TIP3    H249889   0.679   2.363  15.162  0.1469 -0.0609  0.3316
 9492TIP3   OH249890   1.176   4.132   5.151 -0.3971  0.1521 -0.2183
 9492TIP3    H149891   1.259   4.156   5.193 -0.1175 -1.0343 -0.0706
 9492TIP3    H249892   1.120   4.208   5.166  0.5145  0.7953  0.0731
 9493TIP3   OH249893   6.549   0.632   0.447  0.3357 -0.2861 -0.3719
 9493TIP3    H149894   6.539   0.564   0.381 -1.4544  0.1133 -0.5631
 9493TIP3    H249895   6.551   0.714   0.397  1.7862 -0.1284 -0.0977
 9494TIP3   OH249896   3.738   1.043   4.801 -0.5532 -0.0359  0.7179
 9494TIP3    H149897   3.740   1.028   4.707 -0.5528  0.2567  0.6711
 9494TIP3    H249898   3.736   1.138   4.811  2.4242  0.1124  1.0334
 9495TIP3   OH249899   3.652   5.816  14.527 -0.4835  0.3966  0.0175
 9495TIP3    H149900   3.652   5.909  14.507  2.7220  0.4606 -0.2211
 9495TIP3    H249901   3.633   5.772  14.444  1.4972  0.8547 -0.7370
 9496TIP3   OH249902   4.103   3.735  10.409  0.0971  0.1759  0.5695
 9496TIP3    H149903   4.101   3.830  10.420 -0.1006  0.3370 -0.7288
 9496TIP3    H249904   4.011   3.709  10.408  0.1594 -0.0865  1.3336
 9497TIP3   OH249905   5.720   2.591  11.607 -0.6878 -0.4776 -0.4366
 9497TIP3    H149906   5.665   2.635  11.542 -2.2233  0.1149  1.1854
 9497TIP3    H249907   5.794   2.650  11.620 -1.2806  0.2623 -0.3626
 9498TIP3   OH249908   1.552   6.633   2.733 -0.3315 -0.2061  0.5999
 9498TIP3    H149909   1.477   6.631   2.674 -0.4744  0.3253  0.7574
 9498TIP3    H249910   1.537   6.560   2.793 -0.9923  0.2052  0.9509
 9499TIP3   OH249911   3.751   5.241  16.728  0.2946  0.1289  0.0641
 9499TIP3    H149912   3.692   5.246  16.653 -0.9367  2.7022  1.0864
 9499TIP3    H249913   3.837   5.262  16.692 -0.1358  0.4982 -0.7702
 9500TIP3   OH249914   2.615   4.934   4.771 -0.1573 -0.1906 -0.1531
 9500TIP3    H149915   2.610   4.957   4.679 -0.8199  1.1099  0.1748
 9500TIP3    H249916   2.706   4.949   4.795 -0.3726  1.3508 -0.1727
 9501TIP3   OH249917   3.971   4.178  11.865 -0.5641  0.3598 -0.6613
 9501TIP3    H149918   3.929   4.095  11.844 -0.8094  0.5018 -0.7361
 9501TIP3    H249919   3.917   4.244  11.822 -0.5178  0.5790 -0.3859
 9502TIP3   OH249920   1.465   1.499  11.399 -0.5949  0.9291 -0.3228
 9502TIP3    H149921   1.535   1.541  11.450 -1.2739  0.9948  0.5781
 9502TIP3    H249922   1.500   1.413  11.376 -0.0765  1.1052 -0.2034
 9503TIP3   OH249923   4.159   3.574  10.956 -0.0970 -0.5495  0.0588
 9503TIP3    H149924   4.154   3.503  10.892 -4.0367 -1.2166  0.8262
 9503TIP3    H249925   4.086   3.632  10.934  1.3889  1.8936  1.0842
 9504TIP3   OH249926   0.618   3.529  12.027 -0.5976  0.4723  0.5874
 9504TIP3    H149927   0.591   3.567  11.944 -0.2644 -1.0724 -0.2674
 9504TIP3    H249928   0.712   3.515  12.018 -0.6479 -0.1913  1.0038
 9505TIP3   OH249929   1.955   2.876   2.425  0.7038  0.7064 -0.1679
 9505TIP3    H149930   2.017   2.920   2.368  1.8024  0.6072  0.9087
 9505TIP3    H249931   1.916   2.945   2.478 -0.9892  0.9171 -1.6028
 9506TIP3   OH249932   4.058   2.670  16.398  0.5828 -1.0803  0.6460
 9506TIP3    H149933   4.127   2.654  16.334 -0.7832  0.0156 -1.1994
 9506TIP3    H249934   4.025   2.757  16.376 -1.4472 -1.6160  1.3974
 9507TIP3   OH249935   0.882   5.111  15.354 -0.2499 -0.7818 -0.4217
 9507TIP3    H149936   0.893   5.169  15.278 -0.2654 -0.2352 -0.0136
 9507TIP3    H249937   0.901   5.024  15.320  2.1346 -0.2927 -0.5431
 9508TIP3   OH249938   3.412   0.200  15.100 -0.0477  0.2454  0.3374
 9508TIP3    H149939   3.380   0.225  15.014  0.2548 -1.8903 -0.4399
 9508TIP3    H249940   3.455   0.279  15.133  2.5557  0.3405 -2.7726
 9509TIP3   OH249941   4.419   0.223  16.545 -0.2690 -0.4360  0.4373
 9509TIP3    H149942   4.507   0.211  16.582  1.0791 -1.9830 -2.8194
 9509TIP3    H249943   4.374   0.140  16.563  0.3914 -1.1938 -1.1513
 9510TIP3   OH249944   0.253   3.808   2.777  0.1639 -0.4803  0.2127
 9510TIP3    H149945   0.333   3.858   2.760  0.2505  0.2134  2.3641
 9510TIP3    H249946   0.195   3.829   2.704  1.7191 -0.5610 -1.0961
 9511TIP3   OH249947   3.497   1.787   3.787 -0.1130 -0.0724  0.4513
 9511TIP3    H149948   3.531   1.700   3.806  0.8859 -0.1521 -1.3949
 9511TIP3    H249949   3.571   1.845   3.804 -0.3221  0.2375  0.3049
 9512TIP3   OH249950   5.497   6.642  15.875 -0.0888 -0.1780  0.5742
 9512TIP3    H149951   5.586   6.642  15.910  0.9485  2.2457 -1.7740
 9512TIP3    H249952   5.446   6.690  15.941  0.9085  0.7146  0.7131
 9513TIP3   OH249953   4.318   4.009  11.910  0.5633  0.3619  0.2042
 9513TIP3    H149954   4.355   4.094  11.934  0.9090  0.1062  0.5893
 9513TIP3    H249955   4.379   3.945  11.947 -0.4955 -0.0731  1.2406
 9514TIP3   OH249956   2.620   2.508   3.342  0.0069  0.0931 -0.7020
 9514TIP3    H149957   2.553   2.559   3.296  1.1803  1.0292 -1.4449
 9514TIP3    H249958   2.648   2.442   3.278 -0.7654 -0.8352 -0.1064
 9515TIP3   OH249959   5.441   0.805  12.876  0.1456 -0.2327  0.0415
 9515TIP3    H149960   5.350   0.805  12.845  0.9147  0.1552 -2.4293
 9515TIP3    H249961   5.478   0.725  12.839  1.2359  0.4537 -0.3748
 9516TIP3   OH249962   1.948   6.165  11.132  0.2489  0.1677 -0.1758
 9516TIP3    H149963   1.865   6.131  11.165  0.1751  0.1209 -0.4138
 9516TIP3    H249964   1.960   6.122  11.047 -0.4842  1.7423 -1.1080
 9517TIP3   OH249965   1.833   2.746   0.770  0.2340  0.4515  0.0869
 9517TIP3    H149966   1.916   2.735   0.817 -1.0917  1.6684  2.9503
 9517TIP3    H249967   1.801   2.657   0.758  1.3755  0.0284  0.0313
 9518TIP3   OH249968   1.592   0.019  14.713  0.0405 -0.0040 -0.0638
 9518TIP3    H149969   1.672   0.055  14.675  0.3545  1.8047  2.1301
 9518TIP3    H249970   1.620  -0.064  14.753  0.8287  0.5571  0.5882
 9519TIP3   OH249971   5.957   1.842  12.666  0.0592 -0.0307 -0.0785
 9519TIP3    H149972   5.909   1.905  12.720 -1.6924  1.0840 -2.7189
 9519TIP3    H249973   5.940   1.757  12.707 -0.4132  0.8315  1.5947
 9520TIP3   OH249974   1.378   4.069  12.288  0.0940 -0.0144 -0.4969
 9520TIP3    H149975   1.458   4.018  12.274 -0.0759 -0.3368 -0.2993
 9520TIP3    H249976   1.337   4.073  12.202  0.6741  0.7633 -0.7588
 9521TIP3   OH249977   2.527   2.887  17.184 -0.1527  0.4594  0.1873
 9521TIP3    H149978   2.595   2.906  17.120 -1.0730 -1.2468 -1.4016
 9521TIP3    H249979   2.522   2.792  17.187 -1.0427  0.5139  1.8378
 9522TIP3   OH249980   0.563   1.997  13.198 -0.1217 -0.3539 -0.0755
 9522TIP3    H149981   0.607   2.052  13.263 -1.0687  2.5299 -1.7149
 9522TIP3    H249982   0.630   1.980  13.132 -0.3951  0.8323 -0.6891
 9523TIP3   OH249983   0.637   5.928   2.756 -0.4178 -0.1097  0.0451
 9523TIP3    H149984   0.610   5.875   2.681 -1.3090  2.6939 -1.7990
 9523TIP3    H249985   0.715   5.975   2.725 -0.7196  0.9931  0.9040
 9524TIP3   OH249986   0.779   6.097   3.046 -0.4140  0.8425  0.1557
 9524TIP3    H149987   0.686   6.080   3.035 -0.4971  1.8628 -1.0139
 9524TIP3    H249988   0.820   6.011   3.038 -1.1799  0.5163 -0.3925
 9525TIP3   OH249989   5.964   5.224   0.329  0.0973 -0.6174 -0.7035
 9525TIP3    H149990   6.040   5.253   0.278 -1.4025  2.3322 -1.5135
 9525TIP3    H249991   5.995   5.217   0.419  1.4880 -0.1568 -1.1326
 9526TIP3   OH249992   6.437   5.177   3.822  0.5038 -1.0112  0.2641
 9526TIP3    H149993   6.428   5.106   3.886  0.7603  0.5573  2.1505
 9526TIP3    H249994   6.518   5.222   3.848  0.1195  0.2214 -0.5996
 9527TIP3   OH249995   0.607   5.840  14.943 -0.3861  0.1362  0.0351
 9527TIP3    H149996   0.652   5.772  14.893 -1.5112 -0.1164 -0.6715
 9527TIP3    H249997   0.523   5.852  14.897 -0.8316  0.9339  1.0214
 9528TIP3   OH249998   3.240   4.694  16.227  0.3337  0.0581 -0.2424
 9528TIP3    H149999   3.182   4.710  16.302 -2.1789 -1.0738 -1.8329
 9528TIP3    H250000   3.297   4.771  16.225  0.1474  0.3850  2.4678
 9529TIP3   OH250001   1.920   1.951   1.379  0.0070 -0.1843  0.1529
 9529TIP3    H150002   1.978   1.888   1.338  1.3397 -0.1152  1.8100
 9529TIP3    H250003   1.915   1.922   1.471 -1.6716  0.4720  0.3027
 9530TIP3   OH250004   1.719   2.243   3.097  0.2383  0.5660  0.8921
 9530TIP3    H150005   1.776   2.201   3.161  0.5244  2.1657  1.7450
 9530TIP3    H250006   1.658   2.174   3.070  2.1801 -1.0555  0.3675
 9531TIP3   OH250007   5.259   5.529   6.001 -0.4620  0.7462 -0.5704
 9531TIP3    H150008   5.318   5.456   6.021 -1.3353 -0.0200 -0.7599
 9531TIP3    H250009   5.314   5.607   6.011 -0.4908  0.4814  3.9895
 9532TIP3   OH250010   0.332   1.517  10.983 -0.1595 -0.5168  0.0787
 9532TIP3    H150011   0.388   1.504  10.907  0.7167  1.9424  0.2049
 9532TIP3    H250012   0.243   1.511  10.948  0.1873  2.1900 -1.6198
 9533TIP3   OH250013   1.590   6.769   0.377 -0.5453 -0.3220  0.3764
 9533TIP3    H150014   1.558   6.698   0.320 -1.2303 -1.3869  2.0190
 9533TIP3    H250015   1.666   6.732   0.421 -1.0972 -0.1737  1.4891
 9534TIP3   OH250016   6.581   0.619  16.088 -0.3343  0.3364 -0.0735
 9534TIP3    H150017   6.487   0.636  16.089 -0.2872  0.8722  2.2112
 9534TIP3    H250018   6.590   0.530  16.122 -0.0090  0.3221 -0.1899
 9535TIP3   OH250019   3.565   4.996   5.223 -0.3843  0.2154  0.0744
 9535TIP3    H150020   3.534   5.068   5.278 -0.0784 -0.1952  0.8041
 9535TIP3    H250021   3.507   4.923   5.244  2.8031 -1.5781  3.9047
 9536TIP3   OH250022   5.826   3.094   3.214  0.4233 -0.5792 -0.0888
 9536TIP3    H150023   5.745   3.126   3.252  1.3518  0.5920  0.9798
 9536TIP3    H250024   5.880   3.172   3.203  2.5065 -1.6237  1.9386
 9537TIP3   OH250025   1.843   0.156   5.084 -0.3458  0.0724  0.3307
 9537TIP3    H150026   1.827   0.135   4.992 -0.3714 -3.4088  0.9795
 9537TIP3    H250027   1.936   0.176   5.088  0.4354 -2.8961 -0.1340
 9538TIP3   OH250028   3.758   6.311   3.750 -0.1162  0.2153 -0.0681
 9538TIP3    H150029   3.737   6.324   3.658 -0.3144  0.4771  0.0132
 9538TIP3    H250030   3.833   6.368   3.766 -0.7760  1.0451  0.2041
 9539TIP3   OH250031   1.339   5.143  14.863 -0.0173 -0.1005  0.1558
 9539TIP3    H150032   1.385   5.223  14.838 -2.0192  0.9936 -0.2643
 9539TIP3    H250033   1.364   5.079  14.796 -0.2888  0.9178 -0.9616
 9540TIP3   OH250034   0.903   4.227   4.404  0.2268 -0.1014  0.4781
 9540TIP3    H150035   0.970   4.240   4.470  0.1899  2.0100  0.1715
 9540TIP3    H250036   0.873   4.138   4.417  1.4667 -0.3141  2.1273
 9541TIP3   OH250037   1.380   4.640   2.025  0.3741  0.1894  0.2650
 9541TIP3    H150038   1.317   4.574   2.053  1.1739  0.4539  2.9787
 9541TIP3    H250039   1.459   4.589   2.005 -0.6120 -0.1639 -3.3271
 9542TIP3   OH250040   4.951   6.128   0.941 -0.0271  0.2560  0.0549
 9542TIP3    H150041   4.963   6.203   0.999  2.4406 -0.8505  1.1414
 9542TIP3    H250042   5.013   6.143   0.869  0.1678 -0.5121  0.0533
 9543TIP3   OH250043   3.447   4.970  11.277 -0.4889  0.5699  0.4903
 9543TIP3    H150044   3.492   4.919  11.210  1.1382  3.5142 -0.8537
 9543TIP3    H250045   3.354   4.953  11.262 -0.1293  0.2329 -1.7443
 9544TIP3   OH250046   5.307   2.201   3.097  0.3924  0.0249 -0.0407
 9544TIP3    H150047   5.304   2.210   3.193  0.1206  2.1819 -0.1925
 9544TIP3    H250048   5.215   2.195   3.071  0.3301  1.4395 -0.2574
 9545TIP3   OH250049   3.835   1.564   1.917 -0.1264 -0.1793  0.4318
 9545TIP3    H150050   3.889   1.642   1.933 -0.3460 -0.1957  1.2970
 9545TIP3    H250051   3.759   1.598   1.870 -0.3954  0.2013  1.1222
 9546TIP3   OH250052   0.771   1.517  13.188  0.8175 -0.1271  0.6242
 9546TIP3    H150053   0.787   1.426  13.212  1.0855 -0.3608 -0.3795
 9546TIP3    H250054   0.857   1.553  13.168  0.5691 -0.1045 -0.4699
 9547TIP3   OH250055   1.166   1.340   4.209  0.0600  0.4086 -0.0353
 9547TIP3    H150056   1.189   1.247   4.211  0.8227  0.5702 -0.8069
 9547TIP3    H250057   1.076   1.342   4.176  0.5145 -0.0025 -1.3900
 9548TIP3   OH250058   4.306   1.772  16.228  0.0282  0.7784  0.4960
 9548TIP3    H150059   4.272   1.814  16.149  0.8488  0.4800 -0.0355
 9548TIP3    H250060   4.229   1.738  16.273 -0.3083 -1.7182 -1.7067
 9549TIP3   OH250061   3.935   1.263  15.378 -0.5269 -0.0092  0.0869
 9549TIP3    H150062   3.926   1.176  15.415  0.4739 -0.3066 -0.3605
 9549TIP3    H250063   4.027   1.271  15.356 -0.6507  1.0793 -0.0899
 9550TIP3   OH250064   5.154   3.536   0.070 -0.7414  0.0820 -0.6883
 9550TIP3    H150065   5.077   3.522   0.124 -1.7182  0.4717 -1.9248
 9550TIP3    H250066   5.161   3.631   0.061 -0.6191  0.0283 -1.2449
 9551TIP3   OH250067   3.979   6.460  10.686  0.0278 -0.0401  0.4160
 9551TIP3    H150068   3.916   6.479  10.756 -0.8815  0.8122 -0.5925
 9551TIP3    H250069   3.938   6.496  10.607  1.9855  0.9305 -0.2159
 9552TIP3   OH250070   4.533   2.737  12.591  0.2125 -0.1317 -0.8498
 9552TIP3    H150071   4.583   2.673  12.641 -0.8871 -0.3463  0.0120
 9552TIP3    H250072   4.505   2.690  12.513  0.5261 -0.2999 -0.8617
 9553TIP3   OH250073   2.467   2.452  12.576  0.1757 -0.0978 -0.2683
 9553TIP3    H150074   2.388   2.405  12.550 -0.2036 -0.7404  1.8563
 9553TIP3    H250075   2.437   2.537  12.608  0.5863  0.5125 -1.4432
 9554TIP3   OH250076   4.490   3.254   2.743 -0.2426  0.0005 -0.1408
 9554TIP3    H150077   4.415   3.309   2.768 -0.1911 -0.6864  1.5874
 9554TIP3    H250078   4.484   3.177   2.798  2.6788  0.6589  1.3209
 9555TIP3   OH250079   0.216   0.463  13.086  0.0703  0.2553  0.0441
 9555TIP3    H150080   0.206   0.549  13.127  0.4065 -0.6795  2.2720
 9555TIP3    H250081   0.311   0.447  13.088  0.2420  0.6579 -2.2920
 9556TIP3   OH250082   6.097   0.193  11.668 -0.6909  0.7190 -0.0910
 9556TIP3    H150083   6.120   0.252  11.740  1.0529 -1.1021  0.9798
 9556TIP3    H250084   6.156   0.218  11.597  1.4952 -0.8393  1.0260
 9557TIP3   OH250085   2.901   4.933   6.129 -0.1872  0.2795 -0.0525
 9557TIP3    H150086   2.940   4.886   6.203  0.6685  1.1184  0.0364
 9557TIP3    H250087   2.814   4.894   6.120  1.2285 -2.8562 -1.3672
 9558TIP3   OH250088   4.212   2.129   0.214  0.1483  0.3271 -0.2244
 9558TIP3    H150089   4.276   2.127   0.143  0.9334 -2.0937  0.4686
 9558TIP3    H250090   4.243   2.197   0.273  0.1168  1.5703 -1.5819
 9559TIP3   OH250091   0.426   1.532   0.077 -0.0754 -0.3081 -0.2647
 9559TIP3    H150092   0.400   1.592   0.147 -0.7588 -1.9170  0.9388
 9559TIP3    H250093   0.411   1.445   0.114  3.4887 -1.3448 -0.8282
 9560TIP3   OH250094   1.807   5.809   0.035 -0.1423  0.4808  0.3906
 9560TIP3    H150095   1.825   5.842  -0.053 -0.7605  1.2707  0.5568
 9560TIP3    H250096   1.842   5.719   0.034 -1.4358 -0.0538 -1.1246
 9561TIP3   OH250097   4.130   5.991  12.252 -0.5521 -0.2913 -0.2437
 9561TIP3    H150098   4.197   6.035  12.200 -1.1578  0.1615 -0.6650
 9561TIP3    H250099   4.120   5.905  12.212 -0.8874 -0.0099 -0.7690
 9562TIP3   OH250100   3.897   6.337  15.859 -0.2590 -0.0640  0.0223
 9562TIP3    H150101   3.805   6.359  15.874  0.3132  2.6304  0.1700
 9562TIP3    H250102   3.911   6.355  15.766 -0.2419 -2.1219 -0.4076
 9563TIP3   OH250103   5.068   4.858  14.682  0.5642  0.3595  0.0842
 9563TIP3    H150104   5.100   4.778  14.723 -0.7513  0.5524  1.6040
 9563TIP3    H250105   5.146   4.914  14.674  1.1015 -0.2242  1.0704
 9564TIP3   OH250106   3.846   3.620  13.088  0.4635  0.3546 -0.2030
 9564TIP3    H150107   3.813   3.696  13.135  2.3869  0.6706  0.7219
 9564TIP3    H250108   3.941   3.630  13.089  0.6766 -0.9275 -2.0088
 9565TIP3   OH250109   0.420   3.881   2.423  0.5723  0.0932  0.2172
 9565TIP3    H150110   0.381   3.802   2.460 -0.7951  0.6343 -0.0059
 9565TIP3    H250111   0.500   3.850   2.381  0.8640 -0.9193  1.4427
 9566TIP3   OH250112   3.999   5.815  12.607  0.1050  0.4719 -0.1104
 9566TIP3    H150113   3.938   5.770  12.665  1.7591 -1.6881  0.0786
 9566TIP3    H250114   4.003   5.759  12.529  1.1508  1.0343 -0.4820
 9567TIP3   OH250115   0.432   4.261  12.755  0.3101 -0.0614 -0.3130
 9567TIP3    H150116   0.435   4.287  12.663  1.1441  0.1549 -0.2269
 9567TIP3    H250117   0.481   4.179  12.758  1.5973  0.7050  0.1878
 9568TIP3   OH250118   5.170   6.430   4.893  0.1649  0.5673  0.1306
 9568TIP3    H150119   5.133   6.410   4.807 -0.6980  0.2600  0.5588
 9568TIP3    H250120   5.245   6.487   4.875  0.7196 -0.4361 -0.9102
 9569TIP3   OH250121   5.249   5.995   3.972  0.3798 -0.3201 -0.1629
 9569TIP3    H150122   5.222   5.937   4.043  1.0523 -0.2997  0.1099
 9569TIP3    H250123   5.329   6.036   4.003 -0.2706  1.0250 -0.2138
 9570TIP3   OH250124   4.128   3.166   6.616  0.0297 -0.4541 -0.1936
 9570TIP3    H150125   4.087   3.085   6.647  0.8004 -1.2319 -1.1211
 9570TIP3    H250126   4.054   3.222   6.592 -0.5186 -0.8043  0.6146
 9571TIP3   OH250127   2.347   6.373  11.933 -0.2204 -0.5390  0.3135
 9571TIP3    H150128   2.394   6.455  11.945 -1.4822  0.1761  0.5626
 9571TIP3    H250129   2.415   6.307  11.921  0.7984  0.7112 -1.0122
 9572TIP3   OH250130   2.408   5.435  11.769  0.0984 -0.7991 -0.0425
 9572TIP3    H150131   2.331   5.428  11.825 -0.1376 -0.6772 -0.3444
 9572TIP3    H250132   2.415   5.528  11.747  0.1423 -0.8536 -0.2715
 9573TIP3   OH250133   2.958   2.836   3.715  0.1784  0.5519 -0.3668
 9573TIP3    H150134   2.977   2.750   3.677  1.1298  0.0636  1.1160
 9573TIP3    H250135   2.882   2.820   3.771  0.1216  0.7636 -0.3848
 9574TIP3   OH250136   5.039   5.038  16.865  0.6022 -0.3270 -0.4570
 9574TIP3    H150137   5.056   5.000  16.951 -0.6649 -0.5132 -0.2605
 9574TIP3    H250138   5.125   5.064  16.832  0.9551  2.0036  1.9197
 9575TIP3   OH250139   5.271   4.872   2.375 -0.4742  0.7937  0.5920
 9575TIP3    H150140   5.268   4.928   2.298 -0.3402  0.0326  0.0199
 9575TIP3    H250141   5.228   4.791   2.348  0.4665  0.1385  0.9843
 9576TIP3   OH250142   0.122   6.433  12.907  0.3570  0.0421 -0.1862
 9576TIP3    H150143   0.039   6.479  12.921 -0.1167 -0.2182 -1.9437
 9576TIP3    H250144   0.172   6.491  12.849  0.3344 -0.9613 -1.2516
 9577TIP3   OH250145   0.280   3.647   5.398 -0.2004  0.1852  0.0436
 9577TIP3    H150146   0.233   3.608   5.471  0.9226  0.1744  0.7833
 9577TIP3    H250147   0.345   3.581   5.374  0.9217  1.0880  0.5204
 9578TIP3   OH250148   1.466   6.723  14.480 -0.1450 -0.1725  0.7804
 9578TIP3    H150149   1.533   6.771  14.529  1.9353 -0.2373 -1.7387
 9578TIP3    H250150   1.463   6.637  14.522  0.3737  0.2605  1.7483
 9579TIP3   OH250151   3.589   6.365  11.817  0.0757 -0.6389  0.4257
 9579TIP3    H150152   3.662   6.392  11.760  0.2626  1.4048  1.5399
 9579TIP3    H250153   3.523   6.433  11.804 -2.1289 -2.8998 -1.2372
 9580TIP3   OH250154   5.487   5.432  12.135  0.3893  0.0183 -0.2929
 9580TIP3    H150155   5.527   5.511  12.097  0.7507 -0.9046 -1.9057
 9580TIP3    H250156   5.554   5.398  12.195  0.6236  0.3774 -0.3461
 9581TIP3   OH250157   0.991   1.801   6.018  0.0843 -0.0212  0.2824
 9581TIP3    H150158   0.936   1.749   6.076  1.0049  0.8844  2.0403
 9581TIP3    H250159   1.045   1.854   6.077  0.0009  2.0819 -1.3917
 9582TIP3   OH250160   5.741   1.723  12.103 -0.2341 -0.0757  0.2338
 9582TIP3    H150161   5.733   1.808  12.145 -1.3661 -0.3105  0.5330
 9582TIP3    H250162   5.771   1.743  12.014  0.0796  0.5835  0.4816
 9583TIP3   OH250163   1.633   3.239  12.669  0.0665  0.2536 -0.2484
 9583TIP3    H150164   1.607   3.319  12.623  1.0937  1.5516  1.2957
 9583TIP3    H250165   1.555   3.212  12.717 -0.3367  0.2347 -0.9155
 9584TIP3   OH250166   5.951   2.036   0.476  0.1192 -0.5783  0.5363
 9584TIP3    H150167   5.880   1.993   0.428  0.5318 -0.6036 -0.0714
 9584TIP3    H250168   5.922   2.126   0.487 -1.1873 -1.1900  2.6766
 9585TIP3   OH250169   1.728   0.866   3.541 -0.2219 -0.1696 -0.6908
 9585TIP3    H150170   1.653   0.844   3.486  0.3355 -1.3169 -1.0234
 9585TIP3    H250171   1.741   0.959   3.527 -1.3605 -0.0265 -0.8999
 9586TIP3   OH250172   0.445   4.551  15.361  0.3261 -0.1646  0.0930
 9586TIP3    H150173   0.503   4.627  15.373  0.0046  0.0734  0.1526
 9586TIP3    H250174   0.483   4.483  15.416  0.1231  0.2225  0.7168
 9587TIP3   OH250175   3.776   3.786   4.134 -0.5813 -0.3438  0.5892
 9587TIP3    H150176   3.784   3.848   4.207 -0.5052 -1.0097  1.1623
 9587TIP3    H250177   3.731   3.835   4.065  0.9681  0.8714  0.3929
 9588TIP3   OH250178   5.146   2.396   2.533 -0.1140 -0.7962  0.1938
 9588TIP3    H150179   5.082   2.373   2.466  0.1627  1.3281 -0.8635
 9588TIP3    H250180   5.219   2.433   2.485  0.1447  0.6840  1.6288
 9589TIP3   OH250181   0.743   5.451   1.591 -0.6646 -0.4672 -0.0005
 9589TIP3    H150182   0.688   5.374   1.582  1.4914 -1.9541 -1.5397
 9589TIP3    H250183   0.828   5.417   1.619  0.1512  1.4306  0.0149
 9590TIP3   OH250184   0.193   2.145   5.040 -0.0585  0.3228 -0.0745
 9590TIP3    H150185   0.158   2.149   4.951 -0.4424 -2.0132 -0.1131
 9590TIP3    H250186   0.273   2.197   5.037  0.1963 -0.1074 -1.9481
 9591TIP3   OH250187   1.710   4.777  10.496 -0.0715 -0.0128 -0.5818
 9591TIP3    H150188   1.747   4.711  10.437  0.3680  1.6880 -2.2850
 9591TIP3    H250189   1.617   4.756  10.500  0.0625 -0.7394 -1.0875
 9592TIP3   OH250190   6.031   6.666   2.105  0.2147 -0.1462  0.6917
 9592TIP3    H150191   6.073   6.580   2.095  0.2270 -0.0059 -0.5119
 9592TIP3    H250192   6.007   6.692   2.016 -1.8970  0.0566  1.2510
 9593TIP3   OH250193   1.153   0.350   4.228 -0.0167  0.3414 -0.5219
 9593TIP3    H150194   1.059   0.362   4.210 -0.1247 -0.5114 -0.5438
 9593TIP3    H250195   1.159   0.353   4.324 -0.3799 -1.7277 -0.4067
 9594TIP3   OH250196   4.941   6.724  16.451  0.5022  0.1148 -0.5738
 9594TIP3    H150197   4.996   6.648  16.469 -0.7640 -0.8038 -0.4061
 9594TIP3    H250198   4.854   6.698  16.482  0.1559  1.8554  0.0307
 9595TIP3   OH250199   1.904   0.369  13.475 -0.0894  0.1229 -0.0477
 9595TIP3    H150200   1.958   0.296  13.504 -0.3881  0.3278  1.0530
 9595TIP3    H250201   1.841   0.330  13.415  1.0045 -0.1819 -1.0363
 9596TIP3   OH250202   1.468   3.165  16.758 -0.4760  0.0954  0.0774
 9596TIP3    H150203   1.526   3.154  16.682  1.1632 -0.3229  1.3312
 9596TIP3    H250204   1.525   3.197  16.827 -1.6819 -0.6696  1.4843
 9597TIP3   OH250205   1.489   0.254   5.832  0.1353  0.0863  0.1184
 9597TIP3    H150206   1.460   0.176   5.786  4.2731 -1.1675 -0.7511
 9597TIP3    H250207   1.434   0.257   5.911 -0.2274 -3.6522  0.1597
 9598TIP3   OH250208   5.022   5.885   6.647 -0.1903 -0.1515  0.6009
 9598TIP3    H150209   5.004   5.942   6.722  0.8013  1.5687 -0.3921
 9598TIP3    H250210   5.117   5.878   6.644 -0.2516 -3.9278  2.0803
 9599TIP3   OH250211   6.560   1.214  14.709 -0.0023  0.6675 -0.3639
 9599TIP3    H150212   6.604   1.283  14.759 -0.7433  2.1970 -1.7279
 9599TIP3    H250213   6.624   1.189  14.642 -0.7588  2.2075 -1.7390
 9600TIP3   OH250214   0.651   1.257   1.917 -0.7547  0.3457  0.0449
 9600TIP3    H150215   0.662   1.194   1.845 -1.4912 -0.5285  0.6761
 9600TIP3    H250216   0.661   1.343   1.875 -0.1605 -0.1742 -0.9106
 9601TIP3   OH250217   0.940   4.414   5.727 -0.0305 -0.2112 -0.6495
 9601TIP3    H150218   0.929   4.430   5.633  1.3972 -1.8626 -1.1458
 9601TIP3    H250219   0.853   4.430   5.764 -0.6860  0.2154 -2.2813
 9602TIP3   OH250220   6.618   5.061   5.643 -0.8747 -0.1856  0.1437
 9602TIP3    H150221   6.642   5.140   5.692 -1.2981  0.0204  0.0287
 9602TIP3    H250222   6.597   4.996   5.710 -2.0111  0.2683  0.2527
 9603TIP3   OH250223   3.707   2.461   0.957 -0.7127 -0.2642  0.0368
 9603TIP3    H150224   3.787   2.481   1.006 -1.1079  1.1749  0.1577
 9603TIP3    H250225   3.730   2.475   0.866 -1.0826  1.2412  0.1446
 9604TIP3   OH250226   4.437   2.954  12.694 -0.4750  0.3336  0.5130
 9604TIP3    H150227   4.465   2.985  12.780  0.4543  0.9820  0.0028
 9604TIP3    H250228   4.471   2.865  12.688  0.4288  0.6671  0.4098
 9605TIP3   OH250229   0.764   4.951  13.003 -0.5502  0.6554  0.7627
 9605TIP3    H150230   0.799   4.942  12.914  1.0776  1.3477  1.2758
 9605TIP3    H250231   0.738   5.043  13.009  1.1295  1.1278  1.5460
 9606TIP3   OH250232   2.415   5.904   5.523  0.4412  0.3598 -0.5574
 9606TIP3    H150233   2.464   5.841   5.471  0.0870 -1.5754  1.3486
 9606TIP3    H250234   2.338   5.856   5.553  0.4926  1.4873  1.5304
 9607TIP3   OH250235   4.124   4.636   5.360 -0.3480 -0.2128 -0.0851
 9607TIP3    H150236   4.084   4.605   5.442 -0.8690 -0.3721 -0.3989
 9607TIP3    H250237   4.163   4.557   5.322  0.7006  0.0240  0.4529
 9608TIP3   OH250238   0.755   6.383   0.171 -0.2746  0.3192  0.0280
 9608TIP3    H150239   0.826   6.322   0.190  0.3313  1.2989  1.0503
 9608TIP3    H250240   0.696   6.335   0.112  0.1167 -1.2689  0.8887
 9609TIP3   OH250241   5.190   5.057   4.295  0.0051 -0.3585 -0.3358
 9609TIP3    H150242   5.155   4.993   4.356  0.0895 -0.6285 -0.5680
 9609TIP3    H250243   5.157   5.030   4.209 -0.3708  0.2001 -0.3695
 9610TIP3   OH250244   5.570   3.666  11.397 -0.2269  0.3089 -0.5790
 9610TIP3    H150245   5.493   3.609  11.384 -0.3752 -0.1092  1.7736
 9610TIP3    H250246   5.548   3.746  11.350 -2.1854  0.2295  0.1044
 9611TIP3   OH250247   0.560   3.380  14.680  0.0550 -0.0413  0.2863
 9611TIP3    H150248   0.468   3.397  14.701 -0.4601 -1.0800 -0.9956
 9611TIP3    H250249   0.600   3.356  14.764 -1.2876 -1.4454  0.5620
 9612TIP3   OH250250   1.620   2.901  14.330 -0.0217  0.1114  0.5962
 9612TIP3    H150251   1.655   2.812  14.326 -0.7389 -0.2352  1.6567
 9612TIP3    H250252   1.698   2.957  14.335  0.5114 -0.2903 -1.7640
 9613TIP3   OH250253   4.936   2.166  11.174 -0.4251  0.5045 -0.1754
 9613TIP3    H150254   5.016   2.217  11.162 -1.0633  1.4134 -0.6824
 9613TIP3    H250255   4.934   2.147  11.268  1.7518 -1.8810 -0.5197
 9614TIP3   OH250256   4.259   6.054  12.498 -0.0489 -0.9107 -0.0238
 9614TIP3    H150257   4.230   6.041  12.407  1.1703 -0.9121 -0.4339
 9614TIP3    H250258   4.323   6.125  12.493 -0.7889 -0.1410  1.0229
 9615TIP3   OH250259   3.720   0.821   2.748  0.1367  0.1498  0.5139
 9615TIP3    H150260   3.723   0.911   2.717  0.9842  0.3254  1.0613
 9615TIP3    H250261   3.796   0.779   2.707  0.6451  0.1051  1.4535
 9616TIP3   OH250262   1.969   3.842  13.869 -0.5100 -0.1299  0.0268
 9616TIP3    H150263   1.945   3.854  13.961  2.4174  0.4914  0.8053
 9616TIP3    H250264   1.996   3.929  13.840 -1.1390 -0.3768 -1.3582
 9617TIP3   OH250265   6.422   0.646  15.295  0.2045 -0.3074 -0.1553
 9617TIP3    H150266   6.397   0.611  15.210 -0.0460 -2.1320  0.6213
 9617TIP3    H250267   6.431   0.740  15.281 -0.1840 -0.5266 -2.0962
 9618TIP3   OH250268   1.579   5.034   1.322  0.1144  0.4202 -0.1860
 9618TIP3    H150269   1.528   5.093   1.378  2.4130  1.5661  0.8545
 9618TIP3    H250270   1.633   4.984   1.384  2.7911  1.7710 -1.2719
 9619TIP3   OH250271   4.690   3.415  16.969  0.1320  0.2566 -0.0391
 9619TIP3    H150272   4.645   3.372  17.042  0.6346 -0.1796  0.0186
 9619TIP3    H250273   4.774   3.442  17.004  1.5032 -2.3073 -1.0925
 9620TIP3   OH250274   1.529   4.914   6.194  0.9874  0.1618  0.2947
 9620TIP3    H150275   1.461   4.981   6.186  0.3352 -0.4796  0.3074
 9620TIP3    H250276   1.481   4.831   6.185  2.0131 -0.2750 -1.3935
 9621TIP3   OH250277   2.327   6.647   2.837 -0.4500 -0.1123  0.4605
 9621TIP3    H150278   2.295   6.592   2.909  0.0693  0.0078  0.7930
 9621TIP3    H250279   2.406   6.689   2.873 -0.7881  0.7757  0.1782
 9622TIP3   OH250280   3.054   0.248   3.672  0.3581  0.0203  0.6008
 9622TIP3    H150281   3.016   0.208   3.594  0.3112  0.0847  0.5906
 9622TIP3    H250282   2.987   0.311   3.702  0.3212 -0.0969  0.7651
 9623TIP3   OH250283   2.093   5.228  13.256  0.2585 -0.4582  0.1143
 9623TIP3    H150284   2.005   5.227  13.217  0.2577  0.5279  0.0689
 9623TIP3    H250285   2.083   5.276  13.338  0.5627 -1.2364  0.6207
 9624TIP3   OH250286   1.398   2.911   4.939  0.4568  0.2531 -0.6337
 9624TIP3    H150287   1.346   2.983   4.973  1.4357  0.6650  0.0494
 9624TIP3    H250288   1.482   2.951   4.916 -0.0533 -0.0493 -3.3731
 9625TIP3   OH250289   2.442   4.879   1.450  0.9107 -0.4354 -0.5123
 9625TIP3    H150290   2.464   4.786   1.458 -0.5461 -0.8276 -0.7478
 9625TIP3    H250291   2.396   4.900   1.532  0.4125 -0.1789 -0.8508
 9626TIP3   OH250292   1.907   2.132  13.237 -0.2984 -0.2258 -0.2868
 9626TIP3    H150293   1.955   2.090  13.308 -2.2083 -1.8377  0.1215
 9626TIP3    H250294   1.965   2.126  13.161  0.4346 -1.4663  0.3496
 9627TIP3   OH250295   4.843   0.308  15.164 -0.1870 -0.1093 -0.1781
 9627TIP3    H150296   4.792   0.379  15.126  0.2705  0.9080  1.0425
 9627TIP3    H250297   4.777   0.244  15.191 -0.8207  0.9475  0.8820
 9628TIP3   OH250298   4.243   1.785  13.583 -0.2808 -0.1102  0.4006
 9628TIP3    H150299   4.187   1.858  13.611 -0.0581  0.7919 -1.3697
 9628TIP3    H250300   4.324   1.798  13.632 -1.4186 -1.2549  2.7625
 9629TIP3   OH250301   1.324   3.774   0.142  0.0836 -0.1277 -0.2548
 9629TIP3    H150302   1.254   3.829   0.177  0.2198 -0.1442  0.0463
 9629TIP3    H250303   1.324   3.697   0.199  1.4673  0.6187  0.8131
 9630TIP3   OH250304   2.476   2.386   1.708 -0.0565  0.2351 -0.5375
 9630TIP3    H150305   2.567   2.375   1.733 -0.0728  0.6404 -0.2892
 9630TIP3    H250306   2.427   2.335   1.771  0.0031 -0.0714 -0.7366
 9631TIP3   OH250307   3.810   4.607   6.563 -0.4180 -0.2109 -0.1106
 9631TIP3    H150308   3.779   4.548   6.631  2.1170 -0.1308  1.2264
 9631TIP3    H250309   3.783   4.694   6.592  1.0255 -0.1311  1.0724
 9632TIP3   OH250310   0.555   4.415  14.154 -0.4615  0.0891  0.5397
 9632TIP3    H150311   0.641   4.456  14.168  0.5448 -1.8959  0.5038
 9632TIP3    H250312   0.527   4.447  14.069 -0.5176  1.9753  1.2082
 9633TIP3   OH250313   0.133   4.431   3.696  0.2172 -0.0128 -0.0490
 9633TIP3    H150314   0.221   4.395   3.693 -0.5381 -1.9099 -0.5233
 9633TIP3    H250315   0.116   4.446   3.789  0.5623 -0.8909  0.1607
 9634TIP3   OH250316   2.477   0.172  15.885  0.0305  0.0611 -0.4225
 9634TIP3    H150317   2.416   0.241  15.861  1.1029  0.7760 -1.1687
 9634TIP3    H250318   2.551   0.184  15.826  1.2238 -0.3137  0.9615
 9635TIP3   OH250319   5.751   2.650   0.117  0.3852 -0.0147 -0.2017
 9635TIP3    H150320   5.736   2.721   0.180 -1.7632  0.9240 -1.6466
 9635TIP3    H250321   5.665   2.634   0.078  0.8030 -3.3944 -0.0190
 9636TIP3   OH250322   4.532   0.183   5.685 -0.0372  0.1327 -0.2572
 9636TIP3    H150323   4.578   0.125   5.747 -0.8030  0.4964  0.6618
 9636TIP3    H250324   4.460   0.130   5.651 -0.5072  0.4119  0.2927
 9637TIP3   OH250325   5.089   1.297   0.140 -0.4928 -0.1294 -0.2496
 9637TIP3    H150326   5.015   1.243   0.169  0.2189 -0.6338  0.6424
 9637TIP3    H250327   5.146   1.304   0.216  0.8043 -0.4549 -1.1524
 9638TIP3   OH250328   3.082   4.346  16.394 -0.2235  0.1822 -0.2449
 9638TIP3    H150329   3.058   4.259  16.362 -0.3784  0.1012  0.0858
 9638TIP3    H250330   3.142   4.380  16.328 -4.0937  1.9998 -3.2699
 9639TIP3   OH250331   5.506   0.936   4.775 -0.1321  0.6226 -0.5383
 9639TIP3    H150332   5.437   0.904   4.833 -0.0432 -1.2120 -1.3978
 9639TIP3    H250333   5.475   1.022   4.746 -0.7770  1.0072  1.1626
 9640TIP3   OH250334   6.536   3.191  12.992 -0.3228 -0.3516 -0.0743
 9640TIP3    H150335   6.566   3.241  13.068  0.5545 -0.6180 -0.2310
 9640TIP3    H250336   6.572   3.237  12.916 -1.2080 -0.0783 -0.3372
 9641TIP3   OH250337   5.484   6.800   2.960  0.3144 -0.0037 -0.1715
 9641TIP3    H150338   5.454   6.794   3.051 -1.3323 -0.4123 -0.7074
 9641TIP3    H250339   5.570   6.758   2.961 -0.1721 -1.0540  0.9950
 9642TIP3   OH250340   5.911   2.766   4.850 -0.1879 -0.9212 -0.4778
 9642TIP3    H150341   5.861   2.729   4.923 -1.4759 -0.9857 -1.3468
 9642TIP3    H250342   5.988   2.710   4.842  1.1487  0.3629  2.1847
 9643TIP3   OH250343   5.708   2.093   3.293 -0.0788 -0.4254 -0.0571
 9643TIP3    H150344   5.795   2.082   3.332 -0.0932 -0.3377  0.0004
 9643TIP3    H250345   5.695   2.014   3.240  1.0478  0.6251 -2.0199
 9644TIP3   OH250346   2.700   3.390   2.856  0.1252  0.4511 -0.4564
 9644TIP3    H150347   2.772   3.387   2.793  1.0708 -1.2401  0.6175
 9644TIP3    H250348   2.743   3.382   2.942 -1.1758  1.9966  0.3921
 9645TIP3   OH250349   0.504   0.395  15.584 -0.4669 -0.1653 -0.1737
 9645TIP3    H150350   0.501   0.310  15.629 -0.4852  0.4593  1.0720
 9645TIP3    H250351   0.437   0.447  15.628  0.5061  0.9374  0.0580
 9646TIP3   OH250352   4.231   0.743   3.725 -0.1609  0.1469  0.1462
 9646TIP3    H150353   4.242   0.822   3.671  0.4636  2.7665  3.7400
 9646TIP3    H250354   4.319   0.705   3.730  0.1299  0.8733  0.6508
 9647TIP3   OH250355   2.930   4.190   5.405 -0.3631 -0.2194  0.5075
 9647TIP3    H150356   3.002   4.250   5.424  0.0175  0.4494 -2.4635
 9647TIP3    H250357   2.962   4.137   5.332 -2.9312  0.3230 -1.1264
 9648TIP3   OH250358   1.603   1.847  11.229 -0.3968 -0.1531  0.0651
 9648TIP3    H150359   1.676   1.786  11.235  0.9718  1.4830  0.8452
 9648TIP3    H250360   1.539   1.803  11.172 -0.1673 -2.9474  1.7832
 9649TIP3   OH250361   6.084   5.902   5.440 -0.2044  0.1706 -0.0560
 9649TIP3    H150362   6.033   5.911   5.359  1.6048 -0.8865 -1.4153
 9649TIP3    H250363   6.118   5.990   5.457  0.3832  0.1849 -1.1863
 9650TIP3   OH250364   6.390   4.792   1.110 -0.4146 -0.1648 -0.6585
 9650TIP3    H150365   6.320   4.756   1.164 -0.6931 -1.7956 -2.0225
 9650TIP3    H250366   6.406   4.725   1.044  0.7408  1.2463 -1.8763
 9651TIP3   OH250367   0.400   0.415  14.476  0.4308  0.1419  0.3495
 9651TIP3    H150368   0.310   0.385  14.488  0.5468 -0.8706 -1.0772
 9651TIP3    H250369   0.453   0.347  14.518  0.6204 -0.8262 -1.3642
 9652TIP3   OH250370   6.545   0.731   4.324  0.1309  0.1248 -0.3437
 9652TIP3    H150371   6.546   0.744   4.418 -1.8479 -1.8805  0.0246
 9652TIP3    H250372   6.635   0.706   4.302  0.5812  0.5174  0.9916
 9653TIP3   OH250373   3.035   6.385   4.264 -0.2172  0.1822 -0.2368
 9653TIP3    H150374   2.982   6.343   4.332 -0.8221 -1.3263 -1.5710
 9653TIP3    H250375   3.119   6.340   4.268  0.2487  1.1018  0.4659
 9654TIP3   OH250376   3.650   1.534   5.846 -0.2236 -0.2401 -0.1780
 9654TIP3    H150377   3.634   1.588   5.923 -1.7918 -0.6749 -0.1665
 9654TIP3    H250378   3.624   1.589   5.772  0.0487 -0.2912 -0.3145
 9655TIP3   OH250379   6.759   5.063   1.655 -0.2235 -0.3538 -0.3391
 9655TIP3    H150380   6.712   5.067   1.572  0.5107 -1.5189 -0.8302
 9655TIP3    H250381   6.851   5.076   1.632 -0.2036  1.2825  0.5386
 9656TIP3   OH250382   6.236   6.420  16.582 -0.2030  0.3441  0.1415
 9656TIP3    H150383   6.287   6.343  16.607 -0.1948  0.3472  0.1340
 9656TIP3    H250384   6.149   6.386  16.561  0.0493  0.2159 -0.7499
 9657TIP3   OH250385   5.152   4.012  16.500 -0.0732  0.4214  0.7279
 9657TIP3    H150386   5.235   4.034  16.459 -0.2677  0.1203  0.1625
 9657TIP3    H250387   5.166   4.029  16.594  1.4821 -2.1068  1.0497
 9658TIP3   OH250388   1.317   5.177  16.898  0.5718  0.1142  0.0851
 9658TIP3    H150389   1.357   5.098  16.863 -2.0805 -0.7472 -1.3000
 9658TIP3    H250390   1.284   5.224  16.821 -0.9707  0.7479  1.0652
 9659TIP3   OH250391   5.601   5.908  14.499  0.3062 -0.2378  0.7354
 9659TIP3    H150392   5.545   5.960  14.441  1.5741  1.3261  0.8465
 9659TIP3    H250393   5.657   5.858  14.439 -0.9837 -1.6334  0.6277
 9660TIP3   OH250394   4.396   0.584  13.605  0.1873 -0.6230  0.3063
 9660TIP3    H150395   4.417   0.599  13.697 -0.2689 -1.1580  0.5068
 9660TIP3    H250396   4.445   0.505  13.583  0.5597 -0.3094 -0.0126
 9661TIP3   OH250397   1.262   3.797   1.861  0.0507 -0.0549 -0.5070
 9661TIP3    H150398   1.346   3.844   1.855 -0.5358  1.1115  0.0610
 9661TIP3    H250399   1.225   3.804   1.773 -0.7835  2.0754 -0.0531
 9662TIP3   OH250400   1.939   3.293  13.957  0.0719 -0.0379  0.0616
 9662TIP3    H150401   1.896   3.354  14.017  0.7616 -0.3874  0.9155
 9662TIP3    H250402   2.017   3.339  13.927  0.6189 -0.5015  0.7427
 9663TIP3   OH250403   5.035   5.238  14.911 -0.2946 -0.8858 -0.1504
 9663TIP3    H150404   4.992   5.186  14.843  2.1160 -0.9159 -1.7890
 9663TIP3    H250405   5.122   5.198  14.921  0.0683  0.2218  1.6876
 9664TIP3   OH250406   1.758   0.277   5.736 -0.2743  0.0838 -0.0798
 9664TIP3    H150407   1.763   0.190   5.694  1.9903 -0.4338  1.0673
 9664TIP3    H250408   1.680   0.273   5.790 -1.3192 -0.4841 -1.5597
 9665TIP3   OH250409   5.515   0.408   5.830 -1.0829  0.3922  0.1000
 9665TIP3    H150410   5.429   0.375   5.804 -0.9529  0.4182 -0.3715
 9665TIP3    H250411   5.500   0.451   5.914 -1.2612 -0.8341  0.7172
 9666TIP3   OH250412   1.344   5.669   0.153 -0.2116  0.4793 -0.5900
 9666TIP3    H150413   1.344   5.754   0.110 -1.8820  0.7265 -0.1396
 9666TIP3    H250414   1.425   5.669   0.204 -0.5518  2.1324  0.0284
 9667TIP3   OH250415   5.158   5.599  15.869 -0.0046  0.1120 -0.2870
 9667TIP3    H150416   5.187   5.659  15.939  0.3023 -1.3918  0.9169
 9667TIP3    H250417   5.236   5.587  15.815 -0.1300  0.9544 -0.6823
 9668TIP3   OH250418   4.805   3.707   2.406  0.6624 -0.0639  0.0755
 9668TIP3    H150419   4.759   3.673   2.482 -1.0676 -0.2028 -0.9911
 9668TIP3    H250420   4.897   3.709   2.433  0.2635 -1.3535  1.6943
 9669TIP3   OH250421   0.648   0.191  12.929 -0.0511  0.0201  0.2529
 9669TIP3    H150422   0.586   0.119  12.919 -0.7369  0.4639  1.1443
 9669TIP3    H250423   0.702   0.166  13.004 -0.6960  0.6881  0.9650
 9670TIP3   OH250424   2.990   0.986  15.736 -0.1029 -0.2383 -0.1563
 9670TIP3    H150425   2.933   1.063  15.737 -0.6431 -0.6399  0.6172
 9670TIP3    H250426   3.079   1.021  15.737 -0.3336  0.3805 -0.6666
 9671TIP3   OH250427   6.225   1.662   2.764  0.3629 -0.1905 -0.1966
 9671TIP3    H150428   6.166   1.675   2.838  2.6434  0.1499  1.7056
 9671TIP3    H250429   6.237   1.749   2.727  0.6465 -0.0283  0.2563
 9672TIP3   OH250430   0.957   0.198   4.552  0.8180  0.4006  0.0235
 9672TIP3    H150431   0.913   0.280   4.573  0.4283  0.0432  0.6257
 9672TIP3    H250432   0.920   0.172   4.468 -0.9409 -0.4203  0.9883
 9673TIP3   OH250433   3.899   1.982  16.220  0.5780  0.3551  0.4300
 9673TIP3    H150434   3.882   1.890  16.242  1.5861  0.1391  0.3562
 9673TIP3    H250435   3.820   2.028  16.247 -0.6876 -0.7840 -1.1541
 9674TIP3   OH250436   0.705   4.814  11.574  0.3867  0.3128  0.3954
 9674TIP3    H150437   0.722   4.733  11.525 -0.0185 -1.0730  2.3910
 9674TIP3    H250438   0.616   4.839  11.548  1.4557  1.7240 -2.2578
 9675TIP3   OH250439   4.600   6.604   0.131  0.2639  0.8355 -0.4152
 9675TIP3    H150440   4.593   6.587   0.037  1.2248 -0.5827 -0.2587
 9675TIP3    H250441   4.532   6.548   0.170  1.4684 -0.4886 -0.1180
 9676TIP3   OH250442   5.183   5.605   0.147  0.1263 -0.1776  0.1354
 9676TIP3    H150443   5.245   5.655   0.200  0.3693 -0.4147  0.0746
 9676TIP3    H250444   5.229   5.523   0.127  0.6820  0.5326 -1.7563
 9677TIP3   OH250445   2.149   3.906   4.439 -0.0720 -0.3601 -0.0289
 9677TIP3    H150446   2.082   3.891   4.373 -1.2268  0.0733  0.9884
 9677TIP3    H250447   2.148   3.827   4.493 -1.3767  0.4865  1.2955
 9678TIP3   OH250448   5.708   6.795  16.200  0.1916  0.7168 -0.4832
 9678TIP3    H150449   5.682   6.765  16.113  3.2672 -2.3105 -0.5593
 9678TIP3    H250450   5.783   6.852  16.184 -0.6771  2.0999  0.1519
 9679TIP3   OH250451   6.321   3.378   6.186  0.0803  0.2887  0.2962
 9679TIP3    H150452   6.237   3.372   6.141 -0.2769  2.5432  0.5754
 9679TIP3    H250453   6.369   3.301   6.156 -0.9271  0.5619 -2.2905
 9680TIP3   OH250454   6.645   4.283   2.388 -0.4106 -0.4211 -0.3715
 9680TIP3    H150455   6.705   4.349   2.423  0.3689 -1.1229 -0.3513
 9680TIP3    H250456   6.602   4.326   2.315 -0.0377  0.1708 -0.2477
 9681TIP3   OH250457   2.236   1.647  13.860  0.1845 -0.0448  0.7298
 9681TIP3    H150458   2.195   1.614  13.940  0.7484  1.8120  1.8444
 9681TIP3    H250459   2.245   1.741  13.875 -0.1513  0.4447 -1.7392
 9682TIP3   OH250460   3.322   2.101   5.497 -0.0772  0.1281 -0.0830
 9682TIP3    H150461   3.383   2.070   5.564  0.7977  0.1741 -0.8443
 9682TIP3    H250462   3.338   2.044   5.422 -0.9105  0.2037 -0.3205
 9683TIP3   OH250463   5.079   5.349   1.990  0.7814 -0.0036  0.2967
 9683TIP3    H150464   5.053   5.415   1.926  1.1687 -0.7700 -0.6931
 9683TIP3    H250465   4.998   5.305   2.014  0.8231 -0.8602 -1.0178
 9684TIP3   OH250466   5.757   4.073   5.610 -0.1014 -0.7253  0.8487
 9684TIP3    H150467   5.735   3.983   5.634  0.6257 -1.3204 -0.6000
 9684TIP3    H250468   5.682   4.102   5.557  1.5370 -2.1149 -2.5201
 9685TIP3   OH250469   2.068   1.285   3.863 -0.5701  0.2168  0.1109
 9685TIP3    H150470   2.107   1.365   3.897 -1.0337  0.2947  0.4750
 9685TIP3    H250471   2.133   1.217   3.881 -0.1043  0.5384 -0.3520
 9686TIP3   OH250472   0.419   4.092  15.471 -0.4097 -0.3033 -0.4750
 9686TIP3    H150473   0.514   4.101  15.473 -0.5379  1.8014 -1.0119
 9686TIP3    H250474   0.399   4.072  15.379 -0.5264  0.2725 -0.5809
 9687TIP3   OH250475   3.463   0.512   1.644 -0.4882 -0.1750  0.2772
 9687TIP3    H150476   3.416   0.572   1.703 -0.1106 -0.7768  1.2216
 9687TIP3    H250477   3.554   0.539   1.650 -0.2396 -1.1245  1.0937
 9688TIP3   OH250478   3.440   2.879  11.247  0.0451 -0.1453 -0.0471
 9688TIP3    H150479   3.419   2.941  11.178 -2.7943 -1.3713 -0.4392
 9688TIP3    H250480   3.420   2.926  11.328  0.5221  0.3230 -0.1980
 9689TIP3   OH250481   6.609   4.940   1.163 -0.0466 -0.1395 -0.2162
 9689TIP3    H150482   6.521   4.905   1.146 -0.3769  0.5512  0.0464
 9689TIP3    H250483   6.655   4.928   1.080 -0.6831  0.3579 -0.6514
 9690TIP3   OH250484   2.380   4.050  12.654 -0.0744  0.0024 -0.2007
 9690TIP3    H150485   2.356   4.137  12.685  0.2479  0.1541 -0.3674
 9690TIP3    H250486   2.475   4.047  12.664  0.0077 -0.0279 -0.9573
 9691TIP3   OH250487   5.462   5.521   1.125  0.1210  0.6019 -0.0323
 9691TIP3    H150488   5.421   5.458   1.066  0.6839 -3.5609  3.4922
 9691TIP3    H250489   5.394   5.588   1.140 -0.8542  0.5048 -3.2924
 9692TIP3   OH250490   2.351   6.158  12.932 -0.1790  0.0888 -0.2764
 9692TIP3    H150491   2.361   6.185  12.841 -0.9293  1.6676  0.0810
 9692TIP3    H250492   2.364   6.238  12.983  1.5094 -0.9908  1.1108
 9693TIP3   OH250493   6.627   6.063  13.604 -0.2036 -0.3112  0.3719
 9693TIP3    H150494   6.675   6.138  13.637  1.1334 -0.3866 -1.2560
 9693TIP3    H250495   6.686   5.988  13.618 -1.0703 -0.8985  0.9991
 9694TIP3   OH250496   2.885   4.279   0.277  0.6512 -0.3193 -0.1544
 9694TIP3    H150497   2.885   4.293   0.372 -2.3537  1.7180 -0.3163
 9694TIP3    H250498   2.958   4.332   0.245  2.1986 -1.6489  1.0007
 9695TIP3   OH250499   0.961   1.311   3.902  0.1355  0.1606 -0.3231
 9695TIP3    H150500   0.954   1.406   3.911 -0.7251  0.1033 -0.3594
 9695TIP3    H250501   0.975   1.279   3.991  2.4310  0.4526 -0.4931
 9696TIP3   OH250502   3.240   6.266   0.879  0.3991 -0.4750 -0.2115
 9696TIP3    H150503   3.257   6.343   0.824  1.6977 -1.7623 -1.6821
 9696TIP3    H250504   3.252   6.191   0.821 -0.6749 -1.8276  1.2282
 9697TIP3   OH250505   6.055   4.722  15.247  0.1079 -0.4971  0.1492
 9697TIP3    H150506   6.144   4.728  15.280 -0.1572  1.1606  0.6674
 9697TIP3    H250507   6.006   4.787  15.298 -1.1531 -0.5799 -0.8886
 9698TIP3   OH250508   3.609   6.217   1.291 -0.2305  0.7971  0.2180
 9698TIP3    H150509   3.699   6.240   1.269 -0.1044 -0.0171 -0.1424
 9698TIP3    H250510   3.555   6.276   1.238  0.0769 -0.3392 -1.4150
 9699TIP3   OH250511   1.624   4.701  14.024 -0.2691  0.6855 -0.2449
 9699TIP3    H150512   1.660   4.645  13.955 -0.4494  0.1605  0.0801
 9699TIP3    H250513   1.700   4.749  14.056  0.1524 -0.3537  0.3761
 9700TIP3   OH250514   6.382   2.930   4.071  0.3672 -0.3908 -0.4116
 9700TIP3    H150515   6.407   3.023   4.067  1.5670 -0.7324 -1.2445
 9700TIP3    H250516   6.449   2.885   4.021  0.7052 -1.9233  1.3341
 9701TIP3   OH250517   3.062   0.407   0.903 -0.0841 -0.0432 -0.3132
 9701TIP3    H150518   2.968   0.402   0.891 -0.2919  0.1726  1.0886
 9701TIP3    H250519   3.086   0.494   0.870 -0.1154 -0.6830 -2.1176
 9702TIP3   OH250520   6.033   0.837   3.796  0.3616  0.3642 -0.0519
 9702TIP3    H150521   6.075   0.801   3.875 -1.2326  0.5890  0.9395
 9702TIP3    H250522   5.944   0.857   3.824 -0.3781  0.0441 -2.0596
 9703TIP3   OH250523   4.391   5.589  16.493  0.0764  0.1004 -0.1566
 9703TIP3    H150524   4.348   5.674  16.498  1.2658  0.8652 -1.9659
 9703TIP3    H250525   4.320   5.528  16.469 -0.7352  0.6046  0.8964
 9704TIP3   OH250526   1.153   0.938   5.235  0.0707  0.4226 -0.3828
 9704TIP3    H150527   1.067   0.903   5.258  0.8887 -0.4061  1.6715
 9704TIP3    H250528   1.211   0.862   5.236  1.6761  1.4613  3.0729
 9705TIP3   OH250529   3.934   1.984  14.691  0.1433 -0.0740 -0.1041
 9705TIP3    H150530   3.892   1.943  14.615 -0.3782 -0.1684  0.2364
 9705TIP3    H250531   3.862   2.011  14.747  0.5480 -0.6208  0.6904
 9706TIP3   OH250532   3.642   2.863   0.340 -0.4171 -0.5494 -0.0139
 9706TIP3    H150533   3.614   2.778   0.373 -2.1421  0.3926  1.0527
 9706TIP3    H250534   3.623   2.924   0.411  1.1326  0.6996 -0.6146
 9707TIP3   OH250535   5.785   1.012  15.837  0.1574 -0.0791  0.0511
 9707TIP3    H150536   5.785   1.102  15.804 -0.3482 -0.1933 -0.2720
 9707TIP3    H250537   5.789   0.957  15.759  3.8880 -0.3746  0.2961
 9708TIP3   OH250538   6.059   6.591  13.463  0.3170 -0.2872 -0.1525
 9708TIP3    H150539   6.112   6.521  13.500  0.4961  0.2003  0.5183
 9708TIP3    H250540   5.994   6.545  13.409  0.4717 -0.9623  0.2244
 9709TIP3   OH250541   5.056   1.954  12.402  0.1448 -0.0757  0.0422
 9709TIP3    H150542   5.038   1.976  12.311 -0.1574 -0.6080 -0.0324
 9709TIP3    H250543   4.983   1.992  12.451 -0.1401 -0.5255 -0.0346
 9710TIP3   OH250544   6.597   1.384  13.950  0.3303  0.4716  0.2195
 9710TIP3    H150545   6.541   1.458  13.926  1.4661  1.0779 -0.6402
 9710TIP3    H250546   6.624   1.402  14.040  0.9147  1.3218 -0.1169
 9711TIP3   OH250547   6.387   4.437  16.503  0.3350  0.5351 -0.4452
 9711TIP3    H150548   6.323   4.499  16.468 -0.5665  0.0190  0.2616
 9711TIP3    H250549   6.401   4.465  16.594 -0.0322 -0.2556 -0.1384
 9712TIP3   OH250550   1.168   4.185   1.944 -0.9652 -0.3965  0.7053
 9712TIP3    H150551   1.147   4.183   1.851  1.5947 -1.4913  0.0366
 9712TIP3    H250552   1.253   4.229   1.948 -2.0876  1.8203  2.8664
 9713TIP3   OH250553   0.247   0.819   1.922 -0.0594  0.1291  0.5843
 9713TIP3    H150554   0.180   0.857   1.866  0.4519  2.1474  1.2289
 9713TIP3    H250555   0.203   0.807   2.007 -0.0446 -0.0789  0.5618
 9714TIP3   OH250556   1.409   2.463  15.396 -0.2600 -0.0437  0.8335
 9714TIP3    H150557   1.353   2.387  15.411 -0.8962  0.0448 -0.8729
 9714TIP3    H250558   1.451   2.479  15.480 -1.4104 -1.2384  1.6706
 9715TIP3   OH250559   1.742   0.280   6.040 -0.0848  0.6203 -0.8684
 9715TIP3    H150560   1.705   0.349   6.094  2.2352  0.0016  1.7476
 9715TIP3    H250561   1.717   0.199   6.085 -0.7704 -0.1510 -2.5623
 9716TIP3   OH250562   1.715   3.351  13.769  0.4798  0.1265  0.2150
 9716TIP3    H150563   1.648   3.389  13.825 -0.2223  1.0743 -1.2471
 9716TIP3    H250564   1.797   3.367  13.817 -0.2559 -0.9110  1.9430
 9717TIP3   OH250565   1.266   5.819   2.562  0.3641  0.6649  0.2318
 9717TIP3    H150566   1.276   5.912   2.542 -0.3486  0.7134  0.0709
 9717TIP3    H250567   1.204   5.787   2.496  0.9474 -0.0222  0.0068
 9718TIP3   OH250568   4.338   2.551   3.480 -0.1826  0.1039 -0.5775
 9718TIP3    H150569   4.374   2.540   3.568 -0.9477 -1.0136 -0.3836
 9718TIP3    H250570   4.414   2.572   3.426  0.7379 -1.8634 -0.1285
 9719TIP3   OH250571   5.884   4.261   5.960 -0.3330  0.3470 -0.1590
 9719TIP3    H150572   5.949   4.285   6.026  0.9954  0.0347 -1.3015
 9719TIP3    H250573   5.874   4.340   5.906 -2.4245  1.0572  1.1458
 9720TIP3   OH250574   3.208   1.275  13.962 -0.5209  0.0457  0.1813
 9720TIP3    H150575   3.153   1.345  13.996 -0.6017  0.7636 -1.3587
 9720TIP3    H250576   3.294   1.315  13.952 -0.2547 -0.4422  0.4609
 9721TIP3   OH250577   0.870   3.983   3.588 -0.2768 -0.5072  0.1758
 9721TIP3    H150578   0.928   3.935   3.646 -0.3229 -2.6549 -1.4590
 9721TIP3    H250579   0.927   4.017   3.519 -0.6694 -1.0288 -0.4237
 9722TIP3   OH250580   1.184   3.794   3.491 -0.1506  0.2205 -0.1486
 9722TIP3    H150581   1.228   3.736   3.428 -0.8441  0.4188 -0.8303
 9722TIP3    H250582   1.112   3.741   3.525  0.1161  0.1762  0.3655
 9723TIP3   OH250583   0.085   0.743   2.152 -0.5755 -0.3537  0.0254
 9723TIP3    H150584   0.118   0.654   2.140 -0.4411 -0.6085  1.9641
 9723TIP3    H250585   0.011   0.733   2.212 -0.8597  0.8048 -0.1031
 9724TIP3   OH250586   0.828   5.548  17.204  0.1638  0.4982  0.5123
 9724TIP3    H150587   0.766   5.598  17.151  0.1485 -1.0424 -1.0202
 9724TIP3    H250588   0.774   5.485  17.252  0.2846  1.1887  1.5878
 9725TIP3   OH250589   4.474   4.451  13.525 -0.2289 -0.4162 -0.3169
 9725TIP3    H150590   4.451   4.531  13.477 -1.1789 -0.3550  0.2184
 9725TIP3    H250591   4.516   4.395  13.459  1.5796  0.9657 -0.4368
 9726TIP3   OH250592   0.281   1.154  16.379  0.0167 -0.1282  0.1118
 9726TIP3    H150593   0.197   1.114  16.399 -0.0506  0.7762  1.8487
 9726TIP3    H250594   0.343   1.109  16.437  0.9767 -1.5168 -1.8762
 9727TIP3   OH250595   5.930   2.960  16.627 -0.0959  0.4526  0.4061
 9727TIP3    H150596   5.931   2.878  16.579  1.7689  0.3992  0.4679
 9727TIP3    H250597   5.944   2.935  16.719 -1.8959  0.6899  0.7862
 9728TIP3   OH250598   5.756   4.752  15.135 -0.2181  0.0741  0.4319
 9728TIP3    H150599   5.815   4.810  15.181  0.6979 -1.6981  1.5958
 9728TIP3    H250600   5.772   4.769  15.042  1.0278  0.6854  0.7504
 9729TIP3   OH250601   6.480   6.174  11.701  0.3280 -0.2904  0.4360
 9729TIP3    H150602   6.537   6.211  11.768  0.5192 -0.6797  0.4906
 9729TIP3    H250603   6.514   6.086  11.686  0.3659 -0.1595 -0.2647
 9730TIP3   OH250604   3.144   2.263  12.385  0.1334 -0.2945  0.2801
 9730TIP3    H150605   3.107   2.351  12.384 -1.2385 -0.8529 -0.2033
 9730TIP3    H250606   3.090   2.215  12.448  1.2604 -0.6527  1.0050
 9731TIP3   OH250607   3.419   3.866  10.907 -0.2001  0.3290  0.2382
 9731TIP3    H150608   3.363   3.827  10.974  0.0665 -2.4481 -1.0369
 9731TIP3    H250609   3.383   3.836  10.824  2.0952 -0.0834 -0.6941
 9732TIP3   OH250610   0.333   6.273  15.072 -0.0455 -0.1335 -0.0876
 9732TIP3    H150611   0.371   6.206  15.015  0.4501 -0.4331  0.5723
 9732TIP3    H250612   0.374   6.355  15.043 -0.8264 -0.0738 -1.0479
 9733TIP3   OH250613   0.893   1.997   0.082 -0.1308  0.1260  0.5630
 9733TIP3    H150614   0.815   1.945   0.064 -0.2178  1.0530 -2.1760
 9733TIP3    H250615   0.962   1.932   0.097 -0.5498 -0.8393 -1.3263
 9734TIP3   OH250616   3.390   0.834   5.510  0.1881 -0.1262  1.1374
 9734TIP3    H150617   3.443   0.905   5.545 -1.4468  0.8260  1.7849
 9734TIP3    H250618   3.307   0.875   5.486 -0.2998 -1.5739  0.2011
 9735TIP3   OH250619   3.923   0.537   3.047  0.0661  0.3561 -0.0103
 9735TIP3    H150620   4.005   0.544   3.094 -0.0125 -0.5824  0.2898
 9735TIP3    H250621   3.876   0.618   3.067 -0.4791 -0.4929  2.5379
 9736TIP3   OH250622   1.246   6.175  12.590  0.4797  0.2951 -0.0727
 9736TIP3    H150623   1.323   6.169  12.533 -0.2241 -0.4088 -0.9868
 9736TIP3    H250624   1.176   6.133  12.540 -0.6080  1.2707  0.5716
 9737TIP3   OH250625   1.934   2.807  16.538  0.1836  0.2873  0.3429
 9737TIP3    H150626   1.906   2.795  16.629 -2.1179  1.4111 -0.1381
 9737TIP3    H250627   1.885   2.883  16.507  1.0784  0.0839 -1.7866
 9738TIP3   OH250628   2.534   2.293   4.005  0.2821 -0.1060  0.0369
 9738TIP3    H150629   2.611   2.335   4.043 -0.4331  0.8600  0.4541
 9738TIP3    H250630   2.545   2.303   3.910 -0.0908  1.4377  0.1433
 9739TIP3   OH250631   3.319   3.469  13.491  0.1897  0.2068 -0.0386
 9739TIP3    H150632   3.380   3.398  13.470  1.9494  1.7804 -0.5331
 9739TIP3    H250633   3.320   3.525  13.413 -2.9844 -0.3712 -0.6296
 9740TIP3   OH250634   1.484   5.250   2.517  0.3092  0.8931 -0.1053
 9740TIP3    H150635   1.443   5.336   2.527  0.2711  0.7639  0.9263
 9740TIP3    H250636   1.411   5.189   2.511  0.3192  0.9953 -1.6718
 9741TIP3   OH250637   4.491   1.732   2.113  0.1003 -0.3759  0.7653
 9741TIP3    H150638   4.564   1.694   2.163  1.0394  0.5941  0.1665
 9741TIP3    H250639   4.479   1.673   2.039  0.4100 -0.4294  0.7583
 9742TIP3   OH250640   2.091   5.955   6.427 -0.1179  0.6216 -0.6839
 9742TIP3    H150641   2.038   5.976   6.504 -0.1239  0.8564 -0.7531
 9742TIP3    H250642   2.182   5.969   6.455  0.0653 -1.6570  0.0589
 9743TIP3   OH250643   4.593   5.622   1.037  0.2391 -0.3597 -0.3454
 9743TIP3    H150644   4.512   5.587   0.999  0.6452 -0.6928 -0.9204
 9743TIP3    H250645   4.574   5.714   1.052 -0.4515 -0.5598  0.0922
 9744TIP3   OH250646   4.403   3.523  11.069 -0.3339 -0.1992  0.2633
 9744TIP3    H150647   4.372   3.433  11.065 -1.1307  0.1067 -0.8600
 9744TIP3    H250648   4.326   3.576  11.050  0.4765  0.6515 -0.7538
 9745TIP3   OH250649   0.833   0.406  14.982 -0.1820  0.2326  0.2003
 9745TIP3    H150650   0.815   0.481  15.038 -0.1495 -0.4632  1.1599
 9745TIP3    H250651   0.929   0.404  14.975 -0.1980  0.5015 -0.1502
 9746TIP3   OH250652   2.249   5.033   3.045 -0.0494 -0.7705 -0.1511
 9746TIP3    H150653   2.289   5.036   2.958 -1.9265 -1.9036 -1.1165
 9746TIP3    H250654   2.164   4.991   3.031  0.4171 -2.8945  2.5511
 9747TIP3   OH250655   3.399   3.488  11.230  0.1085  0.1792  0.1239
 9747TIP3    H150656   3.479   3.453  11.191  1.1004  0.5201  1.7913
 9747TIP3    H250657   3.400   3.581  11.207  0.6784  0.3740  0.9112
 9748TIP3   OH250658   0.605   0.573  14.719  0.1107  0.0073 -0.3432
 9748TIP3    H150659   0.543   0.504  14.694  0.0313 -0.1815  0.3312
 9748TIP3    H250660   0.554   0.630  14.777  0.6534 -0.3590  0.5288
 9749TIP3   OH250661   2.985   4.041   6.774 -1.0084 -0.3207  0.1301
 9749TIP3    H150662   3.003   4.092   6.695  2.9792  0.1122  1.1221
 9749TIP3    H250663   2.987   3.950   6.745  0.6339 -0.1754 -0.3351
 9750TIP3   OH250664   0.975   2.288  16.442  0.1811  0.2076 -0.2332
 9750TIP3    H150665   1.041   2.284  16.512  1.0033  1.4109 -0.8962
 9750TIP3    H250666   1.023   2.262  16.363 -1.0613 -2.4470 -0.1990
 9751TIP3   OH250667   2.051   3.617   6.442  0.1867  0.1845 -0.1709
 9751TIP3    H150668   2.141   3.625   6.471 -0.4602  2.5431  1.4994
 9751TIP3    H250669   1.999   3.649   6.516 -1.9313  0.2467 -1.6006
 9752TIP3   OH250670   2.043   2.654   5.061 -0.6636 -0.6182 -0.1859
 9752TIP3    H150671   2.127   2.700   5.050  0.0610 -1.4137  1.5384
 9752TIP3    H250672   2.065   2.561   5.049 -1.8101 -0.6737 -2.1499
 9753TIP3   OH250673   1.780   1.815  14.566  0.1036  0.0281 -0.4298
 9753TIP3    H150674   1.768   1.844  14.656  0.5380  2.3831 -1.0633
 9753TIP3    H250675   1.859   1.762  14.568 -0.3187 -0.5931  0.6769
 9754TIP3   OH250676   3.288   2.400   6.071  0.2192  0.1525 -0.3840
 9754TIP3    H150677   3.248   2.454   6.003  1.2674 -1.1717 -2.1395
 9754TIP3    H250678   3.342   2.460   6.122 -0.9986  1.2627 -0.3471
 9755TIP3   OH250679   1.860   5.435   2.379 -0.1233  0.0163  0.0864
 9755TIP3    H150680   1.941   5.403   2.420  0.1387  1.6950  0.9608
 9755TIP3    H250681   1.872   5.416   2.286  1.2259  0.0993  0.2152
 9756TIP3   OH250682   3.472   2.346  15.151 -0.2856  0.4767 -0.0868
 9756TIP3    H150683   3.553   2.349  15.202  0.8912  1.0550 -1.9192
 9756TIP3    H250684   3.402   2.358  15.216  1.0197 -0.7411  1.6312
 9757TIP3   OH250685   3.298   3.351   3.338  0.2285 -0.3081 -0.1105
 9757TIP3    H150686   3.340   3.338   3.252 -0.2260 -1.2288 -0.2007
 9757TIP3    H250687   3.219   3.297   3.335  1.4119 -2.3247  1.7596
 9758TIP3   OH250688   4.814   2.249   4.815  0.2585  0.1748 -0.1384
 9758TIP3    H150689   4.772   2.298   4.886 -0.5250 -0.2159 -0.3229
 9758TIP3    H250690   4.805   2.157   4.841  0.6264  0.0662 -0.3897
 9759TIP3   OH250691   3.443   1.705   4.350 -0.0395 -0.0384  0.3632
 9759TIP3    H150692   3.448   1.612   4.373  0.9098  0.3617  1.8907
 9759TIP3    H250693   3.534   1.734   4.344 -0.3262  0.8560  0.1234
 9760TIP3   OH250694   4.538   1.288  13.778  0.8172 -0.4415 -0.3363
 9760TIP3    H150695   4.597   1.343  13.724  0.6485  0.7539  0.6585
 9760TIP3    H250696   4.467   1.347  13.802 -0.8757 -1.8858 -1.5624
 9761TIP3   OH250697   2.088   4.702  16.933  0.2098 -0.1224 -0.2807
 9761TIP3    H150698   2.022   4.640  16.965 -0.6491  1.3367  0.9343
 9761TIP3    H250699   2.172   4.663  16.956 -0.2685 -1.3213 -0.5081
 9762TIP3   OH250700   3.059   6.070   4.875 -0.8312  0.5729 -0.1344
 9762TIP3    H150701   3.063   6.047   4.782 -1.5652 -0.1054 -0.0076
 9762TIP3    H250702   3.044   6.165   4.876 -0.6202  0.6138 -0.6982
 9763TIP3   OH250703   2.827   0.290  12.752  0.2921  0.2873 -0.4234
 9763TIP3    H150704   2.814   0.327  12.665  1.2006  5.6399  1.3865
 9763TIP3    H250705   2.920   0.267  12.755 -0.0909 -1.5322 -1.2822
 9764TIP3   OH250706   6.222   2.249   2.579  0.0349  0.6253  0.2185
 9764TIP3    H150707   6.162   2.245   2.504  0.4563  1.4936 -0.1723
 9764TIP3    H250708   6.290   2.186   2.559  0.0929  0.7829 -0.0892
 9765TIP3   OH250709   1.443   4.927   3.314 -0.0569 -0.1591 -0.3474
 9765TIP3    H150710   1.401   4.970   3.388  0.6158 -0.5038  0.2395
 9765TIP3    H250711   1.522   4.979   3.297 -0.9901  0.8693 -1.8539
 9766TIP3   OH250712   3.630   1.471   1.369  0.0664  0.7405 -0.2859
 9766TIP3    H150713   3.599   1.381   1.358  2.3682 -0.0643 -0.7476
 9766TIP3    H250714   3.575   1.507   1.439 -0.0670 -1.4365  0.8213
 9767TIP3   OH250715   5.024   0.431  14.712  0.3054 -0.3692 -0.4946
 9767TIP3    H150716   4.991   0.509  14.669  1.5155  0.0043 -0.7691
 9767TIP3    H250717   5.060   0.378  14.641  2.8575  0.5179  0.0450
 9768TIP3   OH250718   4.077   5.397  14.916  0.6994  0.2892 -0.0805
 9768TIP3    H150719   4.050   5.409  14.824  0.9068  1.0015 -0.0592
 9768TIP3    H250720   4.134   5.321  14.915 -0.7382 -0.8194 -0.2481
 9769TIP3   OH250721   1.680   4.071  12.855  0.4082 -0.1398  0.0395
 9769TIP3    H150722   1.649   4.017  12.927  0.1515 -0.4826 -0.3270
 9769TIP3    H250723   1.628   4.044  12.780 -0.1598  1.0468 -0.0216
 9770TIP3   OH250724   2.789   4.159   2.324 -0.3221 -0.2841  0.2266
 9770TIP3    H150725   2.775   4.206   2.407 -0.0692 -1.3351  0.8828
 9770TIP3    H250726   2.781   4.067   2.347  1.1012 -0.6556 -0.6535
 9771TIP3   OH250727   5.552   6.280   2.212 -0.1197 -0.0538 -0.0454
 9771TIP3    H150728   5.501   6.361   2.209  0.9308  0.5977 -0.9588
 9771TIP3    H250729   5.488   6.212   2.234 -1.0210  1.0079  0.7410
 9772TIP3   OH250730   0.442   2.308   5.044 -0.5399 -0.5874  0.3388
 9772TIP3    H150731   0.495   2.315   4.965  0.1804  2.1828  0.9394
 9772TIP3    H250732   0.396   2.392   5.049 -2.1164 -1.4804  1.8167
 9773TIP3   OH250733   5.318   4.008  15.452 -0.6351 -0.0095 -0.3932
 9773TIP3    H150734   5.307   3.961  15.370 -1.0333  0.0826 -0.3929
 9773TIP3    H250735   5.390   4.070  15.436  0.5814 -1.2917 -0.0920
 9774TIP3   OH250736   3.059   0.830   4.899 -0.0954 -0.2189  0.3090
 9774TIP3    H150737   3.144   0.874   4.900 -0.0002 -0.3152 -0.9388
 9774TIP3    H250738   3.010   0.869   4.971  0.3560  1.1887 -0.1163
 9775TIP3   OH250739   1.415   2.456   3.706  0.4723 -0.0939  0.3214
 9775TIP3    H150740   1.401   2.432   3.797 -0.1057 -1.2748 -0.0530
 9775TIP3    H250741   1.399   2.550   3.703  2.0603  0.2752  1.7193
 9776TIP3   OH250742   0.173   2.804  11.326  0.0701 -0.1226 -0.3274
 9776TIP3    H150743   0.176   2.790  11.231  1.3304  1.2073 -0.5158
 9776TIP3    H250744   0.086   2.840  11.342  0.5223  1.5304 -1.3099
 9777TIP3   OH250745   3.932   2.296   2.328  0.3906  0.0852 -0.3706
 9777TIP3    H150746   4.004   2.298   2.392  1.3727 -0.3436 -1.4319
 9777TIP3    H250747   3.891   2.211   2.342  0.0107  0.3696  0.3053
 9778TIP3   OH250748   1.966   5.044  12.058 -0.2905 -0.8272 -0.2731
 9778TIP3    H150749   2.015   4.967  12.029 -0.6684 -1.0565 -0.3016
 9778TIP3    H250750   1.889   5.046  12.002  0.0338 -0.0572 -0.7076
 9779TIP3   OH250751   2.281   2.494   2.385 -0.2348 -0.0410 -0.4303
 9779TIP3    H150752   2.263   2.467   2.295 -0.0885  0.3903 -0.5909
 9779TIP3    H250753   2.290   2.589   2.380 -4.4226  0.5807  0.7076
 9780TIP3   OH250754   1.793   4.605  15.269  0.2023 -0.4726 -0.1330
 9780TIP3    H150755   1.861   4.591  15.203 -1.8498  1.2486 -2.8124
 9780TIP3    H250756   1.755   4.518  15.282 -0.0942 -0.6972 -2.1654
 9781TIP3   OH250757   0.295   5.243   1.380 -0.5708  0.2617 -0.0507
 9781TIP3    H150758   0.201   5.239   1.362 -0.3837  2.0811 -1.8028
 9781TIP3    H250759   0.327   5.154   1.366 -1.4350  0.3600 -3.3664
 9782TIP3   OH250760   2.889   3.348  15.060 -0.3237  0.1714 -0.1065
 9782TIP3    H150761   2.954   3.379  14.997 -0.0440 -0.9365 -0.3903
 9782TIP3    H250762   2.924   3.264  15.091 -1.0798  0.0941  0.5759
 9783TIP3   OH250763   0.116   6.626   2.056 -0.1001 -0.6160  0.3865
 9783TIP3    H150764   0.088   6.699   2.112 -1.3050 -1.6953  1.2217
 9783TIP3    H250765   0.112   6.662   1.967  0.0319  0.5541  0.8298
 9784TIP3   OH250766   2.676   6.121  12.760 -0.0004  0.6900 -0.2095
 9784TIP3    H150767   2.742   6.073  12.810  0.1930  0.5259 -0.6128
 9784TIP3    H250768   2.593   6.099  12.802  0.1871  0.7963  0.2247
 9785TIP3   OH250769   3.375   2.413   5.112 -0.2049 -0.0904  0.3621
 9785TIP3    H150770   3.297   2.359   5.114 -1.2419  1.3600  0.3825
 9785TIP3    H250771   3.446   2.355   5.140 -1.0332 -1.7833 -0.9140
 9786TIP3   OH250772   1.825   4.532   6.357 -0.5759 -0.2816  0.3954
 9786TIP3    H150773   1.879   4.564   6.430  3.2901 -1.8096 -1.5143
 9786TIP3    H250774   1.817   4.438   6.373 -2.4727 -0.1530  0.4054
 9787TIP3   OH250775   2.559   6.452   3.007  0.3870  0.4424 -0.2396
 9787TIP3    H150776   2.585   6.543   2.993  2.6272  0.3866  2.6086
 9787TIP3    H250777   2.620   6.401   2.953 -0.7028  0.5328 -1.6321
 9788TIP3   OH250778   6.371   3.107   1.500 -0.3224  0.0677 -0.2514
 9788TIP3    H150779   6.433   3.047   1.542 -0.1897  0.5704  0.2800
 9788TIP3    H250780   6.305   3.124   1.567 -0.8784 -0.2289 -0.7148
 9789TIP3   OH250781   5.004   3.033  15.950  0.5440 -0.5342 -0.0671
 9789TIP3    H150782   4.932   2.970  15.953 -0.4767  0.6137  0.9183
 9789TIP3    H250783   4.961   3.117  15.932  1.7719  0.0185 -0.5157
 9790TIP3   OH250784   6.619   0.282   3.950 -0.2325 -0.0557  0.0320
 9790TIP3    H150785   6.568   0.300   3.870 -0.1601 -0.0931 -0.0229
 9790TIP3    H250786   6.596   0.353   4.009  0.9879  0.9394 -0.6269
 9791TIP3   OH250787   2.789   0.032  11.804  0.2938 -0.5214  0.4468
 9791TIP3    H150788   2.826  -0.056  11.803  1.4796 -0.0498 -0.6195
 9791TIP3    H250789   2.817   0.070  11.721  0.1307  0.9974  1.0554
 9792TIP3   OH250790   1.354   5.832   2.942 -0.1438 -0.6721 -0.5682
 9792TIP3    H150791   1.368   5.747   2.982 -0.9000 -0.5403  0.0179
 9792TIP3    H250792   1.441   5.864   2.921  0.2637 -0.8846  0.7174
 9793TIP3   OH250793   0.448   5.290  11.300  0.2898  0.3146  0.1095
 9793TIP3    H150794   0.435   5.278  11.206  3.0739 -1.0695 -0.2140
 9793TIP3    H250795   0.396   5.221  11.341 -0.3746  0.4784 -0.4423
 9794TIP3   OH250796   2.308   0.540   4.939 -0.1405 -0.1603 -0.4262
 9794TIP3    H150797   2.334   0.475   4.874  0.0169 -0.5714  0.0466
 9794TIP3    H250798   2.213   0.530   4.947  0.1919 -2.5966  1.9983
 9795TIP3   OH250799   6.544   2.796  15.871  0.2873  0.5585 -0.2684
 9795TIP3    H150800   6.591   2.741  15.809  2.1790  0.8248  0.8290
 9795TIP3    H250801   6.562   2.757  15.957 -0.1508  1.6099  0.3276
 9796TIP3   OH250802   3.355   4.379  11.543  0.2126 -0.1161  0.8581
 9796TIP3    H150803   3.441   4.412  11.516 -0.4180 -0.8729 -2.5221
 9796TIP3    H250804   3.293   4.428  11.489 -1.3561 -0.8874  1.8985
 9797TIP3   OH250805   2.009   2.534   2.452  0.0631  0.5846  1.0346
 9797TIP3    H150806   2.029   2.450   2.494  0.3263  0.3651  0.4722
 9797TIP3    H250807   2.094   2.576   2.439 -0.1248  1.3971  2.2222
 9798TIP3   OH250808   2.470   6.575  17.006 -0.6315 -0.8098  0.6865
 9798TIP3    H150809   2.455   6.582  16.912  3.0212 -1.4329 -0.0917
 9798TIP3    H250810   2.530   6.646  17.027 -0.7612 -1.1520  2.4009
 9799TIP3   OH250811   6.325   2.938   4.625  0.4190 -0.6974  0.1652
 9799TIP3    H150812   6.264   2.942   4.552  0.6642  0.0406  0.0028
 9799TIP3    H250813   6.295   2.862   4.676  0.2015 -1.1702 -0.6480
 9800TIP3   OH250814   3.839   5.920  16.677  0.3851  0.0821  0.2049
 9800TIP3    H150815   3.933   5.929  16.693  0.7431 -0.3709 -1.5108
 9800TIP3    H250816   3.830   5.930  16.583 -1.2129 -0.5705  0.2694
 9801TIP3   OH250817   0.426   5.340  13.248 -0.4321  0.0681  0.1663
 9801TIP3    H150818   0.466   5.417  13.208  1.7792 -1.0925 -0.0374
 9801TIP3    H250819   0.449   5.345  13.340  1.2634 -1.1810 -0.1474
 9802TIP3   OH250820   2.193   0.861  10.837  0.0813 -0.4011  0.3754
 9802TIP3    H150821   2.200   0.929  10.769  2.6336  0.1278  1.0582
 9802TIP3    H250822   2.142   0.791  10.795 -1.2259  1.2137 -0.9174
 9803TIP3   OH250823   6.482   4.617  15.008 -0.0288 -0.1490 -0.0436
 9803TIP3    H150824   6.464   4.626  14.915  0.9546 -0.4227 -0.2783
 9803TIP3    H250825   6.525   4.698  15.033  1.0819 -0.6701 -0.1921
 9804TIP3   OH250826   5.740   3.968  14.230 -0.0237 -0.2053 -0.0365
 9804TIP3    H150827   5.732   3.888  14.282  0.9961  0.8893  1.9277
 9804TIP3    H250828   5.822   3.957  14.182  0.3703 -0.1343  0.6126
 9805TIP3   OH250829   5.582   1.134  13.707 -0.3571 -0.1041 -0.0419
 9805TIP3    H150830   5.555   1.077  13.779  0.5551  0.2124  0.5640
 9805TIP3    H250831   5.506   1.136  13.648 -1.2398 -0.0682  1.0797
 9806TIP3   OH250832   4.914   1.766   4.636  0.9643 -0.0357 -0.1105
 9806TIP3    H150833   4.868   1.816   4.704 -1.4631 -2.0034 -0.1473
 9806TIP3    H250834   4.910   1.675   4.667 -0.8600 -1.1173 -3.1165
 9807TIP3   OH250835   1.721   0.843  12.083 -0.3307  0.6408 -0.2287
 9807TIP3    H150836   1.654   0.861  12.017 -1.5796  0.1790  0.8695
 9807TIP3    H250837   1.692   0.891  12.161  0.5230  0.2861  0.3279
 9808TIP3   OH250838   3.031   1.892  16.760  0.3706  0.3498  0.1444
 9808TIP3    H150839   3.034   1.857  16.849  1.5798  0.0041 -0.0223
 9808TIP3    H250840   3.110   1.858  16.718 -1.6525 -2.0325 -2.0330
 9809TIP3   OH250841   0.177   5.925  15.312 -0.7007  1.0244  0.2976
 9809TIP3    H150842   0.266   5.907  15.283 -1.4595 -1.0147 -1.0290
 9809TIP3    H250843   0.158   5.857  15.377 -1.5565  0.8312 -0.1250
 9810TIP3   OH250844   6.212   5.292   3.916  0.0559  0.3978  0.2764
 9810TIP3    H150845   6.229   5.261   4.005 -1.8455  1.1946  0.9739
 9810TIP3    H250846   6.285   5.258   3.864 -0.5474 -3.0348  1.4265
 9811TIP3   OH250847   4.605   4.132   5.212  0.2794  0.6187  0.1242
 9811TIP3    H150848   4.526   4.077   5.212  0.0331  0.9591 -0.9418
 9811TIP3    H250849   4.654   4.103   5.290 -0.6239  0.0233  0.4873
 9812TIP3   OH250850   2.533   4.657  14.668 -0.4336 -0.3832  0.2010
 9812TIP3    H150851   2.496   4.579  14.710 -0.3992 -0.2176  0.5410
 9812TIP3    H250852   2.461   4.694  14.617 -0.6943 -0.1560  0.7254
 9813TIP3   OH250853   5.448   3.549  14.910  0.3152 -0.2350  0.5391
 9813TIP3    H150854   5.398   3.630  14.916  2.3029  1.1070  0.0429
 9813TIP3    H250855   5.411   3.503  14.834  0.3971  1.1286 -0.3585
 9814TIP3   OH250856   0.920   2.871  12.716  0.3195  0.2599 -0.5542
 9814TIP3    H150857   0.944   2.848  12.626 -0.3853 -2.5815 -0.1300
 9814TIP3    H250858   0.825   2.883  12.713  0.2470 -0.1735 -0.1554
 9815TIP3   OH250859   1.114   2.921  12.994  0.2260 -0.2003 -0.2972
 9815TIP3    H150860   1.187   2.920  12.932  0.3559  0.4499 -0.1647
 9815TIP3    H250861   1.080   3.011  12.990  0.6175  0.0379  0.9946
 9816TIP3   OH250862   4.744   4.238  11.874 -0.0337 -0.2169  0.1012
 9816TIP3    H150863   4.769   4.280  11.792 -0.6924  1.8219  0.8793
 9816TIP3    H250864   4.816   4.178  11.894 -0.0113 -0.9971 -2.0940
 9817TIP3   OH250865   4.694   4.798   2.182 -0.1578  0.2258 -0.1298
 9817TIP3    H150866   4.617   4.830   2.135 -0.9619  0.5405  1.3130
 9817TIP3    H250867   4.696   4.850   2.263 -0.5451 -2.1755  1.5528
 9818TIP3   OH250868   6.303   4.651   2.045 -0.3336 -0.0993  0.1551
 9818TIP3    H150869   6.240   4.713   2.008 -1.6211  0.1204  2.5228
 9818TIP3    H250870   6.291   4.658   2.140  0.3650 -3.0572  0.5491
 9819TIP3   OH250871   4.570   0.038  16.288  0.3595  0.3576 -0.0141
 9819TIP3    H150872   4.515   0.113  16.268  2.7913  1.9617 -1.2659
 9819TIP3    H250873   4.538  -0.031  16.230 -1.8076  0.3985  1.0342
 9820TIP3   OH250874   0.261   5.524   6.281 -0.1887  0.2489 -0.6454
 9820TIP3    H150875   0.348   5.535   6.243  0.4016 -0.8299  0.3214
 9820TIP3    H250876   0.249   5.602   6.336 -0.0168  0.6144 -1.1274
 9821TIP3   OH250877   6.195   0.612   0.351 -0.8048 -0.0252  0.5496
 9821TIP3    H150878   6.211   0.546   0.417  0.8478 -0.3019 -0.0938
 9821TIP3    H250879   6.125   0.575   0.297  1.8385 -2.5595 -1.4155
 9822TIP3   OH250880   3.735   1.367   2.059  0.3188  0.3134 -0.4086
 9822TIP3    H150881   3.803   1.359   2.126  0.9433 -0.6652 -1.1394
 9822TIP3    H250882   3.742   1.457   2.029 -1.5392  1.5521  2.4387
 9823TIP3   OH250883   6.691   0.707   5.037 -0.7622 -0.7588  0.3383
 9823TIP3    H150884   6.777   0.674   5.010 -0.4958  0.3428 -0.2690
 9823TIP3    H250885   6.694   0.706   5.132  0.2635  0.0191  0.3416
 9824TIP3   OH250886   3.690   1.233  12.175  0.4274  0.0429 -0.2912
 9824TIP3    H150887   3.754   1.267  12.239  1.7255 -0.0168 -1.5048
 9824TIP3    H250888   3.741   1.222  12.095 -1.1443 -0.0125 -1.3080
 9825TIP3   OH250889   6.682   4.579   4.163 -0.3974  0.3443 -0.1923
 9825TIP3    H150890   6.759   4.523   4.148  0.8209  1.9059 -0.0042
 9825TIP3    H250891   6.715   4.652   4.215 -1.5414  2.0908 -1.7776
 9826TIP3   OH250892   2.657   4.937  11.962  0.2932  0.0951 -0.1145
 9826TIP3    H150893   2.622   4.876  12.027  0.4164  0.7015  0.5299
 9826TIP3    H250894   2.587   5.000  11.948  1.3296  1.7710  1.7620
 9827TIP3   OH250895   0.113   6.533   5.344 -0.0927 -0.1378  0.5257
 9827TIP3    H150896   0.070   6.471   5.402  0.0951  0.2979  1.1348
 9827TIP3    H250897   0.200   6.546   5.383 -0.9479  2.3585  1.7968
 9828TIP3   OH250898   5.438   4.325  12.620  0.2961  0.3167  0.0226
 9828TIP3    H150899   5.515   4.268  12.611 -0.1756 -0.4377  0.6812
 9828TIP3    H250900   5.406   4.309  12.709 -1.3412 -0.2827 -0.6380
 9829TIP3   OH250901   5.832   0.059  14.946 -0.1890 -0.3101 -0.2702
 9829TIP3    H150902   5.810  -0.021  14.993  3.6211 -1.0336  0.6054
 9829TIP3    H250903   5.904   0.034  14.888  0.3725  2.2485 -0.8031
 9830TIP3   OH250904   1.444   4.519  14.710 -0.1512  0.2115  0.5455
 9830TIP3    H150905   1.457   4.579  14.783  1.4698  0.0739  0.4066
 9830TIP3    H250906   1.357   4.539  14.677  0.1278  2.1004  0.8667
 9831TIP3   OH250907   1.682   4.847   5.973  0.0433 -0.1617  0.3540
 9831TIP3    H150908   1.744   4.787   6.014  0.4222 -0.1247 -0.1526
 9831TIP3    H250909   1.622   4.872   6.043 -3.0318 -4.6492 -0.3029
 9832TIP3   OH250910   6.642   4.449  15.228 -0.1752 -0.6591 -0.6595
 9832TIP3    H150911   6.685   4.390  15.166  0.9333  0.9409 -1.5189
 9832TIP3    H250912   6.660   4.537  15.193  0.1781  0.2984  1.7317
 9833TIP3   OH250913   2.311   1.282   1.409 -0.0404  0.4310  0.2837
 9833TIP3    H150914   2.364   1.356   1.380 -0.5962  0.8357  0.2862
 9833TIP3    H250915   2.366   1.205   1.394  1.1362  0.9649  1.6669
 9834TIP3   OH250916   1.995   3.902  13.273 -0.0650  0.3904 -0.5980
 9834TIP3    H150917   2.014   3.861  13.358  0.0452 -0.3102 -0.9544
 9834TIP3    H250918   2.079   3.901  13.227  0.4244  2.7402  0.0721
 9835TIP3   OH250919   3.813   4.378  13.697  0.3540 -0.2643  0.4804
 9835TIP3    H150920   3.844   4.292  13.725 -1.4062 -0.8946  0.6769
 9835TIP3    H250921   3.877   4.440  13.731 -0.1615 -1.2112  3.5316
 9836TIP3   OH250922   3.613   5.101  13.122 -0.2686 -0.2939 -0.1321
 9836TIP3    H150923   3.630   5.195  13.134 -1.0126 -0.0893 -0.5726
 9836TIP3    H250924   3.550   5.098  13.050 -1.2396 -1.0561  0.7177
 9837TIP3   OH250925   1.569   1.262   5.104  0.0040  0.5391  0.7361
 9837TIP3    H150926   1.625   1.194   5.142 -0.0283  0.7289  1.1263
 9837TIP3    H250927   1.480   1.227   5.109  0.1200  0.0515 -0.2834
 9838TIP3   OH250928   3.568   2.557  16.132 -0.2431 -0.1359  0.2095
 9838TIP3    H150929   3.653   2.601  16.123 -1.1924  1.4126 -1.7312
 9838TIP3    H250930   3.547   2.566  16.225  1.3852  0.0439  0.5930
 9839TIP3   OH250931   1.861   4.495   2.424 -0.4034  0.3227 -0.1726
 9839TIP3    H150932   1.770   4.482   2.451  0.2330  0.6449  2.4026
 9839TIP3    H250933   1.912   4.473   2.502  1.7709 -0.1078 -1.6266
 9840TIP3   OH250934   3.596   0.846  12.138 -0.1031 -0.6712  0.1872
 9840TIP3    H150935   3.608   0.844  12.043 -1.1307 -1.0742  0.0535
 9840TIP3    H250936   3.685   0.846  12.173  0.2937 -0.1959 -0.7764
 9841TIP3   OH250937   6.208   5.584  14.784 -0.3219 -0.2013  0.4439
 9841TIP3    H150938   6.275   5.628  14.836 -0.0002  0.2265 -0.3143
 9841TIP3    H250939   6.159   5.656  14.744 -1.5864 -0.4874  1.4054
 9842TIP3   OH250940   4.760   2.003   2.030  0.4530 -0.7613  0.5105
 9842TIP3    H150941   4.740   2.074   2.090 -3.3340 -1.3370  0.1614
 9842TIP3    H250942   4.796   1.934   2.086  1.4847  0.3602  1.2814
 9843TIP3   OH250943   2.567   4.177  14.582  0.2396 -0.1305 -0.6117
 9843TIP3    H150944   2.479   4.172  14.545  0.1844  1.0053 -0.6858
 9843TIP3    H250945   2.603   4.259  14.547  0.7789  0.1565  0.5549
 9844TIP3   OH250946   3.436   0.528  13.794 -0.1975 -0.3239  0.0538
 9844TIP3    H150947   3.477   0.613  13.814 -1.8292  0.6469 -0.5509
 9844TIP3    H250948   3.345   0.539  13.820 -0.8489 -1.2731 -1.7270
 9845TIP3   OH250949   6.289   5.532  16.354 -0.1818  0.2792 -0.4157
 9845TIP3    H150950   6.241   5.456  16.383  0.8420  0.5092  2.1499
 9845TIP3    H250951   6.232   5.606  16.373 -0.4997  0.2766 -1.3346
 9846TIP3   OH250952   1.497   6.465   4.371  0.6641  0.5596  1.0991
 9846TIP3    H150953   1.476   6.441   4.461  1.0678 -0.5453  0.9170
 9846TIP3    H250954   1.592   6.456   4.365  0.5782 -0.0081  0.3971
 9847TIP3   OH250955   0.887   5.399   1.005 -0.0204  0.0187 -0.5876
 9847TIP3    H150956   0.876   5.391   1.100  1.2913 -0.7046 -0.4681
 9847TIP3    H250957   0.879   5.310   0.972 -0.2989  0.2443 -1.1490
 9848TIP3   OH250958   4.480   1.808   4.214  0.7440  0.0596  0.7953
 9848TIP3    H150959   4.513   1.826   4.126  1.0804  2.0338  1.2546
 9848TIP3    H250960   4.558   1.814   4.270  0.4320 -0.5294  1.3063
 9849TIP3   OH250961   3.552   3.638   5.446 -0.5151  0.0337 -0.6756
 9849TIP3    H150962   3.634   3.609   5.485 -1.4045 -0.5364  0.8315
 9849TIP3    H250963   3.504   3.558   5.427 -1.9265  0.3672  1.1829
 9850TIP3   OH250964   1.531   3.271   3.700  0.1187 -0.5282 -0.1769
 9850TIP3    H150965   1.446   3.227   3.698 -0.5568  0.6387  1.2620
 9850TIP3    H250966   1.544   3.294   3.792  1.8316 -0.3403 -0.4243
 9851TIP3   OH250967   0.270   4.045  15.748  0.5009  0.3087  0.1160
 9851TIP3    H150968   0.338   4.070  15.685 -0.6743  1.3721 -0.7797
 9851TIP3    H250969   0.188   4.059  15.701 -0.3519 -3.0616  0.3807
 9852TIP3   OH250970   5.747   6.492   0.769  0.7547 -0.1732 -0.2648
 9852TIP3    H150971   5.762   6.560   0.835 -2.5261 -0.3301  0.8291
 9852TIP3    H250972   5.734   6.540   0.687  4.4738  0.0460 -0.8896
 9853TIP3   OH250973   1.331   2.705   1.133  0.9110 -0.4807 -0.1454
 9853TIP3    H150974   1.351   2.794   1.161 -1.6594  0.1334 -0.0528
 9853TIP3    H250975   1.289   2.715   1.048 -0.1442 -1.5063  0.2243
 9854TIP3   OH250976   1.111   3.289   5.726  0.1893  0.1047  0.5777
 9854TIP3    H150977   1.066   3.369   5.701  1.0161  0.3306 -0.2621
 9854TIP3    H250978   1.071   3.221   5.670  0.8251  0.2949 -0.1268
 9855TIP3   OH250979   6.345   3.088   3.685 -0.1307 -0.5847  1.0381
 9855TIP3    H150980   6.291   3.047   3.752  0.2942 -0.1849  1.6260
 9855TIP3    H250981   6.351   3.180   3.711  2.5906 -1.0080  2.1769
 9856TIP3   OH250982   5.648   6.425   6.155 -0.5104  0.8445  0.5566
 9856TIP3    H150983   5.594   6.355   6.194 -2.9346  2.2896 -0.0379
 9856TIP3    H250984   5.603   6.448   6.074  2.2469  0.6781 -1.1555
 9857TIP3   OH250985   4.211   3.542   0.188  0.3000 -0.6176 -0.0333
 9857TIP3    H150986   4.182   3.588   0.267 -0.0349 -0.8412 -0.0228
 9857TIP3    H250987   4.304   3.564   0.180 -0.4450  2.4805 -1.6864
 9858TIP3   OH250988   2.776   2.911   6.075 -0.0822  0.1780 -0.3592
 9858TIP3    H150989   2.792   2.904   6.169  0.0491  2.8512 -0.0829
 9858TIP3    H250990   2.686   2.945   6.069 -0.3672 -0.7133 -1.2386
 9859TIP3   OH250991   0.484   3.973   2.726 -0.2926 -0.6439  0.1115
 9859TIP3    H150992   0.524   3.995   2.641  1.7641 -1.0588  0.9041
 9859TIP3    H250993   0.423   4.044   2.743  0.5746  0.3929 -0.9122
 9860TIP3   OH250994   2.575   4.220  13.987  0.2713  0.1648  0.1941
 9860TIP3    H150995   2.591   4.308  14.018  2.3131  0.4292 -1.4515
 9860TIP3    H250996   2.513   4.231  13.914  1.4780  0.4412 -0.8338
 9861TIP3   OH250997   2.531   0.020  11.656 -0.6159 -0.2988  0.2389
 9861TIP3    H150998   2.619  -0.017  11.654 -1.8059 -3.3162 -0.4776
 9861TIP3    H250999   2.546   0.114  11.667  2.7324 -0.4127 -1.8579
 9862TIP3   OH251000   2.360   2.796  15.543 -0.6293 -0.9739  0.3508
 9862TIP3    H151001   2.390   2.732  15.608 -2.0468 -2.1920 -0.1232
 9862TIP3    H251002   2.407   2.773  15.463  1.0679  0.4860  0.8577
 9863TIP3   OH251003   6.800   3.606   2.426 -0.2751 -0.6991 -0.2795
 9863TIP3    H151004   6.865   3.557   2.376 -1.6776 -1.4580 -1.4465
 9863TIP3    H251005   6.754   3.539   2.477 -0.8637 -0.3272 -0.3166
 9864TIP3   OH251006   5.022   6.749   2.371  0.5630 -0.4435  0.2927
 9864TIP3    H151007   4.986   6.667   2.337 -0.5577  0.1535  0.0110
 9864TIP3    H251008   4.965   6.773   2.444 -0.7092  1.3643 -1.1924
 9865TIP3   OH251009   2.605   6.074   5.619  0.2399 -0.1212 -0.1334
 9865TIP3    H151010   2.690   6.030   5.621 -0.1765 -0.9389  1.8375
 9865TIP3    H251011   2.546   6.010   5.579  0.2960 -0.0619 -0.3110
 9866TIP3   OH251012   6.567   0.357  14.426  0.1088  0.3249 -0.2559
 9866TIP3    H151013   6.503   0.427  14.438 -0.0891  0.4013 -1.6031
 9866TIP3    H251014   6.555   0.301  14.502 -1.2871  0.5755 -0.2614
 9867TIP3   OH251015   1.201   0.308   4.527  0.2079  0.5280  0.0899
 9867TIP3    H151016   1.194   0.358   4.608  1.2914  1.6570 -0.4690
 9867TIP3    H251017   1.129   0.245   4.531  1.0283 -0.3523  2.5148
 9868TIP3   OH251018   0.101   3.407  13.734 -0.0835  0.3293  0.5251
 9868TIP3    H151019   0.034   3.442  13.793  0.0949  1.2296  0.2089
 9868TIP3    H251020   0.107   3.472  13.664  0.8762  0.0824  0.3719
 9869TIP3   OH251021   6.336   5.897   4.725  0.0270  0.0251 -0.1612
 9869TIP3    H151022   6.393   5.882   4.800  0.9581  0.1641 -0.8213
 9869TIP3    H251023   6.282   5.819   4.719 -0.4435  0.2456  0.9747
 9870TIP3   OH251024   1.064   4.071  11.191  0.4424 -0.1017  0.0077
 9870TIP3    H151025   1.072   3.976  11.185 -0.4543 -0.2264  0.6126
 9870TIP3    H251026   1.024   4.098  11.108 -2.3867 -0.6542  1.0898
 9871TIP3   OH251027   3.868   4.513  11.331  0.3627  0.1373  0.4481
 9871TIP3    H151028   3.841   4.508  11.240  1.2546  0.0528  0.1791
 9871TIP3    H251029   3.958   4.480  11.332 -0.4377 -2.3431  1.7397
 9872TIP3   OH251030   2.925   4.805   1.135  1.1259  0.3958 -0.2629
 9872TIP3    H151031   2.984   4.868   1.093 -0.4746  1.4214 -1.1010
 9872TIP3    H251032   2.868   4.775   1.064 -0.4271  0.7229  0.8009
 9873TIP3   OH251033   6.323   1.381  16.327 -0.2639 -0.2114 -0.0961
 9873TIP3    H151034   6.407   1.373  16.370 -0.3647 -0.8314 -0.0114
 9873TIP3    H251035   6.339   1.357  16.236 -0.2478  0.1680 -0.1966
 9874TIP3   OH251036   2.056   5.399   5.363  0.2193  0.4469 -0.0011
 9874TIP3    H151037   2.018   5.487   5.364 -1.7131 -0.3302  1.4187
 9874TIP3    H251038   2.014   5.355   5.290 -2.7012 -0.7595  2.2211
 9875TIP3   OH251039   3.813   6.758   5.256 -0.2151  0.5680 -0.0293
 9875TIP3    H151040   3.738   6.705   5.229  0.0765 -0.1015  0.4594
 9875TIP3    H251041   3.861   6.703   5.317  2.5922 -0.4554 -2.8509
 9876TIP3   OH251042   0.379   0.581   1.196  0.4302 -0.1098 -0.2567
 9876TIP3    H151043   0.375   0.616   1.107  0.6566  0.5978  0.0004
 9876TIP3    H251044   0.361   0.656   1.252  1.0308 -0.3826  0.3181
 9877TIP3   OH251045   3.467   0.689  11.803  0.1588 -0.2382  0.0717
 9877TIP3    H151046   3.436   0.611  11.757  2.1475 -0.2857 -1.3236
 9877TIP3    H251047   3.549   0.712  11.760  0.0497  2.1867  0.9532
 9878TIP3   OH251048   4.830   3.206   3.709  0.4456 -0.4310  0.4769
 9878TIP3    H151049   4.786   3.134   3.755 -0.4747 -0.3321 -0.2304
 9878TIP3    H251050   4.920   3.204   3.743  0.5724 -2.2076  0.1554
 9879TIP3   OH251051   6.650   4.224  12.526 -0.5022  0.1372 -0.3755
 9879TIP3    H151052   6.724   4.166  12.544 -0.6727 -0.1869 -0.7034
 9879TIP3    H251053   6.690   4.304  12.490 -0.1321  0.8850  1.5635
 9880TIP3   OH251054   6.124   4.380  11.330  0.0549 -0.0133  0.4597
 9880TIP3    H151055   6.067   4.415  11.261  0.4528 -0.7174 -0.2430
 9880TIP3    H251056   6.067   4.370  11.406 -0.3815  0.8168  0.2517
 9881TIP3   OH251057   4.821   4.608   1.791  0.0003 -0.0898  0.5982
 9881TIP3    H151058   4.891   4.658   1.750 -0.8581 -1.0742 -2.2598
 9881TIP3    H251059   4.858   4.521   1.805 -0.6328 -0.6420 -1.0139
 9882TIP3   OH251060   6.381   0.936  16.107  0.2532  0.2354 -0.1124
 9882TIP3    H151061   6.349   0.969  16.191 -0.5857  0.9632 -0.7075
 9882TIP3    H251062   6.338   0.851  16.097  0.2244  0.2235  0.1088
 9883TIP3   OH251063   1.732   4.147   2.517  0.5435  0.1104 -0.1607
 9883TIP3    H151064   1.803   4.203   2.550 -0.0193 -0.6116  2.4959
 9883TIP3    H251065   1.705   4.095   2.593 -3.0806  0.5997 -0.9208
 9884TIP3   OH251066   1.167   3.671  12.628 -0.4943 -0.3637 -0.1954
 9884TIP3    H151067   1.176   3.576  12.614 -1.7217 -0.4653 -0.3598
 9884TIP3    H251068   1.125   3.678  12.713  2.1830  0.1374  1.1983
 9885TIP3   OH251069   5.835   3.021   4.631 -0.1245  0.3146 -0.1337
 9885TIP3    H151070   5.907   3.063   4.679 -1.7937  2.0005  1.0580
 9885TIP3    H251071   5.774   3.093   4.613 -1.0961 -0.8984 -1.9128
 9886TIP3   OH251072   1.401   3.505   2.582 -0.1488  0.5776 -0.5429
 9886TIP3    H151073   1.349   3.565   2.529  0.3326  1.2725 -0.2504
 9886TIP3    H251074   1.488   3.545   2.584 -0.2666  0.8433  1.1716
 9887TIP3   OH251075   0.506   4.303   1.834 -0.1256 -0.1251  0.1586
 9887TIP3    H151076   0.434   4.329   1.892  1.1706 -0.3495  1.9503
 9887TIP3    H251077   0.477   4.222   1.793 -0.8163 -0.3336  1.0386
 9888TIP3   OH251078   0.388   1.732   0.271  0.0672  0.4007 -0.2830
 9888TIP3    H151079   0.300   1.717   0.236  1.1587  0.8061 -3.5579
 9888TIP3    H251080   0.392   1.825   0.290 -0.2440  0.3614 -0.0333
 9889TIP3   OH251081   4.819   3.007  14.229 -0.3864 -0.0368 -0.2549
 9889TIP3    H151082   4.909   3.038  14.236 -0.6643  0.9537 -0.9129
 9889TIP3    H251083   4.771   3.081  14.193 -1.2978 -0.8539 -0.7556
 9890TIP3   OH251084   3.019   4.604  15.877  0.1245 -0.5714  0.2684
 9890TIP3    H151085   2.948   4.622  15.815  0.1689 -0.8414  0.1372
 9890TIP3    H251086   3.093   4.578  15.822  0.3498 -0.2183  0.4019
 9891TIP3   OH251087   2.029   3.357   0.540  0.1928 -0.2730 -0.0403
 9891TIP3    H151088   1.966   3.296   0.576  0.3179  1.0607  2.6276
 9891TIP3    H251089   1.977   3.418   0.488 -0.3098 -0.8777 -0.2554
 9892TIP3   OH251090   1.975   2.614  14.538 -0.2078 -0.5176 -0.8820
 9892TIP3    H151091   1.987   2.561  14.617 -0.4698  0.1023 -0.4211
 9892TIP3    H251092   2.035   2.688  14.550 -0.4480 -0.2810 -1.1330
 9893TIP3   OH251093   4.392   0.119  15.062  0.3390 -0.1986 -0.1109
 9893TIP3    H151094   4.437   0.054  15.007 -0.0683 -0.1491 -0.5155
 9893TIP3    H251095   4.457   0.147  15.125  1.2384  0.7270 -1.4062
 9894TIP3   OH251096   0.639   6.060   4.309 -0.4162  0.1874  0.1973
 9894TIP3    H151097   0.675   6.022   4.389  0.1117 -0.4113 -0.3076
 9894TIP3    H251098   0.630   6.153   4.328 -0.3061  0.0500  0.9510
 9895TIP3   OH251099   1.989   0.936  15.181  0.6584 -0.1497 -0.5656
 9895TIP3    H151100   2.043   0.861  15.208 -0.8851 -1.1486 -0.1617
 9895TIP3    H251101   1.994   0.996  15.255 -1.9637 -2.0174  1.3097
 9896TIP3   OH251102   4.811   0.230   0.297 -0.4655 -0.3917  0.2531
 9896TIP3    H151103   4.833   0.310   0.248 -0.5646 -2.2193 -3.0456
 9896TIP3    H251104   4.727   0.202   0.261  1.1161 -3.7354 -1.2241
 9897TIP3   OH251105   2.905   5.922  11.291 -0.7010 -0.2232  0.3233
 9897TIP3    H151106   2.825   5.928  11.343 -1.4774 -0.3439 -0.8421
 9897TIP3    H251107   2.928   6.014  11.272  0.0295 -0.1379  1.5121
 9898TIP3   OH251108   5.699   3.026   3.880  0.0894 -0.4173 -0.0922
 9898TIP3    H151109   5.605   3.014   3.869  0.3687 -1.1495 -2.0007
 9898TIP3    H251110   5.724   3.087   3.810  0.9003  0.5537  1.0033
 9899TIP3   OH251111   6.278   0.203  15.059  0.2993 -0.2788 -0.0044
 9899TIP3    H151112   6.213   0.212  14.989 -1.0703 -1.0561  1.0976
 9899TIP3    H251113   6.276   0.288  15.104  1.3719  0.3130 -1.0292
 9900TIP3   OH251114   2.443   3.933   3.286  0.4390  0.0828 -0.5129
 9900TIP3    H151115   2.400   3.988   3.352 -1.2830 -2.5924  0.7538
 9900TIP3    H251116   2.523   3.904   3.329  0.5188  0.2500 -0.5455
 9901TIP3   OH251117   1.056   2.613   4.248  0.4638 -0.2853 -0.2701
 9901TIP3    H151118   0.990   2.565   4.198 -0.6577 -0.3120  1.1656
 9901TIP3    H251119   1.086   2.550   4.314 -1.4644  1.0394  2.0319
 9902TIP3   OH251120   2.986   4.989  13.684  0.2633 -0.1466  0.5213
 9902TIP3    H151121   2.992   4.944  13.768 -0.9131 -0.0495  0.6784
 9902TIP3    H251122   2.892   5.003  13.671  0.4314 -0.1313 -0.8019
 9903TIP3   OH251123   6.495   5.628   5.374  0.5445  0.0566 -0.2950
 9903TIP3    H151124   6.491   5.603   5.466  0.5807 -0.7904 -0.5091
 9903TIP3    H251125   6.528   5.717   5.374 -1.8075  1.0232  0.6556
 9904TIP3   OH251126   3.102   0.599   5.537 -0.7035 -0.9870  0.1684
 9904TIP3    H151127   3.108   0.640   5.450  0.3156  1.8509  1.4640
 9904TIP3    H251128   3.193   0.578   5.559 -0.7923 -0.3946  1.1237
 9905TIP3   OH251129   2.402   4.220  17.113  0.4007  0.4411  0.1818
 9905TIP3    H151130   2.342   4.207  17.186  0.8091  0.0878  0.4641
 9905TIP3    H251131   2.350   4.199  17.035  0.1651  0.1178  0.4219
 9906TIP3   OH251132   1.754   2.652   2.450 -0.3353  0.2897  0.6405
 9906TIP3    H151133   1.798   2.734   2.428 -2.8576  1.6231  0.1181
 9906TIP3    H251134   1.811   2.584   2.414  1.3620  1.8506  0.2117
 9907TIP3   OH251135   5.361   0.586  15.049  0.2138 -0.2666  0.2117
 9907TIP3    H151136   5.268   0.569  15.043  0.1112 -0.2257  1.4216
 9907TIP3    H251137   5.373   0.625  15.136  1.0719  1.5733 -0.6527
 9908TIP3   OH251138   1.765   1.038  15.239 -0.0158  0.8742 -0.3506
 9908TIP3    H151139   1.834   0.996  15.188 -0.0721  0.6624 -0.2559
 9908TIP3    H251140   1.692   1.046  15.178 -0.6722 -0.9207  0.1343
 9909TIP3   OH251141   1.135   5.320   0.418  0.8430 -0.0943  0.1257
 9909TIP3    H151142   1.113   5.413   0.416 -0.6286 -0.4329 -0.8450
 9909TIP3    H251143   1.123   5.290   0.328 -0.0004 -1.5067  0.6691
 9910TIP3   OH251144   4.884   4.383   6.531  0.3441  0.5366  0.3732
 9910TIP3    H151145   4.832   4.327   6.588  0.0712  0.0037 -0.3851
 9910TIP3    H251146   4.821   4.442   6.490  0.1220 -0.8386 -1.4001
 9911TIP3   OH251147   1.438   2.748  11.427 -0.0976  0.2420  0.3340
 9911TIP3    H151148   1.398   2.679  11.375  0.7058  0.1396 -0.1614
 9911TIP3    H251149   1.529   2.722  11.436 -0.3476 -0.1141  2.4202
 9912TIP3   OH251150   2.837   2.191  13.429  0.1936  0.7053  0.5444
 9912TIP3    H151151   2.896   2.126  13.468 -0.3012  0.2452  0.5399
 9912TIP3    H251152   2.818   2.252  13.501 -0.2967  0.1557  0.8976
 9913TIP3   OH251153   1.859   5.111   5.804  0.0054 -0.2856  0.5056
 9913TIP3    H151154   1.938   5.112   5.858 -0.2284  0.9795  0.8557
 9913TIP3    H251155   1.857   5.198   5.764  0.0861 -1.1304 -1.4408
 9914TIP3   OH251156   3.985   5.403  12.591  0.1726 -0.5878  0.0674
 9914TIP3    H151157   4.070   5.444  12.607 -0.2719 -0.2568  1.7906
 9914TIP3    H251158   4.003   5.309  12.596  0.4440 -0.5199  0.4029
 9915TIP3   OH251159   5.978   2.452   0.804  0.2649 -1.1239  0.0801
 9915TIP3    H151160   6.016   2.425   0.721 -0.8466  0.8960 -1.1535
 9915TIP3    H251161   5.930   2.375   0.835  0.3251 -1.7703 -1.3749
 9916TIP3   OH251162   5.180   0.553  15.604  0.1006 -0.2347 -0.1071
 9916TIP3    H151163   5.118   0.624  15.593 -1.5420 -1.6701 -0.6022
 9916TIP3    H251164   5.197   0.550  15.698 -1.8878 -0.8103  0.2814
 9917TIP3   OH251165   6.001   0.801  13.873  0.1482  0.1061  0.2707
 9917TIP3    H151166   5.956   0.876  13.836  0.5245  0.0781 -0.2582
 9917TIP3    H251167   5.996   0.813  13.967 -0.6645  0.2769  0.2086
 9918TIP3   OH251168   1.231   1.743   2.183 -0.0089  0.2772 -0.1415
 9918TIP3    H151169   1.223   1.648   2.197  0.0478  0.3915  0.7216
 9918TIP3    H251170   1.306   1.769   2.236 -0.5448  0.9407  0.3059
 9919TIP3   OH251171   1.998   1.605   1.490  0.1226  0.3164  0.0201
 9919TIP3    H151172   1.972   1.685   1.535  0.5532  0.7398 -0.4656
 9919TIP3    H251173   2.091   1.617   1.471 -0.3842  0.9275 -2.4993
 9920TIP3   OH251174   6.457   5.922  14.611  0.2171  0.6016  0.4762
 9920TIP3    H151175   6.361   5.926  14.607  0.1275  1.6445  2.4138
 9920TIP3    H251176   6.485   6.004  14.571  0.2065  1.1799  1.6367
 9921TIP3   OH251177   3.554   4.505  12.898  0.3994 -0.7045  0.2458
 9921TIP3    H151178   3.585   4.451  12.972  1.8816  0.7317  0.7468
 9921TIP3    H251179   3.459   4.508  12.909  0.4999 -1.2714  1.5749
 9922TIP3   OH251180   1.000   0.885  13.991  0.0320 -1.0428  0.5865
 9922TIP3    H151181   0.940   0.870  14.064 -0.8285  0.1707  0.1638
 9922TIP3    H251182   0.949   0.935  13.928  2.0179  1.7454  1.0038
 9923TIP3   OH251183   6.697   1.722  17.067  0.0989 -0.5900 -0.0634
 9923TIP3    H151184   6.702   1.797  17.008  0.5293  0.8583  1.7222
 9923TIP3    H251185   6.788   1.697  17.083 -0.0549 -2.2593 -1.4920
 9924TIP3   OH251186   4.788   6.052  15.526 -0.0467 -0.2492  0.2128
 9924TIP3    H151187   4.846   6.045  15.602  1.2756  0.4322 -0.7039
 9924TIP3    H251188   4.744   6.137  15.537  0.3295 -0.0387  0.0938
 9925TIP3   OH251189   2.109   0.224   4.639 -0.0612 -0.2154  0.4291
 9925TIP3    H151190   2.054   0.254   4.711  1.4484 -1.1802  2.0813
 9925TIP3    H251191   2.128   0.132   4.661 -1.3900 -1.2622 -2.4104
 9926TIP3   OH251192   1.750   3.206   4.265  0.0012  0.1071 -0.6045
 9926TIP3    H151193   1.683   3.144   4.233 -0.4201 -0.4537  1.2548
 9926TIP3    H251194   1.700   3.274   4.309  0.6257 -0.0148  0.3065
 9927TIP3   OH251195   6.704   1.031  14.011  0.6977 -0.2070 -0.2619
 9927TIP3    H151196   6.760   1.096  13.968  2.7856 -1.0788  0.9769
 9927TIP3    H251197   6.752   0.949  14.003 -0.7894 -1.1706  0.2380
 9928TIP3   OH251198   2.968   1.220   0.518  0.1605 -0.0038 -0.2558
 9928TIP3    H151199   2.927   1.133   0.518 -0.4854  0.2915 -0.3685
 9928TIP3    H251200   3.029   1.218   0.445 -0.7339  0.0278 -1.0269
 9929TIP3   OH251201   5.640   2.430  13.982  0.5061  0.2708 -0.8042
 9929TIP3    H151202   5.604   2.518  13.971 -0.7698 -0.3250 -1.6636
 9929TIP3    H251203   5.700   2.419  13.908  1.0595  0.5915 -0.4095
 9930TIP3   OH251204   3.335   2.839  16.359  0.3037  0.2786 -0.2739
 9930TIP3    H151205   3.403   2.892  16.318  0.2594  0.8576  0.3943
 9930TIP3    H251206   3.343   2.857  16.453  0.1332 -0.7161 -0.0585
 9931TIP3   OH251207   0.839   5.675   1.106  0.2493 -0.1579  0.5397
 9931TIP3    H151208   0.783   5.741   1.066 -1.7453 -0.5365  2.5019
 9931TIP3    H251209   0.858   5.613   1.036 -0.9923  0.5162 -0.4270
 9932TIP3   OH251210   3.283   0.061  16.871 -0.0937 -0.2459  0.0440
 9932TIP3    H151211   3.284   0.096  16.782  1.0240 -0.7781 -0.1632
 9932TIP3    H251212   3.309  -0.030  16.862  0.6030 -0.1582  0.9657
 9933TIP3   OH251213   3.038   2.577  10.735  0.3980  0.6837  0.4497
 9933TIP3    H151214   3.105   2.532  10.684 -0.8482 -1.6223  0.7023
 9933TIP3    H251215   3.083   2.603  10.815  1.0368 -0.8716  0.6408
 9934TIP3   OH251216   0.329   2.844  13.038  0.2866  0.0382  0.1566
 9934TIP3    H151217   0.269   2.841  12.963  1.2509  1.2859 -0.7130
 9934TIP3    H251218   0.358   2.754  13.048 -1.9515 -0.6766  0.8247
 9935TIP3   OH251219   4.105   6.107  11.096  0.1382  0.0837 -0.1497
 9935TIP3    H151220   4.021   6.142  11.067 -0.9805 -1.3772  1.1803
 9935TIP3    H251221   4.149   6.181  11.137 -0.3575  0.9424 -1.1386
 9936TIP3   OH251222   2.053   6.773   1.271 -0.5369  0.7644  0.2873
 9936TIP3    H151223   2.084   6.682   1.270  2.1672  1.5961 -1.4135
 9936TIP3    H251224   2.058   6.798   1.364 -0.4751 -0.5528  0.6619
 9937TIP3   OH251225   3.728   6.408   2.409  0.3737  0.1167 -0.1292
 9937TIP3    H151226   3.661   6.432   2.473  0.2681  1.7166 -0.8029
 9937TIP3    H251227   3.679   6.367   2.338  0.3698 -0.6767  0.3215
 9938TIP3   OH251228   3.945   3.226   2.171  0.5248  0.3455  0.7645
 9938TIP3    H151229   3.905   3.140   2.161  0.6997  0.2227  1.0913
 9938TIP3    H251230   4.000   3.217   2.249  1.8529  0.2705 -0.1694
 9939TIP3   OH251231   2.926   3.743   0.254 -0.9122 -0.3987 -0.3606
 9939TIP3    H151232   2.851   3.688   0.278 -1.3967  0.0295 -0.8957
 9939TIP3    H251233   2.894   3.832   0.261  0.4993  0.0020  2.7606
 9940TIP3   OH251234   2.548   5.126   5.527 -0.1304 -0.3771 -0.1407
 9940TIP3    H151235   2.552   5.036   5.496  2.3536 -0.4470  0.1757
 9940TIP3    H251236   2.455   5.145   5.535 -0.7665 -2.1598 -2.3236
 9941TIP3   OH251237   0.006   0.643   4.250  0.3947 -0.0707  0.3752
 9941TIP3    H151238   0.023   0.660   4.342  0.6099  1.7025  0.0516
 9941TIP3    H251239   0.078   0.587   4.221  0.8816  0.2042  1.0383
 9942TIP3   OH251240   2.558   5.420   4.299  0.4441  0.2775  0.2626
 9942TIP3    H151241   2.653   5.417   4.291  0.4915 -1.9243  0.8234
 9942TIP3    H251242   2.527   5.431   4.209  1.2605 -2.8109 -0.5473
 9943TIP3   OH251243   5.916   1.811   3.663 -0.4244  0.1735 -0.2848
 9943TIP3    H151244   5.853   1.882   3.648 -0.1778  0.7464  1.1506
 9943TIP3    H251245   5.883   1.766   3.741 -0.3073 -1.0032 -0.8947
 9944TIP3   OH251246   2.593   4.700   1.706  0.3036 -0.2426  0.3465
 9944TIP3    H151247   2.596   4.654   1.622  1.5904  1.0853 -0.3914
 9944TIP3    H251248   2.656   4.772   1.696  0.7182 -0.2252  2.5670
 9945TIP3   OH251249   3.589   3.990   6.101  0.3570 -0.3827  0.1385
 9945TIP3    H151250   3.625   4.046   6.169 -0.4814  0.6124 -0.2095
 9945TIP3    H251251   3.638   4.013   6.022 -2.1980  2.4328 -0.8099
 9946TIP3   OH251252   0.497   1.867   0.979  0.2841 -0.2639 -0.3032
 9946TIP3    H151253   0.438   1.822   0.919 -1.5609  1.1162  0.3729
 9946TIP3    H251254   0.529   1.798   1.037 -0.9931 -1.0300 -0.4578
 9947TIP3   OH251255   3.242   2.074  16.218 -0.5403  0.1377  0.0533
 9947TIP3    H151256   3.211   1.986  16.239 -1.2119 -0.1155 -1.8341
 9947TIP3    H251257   3.320   2.061  16.164  0.3092  0.7428  1.0976
 9948TIP3   OH251258   5.084   6.009  15.088  0.3441  0.0894  0.1245
 9948TIP3    H151259   5.024   6.004  15.162 -0.4490 -0.7150 -0.5492
 9948TIP3    H251260   5.037   6.059  15.022  1.5960  2.0266  0.6364
 9949TIP3   OH251261   0.785   2.669  10.733  0.6103  0.2617  0.4385
 9949TIP3    H151262   0.880   2.655  10.736  0.3802 -1.2914  1.2691
 9949TIP3    H251263   0.751   2.621  10.809 -0.7449  1.7769  0.8428
 9950TIP3   OH251264   4.310   5.125   3.021 -0.3818  0.1442 -0.5628
 9950TIP3    H151265   4.366   5.069   3.075  0.9984 -2.0724 -3.9292
 9950TIP3    H251266   4.372   5.176   2.968 -1.5649  0.2374 -1.8989
 9951TIP3   OH251267   4.065   0.688   0.732 -0.1682  1.1538  0.7565
 9951TIP3    H151268   4.018   0.606   0.746  1.4169 -0.0724 -0.6872
 9951TIP3    H251269   4.101   0.710   0.818 -0.3582  0.1561  1.1000
 9952TIP3   OH251270   4.768   5.041   3.557 -0.1579 -0.1539 -0.1623
 9952TIP3    H151271   4.861   5.033   3.533 -0.3624  0.1736 -1.1049
 9952TIP3    H251272   4.749   4.961   3.606  0.5651 -0.3249 -0.1453
 9953TIP3   OH251273   0.799   1.606  16.842 -0.2517 -0.8188 -0.1494
 9953TIP3    H151274   0.793   1.636  16.751 -0.3653  0.4372  0.2572
 9953TIP3    H251275   0.843   1.678  16.888 -0.3187 -1.3845  0.8198
 9954TIP3   OH251276   3.863   6.276   5.595  0.4626  0.5038  0.3231
 9954TIP3    H151277   3.838   6.185   5.578 -2.0964  0.9601  1.3386
 9954TIP3    H251278   3.933   6.269   5.660 -0.6279 -0.7388  1.4201
 9955TIP3   OH251279   0.794   2.219   2.154  0.0515 -0.3669 -0.0499
 9955TIP3    H151280   0.845   2.153   2.106 -0.1882 -0.0800 -0.7189
 9955TIP3    H251281   0.791   2.294   2.095 -0.3273 -0.0341  0.3886
 9956TIP3   OH251282   3.028   2.679   1.197 -0.2546  0.9601  0.2805
 9956TIP3    H151283   2.965   2.685   1.269  0.0989 -1.5159  0.8857
 9956TIP3    H251284   3.042   2.585   1.186  0.8270  1.3414 -2.0633
 9957TIP3   OH251285   3.122   3.658   1.923 -0.2027 -0.3389  1.2350
 9957TIP3    H151286   3.109   3.705   2.006 -1.4185  1.2058  0.2214
 9957TIP3    H251287   3.034   3.650   1.886  0.4023 -0.3300 -0.2619
 9958TIP3   OH251288   5.153   3.213   6.010 -0.2635  0.1831  0.1835
 9958TIP3    H151289   5.181   3.277   6.075 -2.8763  0.1316  1.4856
 9958TIP3    H251290   5.064   3.240   5.986  0.3446 -0.1810 -2.9367
 9959TIP3   OH251291   2.894   0.223   1.099 -0.7340  0.1385 -0.3827
 9959TIP3    H151292   2.958   0.255   1.036 -1.5347 -0.7744 -1.7137
 9959TIP3    H251293   2.835   0.296   1.114 -1.3470 -0.0562 -1.7875
 9960TIP3   OH251294   6.533   5.674   1.599 -0.2802 -0.0014 -0.2405
 9960TIP3    H151295   6.456   5.717   1.637 -1.0678 -0.1551 -1.5817
 9960TIP3    H251296   6.577   5.743   1.550 -0.9037 -0.4208 -1.4358
 9961TIP3   OH251297   5.766   2.751   2.628  0.0549 -0.0022  0.0524
 9961TIP3    H151298   5.744   2.709   2.711 -1.0210 -0.2454 -0.3333
 9961TIP3    H251299   5.771   2.845   2.649  1.1027 -0.1725  0.6401
 9962TIP3   OH251300   1.968   0.652   4.240 -0.3884 -0.3945  0.3287
 9962TIP3    H151301   1.967   0.575   4.296 -2.5724 -0.6591  0.0245
 9962TIP3    H251302   1.911   0.629   4.166  2.1727  0.0205 -1.9601
 9963TIP3   OH251303   1.067   0.009  12.931  0.1169 -0.6706  0.1702
 9963TIP3    H151304   1.022   0.038  13.010  0.4896  1.0474 -0.2126
 9963TIP3    H251305   1.159   0.006  12.955 -0.0020 -2.7807  0.5365
 9964TIP3   OH251306   0.708   2.047  16.083 -0.2247  0.2233  0.4793
 9964TIP3    H151307   0.783   2.030  16.026  0.2644 -1.4825  1.5601
 9964TIP3    H251308   0.640   2.080  16.024 -0.0993 -2.4502 -1.3212
 9965TIP3   OH251309   1.344   2.458  13.174  0.0805  0.4364 -0.3778
 9965TIP3    H151310   1.433   2.433  13.147  0.0892  0.8475 -0.7398
 9965TIP3    H251311   1.325   2.537  13.123 -0.3475  0.5679 -0.0193
 9966TIP3   OH251312   3.635   0.837   2.285 -0.6335  0.2879  0.0023
 9966TIP3    H151313   3.610   0.883   2.365 -1.0416  1.6395 -0.8569
 9966TIP3    H251314   3.691   0.766   2.314  0.3572  1.5681  1.3780
 9967TIP3   OH251315   3.558   0.056  12.290  0.8424 -0.3200 -0.3778
 9967TIP3    H151316   3.490   0.116  12.320  1.8111  0.9066 -0.5855
 9967TIP3    H251317   3.588   0.012  12.370  0.5077 -0.1353 -0.1482
 9968TIP3   OH251318   4.646   2.341  17.234  0.3332 -0.0036  0.1376
 9968TIP3    H151319   4.741   2.344  17.246  0.7380 -1.4777 -2.0504
 9968TIP3    H251320   4.611   2.327  17.322  2.2574 -1.2079  0.7733
 9969TIP3   OH251321   5.058   4.725  11.493 -0.0233  1.0769  0.6725
 9969TIP3    H151322   5.108   4.806  11.501 -0.3600  1.2414  1.1673
 9969TIP3    H251323   5.099   4.664  11.554  1.3976  0.2473 -1.0273
 9970TIP3   OH251324   0.625   2.422   0.833  0.2456  0.5345 -0.0440
 9970TIP3    H151325   0.607   2.328   0.839  1.1461  0.3923  0.8383
 9970TIP3    H251326   0.705   2.434   0.884  0.7456  1.6248 -1.0286
 9971TIP3   OH251327   5.874   2.031  13.237 -0.2107  0.1730  0.6771
 9971TIP3    H151328   5.963   1.997  13.248  0.1133  0.0244 -1.7699
 9971TIP3    H251329   5.871   2.109  13.292  1.2531 -0.1178  1.2191
 9972TIP3   OH251330   3.410   1.578   5.084  0.2847  0.1353 -0.5882
 9972TIP3    H151331   3.406   1.520   5.160 -0.6442 -0.4452 -1.0668
 9972TIP3    H251332   3.419   1.520   5.009 -0.0463  0.6360 -1.0243
 9973TIP3   OH251333   2.647   3.853  15.991  0.2825 -0.3147  0.8816
 9973TIP3    H151334   2.704   3.783  16.022  0.4224 -1.2389 -1.2956
 9973TIP3    H251335   2.704   3.929  15.981  1.0092 -0.9907 -0.4131
 9974TIP3   OH251336   1.963   4.796  11.469  0.6812 -0.0899 -0.3798
 9974TIP3    H151337   2.005   4.840  11.395  1.2897 -0.4337 -0.2407
 9974TIP3    H251338   1.900   4.861  11.502  0.1237 -0.0755 -1.4312
 9975TIP3   OH251339   2.944   3.767   2.986  0.3610 -0.2793  0.7504
 9975TIP3    H151340   2.884   3.774   2.911  0.6468  0.0528  0.5499
 9975TIP3    H251341   3.022   3.725   2.951  0.1286 -1.0215  1.0898
 9976TIP3   OH251342   1.797   4.599  11.073  0.0993  0.3020 -0.2620
 9976TIP3    H151343   1.890   4.607  11.092  0.1687 -2.0777  0.8476
 9976TIP3    H251344   1.793   4.553  10.988  0.0575 -1.8984  0.8575
 9977TIP3   OH251345   3.703   0.221   4.049 -0.1886  0.0734 -0.2366
 9977TIP3    H151346   3.792   0.247   4.076  0.9215 -1.6026 -2.0322
 9977TIP3    H251347   3.680   0.151   4.110 -0.3507  0.5749  0.2939
 9978TIP3   OH251348   6.003   5.403   5.391  0.1930 -0.0038  0.3177
 9978TIP3    H151349   5.925   5.434   5.436 -0.4023 -1.3848  0.2829
 9978TIP3    H251350   6.066   5.474   5.401 -1.5596  1.8473 -1.0670
 9979TIP3   OH251351   3.691   3.359  12.039  0.1897 -0.0071  0.1567
 9979TIP3    H151352   3.596   3.364  12.047  0.0516 -0.4111 -1.0196
 9979TIP3    H251353   3.708   3.266  12.022  0.8020  0.0694  0.3322
 9980TIP3   OH251354   5.996   4.210   6.696  0.1421  0.3154  0.0354
 9980TIP3    H151355   5.964   4.292   6.659 -0.1448  1.1309  1.9396
 9980TIP3    H251356   6.091   4.216   6.691  0.1286  0.8825  0.3412
 9981TIP3   OH251357   3.098   2.414  17.071  0.1454  0.3284  0.4615
 9981TIP3    H151358   3.175   2.358  17.066  0.8160  1.3269 -1.1059
 9981TIP3    H251359   3.092   2.438  17.164  0.7305 -1.0835  0.8877
 9982TIP3   OH251360   0.452   4.621  12.358 -0.0868 -0.2907  0.2695
 9982TIP3    H151361   0.428   4.657  12.443  0.0802  0.6828 -0.0836
 9982TIP3    H251362   0.436   4.692  12.296  0.0363 -0.9008 -0.4809
 9983TIP3   OH251363   3.959   0.604   4.034  0.6844 -0.1622  0.4246
 9983TIP3    H151364   3.884   0.647   3.995  0.8303 -1.0229 -0.8565
 9983TIP3    H251365   3.971   0.648   4.118 -0.0034  1.3291 -0.2292
 9984TIP3   OH251366   3.741   1.350  12.537  0.6366  0.5359  0.1830
 9984TIP3    H151367   3.713   1.408  12.466 -0.6500 -1.1135 -0.7386
 9984TIP3    H251368   3.679   1.277  12.534  0.3341  0.5118  3.2030
 9985TIP3   OH251369   2.645   4.700  16.290  0.1165  0.2820  0.4147
 9985TIP3    H151370   2.704   4.739  16.224  0.6009 -2.0645 -0.6517
 9985TIP3    H251371   2.701   4.687  16.367  0.5256 -0.2518  0.0353
 9986TIP3   OH251372   0.054   3.048   0.530  0.1460 -0.0956 -0.1815
 9986TIP3    H151373   0.073   3.021   0.440  1.8147 -0.7427  0.3248
 9986TIP3    H251374   0.112   2.994   0.584 -0.7050  0.3994  1.2813
 9987TIP3   OH251375   5.026   3.620   6.213  0.3368 -0.0851  0.3673
 9987TIP3    H151376   5.107   3.659   6.181  0.8266 -2.2637 -1.2887
 9987TIP3    H251377   5.055   3.554   6.277 -0.1218 -0.6470  0.0091
 9988TIP3   OH251378   1.189   2.816   2.129  0.5795 -0.0920 -0.1003
 9988TIP3    H151379   1.239   2.752   2.079  0.2954 -1.0380  0.7756
 9988TIP3    H251380   1.194   2.897   2.078  0.3465 -0.9941 -1.5921
 9989TIP3   OH251381   4.288   5.865  14.102  0.1841  0.8078  0.1791
 9989TIP3    H151382   4.265   5.917  14.179 -0.1460 -0.4353  0.9371
 9989TIP3    H251383   4.205   5.851  14.057 -0.1162 -0.9892  1.2183
 9990TIP3   OH251384   3.698   1.961  11.498 -0.1280 -0.1368  0.0415
 9990TIP3    H151385   3.705   2.052  11.528 -0.9282 -0.8270  2.5192
 9990TIP3    H251386   3.776   1.948  11.444  0.6810  1.6219  0.6924
 9991TIP3   OH251387   5.134   0.357   3.206 -0.2083 -0.3361 -0.4743
 9991TIP3    H151388   5.114   0.267   3.179  0.3240 -0.4803 -0.3868
 9991TIP3    H251389   5.229   0.363   3.202 -0.2267  0.1483 -0.2233
 9992TIP3   OH251390   4.319   0.533  15.366 -0.0857 -0.3299  0.1923
 9992TIP3    H151391   4.382   0.584  15.315 -1.2432  1.8061  0.7572
 9992TIP3    H251392   4.373   0.475  15.420  1.2466 -0.5896 -1.3507
 9993TIP3   OH251393   1.636   1.410  16.676  0.2137 -0.3689  0.7841
 9993TIP3    H151394   1.730   1.406  16.659  0.2691 -0.2582  1.0546
 9993TIP3    H251395   1.624   1.487  16.731 -0.5953  2.3022 -2.7739
 9994TIP3   OH251396   5.666   2.659  10.632  0.1783  0.8246 -0.0173
 9994TIP3    H151397   5.616   2.701  10.702 -0.6071  1.8536 -1.1534
 9994TIP3    H251398   5.606   2.595  10.594 -0.0534  1.5336 -0.8926
 9995TIP3   OH251399   1.211   6.041  11.385 -0.3322  0.0835  0.1336
 9995TIP3    H151400   1.295   6.071  11.419 -0.6643 -0.6780  1.7654
 9995TIP3    H251401   1.230   5.955  11.346 -0.3368 -0.1104  0.5448
 9996TIP3   OH251402   3.087   0.079  10.911  0.0914  0.4961  0.2872
 9996TIP3    H151403   3.106   0.135  10.986 -0.7655  0.0336  0.8730
 9996TIP3    H251404   3.062   0.139  10.841 -0.7978  0.8536  0.8967
 9997TIP3   OH251405   3.734   2.922  12.505 -0.0450 -0.9621  0.1827
 9997TIP3    H151406   3.766   2.984  12.571  0.5665 -0.8339 -0.2239
 9997TIP3    H251407   3.812   2.873  12.479  0.2240  0.5565 -2.1349
 9998TIP3   OH251408   6.627   4.546  15.646  0.0539 -0.2950  0.2616
 9998TIP3    H151409   6.634   4.450  15.646  0.1270 -0.3013  1.4623
 9998TIP3    H251410   6.555   4.564  15.586 -1.3878 -1.2413  1.6267
 9999TIP3   OH251411   1.850   3.643   1.925 -0.1096 -0.0688  0.1367
 9999TIP3    H151412   1.806   3.718   1.963 -0.0226 -0.1799  0.4554
 9999TIP3    H251413   1.837   3.653   1.830 -1.1743 -0.3173  0.2391
10000TIP3   OH251414   4.281   5.548   2.601  0.3183  0.3888  0.5532
10000TIP3    H151415   4.196   5.576   2.636  0.5671 -1.1477  2.5791
10000TIP3    H251416   4.341   5.554   2.675  0.9757 -2.6443  0.4172
10001TIP3   OH251417   2.986   5.898   3.839  0.0152  0.1859  0.6753
10001TIP3    H151418   3.076   5.919   3.814  0.3273  0.5855  2.0212
10001TIP3    H251419   2.935   5.912   3.760  1.2734 -1.0727 -0.4283
10002TIP3   OH251420   4.357   6.618  15.360  0.4001 -0.0415 -0.5653
10002TIP3    H151421   4.427   6.594  15.300 -0.3200 -0.4516 -1.2565
10002TIP3    H251422   4.282   6.637  15.304 -0.4559 -0.9996  0.2034
10003TIP3   OH251423   1.162   4.828   3.291 -0.1884  0.1420  0.6065
10003TIP3    H151424   1.209   4.764   3.345  1.2164  0.0741 -0.6141
10003TIP3    H251425   1.224   4.901   3.282 -0.9932  0.8048  0.3432
10004TIP3   OH251426   0.376   4.909   4.739  0.6792 -0.1288  0.3603
10004TIP3    H151427   0.348   4.927   4.828  1.6010 -1.3736  0.9377
10004TIP3    H251428   0.472   4.912   4.743  0.7940 -1.8612 -0.1705
10005TIP3   OH251429   0.237   2.572  11.953  0.1451  0.6037  0.1689
10005TIP3    H151430   0.272   2.560  12.041  1.1861 -1.5053 -0.4634
10005TIP3    H251431   0.268   2.659  11.927  2.0552  0.2201  0.9514
10006TIP3   OH251432   0.571   0.693   0.760 -0.5983 -0.5486 -0.1796
10006TIP3    H151433   0.574   0.731   0.673 -0.7784 -0.2905 -0.0750
10006TIP3    H251434   0.571   0.598   0.746 -0.0776 -0.5096 -0.4393
10007TIP3   OH251435   0.217   3.244  12.935  0.0033 -0.4326  0.8391
10007TIP3    H151436   0.186   3.328  12.968 -2.4561 -0.7264 -0.4467
10007TIP3    H251437   0.156   3.180  12.971 -1.0519 -1.0660 -1.8119
10008TIP3   OH251438   1.222   5.998   4.935 -0.1225  0.2069  0.0854
10008TIP3    H151439   1.288   5.946   4.890 -0.7399 -0.4075 -0.1214
10008TIP3    H251440   1.209   5.953   5.018  0.2522  0.7489  0.4456
10009TIP3   OH251441   5.452   2.771   3.375 -0.4422  0.0069 -0.4297
10009TIP3    H151442   5.424   2.744   3.287  1.4197  0.8080 -1.3218
10009TIP3    H251443   5.542   2.802   3.363  0.0436 -0.3403  1.8622
10010TIP3   OH251444   6.153   3.040   3.874  0.6358 -0.1765 -0.1546
10010TIP3    H151445   6.087   2.971   3.878  1.5666 -1.0421  0.8381
10010TIP3    H251446   6.128   3.102   3.942 -1.2284  1.4821 -2.2171
10011TIP3   OH251447   5.594   4.267   4.037 -0.3887 -0.5062 -0.0115
10011TIP3    H151448   5.620   4.315   3.959  1.4479 -0.0842  0.7975
10011TIP3    H251449   5.564   4.182   4.004  0.0545 -0.2211 -1.1920
10012TIP3   OH251450   5.091   4.360  16.356 -0.2472  0.3778 -0.0124
10012TIP3    H151451   5.025   4.357  16.426 -0.1009 -0.7889  0.0974
10012TIP3    H251452   5.059   4.298  16.290 -0.2010  1.2095 -0.8304
10013TIP3   OH251453   1.363   5.769  13.956  0.1308 -0.0936 -0.1963
10013TIP3    H151454   1.418   5.721  14.017  0.5937  1.7236  0.9053
10013TIP3    H251455   1.275   5.735  13.971  0.2428  0.2931  1.5180
10014TIP3   OH251456   1.765   3.303   4.642 -0.1737  0.4029 -0.0326
10014TIP3    H151457   1.839   3.247   4.618  0.6130  0.6576  1.6663
10014TIP3    H251458   1.801   3.364   4.707 -1.5419  1.4675 -0.2237
10015TIP3   OH251459   1.603   4.190  13.824 -0.0008  0.0719  0.4103
10015TIP3    H151460   1.582   4.278  13.855  0.5715  0.0915  0.7503
10015TIP3    H251461   1.523   4.160  13.780  0.6431  1.8226 -2.1834
10016TIP3   OH251462   6.526   0.052  16.827  0.0338  0.0203  0.2305
10016TIP3    H151463   6.480  -0.031  16.817 -0.1129  0.2619 -1.3773
10016TIP3    H251464   6.466   0.117  16.790  1.7103  0.3134 -2.1900
10017TIP3   OH251465   1.762   2.889  16.113  0.5413 -0.1109 -0.6945
10017TIP3    H151466   1.809   2.811  16.084 -1.0428 -1.1545 -0.5723
10017TIP3    H251467   1.702   2.857  16.181  0.3823  1.3524 -0.0991
10018TIP3   OH251468   4.042   4.575   4.530 -0.8281 -0.5323 -0.0179
10018TIP3    H151469   4.061   4.666   4.507 -0.0959 -0.6875 -0.0631
10018TIP3    H251470   4.035   4.576   4.625  1.5390 -0.8150  0.2176
10019TIP3   OH251471   4.653   1.025  16.564 -0.0242 -0.2442  0.1021
10019TIP3    H151472   4.731   0.995  16.518  0.6577 -0.3637  1.3037
10019TIP3    H251473   4.594   0.950  16.563  0.0395 -0.2900 -0.4380
10020TIP3   OH251474   1.282   1.023   3.930 -0.2029 -0.0183  0.3543
10020TIP3    H151475   1.211   0.971   3.969 -0.7571  2.6108  3.2655
10020TIP3    H251476   1.315   1.076   4.003  1.5986  2.2687 -1.9556
10021TIP3   OH251477   0.749   0.295   3.517 -0.1458  0.3097 -0.5609
10021TIP3    H151478   0.679   0.295   3.451 -2.0754  0.2638  1.4009
10021TIP3    H251479   0.732   0.373   3.570  0.9335 -0.0443  0.3487
10022TIP3   OH251480   2.638   0.885   4.850  0.1067 -0.6911 -0.0534
10022TIP3    H151481   2.602   0.798   4.868  2.1050 -1.7962 -1.0301
10022TIP3    H251482   2.608   0.939   4.923 -0.1059 -2.5374  1.2936
10023TIP3   OH251483   4.277   0.152  14.246 -0.0606  0.0344  0.2637
10023TIP3    H151484   4.361   0.131  14.207  0.5442  0.4422  1.3037
10023TIP3    H251485   4.242   0.222  14.191  0.7089  0.4984  0.3454
10024TIP3   OH251486   4.193   4.481   1.919 -0.0244 -0.0852  0.4108
10024TIP3    H151487   4.284   4.498   1.897 -0.8840  3.0623 -1.2195
10024TIP3    H251488   4.150   4.466   1.834 -1.7194  2.9036  0.5928
10025TIP3   OH251489   5.610   5.537   3.425 -0.5139  0.2543  0.3885
10025TIP3    H151490   5.629   5.444   3.428 -0.9784  0.1336 -0.2867
10025TIP3    H251491   5.548   5.552   3.496 -1.9501 -0.3167 -0.7094
10026TIP3   OH251492   3.697   3.537  16.606 -0.0737 -0.0165  0.0855
10026TIP3    H151493   3.728   3.485  16.680  0.1355  0.2760  0.2052
10026TIP3    H251494   3.607   3.559  16.627 -0.0756 -0.0981  0.1626
10027TIP3   OH251495   3.870   2.217  13.871 -0.1146  0.0345 -0.0999
10027TIP3    H151496   3.873   2.235  13.965  1.6195 -0.8340  0.0549
10027TIP3    H251497   3.939   2.273  13.834 -0.3273 -0.1274 -0.7577
10028TIP3   OH251498   0.834   1.698   4.174 -0.3444 -0.2625 -0.1559
10028TIP3    H151499   0.856   1.786   4.205 -1.8639  0.9446 -2.1952
10028TIP3    H251500   0.821   1.647   4.253  0.9636  1.2361  1.0887
10029TIP3   OH251501   0.690   0.541  15.934  0.1257  0.2133 -0.2303
10029TIP3    H151502   0.618   0.536  15.998  2.0975 -0.3744  2.0960
10029TIP3    H251503   0.746   0.612  15.966  0.8294  0.3757 -1.7426
10030TIP3   OH251504   1.706   5.672  10.982 -0.2456 -0.2194  0.3685
10030TIP3    H151505   1.688   5.628  10.899 -1.1901 -0.2624  0.5935
10030TIP3    H251506   1.636   5.644  11.041 -0.9737  1.6885  0.4764
10031TIP3   OH251507   2.908   3.156  11.502  0.2575 -0.1095 -0.0750
10031TIP3    H151508   2.940   3.098  11.432  0.7343 -1.1697  0.9957
10031TIP3    H251509   2.943   3.118  11.582 -0.5955  0.8858  0.7867
10032TIP3   OH251510   6.040   4.072  16.027  0.1801 -0.0997  0.0221
10032TIP3    H151511   6.088   4.004  16.073 -0.7809 -1.2439 -0.6027
10032TIP3    H251512   6.090   4.089  15.948 -0.7360 -1.7819 -0.9695
10033TIP3   OH251513   1.285   4.172  15.548  0.4805 -0.5508 -0.1577
10033TIP3    H151514   1.220   4.116  15.506  0.8726 -1.1115 -0.0323
10033TIP3    H251515   1.254   4.261  15.533 -0.2879 -0.8078 -0.1405
10034TIP3   OH251516   2.628   4.809  15.174 -0.3768 -0.2523 -0.3943
10034TIP3    H151517   2.583   4.733  15.136 -0.4816  0.4425 -1.7394
10034TIP3    H251518   2.714   4.811  15.130  1.0750 -1.5875  2.1658
10035TIP3   OH251519   4.672   2.438  13.726  0.2829 -0.4647  0.1097
10035TIP3    H151520   4.699   2.524  13.695 -0.2959 -0.4890 -0.4809
10035TIP3    H251521   4.660   2.449  13.820 -2.4028  0.8414 -0.2878
10036TIP3   OH251522   1.638   5.809  15.486 -0.2132  0.2635 -0.0128
10036TIP3    H151523   1.591   5.866  15.547  0.2821 -0.7150  1.3311
10036TIP3    H251524   1.686   5.748  15.542  0.2786 -0.6698 -1.3902
10037TIP3   OH251525   4.853   6.073  13.653 -0.5267  0.2220  0.0094
10037TIP3    H151526   4.936   6.074  13.700 -0.3037 -0.3829 -0.3586
10037TIP3    H251527   4.817   6.161  13.666  1.1255  1.2082 -1.4985
10038TIP3   OH251528   4.164   6.353  17.096 -0.0773  0.2643 -0.5739
10038TIP3    H151529   4.191   6.419  17.159 -0.5416 -0.7157  0.7104
10038TIP3    H251530   4.180   6.270  17.140  2.0804 -0.6166 -2.7444
10039TIP3   OH251531   4.784   4.070   5.482 -0.2903 -0.3344 -0.4889
10039TIP3    H151532   4.731   3.993   5.503 -0.0195 -0.3532  0.1204
10039TIP3    H251533   4.788   4.120   5.563  2.0867 -1.2030 -0.0010
10040TIP3   OH251534   0.056   5.105   4.261 -0.2579 -0.3133 -0.0665
10040TIP3    H151535   0.133   5.157   4.240 -1.6230  1.9177  0.1105
10040TIP3    H251536   0.068   5.079   4.353  0.4791 -0.4071 -0.1857
10041TIP3   OH251537   4.804   1.449   4.034 -0.0273 -0.0218  0.7441
10041TIP3    H151538   4.712   1.428   4.050  0.0942  0.8564  2.7987
10041TIP3    H251539   4.853   1.380   4.079  0.3444 -0.1539  0.1549
10042TIP3   OH251540   6.304   2.780  15.179  0.4332 -0.2617 -0.2421
10042TIP3    H151541   6.379   2.747  15.228 -0.1536  0.1958  1.0173
10042TIP3    H251542   6.335   2.863  15.143  0.4164  0.1560  0.6614
10043TIP3   OH251543   6.050   4.421   0.941  0.1721  0.0913 -0.1450
10043TIP3    H151544   6.032   4.359   0.871 -0.9699 -0.0606  0.2623
10043TIP3    H251545   6.117   4.379   0.996 -2.2049 -1.8609  1.4367
10044TIP3   OH251546   2.282   5.870  14.469 -0.0428  0.0506 -0.2846
10044TIP3    H151547   2.286   5.784  14.512  1.0633  0.0065 -0.4459
10044TIP3    H251548   2.342   5.925  14.519  0.1562  0.4020 -0.8971
10045TIP3   OH251549   0.445   5.556   1.566  0.0343  0.4324 -0.0981
10045TIP3    H151550   0.409   5.514   1.644 -1.0965 -0.1893 -0.9132
10045TIP3    H251551   0.516   5.499   1.538  1.3299  1.3562  1.1968
10046TIP3   OH251552   5.552   0.625  13.156 -0.3573 -0.4824  0.2359
10046TIP3    H151553   5.499   0.583  13.089  0.9442 -0.3077 -0.9522
10046TIP3    H251554   5.638   0.583  13.148  0.2202  0.5587  0.8046
10047TIP3   OH251555   5.551   0.247   0.287 -0.0698 -0.2606  0.3512
10047TIP3    H151556   5.473   0.204   0.319 -0.3353 -0.4190 -0.4766
10047TIP3    H251557   5.575   0.198   0.208 -0.0765  0.7683 -0.3097
10048TIP3   OH251558   5.478   3.514   0.358 -0.8717 -0.0821  0.9287
10048TIP3    H151559   5.519   3.595   0.389  0.5039 -0.1300 -0.6727
10048TIP3    H251560   5.546   3.469   0.308 -2.6318 -0.4707 -1.3064
10049TIP3   OH251561   1.695   3.741  12.820 -0.0799  0.3104 -0.1137
10049TIP3    H151562   1.710   3.736  12.915  1.6463  2.3471 -0.1983
10049TIP3    H251563   1.755   3.676  12.783  0.2784  0.5058  0.1212
10050TIP3   OH251564   3.412   5.425  15.941  0.8602 -0.2755  0.6713
10050TIP3    H151565   3.419   5.454  16.032 -0.1432 -0.8109  0.9288
10050TIP3    H251566   3.437   5.333  15.943 -4.5416 -2.0565  1.5007
10051TIP3   OH251567   0.493   4.642  15.762  0.5499 -0.3690  0.0323
10051TIP3    H151568   0.505   4.553  15.729 -0.8372  0.2361 -2.3916
10051TIP3    H251569   0.413   4.638  15.814  0.5652 -0.5801  0.0410
10052TIP3   OH251570   2.695   2.876   0.620 -0.0797 -0.1121 -0.0427
10052TIP3    H151571   2.745   2.802   0.653 -0.1487  0.4900  1.5055
10052TIP3    H251572   2.761   2.939   0.590  0.0390 -0.0691  0.3048
10053TIP3   OH251573   6.552   2.930   2.459  0.1208 -0.5425  0.1681
10053TIP3    H151574   6.521   2.861   2.400  0.1820 -0.8353  0.4765
10053TIP3    H251575   6.632   2.963   2.418 -0.3243 -0.1184 -0.3816
10054TIP3   OH251576   4.028   3.878  13.251  0.2091 -0.4433 -0.4149
10054TIP3    H151577   3.933   3.875  13.241 -0.0330  1.2103  1.0443
10054TIP3    H251578   4.053   3.966  13.222  0.7350  0.6425  2.8738
10055TIP3   OH251579   2.801   0.187   3.577 -0.3473 -0.4821 -0.4269
10055TIP3    H151580   2.713   0.189   3.539  0.1424  0.5251 -1.5874
10055TIP3    H251581   2.856   0.153   3.507  0.1371 -1.5083  0.4353
10056TIP3   OH251582   3.421   6.778  16.330  0.2925 -0.0024  0.7340
10056TIP3    H151583   3.333   6.813  16.335 -0.4972 -1.7825  0.1832
10056TIP3    H251584   3.414   6.689  16.366  1.0260 -1.5551 -2.5891
10057TIP3   OH251585   4.377   0.225  15.983  0.2592 -0.4021 -0.2145
10057TIP3    H151586   4.457   0.265  16.017  1.4738 -2.4746 -0.5123
10057TIP3    H251587   4.332   0.191  16.061 -2.0236  3.3772  0.3768
10058TIP3   OH251588   6.172   5.289  17.072 -0.0933  0.4375  0.0651
10058TIP3    H151589   6.249   5.239  17.043 -0.5741 -0.7943  0.8147
10058TIP3    H251590   6.100   5.226  17.066 -0.8859  1.3226  0.1872
10059TIP3   OH251591   2.987   4.914   5.287  0.5656 -0.4311  0.5504
10059TIP3    H151592   2.920   4.851   5.314  1.0156 -1.1082  0.1346
10059TIP3    H251593   3.008   4.889   5.197  0.7023  0.3689  0.3537
10060TIP3   OH251594   0.306   3.783  13.314 -0.3135  0.1216  0.2444
10060TIP3    H151595   0.269   3.698  13.291  0.5319 -0.2779  0.3123
10060TIP3    H251596   0.401   3.768  13.316 -0.2190  0.7807  1.3900
10061TIP3   OH251597   0.821   1.024   5.758  0.1481  0.3359 -0.2426
10061TIP3    H151598   0.838   1.118   5.771  0.1929  0.0918  1.7923
10061TIP3    H251599   0.807   0.990   5.846  0.7886 -1.7158 -0.8852
10062TIP3   OH251600   4.404   5.116  15.340  0.0823  0.2912  0.1876
10062TIP3    H151601   4.431   5.147  15.427  1.6757 -0.0479 -0.1437
10062TIP3    H251602   4.431   5.024  15.338 -1.2308 -0.1090 -0.1795
10063TIP3   OH251603   3.831   6.217  15.240  0.1597  0.6665 -0.7638
10063TIP3    H151604   3.899   6.196  15.176 -1.8009 -2.0261 -2.1957
10063TIP3    H251605   3.766   6.265  15.190  0.4577  2.2630  0.3234
10064TIP3   OH251606   3.691   2.751   3.362  0.1547  0.1480 -0.0176
10064TIP3    H151607   3.610   2.746   3.412  0.0534  0.6867 -0.1290
10064TIP3    H251608   3.747   2.683   3.400  0.2405  0.8259  1.1022
10065TIP3   OH251609   1.659   4.311  11.621 -0.0024  0.3196 -0.1919
10065TIP3    H151610   1.684   4.375  11.555  1.6876 -0.1286 -0.0363
10065TIP3    H251611   1.698   4.229  11.591 -0.2357 -0.1529  0.7431
10066TIP3   OH251612   3.595   6.385   5.077 -0.2991  0.3597  0.0625
10066TIP3    H151613   3.532   6.318   5.052  0.3838 -0.4636  0.5271
10066TIP3    H251614   3.674   6.337   5.099  2.2347  1.4717 -5.0515
10067TIP3   OH251615   2.234   3.169  14.103 -0.1046  0.2768  0.3312
10067TIP3    H151616   2.151   3.209  14.131  0.2145  1.2879 -0.1250
10067TIP3    H251617   2.272   3.134  14.183 -0.3283  1.0361  0.7784
10068TIP3   OH251618   3.420   5.288   2.928 -0.3012 -0.2462  0.0229
10068TIP3    H151619   3.378   5.254   3.007  0.3505  1.3073  1.1000
10068TIP3    H251620   3.478   5.218   2.899  0.0900 -0.5407  1.4372
10069TIP3   OH251621   1.668   3.611  11.433  0.2581 -0.5688 -0.5674
10069TIP3    H151622   1.600   3.592  11.368 -0.0799 -2.0685  0.1833
10069TIP3    H251623   1.750   3.605  11.384 -0.1136  1.8026 -1.6084
10070TIP3   OH251624   0.768   4.923  11.112 -0.2880 -0.1479 -0.3052
10070TIP3    H151625   0.783   5.015  11.090 -0.0924 -0.2097 -0.4338
10070TIP3    H251626   0.675   4.909  11.095 -0.4659  0.2000  0.3576
10071TIP3   OH251627   3.824   3.027   5.082 -0.6248  0.0266 -0.3804
10071TIP3    H151628   3.797   3.041   5.173  0.2634  0.6186 -0.2009
10071TIP3    H251629   3.913   3.060   5.078  0.9715 -3.7998 -0.3928
10072TIP3   OH251630   2.530   2.219  15.194  0.2026 -0.5221 -0.9274
10072TIP3    H151631   2.618   2.245  15.166  0.3671 -0.3053 -0.2341
10072TIP3    H251632   2.541   2.193  15.286 -0.7421  1.0417 -0.3389
10073TIP3   OH251633   4.930   2.280   0.300 -0.0409  0.4914  0.6145
10073TIP3    H151634   4.928   2.270   0.395  0.8832  0.6110  0.6593
10073TIP3    H251635   4.970   2.365   0.285  0.1229  0.3353  0.1163
10074TIP3   OH251636   5.906   1.268  12.735  0.1534  0.5864 -0.2103
10074TIP3    H151637   5.815   1.284  12.757  0.1735 -0.6043  0.8417
10074TIP3    H251638   5.944   1.355  12.722 -0.3766  1.2810  2.4805
10075TIP3   OH251639   4.471   3.961  14.648 -0.0188 -0.5152  0.5704
10075TIP3    H151640   4.478   3.944  14.742 -1.9314  0.1333  0.8772
10075TIP3    H251641   4.479   4.056  14.640  0.2962 -0.5842  0.0468
10076TIP3   OH251642   0.978   2.339   4.198  0.1984  0.8815  0.1403
10076TIP3    H151643   0.988   2.260   4.145  2.2214  1.5434 -0.5589
10076TIP3    H251644   1.013   2.316   4.284 -1.3225  0.3878  0.6729
10077TIP3   OH251645   4.231   1.937   3.992 -0.3955  0.2253 -0.3442
10077TIP3    H151646   4.324   1.947   4.015 -0.4314  1.2315 -0.5950
10077TIP3    H251647   4.196   1.881   4.061  0.3388  0.0499 -0.0960
10078TIP3   OH251648   0.766   0.716  12.844  0.5267 -0.0682 -0.2939
10078TIP3    H151649   0.855   0.744  12.868 -0.2426 -0.0921  3.2510
10078TIP3    H251650   0.767   0.621  12.860  0.0370 -0.1750 -0.9054
10079TIP3   OH251651   4.438   6.062   6.013 -1.0221 -0.1981 -0.4127
10079TIP3    H151652   4.457   6.005   5.938 -0.7830 -1.1282  0.3396
10079TIP3    H251653   4.363   6.022   6.055 -0.5522 -0.2369  0.4018
10080TIP3   OH251654   6.487   3.849   5.753  0.3269  0.3899 -0.5484
10080TIP3    H151655   6.544   3.772   5.756  0.2954  0.3792 -0.1318
10080TIP3    H251656   6.442   3.842   5.669 -0.0578 -0.3222 -0.2945
10081TIP3   OH251657   1.977   4.891   6.367  0.7180  0.1568 -0.0709
10081TIP3    H151658   2.050   4.943   6.334  0.8251 -0.8144 -1.4451
10081TIP3    H251659   2.018   4.811   6.401  0.4125  0.2572  0.5579
10082TIP3   OH251660   2.787   2.195   0.283  0.1162  0.3625  0.5557
10082TIP3    H151661   2.702   2.239   0.290 -0.8753 -1.6070  1.7850
10082TIP3    H251662   2.850   2.259   0.314 -1.1641  1.2305  1.4820
10083TIP3   OH251663   5.838   0.372  12.357 -0.0186 -0.5248  0.0627
10083TIP3    H151664   5.896   0.386  12.432 -0.7102 -0.2605  0.5623
10083TIP3    H251665   5.824   0.277  12.355 -0.5235 -0.4697  0.6816
10084TIP3   OH251666   3.053   6.693  17.210  0.2707 -0.5967  0.0471
10084TIP3    H151667   3.023   6.683  17.120  0.3269 -0.7848  0.0495
10084TIP3    H251668   3.078   6.786  17.216  0.2353 -0.5752 -0.1215
10085TIP3   OH251669   2.586   3.451   0.203  0.0417 -0.4888 -0.5250
10085TIP3    H151670   2.622   3.420   0.286 -0.9038 -0.3155 -0.0379
10085TIP3    H251671   2.507   3.398   0.191 -1.3355  1.3426  0.0671
10086TIP3   OH251672   5.659   3.182   1.348  0.1880  0.0606 -0.3023
10086TIP3    H151673   5.582   3.238   1.362 -0.1654 -0.6099  0.5111
10086TIP3    H251674   5.624   3.093   1.348  0.8957 -0.2194 -0.4694
10087TIP3   OH251675   5.391   2.815  14.873  0.5155 -0.0968  0.3029
10087TIP3    H151676   5.485   2.831  14.863  0.4466  2.0270  2.2244
10087TIP3    H251677   5.363   2.782  14.787  3.1523 -1.7499  0.0000
10088TIP3   OH251678   1.439   0.081   4.547  0.6701 -0.3466  0.0070
10088TIP3    H151679   1.521   0.035   4.562  0.3008 -1.0575 -0.1044
10088TIP3    H251680   1.464   0.163   4.505  1.2756 -0.8039 -0.5295
10089TIP3   OH251681   1.626   0.105  12.988  0.3365  0.0537  0.3379
10089TIP3    H151682   1.664   0.186  12.953 -0.8693  0.3630 -0.3219
10089TIP3    H251683   1.664   0.036  12.933 -2.2585  0.6047 -2.4010
10090TIP3   OH251684   3.847   3.511   4.108  0.5550  0.0187 -0.2708
10090TIP3    H151685   3.841   3.606   4.119  0.0039  0.1463 -1.4922
10090TIP3    H251686   3.939   3.491   4.126  0.6309  0.7597  0.1935
10091TIP3   OH251687   4.965   5.071  11.600 -0.3397  0.2175 -0.3157
10091TIP3    H151688   5.034   5.059  11.534 -0.2642 -2.2684  0.1186
10091TIP3    H251689   4.884   5.049  11.554 -0.4029 -0.5464  0.1527
10092TIP3   OH251690   2.082   1.613  14.091  0.9032  0.1390  0.5781
10092TIP3    H151691   2.102   1.529  14.131  0.8337  0.0809  0.4892
10092TIP3    H251692   2.032   1.660  14.158  0.5955 -0.0430  0.4733
10093TIP3   OH251693   0.564   4.311  13.518  0.6090 -0.0792 -0.1583
10093TIP3    H151694   0.494   4.367  13.551 -0.5700 -2.1192  0.9452
10093TIP3    H251695   0.541   4.298  13.425 -0.0074 -0.0446 -0.0181
10094TIP3   OH251696   1.141   3.961   5.450  0.4108 -0.6131  0.0819
10094TIP3    H151697   1.165   3.983   5.360 -0.4186 -0.4657 -0.1087
10094TIP3    H251698   1.087   4.034   5.480  1.0196 -0.4644  0.8489
10095TIP3   OH251699   3.588   2.298   0.326  0.4285  0.0009  0.1842
10095TIP3    H151700   3.526   2.227   0.341 -0.4146  0.6618 -0.0894
10095TIP3    H251701   3.669   2.269   0.368 -0.1770 -0.7055  0.8880
10096TIP3   OH251702   3.434   1.187   5.376 -0.2837  0.3679  0.1717
10096TIP3    H151703   3.418   1.180   5.471 -2.6216  1.2017 -0.0856
10096TIP3    H251704   3.399   1.273   5.353  0.7273  0.3909 -1.3842
10097TIP3   OH251705   2.442   4.317   4.142  0.4541  0.4923  0.2337
10097TIP3    H151706   2.390   4.396   4.131  1.9612  1.4297 -0.5511
10097TIP3    H251707   2.379   4.249   4.165 -0.8302  2.0008  1.3632
10098TIP3   OH251708   4.141   5.637   4.235 -0.1276 -0.3867 -0.3161
10098TIP3    H151709   4.139   5.586   4.316  1.0814  0.1872  0.0889
10098TIP3    H251710   4.062   5.610   4.188 -1.7433  0.4281  1.7584
10099TIP3   OH251711   3.098   0.517   4.657  0.1924  0.2604  0.6674
10099TIP3    H151712   3.025   0.558   4.612  0.9655  0.0370 -0.8614
10099TIP3    H251713   3.064   0.432   4.687  0.2376 -0.5637 -1.4793
10100TIP3   OH251714   4.364   3.559  13.152  0.1472  0.1250 -0.4883
10100TIP3    H151715   4.422   3.634  13.134  0.3796 -0.0605 -0.5118
10100TIP3    H251716   4.377   3.542  13.245 -1.7182  1.6526  0.1184
10101TIP3   OH251717   2.769   2.973   6.792 -0.4108  0.0352  0.0472
10101TIP3    H151718   2.709   3.045   6.811 -0.7761 -0.0798 -0.6357
10101TIP3    H251719   2.856   3.010   6.802 -0.5992  0.5337 -0.1530
10102TIP3   OH251720   1.524   1.500  13.922  0.0563 -0.4404  0.5299
10102TIP3    H151721   1.550   1.408  13.929  0.2168 -0.4676 -0.2827
10102TIP3    H251722   1.513   1.515  13.828 -1.5771 -0.0667  0.7362
10103TIP3   OH251723   0.299   4.353   5.833  0.1747 -0.0628 -0.1394
10103TIP3    H151724   0.238   4.420   5.862  0.7412  0.1195  0.6466
10103TIP3    H251725   0.336   4.388   5.752 -1.6952 -0.7476 -1.3707
10104TIP3   OH251726   2.577   0.062   6.252  0.5661 -0.0921  0.2125
10104TIP3    H151727   2.657   0.036   6.296  0.3256 -0.6504  0.3300
10104TIP3    H251728   2.523  -0.017   6.251  0.1186  0.2094 -0.0867
10105TIP3   OH251729   6.724   5.262  14.910  0.1566  0.1125  0.2926
10105TIP3    H151730   6.770   5.305  14.838  0.1151 -0.4978 -0.1070
10105TIP3    H251731   6.750   5.170  14.903 -0.3471 -0.0600  0.6721
10106TIP3   OH251732   4.261   3.292  14.993  0.6994 -0.3162  0.8517
10106TIP3    H151733   4.190   3.240  15.033 -0.8956  0.3041 -1.0228
10106TIP3    H251734   4.321   3.227  14.957  0.9122 -0.8496  2.1132
10107TIP3   OH251735   4.363   3.225  13.642  0.4530  0.1528 -0.4129
10107TIP3    H151736   4.428   3.167  13.683  0.5148  0.4227 -0.1308
10107TIP3    H251737   4.329   3.174  13.569  0.3584 -0.3287 -0.0415
10108TIP3   OH251738   3.674   4.282  10.891  0.0356 -0.0715  0.1792
10108TIP3    H151739   3.768   4.272  10.875 -0.0382 -0.9937  0.2832
10108TIP3    H251740   3.635   4.201  10.858 -0.7405  0.3507  0.0302
10109TIP3   OH251741   2.107   4.080   3.863 -0.0683  0.3001 -0.3509
10109TIP3    H151742   2.067   3.993   3.851 -0.5249  0.4410  0.1104
10109TIP3    H251743   2.043   4.128   3.916  0.1360  0.9512 -0.6824
10110TIP3   OH251744   4.374   1.517   0.877 -0.6967  0.6853  0.5720
10110TIP3    H151745   4.402   1.430   0.848  3.2314  2.4664 -1.8873
10110TIP3    H251746   4.404   1.522   0.968  0.0018 -0.1994  0.4130
10111TIP3   OH251747   3.447   3.105  11.498  0.0058  0.2848 -0.2962
10111TIP3    H151748   3.420   3.195  11.476  2.1314  1.6373  2.1041
10111TIP3    H251749   3.365   3.057  11.504 -1.5492  2.8684  1.4196
10112TIP3   OH251750   2.270   2.272   4.809  0.8077  0.6086  0.0725
10112TIP3    H151751   2.355   2.291   4.848  1.1770 -1.4703  0.3705
10112TIP3    H251752   2.285   2.275   4.714  1.4111 -0.5035  0.1227
10113TIP3   OH251753   0.743   2.466  12.372  0.1497 -0.3248  0.1552
10113TIP3    H151754   0.663   2.417  12.390 -0.9587  0.2042 -2.7612
10113TIP3    H251755   0.714   2.540  12.318  2.6248 -0.3423 -1.3550
10114TIP3   OH251756   4.185   2.968   5.998  0.5871  0.0714  0.2471
10114TIP3    H151757   4.207   3.061   5.986 -1.8800  0.8315  0.9453
10114TIP3    H251758   4.165   2.936   5.910 -0.0237  0.6635  0.1579
10115TIP3   OH251759   4.431   4.195  11.259  0.0507 -0.5321 -0.2653
10115TIP3    H151760   4.417   4.101  11.248  0.4107 -0.5970 -0.1785
10115TIP3    H251761   4.498   4.218  11.194  0.9608 -0.5988  0.6239
10116TIP3   OH251762   2.042   1.028   4.482 -0.3828  0.2466 -0.1542
10116TIP3    H151763   2.116   1.050   4.540  0.0485 -0.3837 -0.4576
10116TIP3    H251764   2.063   1.073   4.400 -0.2553 -0.0548 -0.2891
10117TIP3   OH251765   6.576   1.296  11.507  0.3476 -0.6246 -0.0780
10117TIP3    H151766   6.514   1.367  11.520 -1.2838 -2.4573  3.5344
10117TIP3    H251767   6.567   1.273  11.414 -0.5144  2.4780 -0.8618
10118TIP3   OH251768   6.443   3.092   1.022 -0.5244  0.4136 -0.4844
10118TIP3    H151769   6.367   3.104   0.966 -1.7224 -1.7343  0.5720
10118TIP3    H251770   6.431   3.157   1.092 -0.5481  1.1061 -1.1146
10119TIP3   OH251771   5.148   0.637   0.516  0.0270  0.4815  0.4939
10119TIP3    H151772   5.185   0.559   0.473 -0.4585 -0.4226  1.6697
10119TIP3    H251773   5.214   0.662   0.580 -0.5363  0.0195  1.2689
10120TIP3   OH251774   4.571   6.220  16.516 -0.5955 -0.3966 -0.2516
10120TIP3    H151775   4.554   6.204  16.609 -0.9783 -1.0746 -0.4284
10120TIP3    H251776   4.557   6.135  16.474 -1.0382  0.0373 -1.0083
10121TIP3   OH251777   3.942   0.437  14.725  0.3452 -0.1722 -0.2813
10121TIP3    H151778   3.864   0.393  14.760  0.2456  0.5317  0.4015
10121TIP3    H251779   4.004   0.439  14.797  1.3535 -1.4687 -1.0553
10122TIP3   OH251780   2.513   6.110   1.896 -0.5816 -1.0171  0.1420
10122TIP3    H151781   2.423   6.078   1.887 -0.2286 -1.9834 -0.0614
10122TIP3    H251782   2.563   6.034   1.927  0.5402 -1.0398 -1.5921
10123TIP3   OH251783   2.608   6.781   4.638 -0.1471 -0.4690 -0.3382
10123TIP3    H151784   2.584   6.861   4.686  1.0194  0.6148 -1.4686
10123TIP3    H251785   2.703   6.786   4.632 -0.1028 -1.7456 -0.8100
10124TIP3   OH251786   5.994   0.334   2.505 -0.2660  0.3599  0.1120
10124TIP3    H151787   5.904   0.358   2.526  0.6303  3.6449  0.6662
10124TIP3    H251788   6.028   0.296   2.587 -0.9888 -0.5333  0.0137
10125TIP3   OH251789   3.529   1.593  16.804  0.1473  0.3558 -0.2539
10125TIP3    H151790   3.609   1.549  16.833  1.1511  1.8213 -0.7062
10125TIP3    H251791   3.475   1.523  16.768  0.4879 -0.9272  1.5985
10126TIP3   OH251792   3.449   2.855  14.169 -0.2946  0.0514 -0.5926
10126TIP3    H151793   3.514   2.924  14.157 -1.5524  1.7322  1.5595
10126TIP3    H251794   3.365   2.898  14.156 -1.0745 -1.5628 -1.1583
10127TIP3   OH251795   2.044   0.294   0.888 -0.0377 -0.0238  0.0513
10127TIP3    H151796   2.070   0.244   0.811  2.9485  0.8170  0.3611
10127TIP3    H251797   2.062   0.236   0.962 -1.8225 -0.4153  0.2223
10128TIP3   OH251798   3.738   1.686  12.979 -0.4997 -0.5208 -0.3103
10128TIP3    H151799   3.733   1.624  12.906 -0.3096  0.4417 -1.1616
10128TIP3    H251800   3.704   1.768  12.942  1.8008  0.6133 -0.0310
10129TIP3   OH251801   0.783   5.603   0.260 -0.4409  0.1756 -0.0270
10129TIP3    H151802   0.761   5.544   0.189  1.1596  2.4577 -2.6208
10129TIP3    H251803   0.878   5.615   0.254 -0.3008  0.7778  2.2570
10130TIP3   OH251804   0.703   4.809  14.641 -0.2826 -0.2265  0.0233
10130TIP3    H151805   0.671   4.737  14.587  0.7086 -0.9595  0.3877
10130TIP3    H251806   0.624   4.851  14.674 -0.9488  0.3568 -2.0987
10131TIP3   OH251807   2.742   5.586  12.212  0.3575  0.2235 -0.4590
10131TIP3    H151808   2.666   5.540  12.175  0.2517 -1.0552  1.2602
10131TIP3    H251809   2.803   5.593  12.138 -0.9943  0.3882 -1.6192
10132TIP3   OH251810   1.580   6.431  14.608 -0.4397 -0.3443  0.2479
10132TIP3    H151811   1.614   6.404  14.523  0.8335 -0.3432  0.7363
10132TIP3    H251812   1.657   6.458  14.658 -1.1674 -0.2693  1.3779
10133TIP3   OH251813   0.963   0.865   2.039  0.3991  0.5606  0.3545
10133TIP3    H151814   1.021   0.790   2.023 -0.7786 -0.0821 -1.1062
10133TIP3    H251815   0.961   0.911   1.955 -1.9254  0.0307  0.0685
10134TIP3   OH251816   0.850   2.790   4.824 -0.5431  0.3954  0.3100
10134TIP3    H151817   0.766   2.831   4.843 -0.5973  0.4598 -0.0447
10134TIP3    H251818   0.828   2.698   4.807 -0.2843 -0.0393  2.1729
10135TIP3   OH251819   5.760   5.062  12.068 -0.8290 -0.3101 -0.0332
10135TIP3    H151820   5.744   5.022  12.154 -0.8473 -0.0028  0.1082
10135TIP3    H251821   5.725   5.000  12.005  2.3226 -2.3009 -0.0520
10136TIP3   OH251822   0.618   2.348   4.820  0.2664  0.0857 -0.0041
10136TIP3    H151823   0.703   2.389   4.838  0.3972 -0.4197  0.5659
10136TIP3    H251824   0.585   2.394   4.744  1.3753 -0.1586 -0.6629
10137TIP3   OH251825   4.305   4.648  15.930  0.7138 -0.2270  0.4253
10137TIP3    H151826   4.374   4.581  15.936  0.5078 -0.4130  0.8028
10137TIP3    H251827   4.257   4.639  16.013 -0.4617 -0.8685 -0.3005
10138TIP3   OH251828   3.629   3.797   2.045  0.1608  0.1816  0.4103
10138TIP3    H151829   3.696   3.758   1.989  0.8280  1.7488  0.0655
10138TIP3    H251830   3.547   3.763   2.011  0.7239 -1.7718  0.8374
10139TIP3   OH251831   6.641   3.849  15.176 -0.7151  0.4212 -0.1856
10139TIP3    H151832   6.595   3.867  15.258  0.5502  0.3010  0.5819
10139TIP3    H251833   6.663   3.936  15.141 -0.2929  0.4637  0.1771
10140TIP3   OH251834   2.655   0.158  13.098 -0.3280  0.4203  0.3511
10140TIP3    H151835   2.626   0.070  13.121 -0.0224  0.3330  0.4008
10140TIP3    H251836   2.599   0.183  13.024  0.4747 -0.3419 -0.5504
10141TIP3   OH251837   3.165   2.406  16.164  0.2111 -0.2110 -0.2562
10141TIP3    H151838   3.232   2.472  16.182  0.6807  0.0868 -2.7816
10141TIP3    H251839   3.164   2.352  16.243  1.6275  1.2705  0.8541
10142TIP3   OH251840   5.137   2.084  13.815  0.0573 -0.1682  0.2475
10142TIP3    H151841   5.156   2.089  13.721  0.0468 -0.0769  0.2497
10142TIP3    H251842   5.157   1.994  13.839 -2.6266 -1.0538 -0.4304
10143TIP3   OH251843   6.292   1.612   2.075 -0.9560  0.3400 -0.1756
10143TIP3    H151844   6.346   1.533   2.079  0.2460  1.1679  0.3654
10143TIP3    H251845   6.234   1.605   2.151 -1.7280 -0.6129 -0.8280
10144TIP3   OH251846   2.305   5.924   1.281  0.6218  0.3343 -0.3834
10144TIP3    H151847   2.267   5.871   1.211 -1.1029  0.9521  0.0513
10144TIP3    H251848   2.232   5.946   1.338  1.9450  0.0332  1.5211
10145TIP3   OH251849   3.100   1.064  13.556 -0.1084  0.3293  0.0054
10145TIP3    H151850   3.011   1.037  13.535 -0.2372  0.6537  0.1228
10145TIP3    H251851   3.089   1.144  13.607  0.1395 -0.9281  2.1412
10146TIP3   OH251852   4.617   5.669  14.603 -0.7513  0.3270  0.6335
10146TIP3    H151853   4.663   5.744  14.566 -0.3858  0.3209  1.0644
10146TIP3    H251854   4.540   5.658  14.548 -0.2554  0.3668 -0.0781
10147TIP3   OH251855   3.849   3.169  10.824  0.4106  0.4358 -0.2893
10147TIP3    H151856   3.858   3.259  10.793  0.4465  0.6028  0.1978
10147TIP3    H251857   3.760   3.164  10.858 -0.1685 -0.1923 -1.8166
10148TIP3   OH251858   0.004   3.733   5.146  0.0066 -0.2330  0.4763
10148TIP3    H151859   0.094   3.758   5.122 -0.5198  0.4404 -0.9224
10148TIP3    H251860  -0.003   3.641   5.121  0.0678 -0.0627 -0.1991
10149TIP3   OH251861   6.751   4.056   5.179 -0.0994 -0.2569 -0.0972
10149TIP3    H151862   6.774   4.102   5.260 -0.0262 -1.9504  0.8845
10149TIP3    H251863   6.835   4.033   5.140 -0.1018 -1.5115  0.5916
10150TIP3   OH251864   1.405   2.248   5.223 -0.3201  0.1491  0.1777
10150TIP3    H151865   1.375   2.297   5.146 -1.4532 -0.0248  0.4884
10150TIP3    H251866   1.366   2.161   5.213  0.7831 -0.3672  0.1852
10151TIP3   OH251867   0.539   3.600  13.667  0.4779 -0.1080 -0.1006
10151TIP3    H151868   0.624   3.606  13.711  0.6858  0.2013 -0.5446
10151TIP3    H251869   0.508   3.690  13.663  0.4218 -0.1444 -0.5092
10152TIP3   OH251870   4.544   4.367  12.910  0.2031  0.7927 -0.3424
10152TIP3    H151871   4.469   4.416  12.876  0.0124  0.8775  0.2040
10152TIP3    H251872   4.595   4.431  12.959  0.6576  0.7421 -0.7380
10153TIP3   OH251873   3.372   5.010  16.492 -0.4378 -0.2654  0.5986
10153TIP3    H151874   3.418   5.055  16.563 -0.4432  0.0439  0.4072
10153TIP3    H251875   3.279   5.024  16.510 -0.4320  0.3440  0.1972
10154TIP3   OH251876   6.108   3.574  13.829 -0.5287 -0.1646 -0.1501
10154TIP3    H151877   6.099   3.538  13.917  0.7410  1.7385  0.8181
10154TIP3    H251878   6.017   3.589  13.801 -0.9606 -1.0955  0.6732
10155TIP3   OH251879   6.433   2.088   3.803 -0.5581 -0.0968  0.5052
10155TIP3    H151880   6.481   2.005   3.794  2.1443  1.2742  1.3464
10155TIP3    H251881   6.368   2.071   3.871 -1.0380 -1.9013 -0.3403
10156TIP3   OH251882   3.127   4.892   4.258  0.7242 -0.3262  0.5027
10156TIP3    H151883   3.209   4.942   4.255  0.3946  0.2055  0.1307
10156TIP3    H251884   3.097   4.890   4.167 -0.0912  0.1903  0.7521
10157TIP3   OH251885   0.676   1.717  15.554  0.4463 -0.2377  0.2999
10157TIP3    H151886   0.657   1.782  15.486 -1.0518 -0.1552  0.7612
10157TIP3    H251887   0.622   1.641  15.530  0.0974 -0.2968  1.2530
10158TIP3   OH251888   2.411   6.308  11.481  0.7370  0.5786  0.2276
10158TIP3    H151889   2.346   6.336  11.417 -1.1110  0.5401  2.0136
10158TIP3    H251890   2.391   6.216  11.497 -0.0898  1.0501  2.2182
10159TIP3   OH251891   1.335   2.055  13.044 -0.3066  0.4787 -0.0581
10159TIP3    H151892   1.371   2.091  12.962 -1.2847 -1.7982 -1.6079
10159TIP3    H251893   1.252   2.015  13.018  0.6875 -2.8776  1.3774
10160TIP3   OH251894   1.572   5.623  15.259 -0.0808 -0.2355 -0.0574
10160TIP3    H151895   1.638   5.603  15.193  0.4566  1.2408  0.0081
10160TIP3    H251896   1.617   5.678  15.322 -1.3917  0.9048 -0.0689
10161TIP3   OH251897   2.872   2.041   4.135 -0.2964  0.8645 -0.0145
10161TIP3    H151898   2.939   1.988   4.093  0.6141  0.1245  2.2228
10161TIP3    H251899   2.853   2.110   4.072  1.3372  0.1291 -1.3901
10162TIP3   OH251900   4.632   1.362  12.144 -0.1884  0.3567 -0.4057
10162TIP3    H151901   4.597   1.451  12.145  1.3358  1.0404  2.5701
10162TIP3    H251902   4.595   1.321  12.223  0.0467 -1.3023 -1.1102
10163TIP3   OH251903   0.427   0.705  12.854 -0.6721 -0.0223 -0.4205
10163TIP3    H151904   0.432   0.787  12.804  0.8124 -0.2106 -0.6212
10163TIP3    H251905   0.466   0.727  12.939 -2.0275 -0.0374  0.2296
10164TIP3   OH251906   1.247   5.910  16.025  0.0608 -0.4959  0.0770
10164TIP3    H151907   1.260   6.002  16.003  0.7773 -0.9416 -1.5572
10164TIP3    H251908   1.156   5.892  16.002  0.6426 -0.8161 -2.3672
10165TIP3   OH251909   5.173   4.751   3.202  0.2176 -0.0533  0.1175
10165TIP3    H151910   5.198   4.661   3.227  0.3908 -0.0696 -0.1073
10165TIP3    H251911   5.201   4.805   3.276 -1.2184 -0.3577  0.9169
10166TIP3   OH251912   6.556   4.663   4.777 -0.2038 -0.1314  0.4564
10166TIP3    H151913   6.601   4.719   4.841 -1.5313  0.0769  1.2462
10166TIP3    H251914   6.479   4.631   4.824 -0.1501 -1.6105 -0.4077
10167TIP3   OH251915   2.874   0.552  11.035 -0.0492 -0.6345 -0.1370
10167TIP3    H151916   2.899   0.498  11.111 -1.8913 -0.3217  0.7448
10167TIP3    H251917   2.793   0.512  11.004 -1.5351  1.6207  0.6146
10168TIP3   OH251918   0.285   6.337   2.823 -0.3815 -0.6412 -0.0246
10168TIP3    H151919   0.229   6.304   2.894  0.9236  0.0733  1.3872
10168TIP3    H251920   0.315   6.258   2.778  1.2325 -1.3665  2.1658
10169TIP3   OH251921   6.562   0.720   3.112 -0.3261 -0.1747 -0.0861
10169TIP3    H151922   6.591   0.660   3.042  1.4893  0.5984 -0.0346
10169TIP3    H251923   6.518   0.791   3.065  0.5125  0.1296 -0.4316
10170TIP3   OH251924   4.650   5.842   0.757 -0.3023  0.5306  0.1205
10170TIP3    H151925   4.689   5.772   0.809 -0.1291 -1.6036 -2.6664
10170TIP3    H251926   4.671   5.922   0.805  3.3655 -0.9183  1.2208
10171TIP3   OH251927   6.777   1.185  10.372  0.2983  0.3882 -0.3511
10171TIP3    H151928   6.724   1.254  10.410  0.6955  0.7812 -0.5033
10171TIP3    H251929   6.715   1.114  10.355  0.2752 -0.2342  1.9930
10172TIP3   OH251930   0.592   0.765  16.450 -0.3199  0.1394 -0.0252
10172TIP3    H151931   0.641   0.832  16.497 -1.2607  2.5121 -2.1566
10172TIP3    H251932   0.501   0.781  16.474 -0.4975 -0.8572 -0.0110
10173TIP3   OH251933   2.214   1.463   4.049  0.5609 -0.0207  0.0108
10173TIP3    H151934   2.268   1.498   4.120  0.5381  2.2391 -1.0052
10173TIP3    H251935   2.222   1.527   3.978 -1.8802 -0.5964 -0.9028
10174TIP3   OH251936   1.448   1.426  12.952  0.5622  0.2888 -0.4243
10174TIP3    H151937   1.462   1.507  12.902  0.7117  1.8043  1.9248
10174TIP3    H251938   1.497   1.440  13.033  1.6320 -2.7202 -0.4406
10175TIP3   OH251939   1.681   4.523  12.739 -0.7434 -0.0589  0.3199
10175TIP3    H151940   1.710   4.488  12.655 -2.6115 -0.7265 -0.1046
10175TIP3    H251941   1.746   4.491  12.802 -1.6617 -3.3997 -0.2125
10176TIP3   OH251942   3.039   3.160   1.877  0.0354  0.4446 -0.1024
10176TIP3    H151943   3.129   3.162   1.844 -0.0135 -0.6300 -0.3365
10176TIP3    H251944   3.029   3.072   1.912 -0.6923  0.8072  0.6111
10177TIP3   OH251945   0.928   0.592  11.912  0.0021 -0.0855  0.9225
10177TIP3    H151946   0.838   0.604  11.883 -0.0858 -0.4683  1.0180
10177TIP3    H251947   0.934   0.498  11.931  0.8064 -0.3146 -0.3505
10178TIP3   OH251948   6.353   1.633   4.514  0.5491 -0.3614  0.5467
10178TIP3    H151949   6.420   1.637   4.446 -2.2545 -1.4870 -2.5317
10178TIP3    H251950   6.340   1.540   4.531 -1.2913 -0.2743 -0.1428
10179TIP3   OH251951   3.475   3.483  16.893  0.1926 -0.0433 -0.1980
10179TIP3    H151952   3.443   3.549  16.832  0.6372  0.4071  0.0531
10179TIP3    H251953   3.444   3.512  16.978  1.0291  0.2527  0.0120
10180TIP3   OH251954   5.584   6.521  17.120 -0.3223  0.1491 -0.0144
10180TIP3    H151955   5.611   6.509  17.211  0.0637  1.0514  0.0082
10180TIP3    H251956   5.637   6.458  17.071 -1.1788 -0.9758  0.4670
10181TIP3   OH251957   4.176   5.494  11.989  0.8592 -0.7319 -0.8634
10181TIP3    H151958   4.120   5.496  11.911 -0.8454  1.8767  0.2612
10181TIP3    H251959   4.129   5.439  12.051  0.4160 -0.0014 -0.5359
10182TIP3   OH251960   6.329   3.219   3.428  0.3694  0.0405  0.3364
10182TIP3    H151961   6.302   3.154   3.493  1.3428  0.0589  0.7687
10182TIP3    H251962   6.306   3.303   3.468 -0.6851 -0.0080 -0.1284
10183TIP3   OH251963   5.695   3.795   2.934 -0.1894  0.1681  0.2395
10183TIP3    H151964   5.690   3.748   3.018 -2.7474 -0.0003  0.0695
10183TIP3    H251965   5.676   3.886   2.956  0.3574  0.3520 -0.0227
10184TIP3   OH251966   3.719   0.115  13.372  0.8963 -0.3545 -0.1799
10184TIP3    H151967   3.687   0.044  13.427  0.6984  0.1516  0.3692
10184TIP3    H251968   3.650   0.181  13.375  0.6062 -0.5569 -1.5268
10185TIP3   OH251969   6.105   6.048   4.564  0.2601  0.0135 -0.2341
10185TIP3    H151970   6.165   5.978   4.588  1.0397  1.3499  1.9703
10185TIP3    H251971   6.023   6.003   4.541  1.3254 -1.6807 -0.8867
10186TIP3   OH251972   2.949   3.302  15.944  0.3904  0.1158 -0.1852
10186TIP3    H151973   2.926   3.216  15.910 -0.0686 -0.2651  1.0339
10186TIP3    H251974   2.904   3.307  16.028  0.8358  1.3415 -0.0045
10187TIP3   OH251975   0.569   2.356  14.867 -0.3627 -0.2931 -0.1808
10187TIP3    H151976   0.544   2.436  14.822  1.0765  0.1374 -0.2655
10187TIP3    H251977   0.603   2.385  14.952  0.4300 -0.7662 -0.3204
10188TIP3   OH251978   0.200   6.116  14.387 -0.0482 -0.6769  0.2749
10188TIP3    H151979   0.180   6.126  14.294 -2.0294  1.4169  0.8267
10188TIP3    H251980   0.178   6.025  14.407 -2.9743 -0.2776 -0.6357
10189TIP3   OH251981   4.684   2.179  16.125 -0.0189 -0.0540  0.3746
10189TIP3    H151982   4.732   2.252  16.085  0.4740 -1.2809 -1.4184
10189TIP3    H251983   4.699   2.189  16.219 -1.3626  3.0941  0.3873
10190TIP3   OH251984   1.564   1.689   0.170  0.0456 -0.0347  0.2195
10190TIP3    H151985   1.558   1.743   0.249  0.1582  1.1689 -0.5728
10190TIP3    H251986   1.644   1.719   0.127  0.5779 -1.4385  0.1790
10191TIP3   OH251987   4.250   5.003  12.453  0.1572  0.3581  0.1647
10191TIP3    H151988   4.275   4.915  12.480  0.3103  0.7426  1.2984
10191TIP3    H251989   4.235   4.996  12.358  0.4043 -0.8218  0.2083
10192TIP3   OH251990   0.107   6.687  11.781 -0.1038  0.0468 -0.1113
10192TIP3    H151991   0.040   6.656  11.721 -0.0693 -0.0825 -0.0834
10192TIP3    H251992   0.087   6.645  11.864  0.0846 -0.0904 -0.1347
10193TIP3   OH251993   5.540   4.637   1.749  0.6886 -0.5987  1.0084
10193TIP3    H151994   5.472   4.593   1.800  0.7415  0.1573  1.7565
10193TIP3    H251995   5.606   4.662   1.814  0.4415  0.9919  0.6877
10194TIP3   OH251996   0.959   3.765  11.807  0.2594 -0.1375  0.0856
10194TIP3    H151997   0.903   3.818  11.751  0.7313  1.5514  1.1287
10194TIP3    H251998   1.036   3.746  11.753 -0.7812 -1.5554 -0.9815
10195TIP3   OH251999   6.322   5.641  11.835 -0.1418 -1.0433 -0.0678
10195TIP3    H152000   6.247   5.610  11.886  0.3381 -1.6927  0.2621
10195TIP3    H252001   6.391   5.654  11.900  0.3444 -1.4546 -0.4970
10196TIP3   OH252002   1.252   3.028  15.686 -0.0936  0.0095 -0.0313
10196TIP3    H152003   1.227   2.973  15.759 -0.9086 -0.7731 -0.8726
10196TIP3    H252004   1.213   3.113  15.704 -1.7006 -0.6388 -0.3424
10197TIP3   OH252005   0.613   2.262   2.867  0.2585  0.1860 -0.2964
10197TIP3    H152006   0.678   2.202   2.905 -0.7229 -2.0207 -1.9087
10197TIP3    H252007   0.529   2.221   2.887 -0.5396  1.7802 -0.2877
10198TIP3   OH252008   3.049   4.288   1.502 -0.3799  0.4822 -0.5715
10198TIP3    H152009   3.131   4.319   1.540 -0.1719 -1.3200  0.6185
10198TIP3    H252010   3.076   4.231   1.430 -0.5766  0.1801 -0.4126
10199TIP3   OH252011   0.836   2.172   3.043  0.1273  0.0713 -0.5882
10199TIP3    H152012   0.908   2.214   2.996 -0.8150  1.6979 -0.6727
10199TIP3    H252013   0.877   2.132   3.119  1.2252  0.2860 -1.0465
10200TIP3   OH252014   1.740   6.045   0.669  0.9217 -0.2708  0.0091
10200TIP3    H152015   1.825   6.021   0.633  0.2882  0.0492 -1.7899
10200TIP3    H252016   1.757   6.062   0.762  3.0018  0.7539 -0.5141
10201TIP3   OH252017   0.313   2.619  13.951 -0.0127 -0.1029 -0.0269
10201TIP3    H152018   0.314   2.550  14.018  1.6403  2.1569  2.5166
10201TIP3    H252019   0.391   2.601  13.898  0.9593  0.2486  1.2142
10202TIP3   OH252020   6.764   0.679  16.800 -0.0415 -0.2239 -0.1912
10202TIP3    H152021   6.781   0.608  16.738  0.0537 -0.6909  0.3551
10202TIP3    H252022   6.675   0.663  16.830 -0.0729 -0.0249 -0.1786
10203TIP3   OH252023   2.316   1.951   3.216 -0.0093  0.5217 -0.0374
10203TIP3    H152024   2.225   1.978   3.209  0.5028  2.0396 -1.6842
10203TIP3    H252025   2.359   2.022   3.263  0.7267  0.9875 -1.3585
10204TIP3   OH252026   6.008   3.983   0.386 -0.5500 -0.0378  0.1162
10204TIP3    H152027   6.085   4.026   0.349 -0.5925  0.2459  0.3608
10204TIP3    H252028   6.041   3.901   0.423 -0.4097 -0.0394 -0.0144
10205TIP3   OH252029   1.195   6.365   0.379 -0.4597  0.3297 -0.7946
10205TIP3    H152030   1.276   6.379   0.428 -1.9477  1.0231  1.6248
10205TIP3    H252031   1.186   6.445   0.326  0.3725  0.2743 -1.0453
10206TIP3   OH252032   2.727   4.157   1.873 -0.4131 -0.5260  0.3389
10206TIP3    H152033   2.680   4.095   1.818  1.0672 -0.7311 -0.7375
10206TIP3    H252034   2.814   4.165   1.833  0.1822  0.5282  1.7400
10207TIP3   OH252035   6.516   0.225  11.373  0.1791 -0.0036  0.2978
10207TIP3    H152036   6.594   0.219  11.428  0.5410 -2.3673 -0.3688
10207TIP3    H252037   6.548   0.259  11.290  0.3117  0.0276  0.3603
10208TIP3   OH252038   3.011   6.344   0.406  0.3012  0.0216 -0.3104
10208TIP3    H152039   3.105   6.347   0.422  0.2425 -0.8205  0.2722
10208TIP3    H252040   2.991   6.427   0.364  1.4551 -0.1592 -1.2658
10209TIP3   OH252041   2.067   5.863   3.568 -0.2503  0.0204 -0.4266
10209TIP3    H152042   2.005   5.935   3.555 -0.5529  0.1791  1.6149
10209TIP3    H252043   2.150   5.896   3.534 -0.5774  1.0156 -0.2830
10210TIP3   OH252044   5.530   5.988   5.415  0.4115 -0.1808 -0.8475
10210TIP3    H152045   5.611   5.950   5.448 -0.7780 -1.9211  0.2065
10210TIP3    H252046   5.494   5.921   5.356 -1.1711 -0.2575  0.1599
10211TIP3   OH252047   0.478   2.344   5.668  0.2304 -0.0973  0.4390
10211TIP3    H152048   0.384   2.329   5.656 -0.2457  0.8199  2.6429
10211TIP3    H252049   0.507   2.381   5.585 -1.9597  2.2633  0.5940
10212TIP3   OH252050   2.907   5.062  11.589  0.3635  0.2782  0.5227
10212TIP3    H152051   2.829   5.086  11.538 -0.6723 -0.7461  1.5493
10212TIP3    H252052   2.872   5.013  11.663  1.8493  1.4188  2.0345
10213TIP3   OH252053   5.894   1.272   3.413 -0.1487  0.4072  0.0727
10213TIP3    H152054   5.979   1.261   3.456  0.1055  0.3529 -0.4325
10213TIP3    H252055   5.915   1.320   3.333 -0.5408  0.0407 -0.2513
10214TIP3   OH252056   6.507   5.680   4.167 -0.1385 -0.0970  0.2660
10214TIP3    H152057   6.435   5.702   4.108 -1.6488 -0.6773  1.7948
10214TIP3    H252058   6.548   5.764   4.187  0.3973  0.1060 -1.5451
10215TIP3   OH252059   3.627   2.847   1.374 -0.4984 -0.2069 -0.2454
10215TIP3    H152060   3.715   2.869   1.405 -1.2528  0.1221  1.7698
10215TIP3    H252061   3.599   2.924   1.324  0.2075 -0.1675 -0.5888
10216TIP3   OH252062   2.098   1.663   1.894 -0.5023 -0.2430  0.0754
10216TIP3    H152063   2.065   1.714   1.820  0.8073 -0.3557 -0.6217
10216TIP3    H252064   2.049   1.696   1.969 -0.0328  1.7264 -0.4245
10217TIP3   OH252065   4.435   4.584   1.816 -0.1006 -0.2136  0.4721
10217TIP3    H152066   4.499   4.593   1.887 -1.4161  0.7696  1.6085
10217TIP3    H252067   4.403   4.673   1.802 -1.5796 -0.7419  0.3120
10218TIP3   OH252068   5.683   3.051   5.282 -0.2722 -1.0115  0.6321
10218TIP3    H152069   5.594   3.017   5.286 -1.8984  2.6355 -0.1037
10218TIP3    H252070   5.701   3.083   5.370 -1.1938  1.3345  0.0504
10219TIP3   OH252071   3.646   2.667  11.239  0.2376 -0.7753  0.3926
10219TIP3    H152072   3.566   2.720  11.248  0.9523  0.2074  1.1166
10219TIP3    H252073   3.650   2.647  11.146  0.0635  0.6493  0.0549
10220TIP3   OH252074   4.394   6.391  14.717 -0.2497  0.2727 -0.3137
10220TIP3    H152075   4.440   6.465  14.679 -1.3092  0.1109 -2.0658
10220TIP3    H252076   4.369   6.419  14.805  2.3797  0.6519  0.3877
10221TIP3   OH252077   5.898   2.865  15.965  0.1997  0.0347 -0.0433
10221TIP3    H152078   5.877   2.775  15.940  0.7433 -0.0002 -0.3718
10221TIP3    H252079   5.954   2.856  16.042 -1.1661  0.1351  0.9977
10222TIP3   OH252080   6.143   6.558  13.768 -0.2641  0.1536 -0.0502
10222TIP3    H152081   6.192   6.617  13.711 -0.8841  0.1290 -0.6336
10222TIP3    H252082   6.108   6.614  13.837 -2.1530  0.7930 -1.4522
10223TIP3   OH252083   2.645   2.140   1.468  0.3449  0.1044  0.0554
10223TIP3    H152084   2.552   2.121   1.480  0.0021 -2.7582 -4.7031
10223TIP3    H252085   2.689   2.094   1.540 -1.7512 -0.6696  0.9055
10224TIP3   OH252086   6.138   0.588  11.024 -0.3154 -0.6958 -0.5117
10224TIP3    H152087   6.108   0.676  11.047 -0.1200 -0.7896  0.1189
10224TIP3    H252088   6.066   0.531  11.051 -0.2433 -0.7741 -0.4872
10225TIP3   OH252089   0.503   5.007  11.411  0.4724 -0.2461 -0.1979
10225TIP3    H152090   0.426   4.972  11.456 -1.2215  2.4864 -0.7191
10225TIP3    H252091   0.497   4.973  11.322  0.0132 -0.2547 -0.1665
10226TIP3   OH252092   6.629   5.328   1.936 -0.2087 -0.1387  0.6888
10226TIP3    H152093   6.600   5.238   1.951 -0.8736  0.1315  1.1078
10226TIP3    H252094   6.585   5.378   2.005  0.3894  0.4620  0.6371
10227TIP3   OH252095   5.475   1.261   0.522  0.1305  0.3525  0.4562
10227TIP3    H152096   5.485   1.252   0.427 -1.7992  1.7275  0.0649
10227TIP3    H252097   5.426   1.182   0.547 -1.0993  0.9315 -0.0437
10228TIP3   OH252098   0.565   2.123   3.419 -0.3502 -0.2684 -0.1171
10228TIP3    H152099   0.507   2.196   3.442  0.2264  0.3562 -0.5962
10228TIP3    H252100   0.576   2.075   3.501 -1.6674 -0.4986 -0.0487
10229TIP3   OH252101   3.537   4.351  16.354  0.2439 -0.0689 -0.7612
10229TIP3    H152102   3.552   4.278  16.294 -2.1349 -0.6667 -0.7338
10229TIP3    H252103   3.506   4.311  16.435 -1.6397  0.9307 -0.9222
10230TIP3   OH252104   5.645   3.707  15.004  0.7217 -0.4760 -0.0586
10230TIP3    H152105   5.550   3.697  15.006  0.6278  0.3133  1.3509
10230TIP3    H252106   5.672   3.671  14.920 -0.7782 -1.0906 -0.3053
10231TIP3   OH252107   4.362   6.260  14.020  0.5334  0.3268 -0.4829
10231TIP3    H152108   4.343   6.218  14.104  1.7480 -0.2382 -0.4665
10231TIP3    H252109   4.286   6.315  14.003 -0.2189 -0.3809  0.4589
10232TIP3   OH252110   5.946   0.595   1.926 -0.0988  0.2932 -0.2210
10232TIP3    H152111   5.998   0.539   1.868 -0.3628  0.2358 -0.4066
10232TIP3    H252112   5.996   0.676   1.933  1.6036 -0.8393  2.1078
10233TIP3   OH252113   3.182   6.605  14.845 -0.3108 -0.4697  0.1522
10233TIP3    H152114   3.215   6.648  14.766  0.6587 -1.1244  0.1941
10233TIP3    H252115   3.155   6.677  14.902 -0.9489  0.0098 -0.7378
10234TIP3   OH252116   3.390   3.213   1.340 -0.3151  0.0752  0.1849
10234TIP3    H152117   3.446   3.135   1.334 -0.8706 -0.2453 -1.0935
10234TIP3    H252118   3.451   3.284   1.359  0.1822 -0.6822  1.5955
10235TIP3   OH252119   0.928   4.141  11.438  0.3307  0.2922  0.3434
10235TIP3    H152120   0.968   4.128  11.352 -2.0510 -0.5363 -0.7118
10235TIP3    H252121   0.949   4.232  11.460  1.8564  0.2073 -0.5875
10236TIP3   OH252122   5.459   4.620   2.022  0.2720  0.6123  0.0005
10236TIP3    H152123   5.364   4.621   2.032  0.2777 -1.7921  0.7787
10236TIP3    H252124   5.492   4.663   2.101 -0.1368  0.0689  0.4730
10237TIP3   OH252125   6.179   1.056  16.599 -0.3597  0.0059  0.3487
10237TIP3    H152126   6.185   1.121  16.669  0.6630  1.1729 -0.7936
10237TIP3    H252127   6.088   1.062  16.568  0.0815  1.9096 -0.6696
10238TIP3   OH252128   5.543   6.197   3.875 -0.4574  0.1418 -0.2564
10238TIP3    H152129   5.600   6.124   3.898 -0.2613  0.4873  0.3672
10238TIP3    H252130   5.522   6.183   3.783  1.2023  0.3947 -0.7005
10239TIP3   OH252131   3.284   2.409  12.679 -0.7190  0.0059  0.3841
10239TIP3    H152132   3.339   2.342  12.638  1.0378  1.0666  0.8916
10239TIP3    H252133   3.288   2.484  12.618 -1.1561  0.2954  0.7038
10240TIP3   OH252134   5.993   1.523   1.005  0.1064 -0.5018 -0.1857
10240TIP3    H152135   5.900   1.502   0.997  0.0838  0.0426 -1.6837
10240TIP3    H252136   6.001   1.611   0.967  0.5201  1.4678  3.9148
10241TIP3   OH252137   3.943   4.910   5.231 -0.6993 -0.0327 -0.6321
10241TIP3    H152138   3.872   4.971   5.210 -1.4284 -0.3329  0.8432
10241TIP3    H252139   3.900   4.824   5.233 -0.0713 -0.3533 -0.7759
10242TIP3   OH252140   5.823   2.916  11.580  0.1169  0.0468  0.2418
10242TIP3    H152141   5.906   2.887  11.618  0.1506 -0.1650  0.0068
10242TIP3    H252142   5.757   2.888  11.643 -0.0182 -2.0634 -0.7583
10243TIP3   OH252143   0.757   6.661   0.053  0.4967 -0.0887 -0.1420
10243TIP3    H152144   0.751   6.569   0.076  1.9320 -0.0529  0.4512
10243TIP3    H252145   0.825   6.696   0.110  1.1213  0.9752 -1.4907
10244TIP3   OH252146   2.531   2.075   4.424 -0.2025 -0.0928 -0.1472
10244TIP3    H152147   2.555   2.106   4.512 -1.5549 -1.5082  0.7652
10244TIP3    H252148   2.470   2.142   4.392  1.3024  1.1196 -0.5963
10245TIP3   OH252149   4.168   1.702   5.508  0.3489  0.8836 -0.1852
10245TIP3    H152150   4.166   1.681   5.414 -0.4477  0.7674 -0.1539
10245TIP3    H252151   4.188   1.619   5.551  0.5891  0.9101 -0.2473
10246TIP3   OH252152   6.127   5.040  11.538 -0.5559  0.2060 -0.0505
10246TIP3    H152153   6.078   5.078  11.611  0.8471  0.3043  0.9008
10246TIP3    H252154   6.168   5.116  11.495  1.5785 -0.0489  1.3472
10247TIP3   OH252155   3.462   6.682   1.603 -0.1216  0.2231 -0.6611
10247TIP3    H152156   3.532   6.630   1.565 -1.4626 -2.3760  0.1314
10247TIP3    H252157   3.417   6.721   1.528  1.2447  0.6883 -1.2537
10248TIP3   OH252158   0.548   0.764   2.752  0.8207 -0.9131  0.3924
10248TIP3    H152159   0.455   0.756   2.771  0.9870 -2.5987  0.6130
10248TIP3    H252160   0.552   0.828   2.680 -0.3142  0.6492  1.6274
10249TIP3   OH252161   0.160   4.243  12.972  0.0841  0.0524  0.4714
10249TIP3    H152162   0.211   4.278  13.045 -2.7614  0.5310  2.4006
10249TIP3    H252163   0.142   4.318  12.917  1.0211 -0.0403  0.0139
10250TIP3   OH252164   5.362   5.338   0.549  0.0745  0.1921  0.2129
10250TIP3    H152165   5.381   5.390   0.627  2.0589  0.1036 -0.1720
10250TIP3    H252166   5.434   5.357   0.489  0.6313 -2.5973 -0.1397
10251TIP3   OH252167   4.702   1.222  15.908  0.5257  0.0907  0.8371
10251TIP3    H152168   4.717   1.267  15.991 -0.4156 -0.3842  1.2734
10251TIP3    H252169   4.783   1.237  15.858  1.6438 -0.7017  2.3176
10252TIP3   OH252170   1.562   1.029   6.550 -0.6653  0.3524  0.2571
10252TIP3    H152171   1.584   1.112   6.592 -0.0110 -0.7139  2.1601
10252TIP3    H252172   1.594   0.962   6.611 -0.4236 -1.3195 -1.5894
10253TIP3   OH252173   4.582   1.438  14.705 -0.1478  0.4864  0.1399
10253TIP3    H152174   4.522   1.423  14.778 -0.5031  0.3350 -0.1875
10253TIP3    H252175   4.669   1.424  14.743 -0.2471  1.6825  0.8647
10254TIP3   OH252176   3.169   5.795   4.869  0.4921 -0.8886  0.0702
10254TIP3    H152177   3.082   5.801   4.831  0.6517  0.2676 -0.1278
10254TIP3    H252178   3.154   5.768   4.960 -0.1530  0.4351  0.3737
10255TIP3   OH252179   5.775   3.024   2.702 -0.0537 -0.3229 -0.5241
10255TIP3    H152180   5.855   3.075   2.719 -0.4786 -0.1253  1.0294
10255TIP3    H252181   5.731   3.020   2.787 -0.7211 -2.1216 -0.9176
10256TIP3   OH252182   3.133   5.182   3.168  0.3115  0.3395 -0.0380
10256TIP3    H152183   3.201   5.248   3.180  0.9156 -0.4740  1.2196
10256TIP3    H252184   3.095   5.170   3.255 -1.3563  0.6688 -0.6900
10257TIP3   OH252185   0.209   5.493  11.178  0.5113  0.1336  0.1471
10257TIP3    H152186   0.252   5.508  11.093 -0.5214  0.1193 -0.3913
10257TIP3    H252187   0.277   5.454  11.233  0.9578 -0.6813 -0.9468
10258TIP3   OH252188   6.031   5.579   2.498 -0.0834 -0.3316  0.5108
10258TIP3    H152189   6.057   5.593   2.589 -0.1633  1.5666  0.2803
10258TIP3    H252190   6.105   5.614   2.447  0.7916 -2.9889 -0.2202
10259TIP3   OH252191   3.095   0.166   0.698  0.1175  0.3623 -0.9642
10259TIP3    H152192   3.114   0.234   0.763 -0.5928 -1.6417  1.4834
10259TIP3    H252193   3.159   0.181   0.628  1.7853  1.8543  0.7745
10260TIP3   OH252194   1.754   3.452   3.216  0.4406  0.4108  0.7339
10260TIP3    H152195   1.766   3.484   3.127  0.7678 -1.7101 -0.0336
10260TIP3    H252196   1.833   3.402   3.235  1.7773  3.2402  3.4102
10261TIP3   OH252197   1.080   4.603   4.073 -0.6863 -0.0150 -0.2456
10261TIP3    H152198   1.006   4.543   4.066  0.4801 -1.7105  1.2111
10261TIP3    H252199   1.099   4.608   4.166  0.5159  1.0446 -0.5107
10262TIP3   OH252200   4.317   3.776   6.863  0.1280  0.4319 -0.3737
10262TIP3    H152201   4.410   3.799   6.868 -0.3478  2.8150 -1.4457
10262TIP3    H252202   4.294   3.788   6.771 -1.5336  1.0730  0.0939
10263TIP3   OH252203   4.915   5.476  15.945 -0.5945 -0.5955  0.4077
10263TIP3    H152204   4.994   5.519  15.912 -1.5863  2.0075  1.1295
10263TIP3    H252205   4.932   5.465  16.039 -1.1985  0.3107  0.6320
10264TIP3   OH252206   0.275   5.338  14.783  0.1219 -0.3547  0.3804
10264TIP3    H152207   0.345   5.297  14.833  0.8799 -0.4226 -0.6974
10264TIP3    H252208   0.241   5.268  14.728 -2.0197 -0.7824  2.1186
10265TIP3   OH252209   5.771   2.936   2.970  0.3987 -0.2915  0.7035
10265TIP3    H152210   5.790   2.965   3.059  2.3821  1.3909 -0.1864
10265TIP3    H252211   5.846   2.880   2.947  1.3568  1.4790 -0.7756
10266TIP3   OH252212   3.704   1.039   3.706 -0.1240 -0.4439 -0.0906
10266TIP3    H152213   3.608   1.034   3.713 -0.1494  0.0844 -0.0315
10266TIP3    H252214   3.736   0.970   3.764 -0.4675 -0.5644 -0.0421
10267TIP3   OH252215   0.112   3.510  14.679 -0.6561  0.4413 -0.2152
10267TIP3    H152216   0.033   3.476  14.637 -2.9509  2.9328  1.7155
10267TIP3    H252217   0.144   3.577  14.619 -0.0572 -0.4673 -0.9314
10268TIP3   OH252218   5.149   5.990   4.861 -0.2273 -1.0812 -0.5597
10268TIP3    H152219   5.102   5.974   4.780 -0.2235 -1.6608 -0.4508
10268TIP3    H252220   5.192   5.907   4.881 -0.7990 -1.1565  0.4112
10269TIP3   OH252221   4.805   4.214   5.757 -0.3313 -0.0177  0.1782
10269TIP3    H152222   4.795   4.134   5.809 -0.3144  0.4902  0.9705
10269TIP3    H252223   4.776   4.284   5.815 -0.1804  0.5762 -0.4552
10270TIP3   OH252224   0.573   4.589  12.629 -0.1146  0.6881 -0.0661
10270TIP3    H152225   0.666   4.578  12.649 -0.0994  2.0399  0.7422
10270TIP3    H252226   0.564   4.553  12.541  0.9354 -0.4910  0.2786
10271TIP3   OH252227   2.085   0.974  12.468  0.4985 -0.3561  0.4091
10271TIP3    H152228   2.114   0.985  12.559  2.1534 -0.8041 -0.0218
10271TIP3    H252229   2.011   1.034  12.460  0.8653  0.3560  1.8121
10272TIP3   OH252230   1.395   1.614   2.472  0.1407 -0.9876  0.2074
10272TIP3    H152231   1.316   1.565   2.496 -1.1207 -0.1978 -2.0130
10272TIP3    H252232   1.396   1.610   2.376  2.7628 -0.8541  0.1789
10273TIP3   OH252233   4.434   0.735  12.943  0.3338 -0.1315  0.3666
10273TIP3    H152234   4.409   0.718  13.034  1.2791 -2.5258  0.2473
10273TIP3    H252235   4.396   0.662  12.894 -0.0676  1.0649 -1.1719
10274TIP3   OH252236   2.052   5.737  15.435  0.2221  0.0862  0.1210
10274TIP3    H152237   2.099   5.656  15.454  0.6024  0.3077  0.1350
10274TIP3    H252238   2.036   5.776  15.521  0.0054  0.0061  0.1162
10275TIP3   OH252239   2.885   3.495  16.633  0.1313 -0.0512  0.0927
10275TIP3    H152240   2.900   3.476  16.726  1.1478  0.1563 -0.0186
10275TIP3    H252241   2.790   3.507  16.627  0.1847  1.3192  1.3781
10276TIP3   OH252242   3.001   1.772  11.000  0.2120  0.5793 -0.3288
10276TIP3    H152243   2.991   1.738  10.911  2.5755 -0.6897 -0.1769
10276TIP3    H252244   3.079   1.828  10.996  0.7265  0.0025  1.0606
10277TIP3   OH252245   3.952   0.046  15.063  0.5646 -0.3412 -0.3612
10277TIP3    H152246   3.994  -0.027  15.108  1.0085 -0.4803 -0.9809
10277TIP3    H252247   3.954   0.021  14.970  0.1561  0.1730 -0.5137
10278TIP3   OH252248   3.960   0.533  15.878  0.1653  0.0594 -0.8543
10278TIP3    H152249   4.043   0.495  15.848  1.4153  1.7234  0.3195
10278TIP3    H252250   3.964   0.624  15.849 -1.7351 -0.0691 -1.6440
10279TIP3   OH252251   3.794   5.450   7.099 -0.0334  0.3854 -0.5931
10279TIP3    H152252   3.883   5.485   7.102  0.5271 -0.9417 -0.8302
10279TIP3    H252253   3.784   5.401   7.181 -0.5788  0.6091 -0.5219
10280TIP3   OH252254   4.382   6.539  14.448 -0.0681 -0.0249  0.0987
10280TIP3    H152255   4.433   6.464  14.479 -1.1753  0.2539  2.9685
10280TIP3    H252256   4.440   6.614  14.457  0.7523 -0.3747 -1.9363
10281TIP3   OH252257   3.964   1.949   2.251 -0.1185 -0.6041  0.4299
10281TIP3    H152258   3.956   1.975   2.343  1.1603 -2.1720  1.0321
10281TIP3    H252259   3.947   1.855   2.252  0.4278 -0.7279 -0.8754
10282TIP3   OH252260   3.228   0.454   3.441  0.3546 -0.0003  0.0923
10282TIP3    H152261   3.155   0.506   3.474  2.1656  2.2784  0.7619
10282TIP3    H252262   3.206   0.436   3.350 -2.9257 -3.0659  1.2232
10283TIP3   OH252263   4.388   3.884   0.335 -0.5323  0.5107 -0.7367
10283TIP3    H152264   4.445   3.933   0.395 -0.2244 -0.2125 -0.4391
10283TIP3    H252265   4.373   3.801   0.378 -1.1030  0.3526 -1.2247
10284TIP3   OH252266   6.614   6.032  16.809 -0.1638  0.5534  0.0002
10284TIP3    H152267   6.680   6.034  16.739 -0.2197 -0.7397 -0.1081
10284TIP3    H252268   6.540   5.984  16.771  0.0780 -0.7956  1.1699
10285TIP3   OH252269   4.107   2.798   0.689  0.1078  0.1153  0.0637
10285TIP3    H152270   4.183   2.742   0.672  1.1115  1.3137  0.5097
10285TIP3    H252271   4.091   2.842   0.606  0.9451  1.0994  0.4153
10286TIP3   OH252272   3.557   4.958   0.331 -0.0875  0.2546 -0.6192
10286TIP3    H152273   3.613   4.880   0.328  0.0711  0.3543 -0.3247
10286TIP3    H252274   3.568   4.992   0.420  0.2276  0.8953 -0.8954
10287TIP3   OH252275   1.422   3.622  11.844  0.0504  0.2205 -0.4181
10287TIP3    H152276   1.469   3.644  11.925  0.3264  1.9526 -0.9971
10287TIP3    H252277   1.471   3.667  11.776 -0.4704 -0.8174 -1.5026
10288TIP3   OH252278   5.019   3.395   4.349  0.0409 -0.5732  0.2748
10288TIP3    H152279   5.017   3.388   4.254 -0.5340  0.8860  0.1511
10288TIP3    H252280   4.938   3.355   4.379 -0.0083 -0.6000  0.1044
10289TIP3   OH252281   5.916   6.677   1.235 -0.5942  0.0651  0.1897
10289TIP3    H152282   5.917   6.582   1.237  0.7736  0.0613  0.1416
10289TIP3    H252283   5.951   6.700   1.149 -0.5349  0.6090  0.3513
10290TIP3   OH252284   3.649   6.196  14.123  0.1704  0.3776  0.0604
10290TIP3    H152285   3.726   6.251  14.134 -0.0282  0.6795 -0.0374
10290TIP3    H252286   3.585   6.253  14.080 -0.2277  0.2365  0.4520
10291TIP3   OH252287   2.546   6.342   3.775  0.2559 -0.3192  0.5989
10291TIP3    H152288   2.576   6.273   3.716  0.2045  0.3408 -0.2178
10291TIP3    H252289   2.552   6.422   3.723 -0.6528  0.1534  1.2064
10292TIP3   OH252290   5.087   0.194  12.805 -0.4101 -0.4247 -0.0905
10292TIP3    H152291   5.136   0.169  12.884  1.2134 -1.3516 -1.3356
10292TIP3    H252292   5.002   0.152  12.815  0.2074 -1.5659  0.6088
10293TIP3   OH252293   5.082   1.936  11.069 -0.6864  0.2787 -0.2110
10293TIP3    H152294   5.176   1.927  11.086 -0.4055  2.1959 -0.5904
10293TIP3    H252295   5.051   1.998  11.135 -1.4645  0.5196 -0.7824
10294TIP3   OH252296   4.339   6.722  15.767  0.2706 -0.0358 -0.6737
10294TIP3    H152297   4.267   6.688  15.714 -0.1783  0.9065 -0.6923
10294TIP3    H252298   4.370   6.799  15.718 -0.3241  1.0112  0.5398
10295TIP3   OH252299   6.778   1.773  12.724 -0.2163  0.5160 -0.5394
10295TIP3    H152300   6.762   1.699  12.665 -0.1800  0.8704 -0.9983
10295TIP3    H252301   6.868   1.761  12.754 -0.8607 -0.7446  0.9965
10296TIP3   OH252302   6.491   5.856   2.729 -0.3037  0.6295  0.2078
10296TIP3    H152303   6.542   5.867   2.810 -0.2598  1.9478  0.0221
10296TIP3    H252304   6.400   5.853   2.759 -0.3171  1.5533  0.2813
10297TIP3   OH252305   1.157   6.322   0.022 -0.4997  0.0208 -0.0533
10297TIP3    H152306   1.174   6.364  -0.063 -1.0855 -0.2655 -0.3171
10297TIP3    H252307   1.243   6.314   0.062 -0.1251 -0.4903 -0.9301
10298TIP3   OH252308   4.525   5.013  16.863  0.4380  0.1855  0.3212
10298TIP3    H152309   4.612   4.976  16.855 -0.6995 -2.5495 -0.7758
10298TIP3    H252310   4.512   5.025  16.957  1.2025 -1.6134  0.6998
10299TIP3   OH252311   0.647   1.773  11.705  0.1567 -0.5717 -0.1092
10299TIP3    H152312   0.583   1.791  11.774 -0.8450 -0.4399 -1.0552
10299TIP3    H252313   0.635   1.680  11.685 -0.0395 -0.4431 -0.5913
10300TIP3   OH252314   2.134   3.856  15.911 -0.0656  0.4192 -0.1242
10300TIP3    H152315   2.073   3.784  15.894  1.4390 -0.4969 -2.0934
10300TIP3    H252316   2.096   3.931  15.865  0.8443 -0.4948 -2.5645
10301TIP3   OH252317   6.515   3.777   2.545 -0.0859 -0.0432  0.2979
10301TIP3    H152318   6.495   3.731   2.464  1.0924  1.2798 -0.7983
10301TIP3    H252319   6.477   3.864   2.534 -1.6517 -0.4329  2.0361
10302TIP3   OH252320   1.771   6.285  12.229 -0.1269 -0.3911 -0.0546
10302TIP3    H152321   1.852   6.335  12.236  0.5954 -1.6694  1.4966
10302TIP3    H252322   1.701   6.350  12.229  0.8637  0.6954 -0.5725
10303TIP3   OH252323   2.865   4.580   4.941 -0.4704  0.3899 -0.2725
10303TIP3    H152324   2.855   4.675   4.931 -1.2658  0.2131 -1.4590
10303TIP3    H252325   2.950   4.561   4.900 -0.6368  0.5052 -0.6750
10304TIP3   OH252326   4.071   0.019  12.732 -0.2119  0.1552  0.3724
10304TIP3    H152327   4.089  -0.071  12.704 -1.3098  0.0911 -0.1544
10304TIP3    H252328   4.144   0.070  12.695 -0.4800 -0.2650 -0.7951
10305TIP3   OH252329   4.879   6.602   4.302 -0.2693  0.1751  0.3418
10305TIP3    H152330   4.918   6.568   4.222  1.4716 -1.8153  1.9421
10305TIP3    H252331   4.794   6.558   4.308 -0.8002  0.9860 -0.7884
10306TIP3   OH252332   4.551   4.514  15.966 -0.5845 -0.4180 -0.2208
10306TIP3    H152333   4.635   4.471  15.981 -0.1827  0.0384 -1.1014
10306TIP3    H252334   4.556   4.593  16.021 -0.2847 -0.2051 -0.5499
10307TIP3   OH252335   3.137   2.036  14.544 -0.5089  0.1356 -0.0146
10307TIP3    H152336   3.119   2.067  14.455  0.9067 -1.2681 -0.8497
10307TIP3    H252337   3.094   1.951  14.550  0.3200 -0.2836  0.2283
10308TIP3   OH252338   3.484   3.372   4.557 -0.6905 -0.1598  0.2350
10308TIP3    H152339   3.479   3.278   4.540 -1.5451 -0.2650  0.9984
10308TIP3    H252340   3.573   3.387   4.588 -0.0253 -0.4310 -1.4572
10309TIP3   OH252341   4.968   2.565   3.712 -0.2975 -0.4986  0.6789
10309TIP3    H152342   4.990   2.511   3.788  0.1805 -1.1974  0.0666
10309TIP3    H252343   4.984   2.655   3.740  3.0592 -0.8791  0.4628
10310TIP3   OH252344   4.065   2.108  15.461 -0.0039 -0.5769  0.3295
10310TIP3    H152345   4.150   2.149  15.442  0.9438 -2.6874 -0.3724
10310TIP3    H252346   4.014   2.121  15.381 -0.0747  0.0690  0.4769
10311TIP3   OH252347   6.071   5.948   5.930  0.5812 -0.0545  0.2964
10311TIP3    H152348   6.145   5.990   5.886  1.3092  0.5543  2.0294
10311TIP3    H252349   6.010   6.020   5.950 -0.7004 -0.5973 -1.4451
10312TIP3   OH252350   5.146   6.518   0.418  0.3313  0.1541 -0.0377
10312TIP3    H152351   5.171   6.551   0.504  0.1744 -0.0251  0.0773
10312TIP3    H252352   5.100   6.591   0.377  1.1130  0.5105 -0.2815
10313TIP3   OH252353   1.878   1.507  13.784  0.3667  0.0626  0.3214
10313TIP3    H152354   1.959   1.557  13.773 -0.4208  1.5507  0.9621
10313TIP3    H252355   1.838   1.543  13.863 -1.2958 -0.0769 -0.4139
10314TIP3   OH252356   0.236   6.124  11.996  0.4318  0.2576 -0.1864
10314TIP3    H152357   0.266   6.123  12.087  1.9133 -1.7593 -0.6171
10314TIP3    H252358   0.201   6.212  11.983 -0.2724  0.4482  2.4492
10315TIP3   OH252359   1.372   0.373   3.469 -0.6656  0.5247  0.6689
10315TIP3    H152360   1.461   0.358   3.437  0.6867  4.3826  1.9604
10315TIP3    H252361   1.325   0.406   3.392  0.0497  1.6133  0.6704
10316TIP3   OH252362   3.280   6.015  12.391 -0.3058  0.2766  0.1135
10316TIP3    H152363   3.294   6.083  12.325  0.5488 -1.5293 -1.6572
10316TIP3    H252364   3.274   5.933  12.341  1.9906 -1.3893  2.3228
10317TIP3   OH252365   5.938   2.780   5.122  0.0683  0.1949  0.0487
10317TIP3    H152366   5.912   2.690   5.102 -1.8801  0.7942 -0.2763
10317TIP3    H252367   5.948   2.781   5.217  1.8577 -0.7749 -0.0972
10318TIP3   OH252368   1.790   6.774   2.712 -0.3050 -0.0941  0.1680
10318TIP3    H152369   1.710   6.740   2.671 -0.1543 -0.1342 -0.0958
10318TIP3    H252370   1.758   6.829   2.783 -0.5675 -0.1873  0.1249
10319TIP3   OH252371   6.706   5.462  14.639 -0.3977 -0.1366 -0.3452
10319TIP3    H152372   6.706   5.370  14.612  1.5096 -0.7527  1.5298
10319TIP3    H252373   6.613   5.482  14.651 -0.8321 -2.0642 -0.0688
10320TIP3   OH252374   3.799   1.169   2.407 -0.5779 -0.3369  0.3171
10320TIP3    H152375   3.705   1.178   2.387 -0.5596 -1.1390 -0.1769
10320TIP3    H252376   3.827   1.094   2.355  0.0708 -0.8611  1.4104
10321TIP3   OH252377   3.776   2.234   3.720  0.3055 -0.3706  0.1935
10321TIP3    H152378   3.853   2.268   3.765 -0.0515  0.3324  0.2950
10321TIP3    H252379   3.704   2.288   3.752 -0.2764 -1.1859  0.2931
10322TIP3   OH252380   1.555   2.540   2.576  0.5464 -0.8962 -0.2388
10322TIP3    H152381   1.602   2.482   2.637 -0.2410 -1.1637  0.1260
10322TIP3    H252382   1.624   2.575   2.520  1.4523  0.1577  1.4296
10323TIP3   OH252383   2.376   2.198  12.268  0.0047 -0.0646 -0.2877
10323TIP3    H152384   2.348   2.121  12.317  0.9321  1.4554  2.8632
10323TIP3    H252385   2.328   2.271  12.307  2.6825  1.5781  0.2058
10324TIP3   OH252386   5.984   6.325  16.557  0.1432  0.9011 -0.0275
10324TIP3    H152387   5.968   6.329  16.463  1.9784  2.0029 -0.3270
10324TIP3    H252388   5.942   6.404  16.592 -0.6884  0.4042  0.1302
10325TIP3   OH252389   1.372   4.801   5.836 -0.3018 -0.1635 -0.2632
10325TIP3    H152390   1.454   4.786   5.882 -0.2421  1.7462  0.3428
10325TIP3    H252391   1.305   4.760   5.891  0.1898 -1.6742 -0.7314
10326TIP3   OH252392   3.180   0.848   6.070 -0.1646 -0.0534 -0.3725
10326TIP3    H152393   3.121   0.773   6.077  0.2665 -0.4828 -1.1810
10326TIP3    H252394   3.254   0.816   6.019  0.3070  0.7612 -0.2253
10327TIP3   OH252395   3.541   0.246  15.818  0.2068 -0.0858  0.2827
10327TIP3    H152396   3.468   0.274  15.873  1.1100 -0.2855  1.6281
10327TIP3    H252397   3.585   0.328  15.795  0.7003 -0.1051  1.1304
10328TIP3   OH252398   2.337   6.233  12.677 -0.5371  0.4634  0.2074
10328TIP3    H152399   2.394   6.296  12.634 -0.4370  1.1169  1.2641
10328TIP3    H252400   2.319   6.167  12.610  2.6777 -0.6127  0.1938
10329TIP3   OH252401   2.850   3.982  13.328  0.0492  0.2444  0.0478
10329TIP3    H152402   2.762   3.949  13.310  0.0442  0.8424 -1.0875
10329TIP3    H252403   2.866   3.957  13.419 -2.6161  2.9859  1.4833
10330TIP3   OH252404   0.963   1.572  12.115  0.3339 -0.0813  0.0808
10330TIP3    H152405   1.028   1.586  12.046  0.4003 -0.9421 -0.0380
10330TIP3    H252406   0.933   1.482  12.102  0.2245 -0.1968  1.0716
10331TIP3   OH252407   0.394   3.841  14.016  0.3965 -0.2834 -0.5213
10331TIP3    H152408   0.353   3.923  14.042  0.7919 -0.6581  1.4238
10331TIP3    H252409   0.428   3.857  13.928 -2.1176  0.6732 -1.4036
10332TIP3   OH252410   1.391   0.870  15.058  0.4170 -0.0770 -0.3904
10332TIP3    H152411   1.448   0.887  14.984  0.0627  1.0190 -0.4189
10332TIP3    H252412   1.439   0.903  15.134  0.7755 -1.1869 -0.1073
10333TIP3   OH252413   3.266   1.618  15.697 -0.5198 -0.4750  0.2024
10333TIP3    H152414   3.342   1.613  15.756  0.0929  0.4781 -0.4725
10333TIP3    H252415   3.300   1.661  15.618 -2.0965  1.3501  0.4537
10334TIP3   OH252416   0.819   6.769   5.570 -0.1698 -0.1544 -0.0974
10334TIP3    H152417   0.885   6.720   5.523  0.5324  0.8355 -0.1759
10334TIP3    H252418   0.852   6.859   5.571 -0.1518 -0.1307  2.2756
10335TIP3   OH252419   5.146   4.485   4.867 -0.2318 -0.0139  0.5664
10335TIP3    H152420   5.178   4.570   4.898 -1.1131 -0.1252  1.8640
10335TIP3    H252421   5.051   4.492   4.873 -0.3121 -1.0799  0.6447
10336TIP3   OH252422   5.355   5.012   5.503  0.6762 -0.8674  0.0344
10336TIP3    H152423   5.280   4.954   5.493 -0.6290  0.5897  0.8589
10336TIP3    H252424   5.377   5.006   5.596 -0.7982  1.3995  0.6133
10337TIP3   OH252425   0.171   4.484   5.194  0.3370  0.9173 -0.4685
10337TIP3    H152426   0.176   4.458   5.286  0.0518  2.6282  0.0622
10337TIP3    H252427   0.262   4.490   5.166  0.4327 -1.3482 -0.8774
10338TIP3   OH252428   1.465   1.851   2.301 -0.2699 -0.4000 -0.3055
10338TIP3    H152429   1.529   1.922   2.305 -0.4465 -0.2441 -0.2165
10338TIP3    H252430   1.474   1.805   2.384  1.1374 -1.6278 -1.0771
10339TIP3   OH252431   1.917   2.590   4.828  0.0470 -0.3125  0.0318
10339TIP3    H152432   1.998   2.544   4.804  0.6186  0.5560  0.2327
10339TIP3    H252433   1.944   2.649   4.898 -0.7974 -0.0849  0.1707
10340TIP3   OH252434   1.121   5.942   2.857 -0.4028 -0.3758 -0.3261
10340TIP3    H152435   1.142   5.949   2.950  0.5704 -0.1763 -0.5466
10340TIP3    H252436   1.198   5.901   2.818 -0.6768 -0.1866 -1.0870
10341TIP3   OH252437   4.418   0.925  15.121  0.0765 -0.3271 -0.0005
10341TIP3    H152438   4.405   0.985  15.048 -0.2454  0.7911  0.9392
10341TIP3    H252439   4.492   0.961  15.169  1.5619 -2.1427 -0.8138
10342TIP3   OH252440   6.558   4.644   5.627 -0.2278 -0.0586  0.0784
10342TIP3    H152441   6.526   4.648   5.536  0.7264  0.2567 -0.2484
10342TIP3    H252442   6.503   4.708   5.674 -0.8660 -0.3724 -0.2226
10343TIP3   OH252443   2.287   2.473  11.573  0.2230  0.3051 -0.3538
10343TIP3    H152444   2.345   2.533  11.620 -0.1350  0.2885  0.1185
10343TIP3    H252445   2.324   2.387  11.589 -0.6192  0.1694  0.9896
10344TIP3   OH252446   0.058   1.248  13.919  0.1587  0.3106  0.1204
10344TIP3    H152447  -0.024   1.284  13.886  0.3028  1.7613  1.2183
10344TIP3    H252448   0.114   1.241  13.842 -0.0459  2.0955 -0.2502
10345TIP3   OH252449   3.902   1.989   2.780 -0.4851 -0.3584 -0.0357
10345TIP3    H152450   3.992   1.963   2.799  0.4540  1.2597 -1.9019
10345TIP3    H252451   3.880   2.051   2.850 -0.1417 -0.7400  0.4152
10346TIP3   OH252452   2.606   3.015   0.867 -0.3613 -0.1263 -0.5676
10346TIP3    H152453   2.700   3.035   0.871 -0.2755 -0.4838 -0.7001
10346TIP3    H252454   2.598   2.959   0.789 -1.0454  1.8234 -1.9788
10347TIP3   OH252455   0.053   1.279  14.222  0.1057  0.2136 -0.9756
10347TIP3    H152456   0.125   1.342  14.225 -0.5285  0.9889 -1.6855
10347TIP3    H252457   0.044   1.258  14.129 -1.0054  0.6095 -0.9666
10348TIP3   OH252458   4.884   6.362   1.093 -0.2405  0.2609 -0.3457
10348TIP3    H152459   4.839   6.418   1.030 -0.1174  1.4778  0.5989
10348TIP3    H252460   4.873   6.406   1.177  0.8856 -0.5198  0.2510
10349TIP3   OH252461   2.600   4.583   5.500  0.1220 -0.0553 -0.0521
10349TIP3    H152462   2.578   4.649   5.566  0.2423  0.7800 -0.8424
10349TIP3    H252463   2.520   4.531   5.490 -1.0258  1.9190 -1.7008
10350TIP3   OH252464   0.559   3.688  13.337  0.1700 -0.0028 -0.2069
10350TIP3    H152465   0.629   3.717  13.278 -0.3169  2.5135  0.3171
10350TIP3    H252466   0.605   3.646  13.410  0.9329 -0.8310 -1.1398
10351TIP3   OH252467   0.883   0.514   4.259 -0.5663  0.4326 -0.1094
10351TIP3    H152468   0.877   0.470   4.174 -0.2052  0.3997 -0.1216
10351TIP3    H252469   0.795   0.549   4.274 -0.8270 -0.1954 -0.1477
10352TIP3   OH252470   3.315   6.256   3.059 -0.0105 -0.2873 -0.0198
10352TIP3    H152471   3.327   6.341   3.016  0.2398 -1.1411 -1.7090
10352TIP3    H252472   3.364   6.264   3.141 -0.9839  1.5991  0.4503
10353TIP3   OH252473   5.437   3.869  12.148  0.1095 -0.5573  0.2290
10353TIP3    H152474   5.407   3.909  12.230 -0.8975  0.9459 -0.8114
10353TIP3    H252475   5.383   3.791  12.138 -2.3556  1.1365 -0.6888
10354TIP3   OH252476   5.722   6.052   1.910  0.0045 -0.0345  0.7569
10354TIP3    H152477   5.654   6.106   1.870 -0.7640 -1.8587 -0.5333
10354TIP3    H252478   5.677   6.003   1.979 -1.0976 -3.9791 -2.3977
10355TIP3   OH252479   2.490   4.929   0.316  0.1863 -0.2390 -0.0105
10355TIP3    H152480   2.443   4.931   0.233  1.3371 -0.3156 -0.6852
10355TIP3    H252481   2.581   4.948   0.293  0.3595  0.8296  1.3622
10356TIP3   OH252482   3.039   0.995   2.592  0.3965  0.0462  0.7013
10356TIP3    H152483   2.968   1.032   2.538 -1.0110 -0.8097  1.8706
10356TIP3    H252484   3.031   0.900   2.580  2.3778 -0.0342 -0.3366
10357TIP3   OH252485   4.470   5.432  15.044  0.4814  0.6236  0.1910
10357TIP3    H152486   4.515   5.425  15.127  0.7238  0.4614  0.0453
10357TIP3    H252487   4.537   5.462  14.982  0.5055 -0.0861 -0.1301
10358TIP3   OH252488   1.390   0.653  17.235 -0.3450  0.0185  0.4230
10358TIP3    H152489   1.420   0.688  17.151 -0.7024  0.5431  0.5033
10358TIP3    H252490   1.452   0.584  17.257  0.3037  0.5189  0.1809
10359TIP3   OH252491   6.092   3.125   4.771 -0.2695 -0.0166  0.4941
10359TIP3    H152492   6.068   3.059   4.837 -2.0408  0.4572  0.3722
10359TIP3    H252493   6.179   3.155   4.798 -0.7357 -0.2004  2.3283
10360TIP3   OH252494   1.016   4.816   0.878 -0.3979  0.3417  0.3719
10360TIP3    H152495   0.981   4.775   0.799  0.5101 -3.2004  1.6120
10360TIP3    H252496   1.108   4.832   0.858 -0.5721  1.0968  0.1514
10361TIP3   OH252497   1.934   0.129  14.686 -0.1180  0.7529 -0.4814
10361TIP3    H152498   1.910   0.039  14.664 -0.2667 -0.0293  2.4028
10361TIP3    H252499   2.028   0.133  14.672  0.4894 -0.9520  2.2136
10362TIP3   OH252500   2.482   5.278  10.474  0.2025 -0.6682 -0.1523
10362TIP3    H152501   2.412   5.214  10.490 -0.6954  0.2894 -0.0843
10362TIP3    H252502   2.551   5.229  10.430  1.0252 -2.4869  2.8668
10363TIP3   OH252503   1.408   3.014  17.201  0.1001 -0.4421 -0.1182
10363TIP3    H152504   1.456   2.933  17.216  1.8651  0.4510 -0.6385
10363TIP3    H252505   1.344   2.993  17.134 -0.9745 -1.9216  1.2961
10364TIP3   OH252506   1.422   6.692  16.226  0.2751 -0.1112 -0.3945
10364TIP3    H152507   1.416   6.737  16.310  0.8354 -1.1503  0.2180
10364TIP3    H252508   1.337   6.708  16.185 -0.5712 -0.8393  1.0141
10365TIP3   OH252509   5.607   2.094  14.333 -0.1593  0.2420  0.3960
10365TIP3    H152510   5.587   2.003  14.351  0.9895  0.0886  0.9959
10365TIP3    H252511   5.562   2.144  14.402 -0.5972  0.1221  0.2014
10366TIP3   OH252512   2.696   1.209  13.369  0.5247  0.1921 -0.1286
10366TIP3    H152513   2.698   1.245  13.457 -3.6055  0.1986  0.1519
10366TIP3    H252514   2.678   1.116  13.381 -2.3474  0.5781 -0.8793
10367TIP3   OH252515   1.932   5.956  16.044  0.0630 -0.2760 -0.5930
10367TIP3    H152516   1.920   5.951  16.139 -0.8487  0.2420 -0.6697
10367TIP3    H252517   1.880   5.884  16.009  1.2778 -1.1474 -0.6491
10368TIP3   OH252518   3.279   1.892  12.211 -0.5033 -0.1198  0.4577
10368TIP3    H152519   3.268   1.896  12.306  0.9671 -2.1784  0.7668
10368TIP3    H252520   3.372   1.877  12.198 -0.8043 -0.6849 -1.2802
10369TIP3   OH252521   4.996   5.443   5.271 -0.9301  0.1080  0.2078
10369TIP3    H152522   4.901   5.451   5.284 -1.0491 -0.3604 -0.3312
10369TIP3    H252523   5.032   5.438   5.360 -1.4659 -0.2705  0.4081
10370TIP3   OH252524   3.142   3.456   1.595  0.1940  0.0734  0.2996
10370TIP3    H152525   3.137   3.363   1.613  1.1433  0.0592  0.5801
10370TIP3    H252526   3.236   3.475   1.594  0.0360  1.4824  2.7497
10371TIP3   OH252527   6.034   0.446   3.193 -0.2721 -0.2807  0.1972
10371TIP3    H152528   5.988   0.455   3.109  1.8321  1.7502 -0.8457
10371TIP3    H252529   6.126   0.436   3.169  0.6948  2.4456  2.2056
10372TIP3   OH252530   3.060   2.805   0.454  0.3932  0.0825  0.2217
10372TIP3    H152531   3.109   2.882   0.424  0.5662 -0.3168 -0.5536
10372TIP3    H252532   3.042   2.822   0.547  1.0233  0.7477  0.2303
10373TIP3   OH252533   2.858   6.228  14.512 -0.1409 -0.0749  0.0216
10373TIP3    H152534   2.768   6.221  14.544  0.3076  0.9472  1.6357
10373TIP3    H252535   2.904   6.156  14.554 -0.3955 -1.2723 -1.6644
10374TIP3   OH252536   0.172   2.437   5.305  0.6780  0.4802 -0.3522
10374TIP3    H152537   0.146   2.349   5.280  0.1370  0.2936  0.8415
10374TIP3    H252538   0.151   2.490   5.228  0.2468 -0.2898 -0.7784
10375TIP3   OH252539   0.822   1.066  13.857  0.3535 -0.4039  0.1322
10375TIP3    H152540   0.802   1.065  13.764 -0.9853  1.3531  0.3358
10375TIP3    H252541   0.792   1.152  13.887 -4.4135 -2.6746  3.2254
10376TIP3   OH252542   3.339   5.343   1.796 -0.1994 -0.3624 -0.5788
10376TIP3    H152543   3.247   5.348   1.820  0.0120 -0.8445  0.4125
10376TIP3    H252544   3.361   5.430   1.764 -0.7238  0.0816  0.2363
10377TIP3   OH252545   3.041   6.110  12.700 -0.2236  0.6911  0.3278
10377TIP3    H152546   3.034   6.153  12.785  1.4777  0.7598  0.4606
10377TIP3    H252547   3.116   6.051  12.709 -2.0645 -1.8846 -0.0456
10378TIP3   OH252548   6.745   0.205   1.437  0.0662  0.2674 -0.0821
10378TIP3    H152549   6.834   0.191   1.403 -0.2226  0.3612 -0.9053
10378TIP3    H252550   6.698   0.124   1.414  0.2245 -0.2518  1.3467
10379TIP3   OH252551   3.199   0.384  14.186  0.5630 -0.1266 -0.0275
10379TIP3    H152552   3.230   0.467  14.150  2.6945 -0.6921  0.3618
10379TIP3    H252553   3.134   0.409  14.252 -1.2825  1.0392 -2.1684
10380TIP3   OH252554   2.012   5.060   0.625  0.2361 -0.0067  0.2985
10380TIP3    H152555   2.094   5.090   0.665 -0.1293 -0.3900  1.3793
10380TIP3    H252556   2.034   5.046   0.533  0.9523  1.5111  0.2034
10381TIP3   OH252557   5.728   6.612   3.427  0.0367 -0.0909 -0.2146
10381TIP3    H152558   5.730   6.524   3.466 -0.4647 -0.0234 -0.0380
10381TIP3    H252559   5.678   6.665   3.489  1.9448  0.8021  0.6684
10382TIP3   OH252560   6.373   0.937   1.107 -0.2558 -0.3192 -0.1755
10382TIP3    H152561   6.435   0.993   1.153 -1.0486  0.7259 -0.3484
10382TIP3    H252562   6.308   0.912   1.173 -1.3847  1.1691 -0.6703
10383TIP3   OH252563   0.718   1.713   2.045 -0.2631 -0.4477  0.1726
10383TIP3    H152564   0.781   1.653   2.085 -1.0636 -1.5991 -0.2346
10383TIP3    H252565   0.633   1.683   2.077 -0.7490 -0.0945 -0.7578
10384TIP3   OH252566   4.687   1.347   4.719 -0.1761 -0.4340 -0.1961
10384TIP3    H152567   4.698   1.429   4.768  1.9343 -0.3478 -0.7107
10384TIP3    H252568   4.744   1.357   4.642 -1.2962 -1.6678 -1.2482
10385TIP3   OH252569   4.715   2.566   5.867 -0.0923  0.4087  0.7492
10385TIP3    H152570   4.706   2.479   5.907  0.7398  0.1053  0.2738
10385TIP3    H252571   4.699   2.627   5.940  1.4921 -0.1386  1.5976
10386TIP3   OH252572   5.087   1.839  16.225 -0.0394  0.3012 -0.1448
10386TIP3    H152573   5.058   1.750  16.242  1.6571 -0.4052 -0.6900
10386TIP3    H252574   5.009   1.885  16.195 -0.9057 -1.0466 -0.0247
10387TIP3   OH252575   1.079   1.876  16.143 -0.8127  0.4436 -0.0557
10387TIP3    H152576   1.109   1.883  16.052  0.7356  0.4875  0.4395
10387TIP3    H252577   0.984   1.871  16.136 -0.8076  1.8037 -1.6090
10388TIP3   OH252578   0.490   4.476  14.710 -0.1834  0.2293 -0.0669
10388TIP3    H152579   0.477   4.423  14.631 -0.3334  1.1529 -0.6822
10388TIP3    H252580   0.494   4.566  14.678  3.2270  0.4448  0.5160
10389TIP3   OH252581   1.953   2.444   0.881 -0.0029 -0.4592  0.2331
10389TIP3    H152582   2.023   2.395   0.925  0.1412  0.6033  1.2418
10389TIP3    H252583   1.954   2.530   0.924 -1.4729 -0.1976 -0.2175
10390TIP3   OH252584   1.575   0.968  13.530 -0.0240 -0.5736 -0.1844
10390TIP3    H152585   1.588   0.906  13.601  0.4394 -2.3312 -1.7227
10390TIP3    H252586   1.657   0.968  13.481 -0.0922  1.0890 -0.3894
10391TIP3   OH252587   5.972   4.677  11.344 -0.3012 -0.3998  1.0744
10391TIP3    H152588   5.957   4.593  11.302 -0.5931 -0.1079  0.5882
10391TIP3    H252589   5.891   4.697  11.389 -0.5501  0.0410  0.4429
10392TIP3   OH252590   0.413   5.424  15.982  0.4272  0.0323 -0.1823
10392TIP3    H152591   0.484   5.397  16.040  0.9655  2.3359  0.3160
10392TIP3    H252592   0.456   5.467  15.909 -0.2776 -2.3809 -2.1552
10393TIP3   OH252593   1.122   3.049  17.240  0.9510  0.6422 -0.2906
10393TIP3    H152594   1.195   3.033  17.301  2.1683  0.2724 -1.7923
10393TIP3    H252595   1.157   3.027  17.154 -1.0334  0.2189 -1.0422
10394TIP3   OH252596   6.568   3.925   4.791 -0.3260  0.2247  0.3689
10394TIP3    H152597   6.505   3.862   4.827  0.6312  0.3624  2.3649
10394TIP3    H252598   6.646   3.872   4.772 -0.9642  0.0344 -2.1935
10395TIP3   OH252599   1.199   2.608  13.532 -0.2535  0.0723  0.0657
10395TIP3    H152600   1.266   2.555  13.489  1.1034  2.3856 -0.8506
10395TIP3    H252601   1.200   2.579  13.623  2.0545  0.0783  0.0934
10396TIP3   OH252602   2.716   1.574  11.228  0.8394 -0.3561  0.1898
10396TIP3    H152603   2.701   1.484  11.198  0.6848 -0.5618  0.8613
10396TIP3    H252604   2.631   1.617  11.217  0.7581 -0.4573  0.4088
10397TIP3   OH252605   6.083   6.102  13.525 -0.0889 -0.0255  0.4308
10397TIP3    H152606   6.134   6.119  13.604  0.0956 -0.4777  0.4081
10397TIP3    H252607   5.996   6.137  13.545  0.2158  0.7324  0.4761
10398TIP3   OH252608   2.783   4.682   3.202  0.2385  0.1141  0.2230
10398TIP3    H152609   2.763   4.702   3.111  0.5214  0.4789  0.2378
10398TIP3    H252610   2.757   4.591   3.213 -0.7298  0.3581  0.0497
10399TIP3   OH252611   3.418   0.036   1.375  0.4684  0.1289  0.5020
10399TIP3    H152612   3.323   0.027   1.368  0.4926  0.5301 -0.4861
10399TIP3    H252613   3.440   0.106   1.314  1.4393 -0.1767  0.4892
10400TIP3   OH252614   5.449   1.759  17.050  0.0618 -0.3654 -0.6395
10400TIP3    H152615   5.506   1.686  17.026 -0.8978 -0.6559 -2.2271
10400TIP3    H252616   5.411   1.734  17.134  0.1948 -1.4332 -0.8806
10401TIP3   OH252617   0.370   1.913   2.652 -0.0306  0.6128  0.1245
10401TIP3    H152618   0.281   1.883   2.636  0.2355  0.6367 -1.5780
10401TIP3    H252619   0.421   1.881   2.577  1.3394  0.8240  0.9230
10402TIP3   OH252620   5.099   5.294   3.448 -0.2367 -0.4903 -0.1118
10402TIP3    H152621   5.059   5.380   3.458  0.3984 -0.1086 -0.7781
10402TIP3    H252622   5.174   5.309   3.391 -0.9722 -1.7298 -1.4923
10403TIP3   OH252623   1.876   6.185  16.875 -0.0219 -0.3040  0.3017
10403TIP3    H152624   1.925   6.124  16.821  1.7865  1.4909 -0.1976
10403TIP3    H252625   1.821   6.234  16.813  0.5838  0.4081  0.3080
10404TIP3   OH252626   2.320   1.770  12.147 -0.0796 -0.1826 -0.2617
10404TIP3    H152627   2.231   1.759  12.114  0.0277 -0.9150 -0.3092
10404TIP3    H252628   2.321   1.859  12.183 -0.7814 -0.1125 -0.4012
10405TIP3   OH252629   6.175   5.860  16.626 -0.4356 -0.1274 -0.5025
10405TIP3    H152630   6.255   5.879  16.578 -0.7045  1.7703 -0.2641
10405TIP3    H252631   6.108   5.846  16.558 -0.2711  0.0012 -0.6910
10406TIP3   OH252632   0.325   6.037   0.526 -0.5830  0.1503  0.0519
10406TIP3    H152633   0.240   6.007   0.558 -0.4536  0.2610  0.5005
10406TIP3    H252634   0.333   6.126   0.560  0.2330 -0.2749  0.9985
10407TIP3   OH252635   1.098   1.298   4.822 -0.0076  0.0406 -0.2378
10407TIP3    H152636   1.080   1.221   4.875  0.2011 -1.0751 -1.7320
10407TIP3    H252637   1.081   1.271   4.732 -0.9358  2.0456 -0.7330
10408TIP3   OH252638   0.842   5.268   1.793  0.8488 -0.0138  0.8653
10408TIP3    H152639   0.902   5.267   1.868  1.1334  2.2096  0.7535
10408TIP3    H252640   0.755   5.257   1.831  0.9858  1.1635  1.5802
10409TIP3   OH252641   5.317   0.671  13.333 -0.3261  0.0677 -0.0470
10409TIP3    H152642   5.339   0.714  13.416  1.1401  1.0484 -0.8969
10409TIP3    H252643   5.401   0.652  13.293 -0.9670 -2.2848 -0.4214
10410TIP3   OH252644   0.689   3.768  11.349 -0.0465  0.0671  0.7437
10410TIP3    H152645   0.690   3.837  11.283 -1.7800  1.5548  2.1374
10410TIP3    H252646   0.781   3.743  11.360  0.3878  0.5744 -1.3591
10411TIP3   OH252647   3.127   1.689  16.104  0.7304  0.1004 -0.3117
10411TIP3    H152648   3.076   1.768  16.086  1.4211  0.4875 -0.6173
10411TIP3    H252649   3.070   1.636  16.159 -0.2950  0.1925 -1.2393
10412TIP3   OH252650   3.841   2.271  16.829  0.2272 -0.7455  0.0959
10412TIP3    H152651   3.842   2.185  16.786 -1.5038 -1.0561  0.5884
10412TIP3    H252652   3.791   2.257  16.909 -1.8446  1.1173 -0.7658
10413TIP3   OH252653   3.529   0.066  16.677 -0.0245 -0.1021  0.5496
10413TIP3    H152654   3.553   0.158  16.675 -1.0073  0.2468  2.2926
10413TIP3    H252655   3.443   0.063  16.635 -0.7605  0.0911  1.9758
10414TIP3   OH252656   5.330   5.998   0.766  0.1563  0.1972 -0.6585
10414TIP3    H152657   5.271   6.051   0.819 -2.2467 -0.7324 -2.2380
10414TIP3    H252658   5.318   6.030   0.677  2.3506  0.1818 -1.0189
10415TIP3   OH252659   3.930   2.970  17.132  0.3188 -0.8467  0.1626
10415TIP3    H152660   4.007   3.027  17.138  0.6567 -0.8806 -2.6762
10415TIP3    H252661   3.866   3.010  17.192  1.4212  1.0357  0.1679
10416TIP3   OH252662   2.867   6.114   0.322  0.3180 -0.3328  0.0726
10416TIP3    H152663   2.850   6.024   0.352  0.6554 -0.6387 -0.6241
10416TIP3    H252664   2.922   6.152   0.390 -0.4188 -0.4038  0.7358
10417TIP3   OH252665   6.740   1.535   3.791  0.0783 -0.1006 -0.3512
10417TIP3    H152666   6.712   1.601   3.854  0.0862 -0.2839 -0.1545
10417TIP3    H252667   6.686   1.459   3.810  1.6566 -0.9473  0.9648
10418TIP3   OH252668   2.248   5.192   0.683 -0.3400  0.0238 -0.3624
10418TIP3    H152669   2.216   5.232   0.603  0.0068 -0.5918 -0.8258
10418TIP3    H252670   2.324   5.140   0.655  0.4855  0.6844  0.5393
10419TIP3   OH252671   1.578   1.080   3.966  0.8269  0.4039  0.2377
10419TIP3    H152672   1.634   1.144   4.009  0.7067 -0.0660  1.1102
10419TIP3    H252673   1.562   1.013   4.033  2.1849 -1.3417 -1.0573
10420TIP3   OH252674   2.996   4.468   6.313 -0.5241  0.4348 -0.4930
10420TIP3    H152675   2.974   4.408   6.241 -0.3837  0.6545 -0.7226
10420TIP3    H252676   3.060   4.421   6.365 -0.5354  0.3210 -0.5825
10421TIP3   OH252677   0.696   0.025  13.487  0.4238 -0.0927  0.1319
10421TIP3    H152678   0.738   0.064  13.564  1.7379  0.7825 -0.9663
10421TIP3    H252679   0.603   0.024  13.508  0.5580  1.7578  1.0506
10422TIP3   OH252680   4.433   4.986  11.713 -0.3270 -0.3152  0.3775
10422TIP3    H152681   4.441   5.036  11.631  1.5727  0.4000  0.9485
10422TIP3    H252682   4.367   4.920  11.694 -1.7356  1.3592 -0.9555
10423TIP3   OH252683   4.997   3.604  16.833 -0.2474 -0.5392  0.9137
10423TIP3    H152684   4.931   3.673  16.825  0.3753 -0.0485 -0.2739
10423TIP3    H252685   5.032   3.615  16.921 -0.6934  0.1762  1.0157
10424TIP3   OH252686   4.104   2.214  12.276 -0.0697  0.1692 -0.2805
10424TIP3    H152687   4.059   2.278  12.220  2.0598  1.3060 -0.7899
10424TIP3    H252688   4.155   2.161  12.215  0.4758 -0.0899  0.3934
10425TIP3   OH252689   1.200   5.477   3.681 -0.0728 -0.2941 -0.4538
10425TIP3    H152690   1.286   5.500   3.716  0.8607 -1.9052 -1.5760
10425TIP3    H252691   1.174   5.552   3.629  0.8057  0.0821 -0.3641
10426TIP3   OH252692   0.649   1.950   1.777  0.5915  0.2740 -0.4284
10426TIP3    H152693   0.647   2.029   1.723 -1.0700  0.0965 -0.6625
10426TIP3    H252694   0.732   1.957   1.825  1.6382  0.9408 -2.2080
10427TIP3   OH252695   1.064   3.863  14.657  0.5397 -0.1133  0.3015
10427TIP3    H152696   1.033   3.783  14.700 -0.2992 -0.7368 -1.3835
10427TIP3    H252697   0.984   3.913  14.641  1.0589  1.1272  1.3747
10428TIP3   OH252698   4.368   2.652  11.721  0.1755 -0.0531  0.3959
10428TIP3    H152699   4.428   2.624  11.652  0.3211 -1.1028  0.9298
10428TIP3    H252700   4.310   2.715  11.678 -0.9235 -2.0425 -1.1967
10429TIP3   OH252701   3.283   6.509   2.958 -0.0504 -0.2950 -0.4257
10429TIP3    H152702   3.297   6.549   3.044  2.0885 -0.7658 -0.5137
10429TIP3    H252703   3.338   6.560   2.899 -1.8830  0.3459 -1.6540
10430TIP3   OH252704   4.857   3.783   6.509 -0.1839 -0.5337 -0.2876
10430TIP3    H152705   4.808   3.726   6.451 -1.2657  0.3912 -0.3133
10430TIP3    H252706   4.814   3.868   6.502  1.1126  0.1924  0.0800
10431TIP3   OH252707   4.640   2.158   1.797 -0.3461 -0.3786  0.0167
10431TIP3    H152708   4.559   2.111   1.777 -0.8426  0.1738  0.6798
10431TIP3    H252709   4.679   2.110   1.870 -0.9353  0.3028  0.8014
10432TIP3   OH252710   3.777   0.521  15.111  0.4968 -0.6360 -0.8648
10432TIP3    H152711   3.828   0.447  15.144  0.0821 -0.5013  0.1296
10432TIP3    H252712   3.830   0.598  15.132 -0.3411 -0.4477  0.7139
10433TIP3   OH252713   3.333   2.853  14.695  0.2420  0.2645 -0.6529
10433TIP3    H152714   3.341   2.855  14.599  0.5243  0.2888 -0.6287
10433TIP3    H252715   3.402   2.793  14.723 -0.2064 -0.1868 -0.5045
10434TIP3   OH252716   2.092   2.026   1.045  0.8108  0.0644 -0.3399
10434TIP3    H152717   2.137   1.992   0.967 -0.6233  2.0396 -2.1416
10434TIP3    H252718   1.999   2.019   1.024  0.1531 -2.6067  2.7280
10435TIP3   OH252719   6.252   5.258   2.915 -0.0161  0.1588 -0.1580
10435TIP3    H152720   6.311   5.265   2.840  0.7591 -2.2358  0.1579
10435TIP3    H252721   6.307   5.228   2.987 -1.2079 -0.0077  0.7171
10436TIP3   OH252722   3.492   5.543   5.915 -0.1909 -0.4795 -0.1801
10436TIP3    H152723   3.557   5.502   5.858  1.3471 -0.8428  1.7475
10436TIP3    H252724   3.408   5.519   5.876  0.7755 -1.2200 -1.9200
10437TIP3   OH252725   2.748   4.914   1.619  0.1977  0.3099 -0.5729
10437TIP3    H152726   2.751   4.850   1.548 -2.6136  0.1042 -0.6211
10437TIP3    H252727   2.749   4.999   1.574  0.3947  0.2197 -0.7396
10438TIP3   OH252728   4.019   1.065  15.767  0.6744  0.2122  0.2168
10438TIP3    H152729   4.046   1.157  15.766 -0.9353  0.7692  1.8159
10438TIP3    H252730   3.934   1.065  15.811 -0.6552 -1.7502 -2.0868
10439TIP3   OH252731   5.196   2.334   0.074  0.2925  0.2545  0.7189
10439TIP3    H152732   5.156   2.347   0.161  1.1751 -1.7116  1.4704
10439TIP3    H252733   5.200   2.422   0.037 -2.4040  0.8634  1.6218
10440TIP3   OH252734   0.407   6.378   6.337 -0.4282  0.1364 -0.6948
10440TIP3    H152735   0.325   6.329   6.339  1.2358 -2.8999 -0.0912
10440TIP3    H252736   0.459   6.339   6.408  1.6667  1.6673 -1.3086
10441TIP3   OH252737   1.842   5.150  12.351 -0.5526 -0.5948  0.2273
10441TIP3    H152738   1.888   5.193  12.278  0.5074  1.5139  2.0128
10441TIP3    H252739   1.891   5.069  12.365 -0.4457 -0.7707 -1.0461
10442TIP3   OH252740   1.604   6.145  16.708 -0.2164  0.1382 -0.1065
10442TIP3    H152741   1.651   6.104  16.636 -0.6732 -0.3185 -0.1472
10442TIP3    H252742   1.591   6.236  16.679  0.7800  0.3162 -0.0178
10443TIP3   OH252743   0.147   5.858   6.167 -0.4756 -0.2413  0.4320
10443TIP3    H152744   0.126   5.923   6.234  1.6753  0.3925  0.5822
10443TIP3    H252745   0.084   5.788   6.180 -0.9491  0.4739  2.2493
10444TIP3   OH252746   2.451   4.593  12.604 -0.1928 -0.6045  0.0497
10444TIP3    H152747   2.364   4.572  12.640 -1.0510  0.9649 -1.0325
10444TIP3    H252748   2.478   4.671  12.651  0.5793 -0.9996  0.2699
10445TIP3   OH252749   6.062   2.560   5.986 -0.7286 -0.6914 -0.5006
10445TIP3    H152750   6.064   2.468   6.013 -0.6837 -0.8894 -1.1687
10445TIP3    H252751   6.151   2.579   5.959 -0.7528 -0.4664 -0.4220
10446TIP3   OH252752   0.193   4.371  13.916 -0.1390  0.2217 -0.1233
10446TIP3    H152753   0.102   4.384  13.942  0.3354  1.6801  0.9414
10446TIP3    H252754   0.192   4.291  13.864 -2.0660  0.3619 -0.3629
10447TIP3   OH252755   2.434   5.640   3.416  0.0794 -0.5237  0.3197
10447TIP3    H152756   2.419   5.553   3.451 -0.4557 -0.6409 -0.1908
10447TIP3    H252757   2.480   5.625   3.334 -1.1094 -0.4063 -0.3935
10448TIP3   OH252758   3.843   4.917  15.485 -0.3824  0.5198  0.1863
10448TIP3    H152759   3.875   4.889  15.399  1.2842  1.7933  0.3300
10448TIP3    H252760   3.895   4.867  15.547  2.1349  3.1753  0.4371
10449TIP3   OH252761   5.122   5.329   4.807  0.0817  0.3992  0.1961
10449TIP3    H152762   5.186   5.373   4.750 -1.1908  0.2248 -1.4545
10449TIP3    H252763   5.107   5.245   4.764 -1.9773  0.8338 -0.0617
10450TIP3   OH252764   5.158   0.446  13.605 -0.1848  0.3391 -0.0170
10450TIP3    H152765   5.202   0.474  13.685  1.3858  3.9503 -1.8887
10450TIP3    H252766   5.228   0.404  13.553 -0.2741  1.1438 -0.8156
10451TIP3   OH252767   6.080   5.106  15.012  0.3157 -0.4193  0.0479
10451TIP3    H152768   6.014   5.085  14.946  0.2327 -0.9715  0.3008
10451TIP3    H252769   6.090   5.201  15.006 -1.3821 -0.1554  0.8283
10452TIP3   OH252770   0.749   4.887  16.346  0.3893  0.0952 -0.1882
10452TIP3    H152771   0.686   4.848  16.407  1.4481 -1.3628  0.0429
10452TIP3    H252772   0.796   4.812  16.310  1.9928  1.1383 -0.3556
10453TIP3   OH252773   5.852   0.675  14.598 -0.1631  0.5714  0.5726
10453TIP3    H152774   5.921   0.609  14.608 -0.9846 -0.6596 -1.3776
10453TIP3    H252775   5.879   0.726  14.522  0.1408  2.1621  1.6832
10454TIP3   OH252776   4.222   5.650   4.749  0.3978  0.2558 -0.2604
10454TIP3    H152777   4.171   5.725   4.781  0.3943  0.4282 -0.6608
10454TIP3    H252778   4.281   5.688   4.685  1.2365  0.1031  0.4074
10455TIP3   OH252779   4.215   1.080  16.980  0.2566  0.0731  0.4772
10455TIP3    H152780   4.307   1.062  16.965  0.4263  0.9382  0.4364
10455TIP3    H252781   4.178   0.996  17.007  0.8819 -0.4626 -0.2905
10456TIP3   OH252782   2.806   2.105   3.285  0.3799  0.0534 -0.4767
10456TIP3    H152783   2.851   2.181   3.321 -1.5575  0.2557  1.7918
10456TIP3    H252784   2.750   2.140   3.216 -1.4625  1.0250  1.3935
10457TIP3   OH252785   3.640   5.360  12.768 -0.6189  0.2680 -0.2719
10457TIP3    H152786   3.687   5.442  12.752  0.3780 -0.1322  0.4840
10457TIP3    H252787   3.550   5.378  12.740 -0.7943  2.1037  1.2616
10458TIP3   OH252788   3.507   1.212  13.305 -0.3596 -0.3070 -0.3581
10458TIP3    H152789   3.556   1.191  13.385 -1.3018 -1.7215 -0.0989
10458TIP3    H252790   3.422   1.241  13.337 -0.7274 -0.8362 -0.8314
10459TIP3   OH252791   6.713   0.833  10.963  0.1424  0.5108 -0.0322
10459TIP3    H152792   6.680   0.757  10.915  0.7958  0.8331 -1.0271
10459TIP3    H252793   6.718   0.805  11.054 -1.2001 -0.1017 -0.1200
10460TIP3   OH252794   2.981   5.437   4.269  0.7327 -0.3904 -0.0727
10460TIP3    H152795   2.926   5.508   4.237  1.9916  0.3219 -0.7209
10460TIP3    H252796   2.920   5.367   4.290 -0.3696  0.1371 -1.3830
10461TIP3   OH252797   5.387   2.641   5.945  0.3882 -0.1289  0.1842
10461TIP3    H152798   5.373   2.719   5.999  2.7986 -0.3252  1.2482
10461TIP3    H252799   5.401   2.676   5.857 -0.7943  0.4365  0.2056
10462TIP3   OH252800   6.225   6.706  16.579 -1.1092  0.3530  0.5144
10462TIP3    H152801   6.143   6.742  16.612 -0.1327  0.9159  2.4348
10462TIP3    H252802   6.217   6.611  16.591 -2.2265  0.1825 -1.1762
10463TIP3   OH252803   1.513   2.159   4.690  0.3273 -0.0276 -0.2534
10463TIP3    H152804   1.607   2.143   4.679  0.8020  2.9786 -1.6162
10463TIP3    H252805   1.507   2.206   4.773  0.0030 -0.4083 -0.0627
10464TIP3   OH252806   0.042   0.120   2.089  0.0765  0.4258  0.1145
10464TIP3    H152807   0.081   0.163   2.012 -1.5572 -0.4006 -1.2371
10464TIP3    H252808  -0.016   0.187   2.127  1.7012  1.2135  1.3626
10465TIP3   OH252809   0.213   5.195   0.147  0.5271 -0.1231  0.1275
10465TIP3    H152810   0.155   5.255   0.100  0.5785  0.2171  0.4930
10465TIP3    H252811   0.207   5.222   0.239 -0.4845 -1.5387  0.5062
10466TIP3   OH252812   2.936   3.085   3.585  0.3168  0.5806 -0.2094
10466TIP3    H152813   2.841   3.077   3.583  0.2116  1.4980  0.4840
10466TIP3    H252814   2.966   3.005   3.629 -0.1901  0.6389  0.2561
10467TIP3   OH252815   3.922   3.409  12.219  0.1921  0.1844  0.5158
10467TIP3    H152816   3.872   3.383  12.296 -1.1024  0.5335 -0.1722
10467TIP3    H252817   3.857   3.410  12.148  1.4533 -0.6825 -0.6983
10468TIP3   OH252818   4.768   2.752   0.930  0.4360 -0.3575 -0.0337
10468TIP3    H152819   4.786   2.793   0.846 -3.0564 -0.9783 -1.2489
10468TIP3    H252820   4.794   2.817   0.995 -0.9264  2.0576 -1.7678
10469TIP3   OH252821   1.399   3.957  14.351 -0.2409 -0.1709 -0.2554
10469TIP3    H152822   1.416   4.000  14.434  0.4004 -1.3819  0.2728
10469TIP3    H252823   1.403   3.863  14.371 -0.4373 -0.4887 -1.5732
10470TIP3   OH252824   6.353   0.649   5.257  0.2467  0.0460  0.1805
10470TIP3    H152825   6.432   0.702   5.263 -1.1376  2.1880  0.7102
10470TIP3    H252826   6.352   0.598   5.339  0.4686  0.9068  0.7309
10471TIP3   OH252827   4.602   6.142   2.201  0.3117 -0.5833 -0.4521
10471TIP3    H152828   4.536   6.164   2.135 -0.9167 -2.1715  0.1812
10471TIP3    H252829   4.651   6.070   2.161  0.9354 -0.1651 -0.4540
10472TIP3   OH252830   1.768   0.356  16.724  0.0634 -0.2879  0.4276
10472TIP3    H152831   1.798   0.409  16.650 -1.5776  2.1567  1.4038
10472TIP3    H252832   1.756   0.269  16.686  0.3384  0.6002 -1.9171
10473TIP3   OH252833   1.311   4.946   0.206  0.0297  0.2976 -0.5519
10473TIP3    H152834   1.293   4.858   0.173  1.8389 -0.0642 -0.6448
10473TIP3    H252835   1.374   4.982   0.144 -0.9621  1.8164 -0.7219
10474TIP3   OH252836   5.069   2.870   2.721 -0.1164  0.0244  0.4294
10474TIP3    H152837   4.979   2.890   2.749  0.7790  2.8655  1.7099
10474TIP3    H252838   5.088   2.785   2.759 -1.5475  0.3731  2.0799
10475TIP3   OH252839   2.816   2.970   4.018  0.4161  0.1455 -0.1260
10475TIP3    H152840   2.793   3.051   3.973  1.1021  0.0601 -0.6503
10475TIP3    H252841   2.844   2.999   4.105  0.7378  0.4847 -0.3384
10476TIP3   OH252842   5.219   6.563  13.512 -0.6874 -0.0068  0.1118
10476TIP3    H152843   5.222   6.468  13.500  0.1472 -0.0091  0.2799
10476TIP3    H252844   5.241   6.576  13.604 -1.3835  0.3178  0.2340
10477TIP3   OH252845   2.215   0.100   2.834  0.0801  0.3258  0.4177
10477TIP3    H152846   2.243   0.015   2.799 -0.3664 -0.1432  1.1714
10477TIP3    H252847   2.144   0.078   2.894 -0.8872  1.3486 -0.3209
10478TIP3   OH252848   5.709   5.988   3.745 -0.0503  0.0351  0.5680
10478TIP3    H152849   5.797   5.979   3.782  0.1918 -1.1197 -0.2582
10478TIP3    H252850   5.724   6.007   3.652 -0.6746  1.0184  0.6568
10479TIP3   OH252851   2.542   4.064  16.211 -0.2402  0.4514 -0.4874
10479TIP3    H152852   2.580   3.986  16.169 -1.2422 -0.8788  0.9356
10479TIP3    H252853   2.557   4.135  16.149 -1.5250 -1.3517 -3.0552
10480TIP3   OH252854   6.532   1.469   2.152  0.3864 -0.0257  0.2551
10480TIP3    H152855   6.557   1.561   2.155  1.1702 -0.2501  1.3168
10480TIP3    H252856   6.571   1.435   2.072 -0.1073  0.6105 -0.2603
10481TIP3   OH252857   5.700   0.460   3.605  0.3938  0.5737 -0.1806
10481TIP3    H152858   5.782   0.421   3.574  0.6487  0.9355  0.0238
10481TIP3    H252859   5.727   0.516   3.678 -0.1165  0.2227  0.2805
10482TIP3   OH252860   1.903   5.139   4.229  0.1478  0.2483  0.0032
10482TIP3    H152861   1.999   5.136   4.227  0.1461  0.3426 -0.9659
10482TIP3    H252862   1.878   5.146   4.137 -0.8501 -1.7680  0.0549
10483TIP3   OH252863   6.421   2.662  12.253 -0.7251  0.0450  0.0015
10483TIP3    H152864   6.473   2.738  12.226  1.0010 -1.1694 -0.2620
10483TIP3    H252865   6.358   2.650  12.182  0.3810 -0.0111 -0.9971
10484TIP3   OH252866   3.555   4.697   5.722 -0.7300 -0.6623 -0.3086
10484TIP3    H152867   3.649   4.707   5.737 -0.3775 -1.7359 -1.6351
10484TIP3    H252868   3.545   4.606   5.694 -1.6933  0.2972 -3.4594
10485TIP3   OH252869   6.336   3.750   1.654 -0.2553 -0.3579  0.1483
10485TIP3    H152870   6.384   3.823   1.693 -1.7934 -0.2368  1.9500
10485TIP3    H252871   6.347   3.762   1.560 -0.9347  2.5573  0.3520
10486TIP3   OH252872   5.206   4.432  14.222 -0.5762  0.1913 -0.0881
10486TIP3    H152873   5.281   4.445  14.164  0.1117  0.9624  0.9267
10486TIP3    H252874   5.227   4.353  14.271 -0.8237 -0.0655 -0.3970
10487TIP3   OH252875   2.367   3.227   0.199 -0.1666 -0.7200  0.4493
10487TIP3    H152876   2.447   3.175   0.194  0.9807  0.9461  0.3368
10487TIP3    H252877   2.362   3.256   0.290 -0.7375 -0.9326  0.4907
10488TIP3   OH252878   3.455   6.404   1.960 -0.5660  0.0172 -0.3481
10488TIP3    H152879   3.526   6.391   1.897  0.1017 -0.1365  0.4206
10488TIP3    H252880   3.400   6.471   1.920 -2.0489 -2.3787 -2.6704
10489TIP3   OH252881   2.120   0.946  11.316  0.0023 -0.1880  0.0458
10489TIP3    H152882   2.041   0.995  11.294 -0.2564 -0.0234  1.2428
10489TIP3    H252883   2.091   0.855  11.325 -0.0364 -0.1506  0.3339
10490TIP3   OH252884   4.027   5.999  16.996 -0.6706 -0.3398 -0.0096
10490TIP3    H152885   4.024   6.056  17.073 -2.6562  0.8133 -0.8706
10490TIP3    H252886   3.968   5.927  17.017 -2.2082  0.6155 -0.8698
10491TIP3   OH252887   3.249   2.875  12.692  0.1374 -0.0006  0.1627
10491TIP3    H152888   3.324   2.934  12.682  1.7532 -2.0530 -0.7148
10491TIP3    H252889   3.183   2.910  12.633  0.6123  1.5385  0.5060
10492TIP3   OH252890   2.940   2.199   5.300  0.1759 -0.2282  0.0130
10492TIP3    H152891   2.851   2.235   5.305  0.4545  0.4732 -0.0777
10492TIP3    H252892   2.926   2.104   5.302 -0.5337 -0.1301  0.7430
10493TIP3   OH252893   6.243   4.915   3.843  0.4865 -0.1361  0.6642
10493TIP3    H152894   6.261   4.974   3.916  1.0450 -0.4579  0.7965
10493TIP3    H252895   6.248   4.828   3.882  0.5705 -0.3004  0.2854
10494TIP3   OH252896   1.432   1.118   6.310 -0.6502 -0.2277 -0.1144
10494TIP3    H152897   1.483   1.100   6.389 -0.6143 -0.1079 -0.1112
10494TIP3    H252898   1.392   1.203   6.325 -1.3370 -0.5912  0.1360
10495TIP3   OH252899   5.817   6.571  15.582  0.9184 -0.0819  0.7399
10495TIP3    H152900   5.861   6.656  15.580 -0.6076  0.7677 -1.4311
10495TIP3    H252901   5.853   6.523  15.507 -1.0776  0.3168 -0.5748
10496TIP3   OH252902   0.440   2.424  11.791  0.5291  0.1729  0.0960
10496TIP3    H152903   0.457   2.331  11.807 -1.6596 -0.0608  1.5256
10496TIP3    H252904   0.402   2.456  11.873  0.3296  2.0957 -0.6981
10497TIP3   OH252905   2.789   3.381  12.524  0.4065  0.1314  0.0953
10497TIP3    H152906   2.839   3.451  12.567  0.7077 -0.4309  0.6747
10497TIP3    H252907   2.758   3.420  12.443  0.7782  0.8656  0.2995
10498TIP3   OH252908   3.581   6.309   4.308 -0.5517  0.4311 -0.0008
10498TIP3    H152909   3.608   6.304   4.216  0.7336  0.8799  0.3349
10498TIP3    H252910   3.618   6.230   4.348  0.4167  1.1310  0.5021
10499TIP3   OH252911   5.717   2.803   4.112  0.5981  0.4707  0.3285
10499TIP3    H152912   5.693   2.772   4.025  0.5584 -2.1043  1.1826
10499TIP3    H252913   5.641   2.852   4.143 -0.5171 -0.9727 -0.0292
10500TIP3   OH252914   5.406   3.111   6.004  0.1660 -0.5453 -0.9432
10500TIP3    H152915   5.407   3.016   6.009 -0.6594 -0.5139 -0.0241
10500TIP3    H252916   5.313   3.134   5.995  0.2554  0.2251 -0.0248
10501TIP3   OH252917   3.996   2.511  16.948 -0.3830 -0.0134 -0.4296
10501TIP3    H152918   3.949   2.448  17.003  2.2759 -0.8622  1.0531
10501TIP3    H252919   4.000   2.591  17.001  2.1523 -0.8225  0.7679
10502TIP3   OH252920   2.781   4.616   0.953 -0.1728  0.0917  0.5317
10502TIP3    H152921   2.727   4.686   0.916  0.4083 -0.0527 -0.6368
10502TIP3    H252922   2.746   4.536   0.914  2.0052  0.1397 -1.7551
10503TIP3   OH252923   0.944   1.019   0.406  0.8087 -0.2431  0.5076
10503TIP3    H152924   0.995   1.025   0.487  1.9017  0.1493 -0.1970
10503TIP3    H252925   0.959   1.102   0.361  0.0655 -0.3846 -0.0166
10504TIP3   OH252926   4.149   6.377  11.177 -0.8973  0.2378  0.5055
10504TIP3    H152927   4.157   6.469  11.151 -1.6543 -0.1747 -1.3406
10504TIP3    H252928   4.055   6.363  11.187 -1.2528 -1.2552 -3.2243
10505TIP3   OH252929   3.664   2.207   4.046 -0.1077 -0.5905  0.1658
10505TIP3    H152930   3.581   2.160   4.046  0.7119 -2.1013 -0.6065
10505TIP3    H252931   3.682   2.226   3.954 -1.0047  2.4387  0.5072
10506TIP3   OH252932   5.681   1.756   0.142  0.0045  0.0275 -0.2085
10506TIP3    H152933   5.620   1.756   0.068  0.7051 -0.6066 -0.7978
10506TIP3    H252934   5.649   1.685   0.199  1.6138 -2.0853 -1.7641
10507TIP3   OH252935   2.037   2.593  14.247 -0.0964 -0.2820  0.0382
10507TIP3    H152936   1.953   2.589  14.294 -0.7073  3.0511 -0.5149
10507TIP3    H252937   2.086   2.662  14.292  1.5878 -0.8496 -0.8469
10508TIP3   OH252938   6.466   5.266  16.411 -0.0641  0.1733 -0.7921
10508TIP3    H152939   6.448   5.221  16.328 -0.8407 -2.4504  0.6746
10508TIP3    H252940   6.553   5.235  16.436  0.2498  1.1023 -0.7203
10509TIP3   OH252941   4.734   5.684  15.920 -0.2188 -0.0105 -0.1509
10509TIP3    H152942   4.739   5.723  15.833 -0.1633  0.0333 -0.1279
10509TIP3    H252943   4.813   5.630  15.926  1.3421  2.2309  0.9620
10510TIP3   OH252944   4.674   0.495  15.080 -1.3213 -0.7522 -0.4474
10510TIP3    H152945   4.734   0.539  15.020 -0.9794 -0.8451 -0.1760
10510TIP3    H252946   4.595   0.549  15.079 -0.0572  1.3317  1.7884
10511TIP3   OH252947   2.962   5.367  15.451  0.1450  0.3291  0.0806
10511TIP3    H152948   2.980   5.439  15.511  3.0829 -0.4430  0.2677
10511TIP3    H252949   3.034   5.305  15.465 -0.1592 -0.8213 -2.7796
10512TIP3   OH252950   5.005   2.614  14.343 -0.2277 -0.1746 -0.8486
10512TIP3    H152951   5.053   2.610  14.426 -2.1855 -3.2305  0.3225
10512TIP3    H252952   4.930   2.671  14.362  0.1665  0.4387 -1.0817
10513TIP3   OH252953   6.311   1.281   2.368 -0.3919  0.0025  0.0934
10513TIP3    H152954   6.274   1.246   2.287  1.9583  2.5653 -2.2925
10513TIP3    H252955   6.243   1.339   2.402 -0.9709 -0.2234 -0.6404
10514TIP3   OH252956   2.691   3.247  16.832  0.3439 -0.1750 -0.0119
10514TIP3    H152957   2.689   3.341  16.851  1.2866  0.0984 -1.1541
10514TIP3    H252958   2.660   3.240  16.741  1.4414 -0.8354 -0.3558
10515TIP3   OH252959   5.146   1.211  16.749  0.4041  0.5539  0.5417
10515TIP3    H152960   5.143   1.296  16.706  0.8989  1.5737  2.4169
10515TIP3    H252961   5.145   1.147  16.677 -1.0172  2.0891 -0.8631
10516TIP3   OH252962   6.030   6.652   3.653 -0.3519  0.1729  0.4845
10516TIP3    H152963   6.044   6.558   3.645  0.5592 -0.0842  3.7082
10516TIP3    H252964   5.953   6.660   3.709 -0.0299  1.3214  0.7834
10517TIP3   OH252965   4.006   5.454  15.501 -0.0426 -0.1191 -0.3386
10517TIP3    H152966   4.047   5.369  15.488  1.5744  0.5564 -0.0195
10517TIP3    H252967   4.079   5.517  15.492 -1.3681  1.3187 -1.6945
10518TIP3   OH252968   4.203   4.664  16.180 -0.0333 -0.1161 -0.6230
10518TIP3    H152969   4.113   4.691  16.200  0.1288 -0.5625  0.8218
10518TIP3    H252970   4.257   4.727  16.227  0.3929 -0.5478 -0.5359
10519TIP3   OH252971   5.158   6.547  14.357  0.2217  0.5206 -0.4595
10519TIP3    H152972   5.203   6.481  14.410  0.5027 -0.7535 -2.1978
10519TIP3    H252973   5.120   6.498  14.285  0.0285  2.2128 -1.5629
10520TIP3   OH252974   1.697   2.882  16.953 -0.6093 -0.3024 -0.0268
10520TIP3    H152975   1.779   2.843  16.921  0.6622  1.5313  0.7967
10520TIP3    H252976   1.638   2.877  16.878  1.3851  1.3630 -1.8576
10521TIP3   OH252977   2.870   3.087   2.096  0.2016 -0.4551 -0.1433
10521TIP3    H152978   2.947   3.041   2.062  0.2747  0.8280 -1.8531
10521TIP3    H252979   2.902   3.136   2.172  1.2579  0.5298 -1.1749
10522TIP3   OH252980   2.443   5.245   1.383 -0.2398  0.5056  0.1101
10522TIP3    H152981   2.453   5.243   1.478  0.5943  0.3992  0.0292
10522TIP3    H252982   2.518   5.297   1.353  0.1963 -0.5011 -0.5746
10523TIP3   OH252983   3.053   2.927   1.470  0.6115  0.2022  0.5165
10523TIP3    H152984   3.066   2.903   1.562 -0.6823 -1.4807  0.3079
10523TIP3    H252985   2.962   2.955   1.464 -0.8064 -3.9187 -0.9320
10524TIP3   OH252986   3.790   6.076  11.178 -0.5738  0.5005  0.0621
10524TIP3    H152987   3.746   6.086  11.093  0.3085  0.8588 -0.3642
10524TIP3    H252988   3.777   5.984  11.200  0.5950 -0.0412 -1.2957
10525TIP3   OH252989   3.915   1.393   2.266  0.2358  0.2471  0.3096
10525TIP3    H152990   3.878   1.343   2.338  0.8852  0.6284  0.9107
10525TIP3    H252991   3.933   1.480   2.303  0.0844  0.6146 -0.4434
10526TIP3   OH252992   0.659   1.056   5.331 -0.2451  0.0112  0.0522
10526TIP3    H152993   0.573   1.067   5.290 -0.0331  1.2859 -0.0765
10526TIP3    H252994   0.691   0.971   5.297 -1.4603 -0.4968  0.1497
10527TIP3   OH252995   0.047   4.168   3.919  0.3387  0.7550 -0.0180
10527TIP3    H152996   0.094   4.165   4.002  0.0665  0.2471  0.1201
10527TIP3    H252997   0.044   4.261   3.897 -0.1199  0.9548  0.8461
10528TIP3   OH252998   4.868   0.791  13.732 -0.2371 -0.0623  0.1410
10528TIP3    H152999   4.841   0.874  13.693 -1.3492 -0.7332 -0.5767
10528TIP3    H253000   4.935   0.757  13.672  0.5874  0.5258  0.7017
10529TIP3   OH253001   2.890   1.942   5.083  0.0954  0.4273  0.3739
10529TIP3    H153002   2.869   2.024   5.038 -1.0586 -0.0919 -0.0849
10529TIP3    H253003   2.910   1.880   5.012  3.3863  0.8786  0.7771
10530TIP3   OH253004   2.633   3.449  14.821 -0.2888  0.4097 -0.3196
10530TIP3    H153005   2.650   3.356  14.807  0.2480  0.8372 -2.9142
10530TIP3    H253006   2.614   3.456  14.915  0.1245 -2.2176  0.0248
10531TIP3   OH253007   2.380   1.622   1.144  0.3160  0.3208 -0.0743
10531TIP3    H153008   2.288   1.597   1.157 -0.0657  0.3525 -2.2569
10531TIP3    H253009   2.407   1.573   1.066  2.1042  0.4475  0.4377
10532TIP3   OH253010   0.341   1.006  15.476  0.5054  0.2777  0.1287
10532TIP3    H153011   0.378   0.930  15.520  0.5016  0.4196  0.3739
10532TIP3    H253012   0.251   1.012  15.509  0.1751 -0.2105 -0.6466
10533TIP3   OH253013   5.914   0.205   3.319  0.0143 -0.1208 -0.2957
10533TIP3    H153014   5.910   0.267   3.391  0.1340  0.6161 -0.9073
10533TIP3    H253015   5.948   0.256   3.245 -0.5457 -0.7340 -0.9938
10534TIP3   OH253016   4.177   5.100  11.478 -0.0167 -0.2635 -0.0365
10534TIP3    H153017   4.212   5.042  11.411 -1.9138 -0.4658 -0.9209
10534TIP3    H253018   4.158   5.043  11.552 -1.6381 -0.7899 -0.8112
10535TIP3   OH253019   1.117   1.994   0.429 -0.2293 -0.0031 -0.0466
10535TIP3    H153020   1.042   2.018   0.375 -0.8106  0.4162  0.9236
10535TIP3    H253021   1.080   1.943   0.501  0.5521 -0.7042 -0.1232
10536TIP3   OH253022   3.833   1.214  11.951 -0.2530 -0.0098 -0.0232
10536TIP3    H153023   3.808   1.154  11.882 -1.0081  0.6806 -0.3589
10536TIP3    H253024   3.922   1.241  11.929  0.1384 -1.0685  0.1919
10537TIP3   OH253025   3.266   3.662  11.013  0.2529  0.2645  0.5022
10537TIP3    H153026   3.217   3.650  10.932  1.1543  0.4322 -0.0780
10537TIP3    H253027   3.205   3.706  11.072  0.8326  4.1903 -1.4734
10538TIP3   OH253028   6.271   1.851   0.757 -0.8957 -0.0909  0.4025
10538TIP3    H153029   6.275   1.757   0.742  1.2251  0.2201 -1.4620
10538TIP3    H253030   6.256   1.889   0.671  2.0566  1.3892  0.4180
10539TIP3   OH253031   0.989   5.263  13.086  0.2870 -0.0569 -0.0312
10539TIP3    H153032   0.976   5.290  13.177 -1.7015  0.3280 -0.3927
10539TIP3    H253033   0.960   5.338  13.035 -3.5454 -1.9624 -1.0305
10540TIP3   OH253034   6.648   1.174   4.191 -0.4119  0.2516 -0.0975
10540TIP3    H153035   6.677   1.168   4.100 -1.7571  0.6816 -0.5685
10540TIP3    H253036   6.554   1.159   4.188 -0.4730  0.2168  1.2430
10541TIP3   OH253037   2.006   2.137   5.691 -0.8485 -0.3510  0.1652
10541TIP3    H153038   1.983   2.159   5.782 -0.4907  0.0608  0.1615
10541TIP3    H253039   2.033   2.045   5.694 -0.3678 -0.2021  0.5700
10542TIP3   OH253040   5.160   4.281   5.875  0.0548  0.1272  0.7072
10542TIP3    H153041   5.104   4.355   5.899  0.5703  0.4839  0.8137
10542TIP3    H253042   5.242   4.296   5.921  0.9308  0.6131 -0.9393
10543TIP3   OH253043   3.518   5.177  17.158 -0.1148 -0.3270 -0.1396
10543TIP3    H153044   3.437   5.204  17.201 -0.5088  0.6150 -1.4363
10543TIP3    H253045   3.558   5.115  17.220 -1.2644  0.0358  1.0081
10544TIP3   OH253046   2.654   1.949  11.658  0.0271 -0.4192  0.1841
10544TIP3    H153047   2.652   1.866  11.610 -2.0143  0.5471 -1.5675
10544TIP3    H253048   2.711   2.006  11.605 -2.5783  0.7878 -1.5275
10545TIP3   OH253049   5.349   3.225  12.521 -0.3055  0.5273 -0.0196
10545TIP3    H153050   5.293   3.180  12.585 -0.6834  0.5414 -0.3320
10545TIP3    H253051   5.302   3.307  12.502 -0.4155  0.3299 -0.6260
10546TIP3   OH253052   2.833   2.424   1.027 -0.4840 -0.5710 -0.2783
10546TIP3    H153053   2.798   2.433   1.116  0.9393 -0.1693  0.2818
10546TIP3    H253054   2.928   2.431   1.039 -0.2035 -1.6012 -1.7113
10547TIP3   OH253055   0.741   4.952   2.371  0.0936 -0.3451 -0.4857
10547TIP3    H153056   0.731   5.044   2.395 -0.9426 -0.4894 -0.3231
10547TIP3    H253057   0.656   4.913   2.390  0.7492 -1.5041  0.1857
10548TIP3   OH253058   3.373   1.503   1.065 -0.0372 -0.1708  0.5439
10548TIP3    H153059   3.306   1.570   1.049  0.4835  0.1924 -0.1884
10548TIP3    H253060   3.358   1.475   1.155  1.2537  2.7006  1.7932
10549TIP3   OH253061   5.280   1.626   3.014 -0.3417 -0.3120  0.0812
10549TIP3    H153062   5.294   1.537   2.983 -1.1623 -0.8404  1.1668
10549TIP3    H253063   5.200   1.654   2.970 -0.8362 -0.6210  0.7654
10550TIP3   OH253064   5.416   4.231  12.878 -0.2555  0.1347  0.3662
10550TIP3    H153065   5.389   4.140  12.888  3.5677 -1.3128 -0.7395
10550TIP3    H253066   5.435   4.261  12.967 -0.9367 -0.3576  0.6796
10551TIP3   OH253067   4.248   4.654   1.148 -0.3338 -0.2393  0.5155
10551TIP3    H153068   4.202   4.678   1.067  1.4402  2.2280  0.1090
10551TIP3    H253069   4.336   4.630   1.119 -0.6205 -2.7865  1.4668
10552TIP3   OH253070   6.184   4.847   1.913  0.0045  0.2895  0.3165
10552TIP3    H153071   6.108   4.903   1.923 -0.9149 -1.1631  1.9147
10552TIP3    H253072   6.215   4.864   1.824  0.5862  4.2474  1.0769
10553TIP3   OH253073   5.377   3.832  16.089 -0.4134 -0.3629 -0.5678
10553TIP3    H153074   5.407   3.870  16.006 -0.4689  1.2625  0.1264
10553TIP3    H253075   5.440   3.762  16.106  1.8567  1.5969 -0.2055
10554TIP3   OH253076   4.919   2.047   3.501  0.3948 -0.4104  0.7411
10554TIP3    H153077   4.949   2.133   3.470  0.0238  0.1339  1.8453
10554TIP3    H253078   4.860   2.016   3.433  0.2981  0.3537  0.4677
10555TIP3   OH253079   1.391   5.086   5.280  0.1254 -0.2989  0.5986
10555TIP3    H153080   1.354   5.121   5.199  1.8396 -1.4511 -0.7636
10555TIP3    H253081   1.316   5.073   5.338 -1.0637  1.1973 -0.5414
10556TIP3   OH253082   5.112   1.826  11.865 -0.4136 -0.2383  0.4384
10556TIP3    H153083   5.052   1.765  11.823  2.0795 -0.9853 -2.3467
10556TIP3    H253084   5.186   1.772  11.892  0.0387  0.9861  1.7807
10557TIP3   OH253085   3.832   4.518   1.654 -0.3228 -0.3135 -0.2132
10557TIP3    H153086   3.828   4.442   1.712 -0.4879  0.8283  1.3114
10557TIP3    H253087   3.769   4.499   1.585 -0.7450 -1.3320  0.4355
10558TIP3   OH253088   3.866   3.378  14.449  0.3515 -0.6966  0.5206
10558TIP3    H153089   3.879   3.436  14.524 -0.4997 -1.2853  1.1462
10558TIP3    H253090   3.773   3.357  14.452  0.6433 -2.0961  0.3165
10559TIP3   OH253091   4.400   4.067  16.684  0.2679 -0.4106  0.3535
10559TIP3    H153092   4.424   4.131  16.617 -0.2854 -1.4823 -0.9081
10559TIP3    H253093   4.307   4.085  16.702 -0.4633 -2.0619 -1.4602
10560TIP3   OH253094   4.922   5.095  13.065 -0.4577 -0.1942 -0.3901
10560TIP3    H153095   4.954   5.016  13.110 -0.1779 -0.0408 -0.3198
10560TIP3    H253096   5.001   5.146  13.047 -0.5981 -0.1127 -0.7906
10561TIP3   OH253097   3.284   2.188  14.317  0.8672 -0.4879 -0.1645
10561TIP3    H153098   3.302   2.254  14.250  0.5564 -0.7428 -0.5019
10561TIP3    H253099   3.353   2.201  14.382 -0.2865  1.4873  0.7756
10562TIP3   OH253100   0.751   4.242   4.136 -0.6000 -0.0112  0.5471
10562TIP3    H153101   0.691   4.168   4.142 -0.6666  0.0154  0.2197
10562TIP3    H253102   0.788   4.250   4.224 -1.4189  0.2609  0.8713
10563TIP3   OH253103   2.375   0.916  13.660  0.1732 -0.1518 -0.5051
10563TIP3    H153104   2.323   0.980  13.709 -4.0151 -1.9934 -2.0287
10563TIP3    H253105   2.333   0.912  13.574  1.6440 -3.2635 -1.2316
10564TIP3   OH253106   5.934   2.186   4.790 -0.1114 -0.2833  0.3604
10564TIP3    H153107   5.981   2.155   4.867 -1.3891  0.2615  1.4139
10564TIP3    H253108   5.944   2.281   4.792  0.5562 -0.3197 -0.6479
10565TIP3   OH253109   4.007   5.091   5.547  0.3010 -0.3637 -0.5709
10565TIP3    H153110   4.042   5.154   5.611 -1.0858 -0.0467 -0.0986
10565TIP3    H253111   4.056   5.109   5.467  1.9261 -0.6214  0.3235
10566TIP3   OH253112   0.654   1.226   2.192 -0.1685 -0.4141  0.6057
10566TIP3    H153113   0.650   1.222   2.096  1.1754  0.6729  0.4678
10566TIP3    H253114   0.607   1.307   2.214 -1.1919 -1.0875  0.9462
10567TIP3   OH253115   2.242   4.881   1.929 -0.0974 -0.2966  0.0719
10567TIP3    H153116   2.159   4.834   1.927  0.6899 -1.7610  0.7691
10567TIP3    H253117   2.309   4.813   1.932  1.1141  0.8576  0.2607
10568TIP3   OH253118   1.463   1.079   1.340 -0.1360  0.0464  0.0748
10568TIP3    H153119   1.555   1.061   1.360 -0.2520  1.0299  1.6119
10568TIP3    H253120   1.458   1.174   1.331 -0.8293 -0.0764 -1.0398
10569TIP3   OH253121   0.050   3.748  16.254  0.1706  0.1332 -0.3163
10569TIP3    H153122  -0.039   3.719  16.271  0.7711 -1.4173  0.4454
10569TIP3    H253123   0.079   3.696  16.179  0.0001  1.6076 -1.4250
10570TIP3   OH253124   5.185   0.620   2.689  0.0078  0.7776  0.3831
10570TIP3    H153125   5.105   0.614   2.637  1.7116  2.0155 -2.6312
10570TIP3    H253126   5.203   0.714   2.692  1.6945  0.4698  0.3802
10571TIP3   OH253127   0.368   2.301   3.424  0.4241  0.3516  0.2907
10571TIP3    H153128   0.388   2.394   3.432  0.0108  0.4494  0.2070
10571TIP3    H253129   0.330   2.277   3.508 -0.4578  0.5094 -0.0549
10572TIP3   OH253130   0.801   1.476   5.561 -0.2473  0.3983 -0.3456
10572TIP3    H153131   0.758   1.411   5.506  0.2644 -0.7392  0.5643
10572TIP3    H253132   0.732   1.506   5.620  0.0469 -1.0538  0.7782
10573TIP3   OH253133   0.109   5.338   6.116 -0.0239 -0.2224  0.0988
10573TIP3    H153134   0.152   5.381   6.042  0.0657  2.7661  1.7468
10573TIP3    H253135   0.152   5.375   6.194 -2.2570 -0.8370  1.7251
10574TIP3   OH253136   1.993   2.943   0.588 -0.6964 -0.0693 -0.0177
10574TIP3    H153137   1.928   2.987   0.643 -1.1802 -1.2048  0.3356
10574TIP3    H253138   1.960   2.955   0.499 -1.4011 -0.6387  0.1583
10575TIP3   OH253139   0.823   3.575   2.187  0.1287 -0.0746  0.7184
10575TIP3    H153140   0.876   3.502   2.153 -0.7075 -0.1573 -0.4987
10575TIP3    H253141   0.886   3.645   2.203  0.8371 -0.7702  1.0557
10576TIP3   OH253142   2.391   5.897  16.184 -0.5190 -0.3152 -0.1689
10576TIP3    H153143   2.357   5.960  16.121  1.3601  0.3851 -0.5463
10576TIP3    H253144   2.382   5.941  16.269 -0.2604  0.0049 -0.3066
10577TIP3   OH253145   0.663   6.265  16.827  0.1930 -0.0213 -0.6292
10577TIP3    H153146   0.632   6.355  16.816  0.9124  0.4852  1.0734
10577TIP3    H253147   0.673   6.232  16.738  0.4104  1.7621 -1.3161
10578TIP3   OH253148   3.144   3.708   3.596  0.2179  0.1198 -0.2541
10578TIP3    H153149   3.130   3.643   3.665  0.4865 -0.0826 -0.3881
10578TIP3    H253150   3.105   3.669   3.518  0.1975  0.2072 -0.2871
10579TIP3   OH253151   4.396   3.771   0.099  0.1813 -0.7717  0.2698
10579TIP3    H153152   4.403   3.827   0.177  1.9419 -2.2052  1.2319
10579TIP3    H253153   4.444   3.692   0.123 -1.3303 -2.2866 -1.4176
10580TIP3   OH253154   2.232   3.006  11.632  0.1908  0.4356  1.0009
10580TIP3    H153155   2.189   2.988  11.716  0.0520 -0.8738  0.6800
10580TIP3    H253156   2.186   3.082  11.597 -0.2408  0.5447  1.7781
10581TIP3   OH253157   5.833   1.620   1.734  0.2223  0.3385 -0.4389
10581TIP3    H153158   5.793   1.576   1.810  1.2325  1.2028  0.6196
10581TIP3    H253159   5.776   1.596   1.660 -2.5015  1.7436  1.0229
10582TIP3   OH253160   0.957   0.130  13.142 -0.5549 -0.4602 -0.0628
10582TIP3    H153161   0.938   0.130  13.236 -2.0421 -1.3500 -0.3296
10582TIP3    H253162   0.993   0.217  13.125 -0.6164 -0.1568  1.2576
10583TIP3   OH253163   1.941   6.715  11.677 -1.1595 -0.3331 -0.0224
10583TIP3    H153164   1.995   6.689  11.602 -2.1536 -1.1694 -0.4813
10583TIP3    H253165   1.894   6.793  11.646 -0.5242  0.1498  0.2302
10584TIP3   OH253166   1.103   1.609   3.058 -0.1824 -0.3426 -0.0836
10584TIP3    H153167   1.195   1.598   3.084  0.1067  1.4117 -0.2535
10584TIP3    H253168   1.056   1.613   3.141 -0.1834 -1.6121  0.0017
10585TIP3   OH253169   5.779   5.745  14.317  0.2478 -0.3444 -0.0215
10585TIP3    H153170   5.807   5.747  14.225 -0.6175 -0.5700 -0.2968
10585TIP3    H253171   5.836   5.680  14.358  1.1206  0.2665 -0.2253
10586TIP3   OH253172   0.580   3.236  15.557  0.2084  0.6043  0.1225
10586TIP3    H153173   0.546   3.147  15.562  0.4434  0.3910 -1.4694
10586TIP3    H253174   0.524   3.280  15.493  1.0695  1.1207 -0.3004
10587TIP3   OH253175   0.429   1.756  13.345  0.1400  0.1347 -0.7730
10587TIP3    H153176   0.475   1.823  13.295  0.3948 -0.2065 -1.0000
10587TIP3    H253177   0.495   1.689  13.364 -0.4339 -0.7820 -1.8567
10588TIP3   OH253178   4.254   5.702   3.527  0.1439  0.5147 -0.3749
10588TIP3    H153179   4.223   5.722   3.615  0.0370 -0.5404 -0.1644
10588TIP3    H253180   4.196   5.753   3.470  0.8764  2.0133  0.1894
10589TIP3   OH253181   6.048   4.411   4.678 -0.2352  0.1221  0.6430
10589TIP3    H153182   6.069   4.320   4.697 -0.5059  0.1919  1.2989
10589TIP3    H253183   6.122   4.461   4.714  0.8991  0.0552 -1.4531
10590TIP3   OH253184   2.988   0.531   1.905  0.5235  0.3363 -0.0457
10590TIP3    H153185   3.009   0.446   1.945  1.0480 -0.0750 -1.1541
10590TIP3    H253186   2.894   0.527   1.889  0.4094  0.2772  0.6158
10591TIP3   OH253187   2.128   1.250   5.759 -0.3879 -0.2437 -0.6596
10591TIP3    H153188   2.104   1.301   5.836 -0.6481  0.0351 -0.9225
10591TIP3    H253189   2.222   1.267   5.748  0.1811 -2.0695  0.9091
10592TIP3   OH253190   3.653   1.428  13.759  0.0165 -0.5131  0.6590
10592TIP3    H153191   3.610   1.412  13.843 -0.8713 -1.5675  0.0335
10592TIP3    H253192   3.622   1.514  13.733  0.7954  0.1032  1.6863
10593TIP3   OH253193   6.147   3.666  10.971 -0.5598 -0.4585  0.2779
10593TIP3    H153194   6.214   3.674  10.902 -0.5688  1.8328  0.4783
10593TIP3    H253195   6.123   3.573  10.969  0.2549 -0.7028 -2.0395
10594TIP3   OH253196   5.712   0.673  12.443 -0.4051  0.6688 -0.1505
10594TIP3    H153197   5.675   0.760  12.427  2.2197  2.0673  0.8529
10594TIP3    H253198   5.806   0.687  12.450  0.0358 -2.1221  1.0309
10595TIP3   OH253199   6.202   5.571  15.917 -0.0917  0.0717  0.0948
10595TIP3    H153200   6.136   5.567  15.986  1.1525 -1.9806  1.2808
10595TIP3    H253201   6.158   5.536  15.840 -1.2380  1.5628  0.0179
10596TIP3   OH253202   5.330   5.726   3.973  0.1619  0.0881 -0.6911
10596TIP3    H153203   5.417   5.758   3.996  0.6234 -0.0976 -2.1148
10596TIP3    H253204   5.320   5.646   4.025 -0.3282  1.5423  1.6139
10597TIP3   OH253205   3.402   0.030   5.518  0.0708  0.1498  0.6119
10597TIP3    H153206   3.346   0.049   5.443 -1.7872 -0.1529  1.8605
10597TIP3    H253207   3.398   0.109   5.572  0.2842 -0.1358  1.0548
10598TIP3   OH253208   1.306   5.985  15.357  0.1075  0.2057  0.0411
10598TIP3    H153209   1.268   5.897  15.362  0.1418  0.2030  0.2598
10598TIP3    H253210   1.311   6.014  15.448 -0.6695  0.7634 -0.0877
10599TIP3   OH253211   3.238   1.827  12.806  0.3118 -0.3837  0.2138
10599TIP3    H153212   3.209   1.898  12.864  0.1578 -0.5958  0.3983
10599TIP3    H253213   3.315   1.791  12.849  0.2937 -0.4351  0.2036
10600TIP3   OH253214   5.991   0.730  12.006 -0.2793 -0.4222 -0.1851
10600TIP3    H153215   5.964   0.674  11.934 -0.5848  0.8664 -1.1147
10600TIP3    H253216   6.009   0.670  12.078 -3.1435 -1.5574 -0.2876
10601TIP3   OH253217   1.614   1.489   2.594 -0.9785  0.0391 -0.5121
10601TIP3    H153218   1.603   1.489   2.689  1.0217 -0.7623 -0.2109
10601TIP3    H253219   1.532   1.523   2.559 -1.3249  1.4810  1.5498
10602TIP3   OH253220   6.433   4.292  12.348 -0.2072  0.1454  0.5673
10602TIP3    H153221   6.372   4.228  12.384 -1.8461  1.6615  0.6072
10602TIP3    H253222   6.516   4.273  12.392 -0.3275 -2.5882 -0.1978
10603TIP3   OH253223   0.139   3.555   4.888  0.1984 -0.0062  0.7841
10603TIP3    H153224   0.074   3.521   4.949 -0.6091 -3.2473 -1.5843
10603TIP3    H253225   0.165   3.479   4.836  3.0472  1.9469 -0.9332
10604TIP3   OH253226   2.108   2.588   0.681 -0.2804  0.3024  0.4281
10604TIP3    H153227   2.176   2.622   0.739 -0.2899  0.2183  0.4885
10604TIP3    H253228   2.056   2.530   0.737 -0.1799  0.0766  0.2886
10605TIP3   OH253229   2.953   4.169  15.258 -0.4592  0.6910 -0.0645
10605TIP3    H153230   2.881   4.173  15.322 -0.9663  0.0483 -0.5894
10605TIP3    H253231   3.025   4.214  15.302 -0.5905 -0.2985  1.2468
10606TIP3   OH253232   1.196   1.419  13.982  0.3904 -0.2480  0.7925
10606TIP3    H153233   1.209   1.510  14.010  0.9107 -0.3228  0.8027
10606TIP3    H253234   1.248   1.412  13.902 -0.7565 -0.1496  0.0190
10607TIP3   OH253235   6.410   2.584   0.090 -0.0765  0.2178 -0.7600
10607TIP3    H153236   6.316   2.600   0.099 -0.2863 -0.5723 -1.4717
10607TIP3    H253237   6.430   2.606  -0.001  0.1968 -0.7166 -0.9366
10608TIP3   OH253238   6.002   1.869  16.500  0.2912 -0.1807 -0.4912
10608TIP3    H153239   6.022   1.776  16.505  1.9976  0.2145  0.6480
10608TIP3    H253240   6.009   1.901  16.590 -2.1458  0.7185 -0.5497
10609TIP3   OH253241   3.667   2.143  16.275 -0.2062  0.3080  0.3629
10609TIP3    H153242   3.603   2.193  16.326  0.2478 -0.5211  1.8215
10609TIP3    H253243   3.617   2.067  16.242 -0.5529  0.9560 -0.6580
10610TIP3   OH253244   6.276   6.629   5.633  0.0946  0.0446  0.3593
10610TIP3    H153245   6.326   6.609   5.553 -3.6128 -0.3940 -2.1120
10610TIP3    H253246   6.232   6.546   5.654 -0.1928  0.5773  1.9295
10611TIP3   OH253247   1.791   1.238  17.027  0.1183 -0.1350 -0.5395
10611TIP3    H153248   1.697   1.240  17.046 -0.0815  1.6503 -1.4553
10611TIP3    H253249   1.815   1.146  17.032 -0.8203 -0.3438  3.5762
10612TIP3   OH253250   0.618   0.475   2.755  0.0629 -0.1586 -0.5617
10612TIP3    H153251   0.592   0.528   2.831 -1.5094 -3.7983  1.7262
10612TIP3    H253252   0.571   0.514   2.681 -0.0508  2.2459  0.6866
10613TIP3   OH253253   3.765   2.608  15.425 -0.8751  0.3666  0.1594
10613TIP3    H153254   3.858   2.594  15.441 -0.7833 -0.1203 -0.7322
10613TIP3    H253255   3.759   2.697  15.389 -0.9505  1.0064  1.6762
10614TIP3   OH253256   4.906   0.526   3.226  0.2069 -0.3375  0.2750
10614TIP3    H153257   4.970   0.455   3.234  0.7734  0.0587 -0.5354
10614TIP3    H253258   4.947   0.588   3.166  1.3802  2.4438  3.5759
10615TIP3   OH253259   5.647   1.395  13.996  0.1619 -0.0991  0.0163
10615TIP3    H153260   5.649   1.377  13.902  1.9706 -0.0761  0.0163
10615TIP3    H253261   5.738   1.416  14.018 -0.3832  0.7228  1.6157
10616TIP3   OH253262   6.441   1.568  13.862  0.2341  0.4636  0.2613
10616TIP3    H153263   6.409   1.658  13.855  2.5148  1.5477  2.3674
10616TIP3    H253264   6.475   1.549  13.774 -0.1556  1.6999 -0.1879
10617TIP3   OH253265   6.700   1.662   4.738 -0.0137  0.2464  0.3628
10617TIP3    H153266   6.716   1.593   4.802  1.6156  1.5611  1.4565
10617TIP3    H253267   6.687   1.616   4.655  2.1387 -1.3564  0.8410
10618TIP3   OH253268   3.751   3.052   3.767  0.3727 -0.1743 -0.2818
10618TIP3    H153269   3.847   3.055   3.773  0.3076 -0.4119  1.4348
10618TIP3    H253270   3.734   3.011   3.683  1.7098  2.6843 -2.1117
10619TIP3   OH253271   2.771   2.239  11.676  0.0910 -0.3662 -0.0772
10619TIP3    H153272   2.816   2.300  11.617  1.1266 -0.4030  0.6705
10619TIP3    H253273   2.832   2.166  11.687  0.2825  0.0211  1.6999
10620TIP3   OH253274   1.945   0.083  16.917 -0.2854  0.3598 -0.2664
10620TIP3    H153275   1.953   0.152  16.983 -0.6800  0.0983  0.0561
10620TIP3    H253276   2.014   0.020  16.940 -1.3038 -0.4313  0.7545
10621TIP3   OH253277   4.209   1.285   4.569  0.1964 -0.0993  0.2110
10621TIP3    H153278   4.241   1.267   4.481  0.0180  1.2428 -0.1554
10621TIP3    H253279   4.255   1.365   4.595  0.0582 -0.3347  1.2445
10622TIP3   OH253280   2.408   1.419  14.082 -0.4278  0.1173 -0.2109
10622TIP3    H153281   2.380   1.433  13.992 -0.6158 -0.4082 -0.2404
10622TIP3    H253282   2.420   1.324  14.089  1.4682  0.3080 -0.2301
10623TIP3   OH253283   2.776   5.915  14.047 -0.6263 -0.1206  0.5839
10623TIP3    H153284   2.771   5.973  14.123 -1.1181  0.8321 -0.1539
10623TIP3    H253285   2.777   5.827  14.084  0.1623  0.3492  1.7369
10624TIP3   OH253286   5.555   5.055   4.862  0.4403 -0.3157  0.0387
10624TIP3    H153287   5.637   5.038   4.816 -0.8484  0.7795 -2.8852
10624TIP3    H253288   5.540   5.149   4.851 -1.1919 -0.4855  0.5187
10625TIP3   OH253289   4.362   2.519   0.082  0.1499  0.2177  0.1778
10625TIP3    H153290   4.367   2.430   0.116 -1.0473 -0.0163 -0.1890
10625TIP3    H253291   4.383   2.575   0.157  1.4192 -0.3786  0.2766
10626TIP3   OH253292   6.330   3.905   3.294  0.0271 -0.1441 -0.8735
10626TIP3    H153293   6.406   3.961   3.310  0.0566 -0.5213  0.4275
10626TIP3    H253294   6.359   3.817   3.317 -1.5083  0.0331  2.3311
10627TIP3   OH253295   5.199   0.697   6.432 -0.2675  0.4577  0.2592
10627TIP3    H153296   5.111   0.662   6.419 -0.8811  0.7162  2.9875
10627TIP3    H253297   5.256   0.636   6.386 -1.7284 -0.8390  0.0804
10628TIP3   OH253298   1.168   4.551   5.802 -1.3413 -0.1388 -0.3731
10628TIP3    H153299   1.223   4.538   5.725 -0.7352  0.8913 -0.1355
10628TIP3    H253300   1.102   4.482   5.796 -0.3119 -1.1188 -0.9198
10629TIP3   OH253301   6.107   1.909   4.007 -0.5313 -0.1851  0.1718
10629TIP3    H153302   6.068   1.976   4.063 -2.4799  0.9304 -2.3054
10629TIP3    H253303   6.200   1.913   4.026 -0.2831  4.4028 -0.8714
10630TIP3   OH253304   4.644   1.141  14.001 -0.1142 -0.2464 -0.1810
10630TIP3    H153305   4.739   1.145  13.995 -0.0502 -0.3251  0.6665
10630TIP3    H253306   4.613   1.181  13.920  0.6440 -1.8944 -1.3516
10631TIP3   OH253307   4.834   2.712  14.674 -0.2674  0.5904  0.3923
10631TIP3    H153308   4.835   2.756  14.589 -0.3027 -0.3239 -0.0991
10631TIP3    H253309   4.898   2.641  14.664 -0.3215  0.4384  1.1103
10632TIP3   OH253310   5.524   0.538  15.441 -1.0729 -0.8653 -0.4845
10632TIP3    H153311   5.524   0.557  15.535 -2.1654  0.1098 -0.6467
10632TIP3    H253312   5.496   0.447  15.436  1.7922 -1.8932  0.2173
10633TIP3   OH253313   5.055   4.278   1.241 -0.4296  0.3496 -0.1196
10633TIP3    H153314   5.115   4.326   1.298 -0.0310 -0.0255 -0.2191
10633TIP3    H253315   5.097   4.193   1.228 -0.2755  0.5967 -1.3703
10634TIP3   OH253316   1.566   4.862   0.718  0.2513 -0.5201 -0.4810
10634TIP3    H153317   1.543   4.922   0.790  3.5773  0.4678 -0.0437
10634TIP3    H253318   1.533   4.905   0.640  1.8827  1.6405 -0.0910
10635TIP3   OH253319   6.617   3.623   0.572 -0.3803  0.6016 -0.0572
10635TIP3    H153320   6.556   3.669   0.514 -0.5821  0.5868  0.1404
10635TIP3    H253321   6.607   3.668   0.656 -0.6351  0.1438  0.1568
10636TIP3   OH253322   3.510   2.470   3.526  0.3119 -0.0488  0.2141
10636TIP3    H153323   3.496   2.564   3.538 -0.1413 -0.2967  1.9442
10636TIP3    H253324   3.434   2.440   3.476 -0.2470  0.3118  0.8231
10637TIP3   OH253325   4.861   4.324   3.403 -0.6180  0.1310  0.3654
10637TIP3    H153326   4.840   4.273   3.324  2.8208  1.2340 -1.4444
10637TIP3    H253327   4.845   4.415   3.377  0.0160  0.4687  1.1436
10638TIP3   OH253328   5.343   3.456   5.223 -0.5329  0.2901  0.0559
10638TIP3    H153329   5.356   3.551   5.233  0.9081  0.2779 -1.2722
10638TIP3    H253330   5.397   3.418   5.293  0.6653  0.4319 -0.7587
10639TIP3   OH253331   3.818   0.639  13.362 -0.0585  0.4235 -0.8737
10639TIP3    H153332   3.752   0.663  13.427 -0.2341  0.8658 -1.2074
10639TIP3    H253333   3.839   0.548  13.381  0.2742  0.7000  0.1239
10640TIP3   OH253334   2.068   3.466  17.049  0.4215 -0.0916  0.3267
10640TIP3    H153335   1.978   3.475  17.019  0.3684  0.2729  0.6004
10640TIP3    H253336   2.061   3.432  17.138  0.5404  0.6012  0.5990
10641TIP3   OH253337   4.496   3.851  11.050  0.5747 -0.1223  0.6398
10641TIP3    H153338   4.458   3.924  11.002  0.9563 -0.1929  0.2201
10641TIP3    H253339   4.433   3.832  11.120  1.1137  1.4808  1.6132
10642TIP3   OH253340   3.733   0.282   4.910 -0.4118  0.3781 -0.1858
10642TIP3    H153341   3.774   0.239   4.985 -1.5093 -1.2172 -0.4588
10642TIP3    H253342   3.804   0.334   4.871  0.0579  1.7123  2.2281
10643TIP3   OH253343   4.838   6.505   5.242 -0.0702  0.4342 -0.1299
10643TIP3    H153344   4.913   6.476   5.190 -0.5188 -0.6784 -0.1932
10643TIP3    H253345   4.876   6.537   5.324  0.4336 -0.9020  0.1814
10644TIP3   OH253346   1.451   4.337  12.881  0.1914 -0.1844  0.4116
10644TIP3    H153347   1.482   4.403  12.819  0.9977  0.5737  1.5911
10644TIP3    H253348   1.412   4.269  12.826 -1.0614  1.4630 -0.7982
10645TIP3   OH253349   3.423   6.431  14.289 -0.0092 -0.7810  0.4991
10645TIP3    H153350   3.393   6.443  14.379  2.2701  1.1814  1.0905
10645TIP3    H253351   3.434   6.519  14.254  0.6688 -1.4744 -1.1686
10646TIP3   OH253352   3.817   2.849  10.971 -0.1399  0.3721  0.2775
10646TIP3    H153353   3.780   2.764  10.948  1.9226 -0.5681  0.1865
10646TIP3    H253354   3.797   2.860  11.064  0.6129 -0.7924  0.5886
10647TIP3   OH253355   4.230   3.225   5.518  0.0306  0.1774  0.5838
10647TIP3    H153356   4.234   3.130   5.507  1.0003  0.1044  1.4213
10647TIP3    H253357   4.145   3.250   5.480 -0.2711 -1.0223  0.4233
10648TIP3   OH253358   1.696   1.685   1.319  0.4509  0.0174  0.3494
10648TIP3    H153359   1.692   1.634   1.239  1.9113 -1.4665  1.1634
10648TIP3    H253360   1.643   1.637   1.382  0.5960  0.3107  0.7051
10649TIP3   OH253361   3.568   1.984  13.059 -0.4970 -0.3241 -0.3901
10649TIP3    H153362   3.582   2.058  13.000 -0.7924 -0.4033 -0.5587
10649TIP3    H253363   3.514   1.923  13.009 -1.3799 -0.0645  0.2307
10650TIP3   OH253364   2.677   6.691  15.031  0.1003 -0.8730 -0.1883
10650TIP3    H153365   2.688   6.603  15.067  0.5122 -1.0341 -0.6850
10650TIP3    H253366   2.583   6.703  15.024 -0.0085 -0.5855  1.5352
10651TIP3   OH253367   2.252   0.378  15.903 -0.1135 -0.0131  0.4684
10651TIP3    H153368   2.208   0.460  15.926 -2.0103 -0.8855  0.1167
10651TIP3    H253369   2.181   0.313  15.899  1.2823 -1.5919  0.3329
10652TIP3   OH253370   2.872   6.200  13.793 -0.0988 -0.0049 -0.2148
10652TIP3    H153371   2.800   6.137  13.797 -0.0388 -0.2983 -2.6129
10652TIP3    H253372   2.850   6.258  13.720  0.3925  2.1303  1.2558
10653TIP3   OH253373   6.162   1.985  12.458 -0.0292  0.1482 -0.9639
10653TIP3    H153374   6.236   1.925  12.469  0.1908  0.4658 -0.6971
10653TIP3    H253375   6.143   2.016  12.546 -0.9529 -0.4915 -0.9301
10654TIP3   OH253376   0.661   3.674   4.705 -0.2181 -0.0672  0.2797
10654TIP3    H153377   0.589   3.737   4.704  1.5935  2.1422 -0.4092
10654TIP3    H253378   0.671   3.648   4.613  0.4522  0.3859  0.2184
10655TIP3   OH253379   0.232   0.550   5.716  0.3170 -0.0575  0.0209
10655TIP3    H153380   0.305   0.610   5.702  0.8762 -0.8907 -0.6778
10655TIP3    H253381   0.158   0.607   5.739  1.0255  0.8356  0.1032
10656TIP3   OH253382   0.124   3.757  16.522 -0.5977 -0.3807  0.2480
10656TIP3    H153383   0.054   3.714  16.570 -0.4656 -0.6904  0.1704
10656TIP3    H253384   0.094   3.758  16.431  0.0652 -1.7381 -0.0193
10657TIP3   OH253385   5.201   3.888   0.848 -0.3635  0.3557  0.0961
10657TIP3    H153386   5.241   3.976   0.846  0.8522 -0.0155  2.9934
10657TIP3    H253387   5.114   3.902   0.887 -0.2950  0.3302  0.2602
10658TIP3   OH253388   4.908   0.461  11.122  0.1317  0.5226  0.3297
10658TIP3    H153389   4.932   0.392  11.061  0.9013  1.4450 -0.4484
10658TIP3    H253390   4.992   0.498  11.151 -0.2727  1.5572  0.2142
10659TIP3   OH253391   6.325   0.529   4.373 -0.0182  0.2498 -0.7004
10659TIP3    H153392   6.416   0.556   4.364  0.0757 -0.2511 -1.3467
10659TIP3    H253393   6.311   0.468   4.300  0.5770 -3.6771  2.1567
10660TIP3   OH253394   4.859   2.664  16.302  0.1863  0.1844  0.0105
10660TIP3    H153395   4.855   2.655  16.207 -1.9385  1.6790 -0.0936
10660TIP3    H253396   4.921   2.596  16.329  0.1356 -0.9095 -2.3370
10661TIP3   OH253397   0.752   3.940  14.927  0.1279  0.0982 -0.2136
10661TIP3    H153398   0.767   4.026  14.967  1.6369 -0.4779  0.5329
10661TIP3    H253399   0.830   3.889  14.949 -1.2435 -1.8527  0.3875
10662TIP3   OH253400   3.546   5.319  14.844  0.4149 -0.0361  0.1536
10662TIP3    H153401   3.577   5.359  14.925 -1.2917 -0.8959  1.2987
10662TIP3    H253402   3.512   5.233  14.871 -1.9634  0.4120 -1.0796
10663TIP3   OH253403   3.067   2.299   1.793  0.3378  0.5456 -0.4856
10663TIP3    H153404   3.119   2.218   1.799 -0.3473  0.0345 -1.1760
10663TIP3    H253405   3.022   2.292   1.708 -1.7170  0.4226  0.5473
10664TIP3   OH253406   1.692   2.377  14.208  0.0853 -0.0816  0.6095
10664TIP3    H153407   1.772   2.370  14.259  0.0345  1.4370  0.9257
10664TIP3    H253408   1.649   2.292  14.220  0.5711 -0.1349  2.2420
10665TIP3   OH253409   1.181   1.732   1.116 -0.3391  0.2196  0.5355
10665TIP3    H153410   1.240   1.681   1.171 -1.1690 -1.2937  0.0640
10665TIP3    H253411   1.148   1.801   1.174  0.7581  0.2093  1.1992
10666TIP3   OH253412   3.962   3.153  13.304  0.3100 -0.5853 -0.0236
10666TIP3    H153413   4.046   3.196  13.321  0.6237 -0.9638 -0.5938
10666TIP3    H253414   3.944   3.173  13.212 -1.0982  0.9952  0.5517
10667TIP3   OH253415   1.510   5.342  11.832  0.2131 -0.5066 -0.1294
10667TIP3    H153416   1.576   5.385  11.778  0.2317 -0.8992 -0.4231
10667TIP3    H253417   1.560   5.282  11.888  0.3427  0.9040  1.3243
10668TIP3   OH253418   2.334   0.759   1.335 -0.0267  0.4578  0.0759
10668TIP3    H153419   2.267   0.770   1.267  0.8507  1.6085 -0.6482
10668TIP3    H253420   2.330   0.666   1.357 -2.1057  0.5580  0.3334
10669TIP3   OH253421   0.745   4.167  13.003 -0.2810 -0.9090  0.2646
10669TIP3    H153422   0.733   4.117  12.923  0.7773  0.7240 -0.9663
10669TIP3    H253423   0.832   4.143  13.034 -0.8255 -1.8086  1.1629
10670TIP3   OH253424   5.694   6.131  13.119  0.0145  0.3544  0.1229
10670TIP3    H153425   5.716   6.047  13.157 -2.0162  0.9990  3.0345
10670TIP3    H253426   5.771   6.186  13.135  0.2945 -0.1943  0.6974
10671TIP3   OH253427   4.410   5.570  16.763 -0.1442  0.2621  0.0800
10671TIP3    H153428   4.463   5.650  16.756 -0.9276  0.7370 -0.7096
10671TIP3    H253429   4.389   5.548  16.672  0.6001 -1.2344  0.2338
10672TIP3   OH253430   0.089   4.447  15.407 -0.1871  0.0231  0.3263
10672TIP3    H153431   0.081   4.523  15.348  1.2931 -0.7989 -1.0043
10672TIP3    H253432   0.010   4.396  15.389  0.1572 -0.1317 -0.8667
10673TIP3   OH253433   3.224   1.890  16.535  0.6191  0.4377 -0.7590
10673TIP3    H153434   3.138   1.907  16.498  0.2986 -2.4224 -1.5784
10673TIP3    H253435   3.282   1.884  16.459  1.1833  0.4934 -0.3423
10674TIP3   OH253436   4.327   1.719  11.900  0.1375  0.6171 -0.5278
10674TIP3    H153437   4.262   1.704  11.831 -0.9457  0.1548  0.5551
10674TIP3    H253438   4.300   1.802  11.941  0.7048  0.8298 -0.5735
10675TIP3   OH253439   5.312   0.520  12.048  0.0877 -0.0355 -0.9081
10675TIP3    H153440   5.232   0.480  12.083  0.6877  0.3120  0.9657
10675TIP3    H253441   5.281   0.577  11.977 -1.2850 -0.2594 -0.5152
10676TIP3   OH253442   3.784   1.141   6.089  0.1056  0.0479  0.1549
10676TIP3    H153443   3.708   1.083   6.079  1.5094 -1.7312 -1.0108
10676TIP3    H253444   3.821   1.118   6.174 -0.0586  0.1485  0.2537
10677TIP3   OH253445   2.842   4.020   0.232  0.2015 -0.2794  0.2426
10677TIP3    H153446   2.863   4.110   0.257 -1.3014 -0.2044  1.3417
10677TIP3    H253447   2.747   4.016   0.235  0.2763 -2.2905  1.5716
10678TIP3   OH253448   2.533   1.682   3.876 -0.2145 -0.4835  0.6009
10678TIP3    H153449   2.568   1.622   3.811 -2.5702 -0.9685 -0.3135
10678TIP3    H253450   2.533   1.767   3.833  1.8163 -0.0183  1.4050
10679TIP3   OH253451   2.045   0.278  11.538  0.4145  0.3289  0.2731
10679TIP3    H153452   2.018   0.193  11.503 -2.3957  1.0073  0.5342
10679TIP3    H253453   2.113   0.257  11.603 -0.3021 -1.7430  0.4308
10680TIP3   OH253454   1.210   4.013  11.784  0.2633  0.0564 -0.0634
10680TIP3    H153455   1.134   4.004  11.727 -0.4167  0.6480  0.7250
10680TIP3    H253456   1.216   3.930  11.830  1.1941 -0.6648 -1.4118
10681TIP3   OH253457   0.611   0.755  13.402 -0.0391  0.1295 -0.4998
10681TIP3    H153458   0.545   0.730  13.467  0.3922  2.2583  0.8253
10681TIP3    H253459   0.580   0.715  13.320 -0.3701 -3.0258  1.0146
10682TIP3   OH253460   2.771   5.229   2.440  0.2320 -0.6483 -0.0502
10682TIP3    H153461   2.741   5.201   2.354 -0.4566 -1.4966  0.4553
10682TIP3    H253462   2.823   5.308   2.423  0.5945 -1.1400 -1.2941
10683TIP3   OH253463   5.089   1.397  14.015 -0.4231  0.0725 -0.8658
10683TIP3    H153464   5.181   1.420  14.006  0.0067 -1.1041  0.1218
10683TIP3    H253465   5.061   1.372  13.927  0.4241 -0.2851 -1.0423
10684TIP3   OH253466   5.285   4.239   2.544  0.0569 -0.1609 -0.2566
10684TIP3    H153467   5.319   4.259   2.456  0.3119 -0.4413 -0.2233
10684TIP3    H253468   5.225   4.165   2.530  2.8524 -2.7048  0.2722
10685TIP3   OH253469   2.100   4.773   5.387  0.4420 -0.1549  0.4684
10685TIP3    H153470   2.187   4.742   5.363 -0.1354 -1.7058  0.2960
10685TIP3    H253471   2.060   4.800   5.304  0.2669 -0.7551  0.3533
10686TIP3   OH253472   4.367   2.520   2.875  0.2358 -0.0748 -0.2354
10686TIP3    H153473   4.300   2.558   2.819 -0.2311 -0.4134  0.0837
10686TIP3    H253474   4.346   2.550   2.963  0.3253 -0.4311 -0.0905
10687TIP3   OH253475   3.486   0.930  14.165  0.2594  0.3277  0.1530
10687TIP3    H153476   3.559   0.870  14.182  0.4877  0.9318  1.4470
10687TIP3    H253477   3.528   1.008  14.129  0.1136  0.2245 -0.2429
10688TIP3   OH253478   0.034   5.914  12.031 -0.0266 -0.1263  0.0416
10688TIP3    H153479   0.086   5.994  12.033 -0.1979  0.1025 -2.0408
10688TIP3    H253480  -0.050   5.938  12.071  0.1647  0.5442  0.0496
10689TIP3   OH253481   6.741   3.628  15.013 -0.2006  0.1499 -0.0422
10689TIP3    H153482   6.699   3.576  15.082 -1.3806 -1.3129 -1.7639
10689TIP3    H253483   6.741   3.717  15.047  0.8153 -0.7500  2.5293
10690TIP3   OH253484   5.001   3.175   2.897 -0.1829  0.3805  0.3296
10690TIP3    H153485   4.920   3.216   2.869 -0.9471 -1.2698 -0.0305
10690TIP3    H253486   5.018   3.107   2.832  0.1614 -0.8888  1.6676
10691TIP3   OH253487   0.682   5.522   4.948  0.3581 -0.2837  0.0788
10691TIP3    H153488   0.662   5.601   4.897  0.6504 -0.6831 -0.6664
10691TIP3    H253489   0.672   5.450   4.886  1.6212 -0.7011  0.3260
10692TIP3   OH253490   6.002   6.358  16.278  0.0520 -0.3032  0.7355
10692TIP3    H153491   5.957   6.276  16.261  0.3939 -0.1328 -1.1495
10692TIP3    H253492   5.933   6.423  16.286 -0.1201 -0.2418 -0.9969
10693TIP3   OH253493   0.979   3.863   4.535  0.2742 -0.0748 -0.1939
10693TIP3    H153494   0.921   3.906   4.472 -0.8473  0.5171  1.1754
10693TIP3    H253495   0.980   3.923   4.610 -0.7447 -2.0462  1.4996
10694TIP3   OH253496   0.460   3.841  13.713  0.0360 -0.0272  0.6397
10694TIP3    H153497   0.364   3.847  13.711  0.0031 -0.0246  1.5453
10694TIP3    H253498   0.490   3.931  13.708  0.0148 -0.0567 -0.1482
10695TIP3   OH253499   2.265   4.637   0.530  0.4773  0.7097 -0.0669
10695TIP3    H153500   2.227   4.699   0.468  0.9317  0.6324 -0.4348
10695TIP3    H253501   2.190   4.593   0.569  0.1526  1.4053  0.1166
10696TIP3   OH253502   6.720   4.455   1.301  0.3547  0.3253 -0.2475
10696TIP3    H153503   6.722   4.471   1.207  0.8497  1.1689 -0.1077
10696TIP3    H253504   6.657   4.384   1.313  1.3898 -0.8093 -1.3523
10697TIP3   OH253505   1.049   0.636   6.500 -0.2026 -0.3406  0.1451
10697TIP3    H153506   1.143   0.623   6.508 -0.0159  0.8778  0.2387
10697TIP3    H253507   1.035   0.725   6.532 -1.3925 -0.5164  0.1629
10698TIP3   OH253508   0.571   0.197   4.418 -0.0658  0.4018 -0.4642
10698TIP3    H153509   0.502   0.138   4.389  0.2320 -0.7375  1.0095
10698TIP3    H253510   0.528   0.283   4.423 -1.4275 -0.2857  0.4608
10699TIP3   OH253511   6.664   1.320  15.933 -0.1890 -0.4772 -0.4763
10699TIP3    H153512   6.733   1.254  15.935 -1.1096 -1.4714 -0.5480
10699TIP3    H253513   6.651   1.345  16.024  1.5536  1.1323 -0.6203
10700TIP3   OH253514   2.496   0.949  12.296  0.4411 -0.6208 -0.5824
10700TIP3    H153515   2.404   0.975  12.306  1.2887  1.8274  3.6879
10700TIP3    H253516   2.507   0.878  12.359  1.2590 -1.8683 -2.0732
10701TIP3   OH253517   2.801   4.611  16.492 -0.1362  0.0979 -0.2637
10701TIP3    H153518   2.832   4.700  16.508  1.3323 -0.1759 -1.3343
10701TIP3    H253519   2.766   4.581  16.576  0.2066  1.3442  0.3369
10702TIP3   OH253520   4.550   6.053  11.626  0.4063  0.1502  0.0970
10702TIP3    H153521   4.615   6.064  11.696  1.0917  1.4734 -0.7015
10702TIP3    H253522   4.480   6.115  11.649 -0.5113 -1.1347  0.8532
10703TIP3   OH253523   4.212   4.569  11.693  0.1710 -0.3950 -0.2545
10703TIP3    H153524   4.194   4.475  11.695  0.5394 -0.4921 -1.1367
10703TIP3    H253525   4.297   4.578  11.735 -0.9972 -0.1456  2.2033
10704TIP3   OH253526   3.757   6.618  16.309  0.4169  0.3146 -0.2044
10704TIP3    H153527   3.827   6.664  16.262  0.1038 -0.2805 -1.2681
10704TIP3    H253528   3.698   6.587  16.241 -1.7411  2.0675  0.7160
10705TIP3   OH253529   0.861   0.297  14.156  0.4268 -0.0330 -0.5277
10705TIP3    H153530   0.830   0.228  14.215 -0.4355  0.7032 -0.1175
10705TIP3    H253531   0.803   0.291  14.080  0.9451 -0.3571 -0.9119
10706TIP3   OH253532   3.009   0.576   5.016  0.5169  0.3386 -0.6486
10706TIP3    H153533   3.044   0.608   5.099  0.9922  2.2843 -1.5467
10706TIP3    H253534   3.024   0.648   4.954 -0.9167 -0.5737 -2.1434
10707TIP3   OH253535   4.501   4.258  14.319  0.1344 -0.0089 -0.3026
10707TIP3    H153536   4.556   4.197  14.269 -0.1535 -0.0800 -0.5393
10707TIP3    H253537   4.414   4.249  14.279 -0.3204 -0.7545  0.8107
10708TIP3   OH253538   4.684   0.822   3.170  0.6176  0.0664  0.2902
10708TIP3    H153539   4.726   0.817   3.256  1.5416  0.9877 -0.0936
10708TIP3    H253540   4.653   0.733   3.153 -0.7917  0.1355  2.1613
10709TIP3   OH253541   0.440   3.376  17.027  0.0887 -0.4076 -0.5259
10709TIP3    H153542   0.364   3.368  17.085 -0.3083 -3.0113 -1.2712
10709TIP3    H253543   0.404   3.406  16.944  0.4229  1.6817  0.0297
10710TIP3   OH253544   0.004   0.299  11.793  0.5200  0.5257 -0.3126
10710TIP3    H153545  -0.054   0.223  11.794 -0.3328  1.1452  0.7642
10710TIP3    H253546   0.091   0.265  11.813  0.3881 -0.3244 -1.1557
10711TIP3   OH253547   5.083   2.356  11.979 -0.7743  0.4523 -0.0773
10711TIP3    H153548   5.058   2.394  12.064 -0.4046  2.6962 -0.8921
10711TIP3    H253549   5.177   2.342  11.985 -0.7413  0.6499 -0.1132
10712TIP3   OH253550   2.768   5.971  15.516 -0.4539  0.3835  0.3635
10712TIP3    H153551   2.725   5.973  15.602 -1.2363  2.8003 -0.0158
10712TIP3    H253552   2.695   5.967  15.454  0.1060 -1.2634 -0.2380
10713TIP3   OH253553   6.295   1.575   0.692  0.3730  0.3831 -0.1076
10713TIP3    H153554   6.366   1.545   0.636  0.4434  2.6772 -1.3437
10713TIP3    H253555   6.215   1.553   0.644  0.4096  1.5632 -0.7465
10714TIP3   OH253556   6.646   6.382   1.837  0.0687 -0.3096  0.4519
10714TIP3    H153557   6.606   6.300   1.863  0.5484 -0.3905  0.9621
10714TIP3    H253558   6.739   6.360   1.825 -0.2009 -0.4344 -1.9931
10715TIP3   OH253559   3.603   4.580   3.940  1.0909 -0.0834 -0.3318
10715TIP3    H153560   3.693   4.561   3.912  1.6755 -0.8180  1.8799
10715TIP3    H253561   3.604   4.569   4.035 -2.0531 -3.3504 -0.4318
10716TIP3   OH253562   4.314   6.783  16.626 -0.3735  1.3910  0.0209
10716TIP3    H153563   4.379   6.753  16.690 -0.4984  2.1197  0.4916
10716TIP3    H253564   4.257   6.707  16.613 -1.1713  1.6303  1.8049
10717TIP3   OH253565   3.506   4.270  16.601  0.3172 -0.3840  0.1902
10717TIP3    H153566   3.443   4.228  16.659  0.4559 -2.0531 -0.8005
10717TIP3    H253567   3.524   4.354  16.642 -0.1614 -1.1854  2.1689
10718TIP3   OH253568   6.201   3.456  12.348 -0.2933 -0.1900 -0.2760
10718TIP3    H153569   6.251   3.535  12.326  0.3389 -0.2251  0.9705
10718TIP3    H253570   6.115   3.471  12.309  0.1384  0.6507 -0.9471
10719TIP3   OH253571   0.625   3.965   2.957 -0.1135  0.1671  0.1104
10719TIP3    H153572   0.594   3.985   2.868  3.0984  1.7175 -0.8002
10719TIP3    H253573   0.664   3.878   2.951  0.5123  0.4610 -0.1352
10720TIP3   OH253574   6.706   2.835  13.038 -0.0717 -0.5574 -0.0210
10720TIP3    H153575   6.793   2.805  13.015 -0.3576 -1.8890  0.5103
10720TIP3    H253576   6.653   2.822  12.959 -0.0546 -0.8913  0.0221
10721TIP3   OH253577   5.407   6.224  17.033 -0.5203  0.4164  0.3055
10721TIP3    H153578   5.442   6.136  17.021 -1.3862  0.1168 -0.1916
10721TIP3    H253579   5.371   6.248  16.947 -1.4681  0.7101  0.7581
10722TIP3   OH253580   6.656   0.768  14.339 -0.3290  0.0336 -0.2057
10722TIP3    H153581   6.640   0.846  14.287 -0.4990  0.4397  0.4441
10722TIP3    H253582   6.633   0.793  14.429 -0.6118 -0.8286 -0.0204
10723TIP3   OH253583   0.974   4.182  15.339 -0.0369  0.3142 -0.0160
10723TIP3    H153584   0.958   4.159  15.431 -0.3191  0.2196 -0.0884
10723TIP3    H253585   0.903   4.139  15.291  0.6924 -0.5180 -0.3955
10724TIP3   OH253586   6.353   0.109  11.136  0.6510 -0.0869 -0.1408
10724TIP3    H153587   6.259   0.121  11.150  0.4741 -0.1909 -1.1285
10724TIP3    H253588   6.388   0.198  11.132  0.1784  0.0590 -2.2359
10725TIP3   OH253589   1.041   3.964  17.049 -0.0609 -0.1403 -0.2675
10725TIP3    H153590   1.002   3.877  17.050  0.3386 -0.3402  1.1362
10725TIP3    H253591   1.127   3.952  17.090  1.1520  0.4465 -2.4656
10726TIP3   OH253592   5.979   1.522  16.144  0.2329  0.4409 -0.0890
10726TIP3    H153593   5.978   1.433  16.179  3.5033  0.2902 -0.0480
10726TIP3    H253594   5.994   1.510  16.050 -0.4789  0.9446 -0.2697
10727TIP3   OH253595   3.684   6.800   4.675 -0.0382 -0.3060 -0.0271
10727TIP3    H153596   3.734   6.766   4.750 -0.4129 -0.6973  0.0464
10727TIP3    H253597   3.670   6.892   4.696 -1.7357 -0.8090  1.2801
10728TIP3   OH253598   4.200   2.070  11.706  0.2254  0.1400  0.2972
10728TIP3    H153599   4.268   2.014  11.669  0.6657  0.0294  1.2471
10728TIP3    H253600   4.238   2.158  11.708 -1.3279  1.0774 -3.5140
10729TIP3   OH253601   6.209   4.670   5.747  0.1402  0.0205  0.5390
10729TIP3    H153602   6.266   4.610   5.699 -0.1808  1.0767 -1.2402
10729TIP3    H253603   6.120   4.640   5.728 -0.0662  1.4672 -1.0600
10730TIP3   OH253604   4.847   3.863  10.785 -0.2219  0.5719 -0.1036
10730TIP3    H153605   4.828   3.890  10.875 -1.7367 -1.0900  0.1278
10730TIP3    H253606   4.912   3.794  10.793 -0.0596  0.6958 -0.3231
10731TIP3   OH253607   2.077   6.456  16.619 -0.3076 -0.0110 -0.2692
10731TIP3    H153608   1.995   6.422  16.656 -2.1622  3.1441 -1.0332
10731TIP3    H253609   2.097   6.533  16.673  1.5351 -0.0603 -0.8198
10732TIP3   OH253610   4.615   0.710   5.439 -0.4705 -0.1380 -0.1820
10732TIP3    H153611   4.617   0.618   5.467  0.8477  0.4103  1.6737
10732TIP3    H253612   4.521   0.730   5.431 -0.8780 -0.9393  1.9524
10733TIP3   OH253613   5.680   2.686   3.872 -0.0749 -0.1339  0.6198
10733TIP3    H153614   5.672   2.727   3.786 -0.5221 -0.2148  0.6206
10733TIP3    H253615   5.763   2.639   3.869 -0.7316 -1.3136 -0.2766
10734TIP3   OH253616   4.459   2.658   5.241 -0.6138 -0.4037 -0.2746
10734TIP3    H153617   4.484   2.613   5.322 -0.3347 -0.6838 -0.5116
10734TIP3    H253618   4.521   2.730   5.234  1.0419 -1.8506 -1.5344
10735TIP3   OH253619   3.912   3.361  15.527  0.3220 -0.1911  0.4915
10735TIP3    H153620   3.904   3.442  15.478 -0.3546  0.0617  1.0089
10735TIP3    H253621   3.954   3.386  15.609  1.1787 -0.5634  0.1748
10736TIP3   OH253622   3.980   6.179  14.721  0.0564  0.6641  0.1624
10736TIP3    H153623   4.034   6.208  14.648 -0.8718  1.9492 -0.0397
10736TIP3    H253624   4.014   6.226  14.797 -0.7431  1.4559  0.0401
10737TIP3   OH253625   4.326   3.128  16.860  0.0741  0.0711 -0.3535
10737TIP3    H153626   4.309   3.044  16.903  2.4499 -0.2028  0.1961
10737TIP3    H253627   4.415   3.120  16.825 -0.2865  1.7525 -1.8197
10738TIP3   OH253628   6.695   1.325   1.426 -0.4267  0.4189  0.1176
10738TIP3    H153629   6.747   1.315   1.346 -0.5226  0.4033  0.0565
10738TIP3    H253630   6.651   1.409   1.416  0.0027  0.6774  0.4125
10739TIP3   OH253631   6.307   2.103  15.778 -0.1800  0.2401  0.4502
10739TIP3    H153632   6.371   2.130  15.712  0.8832  1.7023  2.0165
10739TIP3    H253633   6.238   2.060  15.727  1.7429 -0.9038 -1.3574
10740TIP3   OH253634   5.685   4.782   4.537 -0.8987 -0.0025 -0.2221
10740TIP3    H153635   5.761   4.821   4.494  1.1498 -2.7259  0.6203
10740TIP3    H253636   5.612   4.799   4.477  0.3983  2.2989 -1.3042
10741TIP3   OH253637   1.849   3.683   5.409  0.0191 -0.0495 -0.1622
10741TIP3    H153638   1.895   3.607   5.445  2.4594  0.9509 -0.9963
10741TIP3    H253639   1.814   3.729   5.486 -0.4284 -1.3206  0.4237
10742TIP3   OH253640   5.460   1.983  15.300 -0.1166 -0.0771  0.3706
10742TIP3    H153641   5.444   2.036  15.378  0.6729 -0.2948  0.6954
10742TIP3    H253642   5.479   1.895  15.334  1.9361  0.1902  0.0884
10743TIP3   OH253643   3.442   3.170   0.199 -0.9554 -0.8320  0.4900
10743TIP3    H153644   3.486   3.098   0.154  0.4692  0.5465 -0.4329
10743TIP3    H253645   3.411   3.131   0.281  1.2862 -2.1018  0.8306
10744TIP3   OH253646   0.144   5.216   2.447 -0.1416  0.0780 -0.0254
10744TIP3    H153647   0.173   5.187   2.361  0.0952  0.3626 -0.0426
10744TIP3    H253648   0.222   5.257   2.486 -0.3275  0.2124  0.2069
10745TIP3   OH253649   1.333   5.783   1.205  0.4589  0.4564 -0.0614
10745TIP3    H153650   1.316   5.691   1.181  1.0082  0.1023  0.8765
10745TIP3    H253651   1.248   5.816   1.235  0.1622  0.3935 -0.7963
10746TIP3   OH253652   6.418   1.267  12.894  0.6297 -0.4912 -0.4669
10746TIP3    H153653   6.383   1.352  12.868 -0.2315 -0.7180 -0.0982
10746TIP3    H253654   6.474   1.286  12.970  1.1032 -0.1530 -0.8998
10747TIP3   OH253655   1.569   1.921   0.373 -0.0972  0.2742 -0.1576
10747TIP3    H153656   1.510   1.978   0.422 -1.0765 -0.5362 -0.3591
10747TIP3    H253657   1.556   1.946   0.281  0.4772  0.6335 -0.1491
10748TIP3   OH253658   3.613   3.309   2.388 -0.5050 -0.2441 -0.0344
10748TIP3    H153659   3.551   3.347   2.325 -1.8924  0.3292  1.5862
10748TIP3    H253660   3.635   3.381   2.447  0.6441 -0.7996  0.2412
10749TIP3   OH253661   1.651   0.077  16.369 -0.2656  0.2450  0.4570
10749TIP3    H153662   1.580   0.025  16.406 -1.7319 -0.0403 -2.3998
10749TIP3    H253663   1.705   0.014  16.322  0.6200  0.7534  0.7764
10750TIP3   OH253664   4.300   0.297  14.739 -0.1342  0.2263  0.0011
10750TIP3    H153665   4.383   0.316  14.782  0.3410  0.1721 -0.8797
10750TIP3    H253666   4.237   0.352  14.785  0.2538 -0.2164  1.1129
10751TIP3   OH253667   3.010   5.739  14.925 -0.0619  0.5351  0.5471
10751TIP3    H153668   3.054   5.680  14.987  0.9925 -0.0455 -0.7092
10751TIP3    H253669   3.044   5.826  14.948 -0.2648  0.4334  1.2650
10752TIP3   OH253670   2.816   1.620  12.398  0.3459 -0.8255 -0.0545
10752TIP3    H153671   2.897   1.670  12.393 -0.3816  0.3169 -1.2024
10752TIP3    H253672   2.778   1.627  12.310 -1.3865 -0.6283  0.6608
10753TIP3   OH253673   4.065   3.639   3.666 -0.0630 -0.0117 -0.3972
10753TIP3    H153674   4.038   3.561   3.616  1.4066 -0.4717 -0.5314
10753TIP3    H253675   4.069   3.609   3.757  0.2966 -0.0432 -0.4214
10754TIP3   OH253676   4.429   4.793  15.542 -0.0068 -0.0606 -0.1260
10754TIP3    H153677   4.516   4.832  15.545  1.1267 -2.5000  1.8516
10754TIP3    H253678   4.370   4.865  15.565  1.6323  1.2134  0.2961
10755TIP3   OH253679   0.281   6.456  12.135  0.7349  0.0298 -0.0540
10755TIP3    H153680   0.368   6.495  12.135  1.9123 -2.3993 -0.4187
10755TIP3    H253681   0.297   6.362  12.138 -1.9218 -0.4752  0.9415
10756TIP3   OH253682   5.956   3.852   3.268 -0.6049 -0.0948  0.2942
10756TIP3    H153683   5.865   3.880   3.262 -0.4969 -0.0105 -1.1309
10756TIP3    H253684   5.994   3.872   3.182  0.0330 -2.6858 -0.0994
10757TIP3   OH253685   3.735   3.499   3.180  0.1125  0.1446  0.6484
10757TIP3    H153686   3.736   3.590   3.208 -3.6803  0.2854  0.7743
10757TIP3    H253687   3.689   3.452   3.250  0.9216 -1.6924  0.0289
10758TIP3   OH253688   0.441   4.933  17.065 -0.0019  0.2492  0.2094
10758TIP3    H153689   0.429   4.991  16.989  3.3108  0.3408 -0.3849
10758TIP3    H253690   0.398   4.979  17.137  0.9306  2.5899 -0.6362
10759TIP3   OH253691   0.726   3.511   0.486 -0.4052 -0.5536 -0.3058
10759TIP3    H153692   0.795   3.533   0.550 -0.5069  1.1182 -0.7111
10759TIP3    H253693   0.709   3.418   0.500  1.4344 -0.8414  0.2942
10760TIP3   OH253694   5.241   4.346   3.477 -0.4800  0.3326  0.4948
10760TIP3    H153695   5.273   4.367   3.565  0.8387 -0.1096  0.1495
10760TIP3    H253696   5.245   4.250   3.473  1.0068  0.4033 -0.5585
10761TIP3   OH253697   0.677   1.679  10.819 -0.3782  0.1943 -0.5669
10761TIP3    H153698   0.607   1.618  10.795 -0.1655  0.2532 -1.3615
10761TIP3    H253699   0.726   1.693  10.738  1.8382 -1.4579  0.3855
10762TIP3   OH253700   4.513   2.227   4.083  0.4046  0.2847  0.3373
10762TIP3    H153701   4.516   2.226   3.988 -1.5640  2.0419  0.1994
10762TIP3    H253702   4.423   2.251   4.105  0.1878 -2.1918  2.7055
10763TIP3   OH253703   0.696   3.825   0.636  0.4045  0.5428 -0.1540
10763TIP3    H153704   0.669   3.744   0.679  0.3388  0.4893 -0.2938
10763TIP3    H253705   0.772   3.855   0.686 -0.6534  1.3725  1.0364
10764TIP3   OH253706   6.560   0.389   5.170 -0.3414  0.7362 -0.7659
10764TIP3    H153707   6.602   0.442   5.238  0.3619 -0.0656 -0.5542
10764TIP3    H253708   6.628   0.378   5.103  1.1888 -3.5081  1.1341
10765TIP3   OH253709   4.745   0.696  16.140 -0.4018  0.2735 -0.3128
10765TIP3    H153710   4.825   0.689  16.192 -0.9261  0.2581  0.5134
10765TIP3    H253711   4.759   0.773  16.085  0.2582  0.1536 -0.3241
10766TIP3   OH253712   0.417   6.080  13.686 -1.0191  0.0766  0.2600
10766TIP3    H153713   0.499   6.125  13.707 -0.1984 -1.2816  0.0361
10766TIP3    H253714   0.350   6.130  13.734  0.0892  0.4446  1.4822
10767TIP3   OH253715   1.277   2.343   0.860 -0.5989 -0.0421  0.1813
10767TIP3    H153716   1.242   2.390   0.784 -2.4568 -0.8046  0.5212
10767TIP3    H253717   1.277   2.251   0.833  0.7348 -0.1328  0.3878
10768TIP3   OH253718   0.233   2.345  15.694 -0.3436  0.3069  0.1088
10768TIP3    H153719   0.183   2.346  15.612  2.1993  0.9283 -1.5373
10768TIP3    H253720   0.197   2.418  15.744 -1.3143  0.5280 -0.8701
10769TIP3   OH253721   0.736   0.977  11.493 -0.4066  0.1106 -0.8492
10769TIP3    H153722   0.750   1.059  11.446  0.5891  0.3196 -0.2130
10769TIP3    H253723   0.641   0.962  11.486 -0.3907  0.5329 -2.2265
10770TIP3   OH253724   6.509   5.504  11.520  0.1268  0.5544 -0.2771
10770TIP3    H153725   6.564   5.572  11.560 -0.4124  1.5846 -1.2382
10770TIP3    H253726   6.485   5.540  11.435  0.0762 -0.9914 -0.9365
10771TIP3   OH253727   6.379   6.184  10.582  0.2286 -0.1446  0.3247
10771TIP3    H153728   6.292   6.146  10.582  0.2885 -0.2813  0.3064
10771TIP3    H253729   6.409   6.178  10.491  2.2033 -4.5583  1.0242
10772TIP3   OH253730   1.498   0.817   3.401  0.1688  0.2764  0.4314
10772TIP3    H153731   1.420   0.872   3.405 -0.3150 -0.3780  0.2179
10772TIP3    H253732   1.484   0.760   3.325  0.2149 -0.7859  1.1911
10773TIP3   OH253733   6.227   2.208  12.940 -0.9474  0.7333  0.1183
10773TIP3    H153734   6.224   2.304  12.938  1.2351  0.8592  0.4480
10773TIP3    H253735   6.209   2.185  13.031  1.7644  1.0933  0.8393
10774TIP3   OH253736   0.348   5.600  15.052  0.3755  0.0413  0.5474
10774TIP3    H153737   0.418   5.582  14.989 -0.2404 -0.0204 -0.1348
10774TIP3    H253738   0.368   5.687  15.086 -0.6323  1.1868 -1.6058
10775TIP3   OH253739   0.746   6.627  14.881 -0.7293  0.0851 -0.3033
10775TIP3    H153740   0.698   6.692  14.830 -0.0462  1.5839  0.8523
10775TIP3    H253741   0.821   6.675  14.916 -0.3061 -1.2762  0.7823
10776TIP3   OH253742   4.908   3.607   5.211  0.0288  0.3713  0.0611
10776TIP3    H153743   4.953   3.690   5.226 -2.0135  1.3017  1.5416
10776TIP3    H253744   4.957   3.544   5.263  0.9238  0.8733 -0.1491
10777TIP3   OH253745   2.248   0.793  11.109  0.3095 -0.4026  0.9560
10777TIP3    H153746   2.200   0.869  11.141  1.7973  0.4750  1.1985
10777TIP3    H253747   2.258   0.808  11.015  1.7990  0.4481  1.2124
10778TIP3   OH253748   1.711   1.840  16.135  0.0444  0.0764  0.1446
10778TIP3    H153749   1.668   1.851  16.050  0.5611  0.3426 -0.0826
10778TIP3    H253750   1.714   1.928  16.172 -2.0446 -0.2906  1.3695
10779TIP3   OH253751   4.675   4.871   6.077  0.6628  0.1685 -0.3404
10779TIP3    H153752   4.719   4.919   6.007 -0.5037  1.0254 -0.4995
10779TIP3    H253753   4.643   4.938   6.137  1.8352 -0.5572  1.1806
10780TIP3   OH253754   0.868   5.472  16.528 -0.1039 -0.3122 -0.2514
10780TIP3    H153755   0.918   5.425  16.461  0.7592 -1.9656  1.4422
10780TIP3    H253756   0.901   5.437  16.611  0.5555  3.3011  1.1987
10781TIP3   OH253757   2.481   1.144   4.041  0.1234  0.1571  0.2307
10781TIP3    H153758   2.542   1.088   3.994  0.7280 -0.7607  2.0365
10781TIP3    H253759   2.503   1.233   4.013  0.2870 -0.3637 -1.3721
10782TIP3   OH253760   6.284   5.956   2.516  0.5031  0.3020 -0.0901
10782TIP3    H153761   6.289   5.935   2.609  0.3215 -0.6330 -0.2876
10782TIP3    H253762   6.242   6.043   2.514 -1.0495 -0.3858  0.6274
10783TIP3   OH253763   0.895   3.477   4.683  0.1672  0.6627 -0.2254
10783TIP3    H153764   0.838   3.486   4.607 -2.0094 -1.3183  1.0468
10783TIP3    H253765   0.982   3.500   4.650 -1.1794  3.1395 -2.4146
10784TIP3   OH253766   1.658   1.166   1.515  0.2589  0.3502 -0.3524
10784TIP3    H153767   1.699   1.239   1.469  0.9600 -0.7271 -1.5030
10784TIP3    H253768   1.611   1.206   1.588  1.9311  1.7870 -0.0191
10785TIP3   OH253769   6.149   4.205  16.435  0.6923  0.0911  0.3805
10785TIP3    H153770   6.227   4.237  16.390  0.4164  1.2231  0.6872
10785TIP3    H253771   6.163   4.226  16.527 -0.4090  1.2500  0.3040
10786TIP3   OH253772   6.025   2.357   2.379 -0.3337  0.1725 -0.2610
10786TIP3    H153773   6.110   2.368   2.336 -0.2859 -0.6586 -0.4015
10786TIP3    H253774   6.011   2.439   2.425  0.2674  0.5473 -0.7271
10787TIP3   OH253775   1.816   1.061  14.034  0.0201 -0.3456  0.1461
10787TIP3    H153776   1.830   1.033  14.125 -3.8393 -1.3209  0.6064
10787TIP3    H253777   1.865   0.997  13.982  0.0217 -1.4843  1.4638
10788TIP3   OH253778   1.947   0.738   3.653  0.4937  0.0411  0.0555
10788TIP3    H153779   1.967   0.789   3.731  0.1138 -0.6088  0.5800
10788TIP3    H253780   1.867   0.778   3.618  1.7837  1.6855 -1.2123
10789TIP3   OH253781   3.002   2.384  15.142  0.2417 -0.2011 -0.1460
10789TIP3    H153782   2.935   2.359  15.206 -0.0999  0.8647 -0.0803
10789TIP3    H253783   2.955   2.387  15.058  0.4373 -0.4499 -0.2685
10790TIP3   OH253784   5.429   6.789   2.682  0.3027  0.2157 -0.0865
10790TIP3    H153785   5.450   6.762   2.771 -0.5053  0.5796  0.2285
10790TIP3    H253786   5.341   6.754   2.667  0.7194 -0.4811 -1.0212
10791TIP3   OH253787   2.650   1.349  15.050  0.3864 -0.4796  0.1651
10791TIP3    H153788   2.595   1.415  15.093 -0.7494 -0.9567 -0.5212
10791TIP3    H253789   2.607   1.266  15.068  0.5908 -0.8169 -0.8225
10792TIP3   OH253790   2.265   2.980   4.587  0.3900  0.2423 -0.3655
10792TIP3    H153791   2.358   2.960   4.582  0.7886  1.3637  1.5235
10792TIP3    H253792   2.237   2.944   4.671 -0.7915  0.3210 -0.7064
10793TIP3   OH253793   5.693   2.401  15.688 -0.4924  0.0536 -0.0266
10793TIP3    H153794   5.618   2.342  15.694 -0.9364  0.6818  1.0634
10793TIP3    H253795   5.753   2.370  15.756  0.3459 -0.5810 -1.0417
10794TIP3   OH253796   3.138   5.326   3.581  0.2887 -0.2119 -0.4212
10794TIP3    H153797   3.083   5.279   3.519 -2.0132  2.0465 -0.2753
10794TIP3    H253798   3.079   5.350   3.653  0.8192  3.9315 -1.0978
10795TIP3   OH253799   5.593   5.665  13.542  0.4934  0.3396 -0.1980
10795TIP3    H153800   5.685   5.672  13.515  0.8890  3.0547  1.4565
10795TIP3    H253801   5.543   5.689  13.464  1.1606 -0.5235 -0.9241
10796TIP3   OH253802   1.510   5.619   6.039  0.2919 -0.2838  0.1401
10796TIP3    H153803   1.521   5.571   6.121  0.0506 -1.2889 -0.4026
10796TIP3    H253804   1.471   5.555   5.979 -2.1164  1.1737  0.0095
10797TIP3   OH253805   2.622   6.797  17.010  0.1216 -0.1448  0.3097
10797TIP3    H153806   2.614   6.889  17.032 -1.7404 -0.7639  2.5775
10797TIP3    H253807   2.715   6.785  16.990  0.1822  2.4199 -1.4060
10798TIP3   OH253808   6.265   0.209   3.349  0.5482 -0.3013 -0.2915
10798TIP3    H153809   6.257   0.275   3.418  0.3340 -0.5812 -0.0490
10798TIP3    H253810   6.231   0.253   3.271  1.5479  0.2905 -0.4056
10799TIP3   OH253811   1.876   6.712   4.200  0.7183 -0.7384  0.1224
10799TIP3    H153812   1.914   6.638   4.153 -0.2369 -1.2582  0.1352
10799TIP3    H253813   1.950   6.767   4.224  1.8326 -3.0834  2.5707
10800TIP3   OH253814   3.018   5.367   0.486  0.2287 -0.0967  0.6176
10800TIP3    H153815   2.945   5.305   0.481  0.6690 -0.8156  2.4451
10800TIP3    H253816   3.061   5.359   0.400 -1.7640  0.3263 -0.4855
10801TIP3   OH253817   1.495   1.920  16.989  0.1515  0.2520 -1.0959
10801TIP3    H153818   1.422   1.904  17.047  0.6234  0.3629 -0.4583
10801TIP3    H253819   1.473   2.001  16.943  0.3817  0.9216 -0.0617
10802TIP3   OH253820   3.184   5.204  15.582  0.0834  0.0024 -0.5067
10802TIP3    H153821   3.225   5.123  15.551  0.5294 -0.5458  1.4259
10802TIP3    H253822   3.248   5.272  15.561  0.8951 -0.5169  0.2135
10803TIP3   OH253823   2.384   0.923   0.420 -0.1571 -0.7167  0.1894
10803TIP3    H153824   2.400   1.018   0.418  0.4651 -0.7988  0.8817
10803TIP3    H253825   2.467   0.886   0.449 -0.3107 -1.5037 -0.3530
10804TIP3   OH253826   4.378   5.677   5.880 -0.0007 -0.1007  0.4163
10804TIP3    H153827   4.325   5.622   5.937 -1.0047  0.5543  0.1301
10804TIP3    H253828   4.440   5.719   5.940  1.2030 -1.9679  0.5663
10805TIP3   OH253829   3.785   0.887  17.123 -0.1195  0.6131  0.3860
10805TIP3    H153830   3.819   0.853  17.206 -0.3959  0.4378  0.4253
10805TIP3    H253831   3.801   0.816  17.060  2.7881  1.7750 -0.3965
10806TIP3   OH253832   0.864   5.169   2.905  0.6904 -0.6453  0.8860
10806TIP3    H153833   0.898   5.128   2.984 -1.5835 -0.6396  1.9556
10806TIP3    H253834   0.913   5.252   2.898  2.8881 -1.8834  0.6233
10807TIP3   OH253835   6.387   5.078   1.855 -0.1340 -0.2266  0.1513
10807TIP3    H153836   6.320   5.060   1.922 -0.7710  0.9480 -0.1287
10807TIP3    H253837   6.469   5.053   1.897 -0.7974 -2.7767  0.1005
10808TIP3   OH253838   1.259   1.177  13.231 -0.5568  0.4911 -0.3341
10808TIP3    H153839   1.267   1.125  13.151  1.5477  2.2207 -1.3486
10808TIP3    H253840   1.348   1.179  13.267 -0.7479  2.5704  0.1471
10809TIP3   OH253841   2.316   4.832  11.502 -0.4437  0.3895 -0.4356
10809TIP3    H153842   2.399   4.788  11.522 -0.6882  0.3847  0.6459
10809TIP3    H253843   2.326   4.861  11.412  0.5731  0.0142 -0.4631
10810TIP3   OH253844   2.269   3.188   6.035 -0.8045  0.1802  0.2754
10810TIP3    H153845   2.242   3.204   6.125 -0.2529 -1.3529  0.7523
10810TIP3    H253846   2.304   3.272   6.005 -3.1941  1.3785  0.6418
10811TIP3   OH253847   3.049   2.057   5.545  0.3194 -0.1528 -0.1995
10811TIP3    H153848   3.142   2.079   5.546  0.4884 -0.8409  0.3574
10811TIP3    H253849   3.027   2.049   5.452  1.3076 -1.8989 -0.3363
10812TIP3   OH253850   3.512   2.892   5.950 -0.0946  0.1292 -0.4091
10812TIP3    H153851   3.451   2.827   5.915 -1.1339  0.4409  0.7545
10812TIP3    H253852   3.571   2.911   5.877 -0.8958 -0.7685 -1.3246
10813TIP3   OH253853   3.838   5.631   6.459  0.2900  0.0938  0.1063
10813TIP3    H153854   3.892   5.668   6.389  0.4544  1.7788  1.0635
10813TIP3    H253855   3.751   5.668   6.445 -0.5392 -2.0867 -1.0325
10814TIP3   OH253856   3.738   4.920   2.122  0.4200 -0.0088  0.0258
10814TIP3    H153857   3.738   5.004   2.166 -0.0950 -0.0532  0.1264
10814TIP3    H253858   3.696   4.860   2.184  0.1626 -0.1867 -0.3131
10815TIP3   OH253859   4.589   3.082  16.783  0.1031 -1.0186  0.4472
10815TIP3    H153860   4.657   3.055  16.844  1.0148 -0.8339 -0.4553
10815TIP3    H253861   4.576   3.006  16.726  2.1243  0.0516 -1.6089
10816TIP3   OH253862   0.850   0.864   4.517  0.2816 -0.0871 -0.2673
10816TIP3    H153863   0.816   0.814   4.592 -1.3438 -0.2136 -1.0357
10816TIP3    H253864   0.945   0.854   4.522  0.1655 -0.5893  1.4226
10817TIP3   OH253865   2.060   1.483   4.399 -0.2241  0.2997  0.1501
10817TIP3    H153866   2.079   1.414   4.336  0.3129 -0.0188  0.6419
10817TIP3    H253867   2.040   1.560   4.346 -4.0960 -0.9565 -0.5296
10818TIP3   OH253868   2.577   1.741  14.551 -0.3846  1.0610 -0.3447
10818TIP3    H153869   2.525   1.662  14.541 -0.3644  0.6378  2.3154
10818TIP3    H253870   2.549   1.797  14.478 -1.8609 -0.5818 -1.1093
10819TIP3   OH253871   3.384   4.216   0.153 -0.3960  0.3212  0.6346
10819TIP3    H153872   3.360   4.147   0.215 -0.3979 -0.9929 -0.7655
10819TIP3    H253873   3.476   4.235   0.173  0.0523 -1.1456  0.1485
10820TIP3   OH253874   3.487   0.947   2.091  0.4035  0.2218  0.7115
10820TIP3    H153875   3.556   0.906   2.143  1.4561  2.2336  0.9993
10820TIP3    H253876   3.415   0.885   2.093  1.7911 -1.4370  1.3698
10821TIP3   OH253877   2.479   2.058  16.487 -0.2557  0.1196  0.1696
10821TIP3    H153878   2.493   2.084  16.396  0.2415 -0.0778  0.1893
10821TIP3    H253879   2.563   2.071  16.529 -0.1882 -0.8292  0.3468
10822TIP3   OH253880   1.965   4.046  17.053  0.1612  0.7198  0.2334
10822TIP3    H153881   1.947   3.991  16.976  5.7544 -0.9041 -0.3855
10822TIP3    H253882   1.974   4.134  17.017 -0.3734  0.5378 -0.3769
10823TIP3   OH253883   5.299   5.129   5.005  0.3524  0.1765 -0.9774
10823TIP3    H153884   5.316   5.213   4.964  1.1440  0.2149 -0.5896
10823TIP3    H253885   5.340   5.065   4.947 -0.3286  0.0437 -1.3200
10824TIP3   OH253886   5.278   4.398  17.134 -0.5367 -0.6321 -0.2517
10824TIP3    H153887   5.296   4.391  17.227 -1.4837  0.8270  0.0832
10824TIP3    H253888   5.194   4.444  17.129 -0.0637  0.1645 -1.8138
10825TIP3   OH253889   3.327   5.493   2.749  0.0748  0.0799  0.1468
10825TIP3    H153890   3.256   5.503   2.812  1.3042 -1.4347  1.8862
10825TIP3    H253891   3.367   5.409   2.771  0.6189 -0.4952 -2.6668
10826TIP3   OH253892   4.829   1.297  12.413 -0.3940 -0.0305 -0.1362
10826TIP3    H153893   4.821   1.384  12.450  0.7194 -0.0335  0.1645
10826TIP3    H253894   4.891   1.308  12.340  1.8454 -0.9745  1.5037
10827TIP3   OH253895   6.466   1.836   0.421 -0.5926 -0.1562  0.2113
10827TIP3    H153896   6.488   1.923   0.388  0.9675  0.0423  1.6276
10827TIP3    H253897   6.381   1.847   0.464 -1.0997  0.3004 -0.8616
10828TIP3   OH253898   0.656   5.819   0.962 -0.2796 -0.3042 -0.1949
10828TIP3    H153899   0.588   5.811   1.029  0.1247  2.7114  0.7308
10828TIP3    H253900   0.611   5.858   0.887  0.0057 -0.2030 -0.3153
10829TIP3   OH253901   0.121   6.533  12.361  0.1687 -0.1654  0.2215
10829TIP3    H153902   0.193   6.584  12.397  0.2134 -0.1543  0.1159
10829TIP3    H253903   0.156   6.496  12.280  0.8525 -2.1108  1.3306
10830TIP3   OH253904   4.708   3.840   6.128 -0.3767 -0.3305  0.3029
10830TIP3    H153905   4.614   3.856   6.118 -0.5378 -0.4315  1.5836
10830TIP3    H253906   4.714   3.766   6.188  0.5217 -0.5746 -0.0680
10831TIP3   OH253907   1.979   2.518   3.886  0.1100 -0.1278 -0.7933
10831TIP3    H153908   1.950   2.503   3.976  1.4225  0.4280 -0.2472
10831TIP3    H253909   1.900   2.506   3.833 -1.1376  1.3600  0.6067
10832TIP3   OH253910   4.129   1.369  14.203 -0.2635  0.0605  0.3312
10832TIP3    H153911   4.064   1.304  14.230 -1.2506  0.1818 -1.5540
10832TIP3    H253912   4.083   1.424  14.139  1.4516  0.6658 -0.4391
10833TIP3   OH253913   4.410   4.517  11.153 -0.4094 -0.0209 -0.0279
10833TIP3    H153914   4.397   4.600  11.200 -0.3502  1.3760 -2.3195
10833TIP3    H253915   4.459   4.462  11.214  0.5777  2.0478  1.1424
10834TIP3   OH253916   2.876   6.548  15.414  0.2679  0.2082 -0.3756
10834TIP3    H153917   2.820   6.556  15.491 -0.0502  0.2831 -0.6114
10834TIP3    H253918   2.897   6.455  15.409 -0.8945 -0.0363 -1.0157
10835TIP3   OH253919   6.224   6.360  13.452 -0.6974 -0.1780 -0.1265
10835TIP3    H153920   6.249   6.268  13.459 -0.9882 -0.2188  0.4438
10835TIP3    H253921   6.221   6.377  13.358  0.6774 -0.3793 -0.2283
10836TIP3   OH253922   2.838   6.554   3.473  0.0717 -0.3749  0.0708
10836TIP3    H153923   2.793   6.497   3.411 -1.3747  1.9397 -1.1781
10836TIP3    H253924   2.769   6.585   3.531  0.3452  1.6227 -0.5712
10837TIP3   OH253925   0.771   1.737   2.748 -0.5549 -0.2624 -0.5838
10837TIP3    H153926   0.759   1.643   2.752  1.1784 -0.5206 -0.6052
10837TIP3    H253927   0.737   1.763   2.663 -1.9156 -0.7037 -0.1964
10838TIP3   OH253928   5.453   6.159   5.159 -0.5985  0.0400  1.0611
10838TIP3    H153929   5.424   6.177   5.070 -1.1200 -1.1829  0.9695
10838TIP3    H253930   5.414   6.074   5.181  0.4357 -0.2036  2.0538
10839TIP3   OH253931   2.136   3.071   1.456 -0.0745  0.5589 -0.4417
10839TIP3    H153932   2.086   3.152   1.455  0.2780  0.7832 -1.2573
10839TIP3    H253933   2.088   3.013   1.395  0.2569  0.5292 -0.6777
10840TIP3   OH253934   4.827   3.213   4.382 -0.4066 -0.3642  0.0677
10840TIP3    H153935   4.760   3.274   4.414 -0.8930 -0.4304 -0.7932
10840TIP3    H253936   4.833   3.146   4.450 -0.0563  0.4938  0.8980
10841TIP3   OH253937   1.881   5.294  13.787  0.0728 -0.0616  0.5508
10841TIP3    H153938   1.960   5.258  13.828  1.1163  1.1704 -0.2913
10841TIP3    H253939   1.914   5.350  13.717 -1.5861 -0.1195 -0.3336
10842TIP3   OH253940   1.810   5.015  12.608 -0.1659 -0.0513 -0.5062
10842TIP3    H153941   1.877   4.972  12.554 -0.5068 -1.4070  0.0892
10842TIP3    H253942   1.736   5.026  12.549 -0.4360 -1.2664 -0.4274
10843TIP3   OH253943   6.737   1.683  13.452  0.2861  0.0137  0.3717
10843TIP3    H153944   6.690   1.608  13.489  1.7428 -0.4514  1.3747
10843TIP3    H253945   6.712   1.757  13.507  1.4635 -0.4298  1.5399
10844TIP3   OH253946   1.848   0.963   1.118 -0.2372  0.1203  0.4443
10844TIP3    H153947   1.884   1.031   1.060  0.0901 -0.3929  0.0365
10844TIP3    H253948   1.768   0.934   1.074 -0.0134 -0.2374  0.2705
10845TIP3   OH253949   5.721   5.265  11.445 -0.0798  0.4538  0.3678
10845TIP3    H153950   5.784   5.218  11.499  1.7037  0.6715 -1.4100
10845TIP3    H253951   5.638   5.258  11.492  0.5099 -2.8040  1.1337
10846TIP3   OH253952   4.221   4.016   3.329 -0.3710  0.2272  0.3875
10846TIP3    H153953   4.217   3.954   3.402 -0.8952 -1.0219 -0.6552
10846TIP3    H253954   4.315   4.033   3.318 -0.0036 -1.9795 -0.5356
10847TIP3   OH253955   1.331   3.075   3.864 -1.1422 -0.1601  0.5289
10847TIP3    H153956   1.359   2.986   3.846 -0.3502  0.3129 -0.7092
10847TIP3    H253957   1.290   3.104   3.782  0.8182  1.4196  0.0283
10848TIP3   OH253958   2.203   5.330   2.910 -0.8155 -0.2548  0.3353
10848TIP3    H153959   2.255   5.252   2.930  0.0835  0.7461  2.1314
10848TIP3    H253960   2.248   5.370   2.836  1.6803  1.0779  2.4008
10849TIP3   OH253961   6.758   0.274  12.612  0.2191 -0.0354  0.8700
10849TIP3    H153962   6.744   0.335  12.684 -0.7512 -0.3968  1.0015
10849TIP3    H253963   6.680   0.284  12.557  0.3664 -0.6664  0.5407
10850TIP3   OH253964   0.311   6.677   4.409  0.2038 -0.6271 -0.2423
10850TIP3    H153965   0.289   6.770   4.404  1.2497 -0.4153 -1.2642
10850TIP3    H253966   0.226   6.633   4.413 -0.3068  0.3732  0.7967
10851TIP3   OH253967   3.673   0.369  12.217 -0.3364  0.2398 -0.7873
10851TIP3    H153968   3.682   0.349  12.124 -3.5249  0.4584 -1.2463
10851TIP3    H253969   3.645   0.460  12.220 -2.1712 -0.3101  0.2312
10852TIP3   OH253970   0.222   3.019  13.477  0.6652 -0.4133  0.3988
10852TIP3    H153971   0.157   3.037  13.545  1.5230  1.3689  0.7978
10852TIP3    H253972   0.171   3.001  13.399 -0.4184  3.4182  0.0522
10853TIP3   OH253973   5.090   0.667  15.206 -0.7653 -0.9631 -0.0212
10853TIP3    H153974   5.004   0.650  15.245 -0.5633 -0.6377  0.5882
10853TIP3    H253975   5.086   0.626  15.120 -2.3454  1.0051 -0.9683
10854TIP3   OH253976   0.916   0.113  17.106  0.0776 -0.2345 -0.0764
10854TIP3    H153977   0.913   0.081  17.196  1.0116  0.5476  0.2554
10854TIP3    H253978   0.961   0.198  17.112 -1.5776  0.7685 -1.0159
10855TIP3   OH253979   1.112   1.592  15.089  0.3002  0.2101  0.2404
10855TIP3    H153980   1.105   1.516  15.146 -1.0360  0.3963  0.3511
10855TIP3    H253981   1.068   1.662  15.137  0.3710  0.7255 -0.4239
10856TIP3   OH253982   0.696   0.594  11.478 -0.0071  0.2391  0.3968
10856TIP3    H153983   0.661   0.681  11.462 -0.6406 -0.2102 -0.7627
10856TIP3    H253984   0.710   0.557  11.391 -1.0034 -1.3130  0.8590
10857TIP3   OH253985   4.789   2.011  14.394 -0.1162  0.5404 -0.2166
10857TIP3    H153986   4.771   1.947  14.325  0.7061  1.0534 -0.9430
10857TIP3    H253987   4.770   1.965  14.475  3.1032 -1.6725 -0.5069
10858TIP3   OH253988   5.655   0.530  11.904 -0.1335  0.1081  0.4429
10858TIP3    H153989   5.678   0.623  11.906 -2.5567  0.7864 -0.4168
10858TIP3    H253990   5.656   0.504  11.996  0.5409  0.9770  0.7021
10859TIP3   OH253991   1.370   1.931   4.770 -0.1836  0.1483 -0.2939
10859TIP3    H153992   1.396   2.009   4.720 -2.0823  0.6938 -0.4928
10859TIP3    H253993   1.451   1.880   4.777  0.5970  0.9920 -2.2281
10860TIP3   OH253994   4.616   6.066   1.814 -0.0233 -0.1865  0.5561
10860TIP3    H153995   4.578   5.979   1.806 -0.5309 -0.1839  2.3927
10860TIP3    H253996   4.707   6.049   1.839  0.4545 -0.1770 -1.0962
10861TIP3   OH253997   4.285   0.533  10.781 -0.8581 -0.3579 -0.4299
10861TIP3    H153998   4.341   0.459  10.760 -1.4268 -0.9313  0.0612
10861TIP3    H253999   4.319   0.567  10.864  0.7310  1.2676 -1.6461
10862TIP3   OH254000   5.710   3.895   3.566  0.5172  0.1737  1.0828
10862TIP3    H154001   5.728   3.822   3.508 -2.1628  0.4685 -0.2866
10862TIP3    H254002   5.644   3.861   3.627 -1.1359  1.5054  0.1174
10863TIP3   OH254003   4.400   6.141  14.594 -0.2013  0.0574 -0.2935
10863TIP3    H154004   4.434   6.224  14.628 -1.2262 -0.2459  1.6256
10863TIP3    H254005   4.307   6.158  14.577 -0.2049 -0.4399 -0.7913
10864TIP3   OH254006   6.210   3.015   5.630 -0.0996  0.3584 -0.2883
10864TIP3    H154007   6.252   3.010   5.716 -0.6744 -1.2071 -0.0594
10864TIP3    H254008   6.133   3.070   5.644 -1.7904 -2.1158  0.9708
10865TIP3   OH254009   3.543   2.966  16.957  0.3617 -0.0970 -0.2208
10865TIP3    H154010   3.616   2.905  16.958  0.7015  0.2800 -0.9777
10865TIP3    H254011   3.545   3.009  17.042  1.4747  0.4292 -0.5014
10866TIP3   OH254012   1.111   2.851  12.018 -0.8084  0.1794 -0.1033
10866TIP3    H154013   1.175   2.920  12.037  1.3461 -1.6043 -0.4564
10866TIP3    H254014   1.095   2.858  11.924  0.3943 -0.5418 -0.3845
10867TIP3   OH254015   0.522   0.068   0.352  0.5680  0.1908 -0.1785
10867TIP3    H154016   0.513   0.003   0.422  0.7080  0.7636  0.3811
10867TIP3    H254017   0.449   0.050   0.294  1.0914 -1.0286 -0.5061
10868TIP3   OH254018   5.333   6.517   4.177  0.1643 -0.0591  0.0971
10868TIP3    H154019   5.285   6.596   4.150 -0.8013  0.3375  2.7020
10868TIP3    H254020   5.297   6.495   4.263  2.1006 -1.9622  0.5062
10869TIP3   OH254021   4.645   2.447   1.350 -0.4040  0.4236  0.5399
10869TIP3    H154022   4.622   2.537   1.375 -2.4784 -0.0835  0.6670
10869TIP3    H254023   4.652   2.400   1.433 -1.2954  0.0536  0.4144
10870TIP3   OH254024   4.067   4.961   1.648 -0.0597 -0.2290  0.1181
10870TIP3    H154025   4.047   5.048   1.613 -0.8535  0.4709  2.1688
10870TIP3    H254026   4.076   4.974   1.742  2.3515 -1.9481  0.2400
10871TIP3   OH254027   3.861   6.285   1.194  0.5256 -0.2255  0.1807
10871TIP3    H154028   3.885   6.374   1.169 -1.8343  1.2416  2.5615
10871TIP3    H254029   3.907   6.270   1.277 -0.0050 -0.6970  0.4008
10872TIP3   OH254030   4.384   0.177  15.695 -0.3120 -0.5896  0.2134
10872TIP3    H154031   4.367   0.172  15.789  0.8484 -1.3698  0.3886
10872TIP3    H254032   4.324   0.246  15.664  0.5786  0.9880  1.8168
10873TIP3   OH254033   2.396   6.040   4.503  0.5242  0.2782  0.1771
10873TIP3    H154034   2.337   6.102   4.461 -0.5012 -0.2821  0.7630
10873TIP3    H254035   2.400   6.069   4.595 -1.5037 -1.5909  0.9379
10874TIP3   OH254036   0.200   0.498  11.763  0.6997 -0.1362 -0.2306
10874TIP3    H154037   0.133   0.433  11.779  1.4151 -0.2652  2.9979
10874TIP3    H254038   0.183   0.530  11.674 -3.0075 -0.7898  0.1024
10875TIP3   OH254039   4.640   5.782   1.405  1.5949 -0.3433 -0.1991
10875TIP3    H154040   4.601   5.695   1.396  1.7368 -0.3087 -1.4318
10875TIP3    H254041   4.733   5.769   1.386  1.4319  0.2256 -1.5303
10876TIP3   OH254042   1.356   0.861   1.476  0.4750  0.7369  0.6516
10876TIP3    H154043   1.363   0.867   1.380  1.7832 -2.6878  0.3869
10876TIP3    H254044   1.443   0.883   1.508  0.7541 -0.4972  0.8011
10877TIP3   OH254045   6.484   5.710  13.026 -0.5247  0.0543  0.0086
10877TIP3    H154046   6.431   5.714  13.106  1.7494  2.5496  1.5621
10877TIP3    H254047   6.501   5.616  13.013 -2.7961 -0.5817  1.1072
10878TIP3   OH254048   4.341   6.529   1.173  0.7090  0.0839  0.4813
10878TIP3    H154049   4.422   6.544   1.221  0.9053 -2.2055  0.9367
10878TIP3    H254050   4.365   6.543   1.081  1.2342  0.8506  0.7266
10879TIP3   OH254051   4.925   4.298  16.818  0.7869 -0.0075 -0.1814
10879TIP3    H154052   4.966   4.277  16.902 -0.2769 -1.5649 -0.0141
10879TIP3    H254053   4.905   4.391  16.825  1.6816  0.1360  0.8629
10880TIP3   OH254054   2.280   4.252  14.749  0.1852 -0.3546  0.4255
10880TIP3    H154055   2.273   4.229  14.657 -2.5187  1.2707  0.1083
10880TIP3    H254056   2.210   4.201  14.792 -0.9456  1.4873  0.9044
10881TIP3   OH254057   0.282   6.021  16.008  0.0624 -0.5016 -0.1892
10881TIP3    H154058   0.187   6.018  15.993  0.0469  1.2655 -0.7756
10881TIP3    H254059   0.296   5.969  16.087 -1.4619 -0.3729  0.2008
10882TIP3   OH254060   1.907   5.554  11.206 -0.0170  0.9247  0.4410
10882TIP3    H154061   1.994   5.515  11.209  0.1455  0.9185 -2.0476
10882TIP3    H254062   1.922   5.646  11.184 -0.6080  0.9187 -0.0389
10883TIP3   OH254063   1.365   5.735  15.108 -0.0335  0.1186 -0.0182
10883TIP3    H154064   1.312   5.796  15.159  1.7808  2.9042 -1.2034
10883TIP3    H254065   1.421   5.692  15.172 -0.3117  0.8397  0.7212
10884TIP3   OH254066   4.725   3.721   2.668 -0.9198  0.5707  0.1284
10884TIP3    H154067   4.796   3.775   2.632  0.2997 -0.5750  0.7554
10884TIP3    H254068   4.754   3.698   2.756 -1.8449 -0.3547  0.2094
10885TIP3   OH254069   0.080   3.981   4.533 -0.1639 -0.6951 -0.9604
10885TIP3    H154070   0.007   3.932   4.569 -1.3585 -0.9919 -3.5582
10885TIP3    H254071   0.147   3.978   4.601 -2.2079 -1.1752  1.1637
10886TIP3   OH254072   5.657   4.536   6.214  0.0946  0.0231 -0.1946
10886TIP3    H154073   5.576   4.541   6.164 -0.1278  1.1450  0.2374
10886TIP3    H254074   5.704   4.616   6.191  0.4478  0.0542  0.6015
10887TIP3   OH254075   1.643   2.990  14.612  0.8495 -0.4513  0.1269
10887TIP3    H154076   1.734   3.016  14.625  1.0597 -0.5268 -1.0760
10887TIP3    H254077   1.633   2.982  14.517 -0.5179 -0.0794  0.2065
10888TIP3   OH254078   5.200   2.189   2.699 -0.5202 -0.5758 -0.3940
10888TIP3    H154079   5.293   2.167   2.697 -0.2535  0.1175  1.8115
10888TIP3    H254080   5.192   2.268   2.646 -0.0603 -1.2335 -1.4689
10889TIP3   OH254081   3.824   3.758  11.985  0.1346 -0.1573 -0.4761
10889TIP3    H154082   3.790   3.706  12.058 -0.0982  0.6311 -0.0118
10889TIP3    H254083   3.903   3.712  11.958 -0.1100 -0.7991 -0.1310
10890TIP3   OH254084   6.442   5.962   3.800  0.2357  0.5290  0.1183
10890TIP3    H154085   6.504   6.035   3.803 -0.4411  1.0794  1.6105
10890TIP3    H254086   6.488   5.894   3.751  0.8665  1.9405 -1.3817
10891TIP3   OH254087   6.376   0.807  11.018  0.2873 -0.1826 -0.0339
10891TIP3    H154088   6.284   0.819  11.042  0.4951 -0.1862  0.7978
10891TIP3    H254089   6.374   0.782  10.926 -0.4383  1.5611 -0.5184
10892TIP3   OH254090   0.794   6.514  17.045  0.5387  0.1247  0.0415
10892TIP3    H154091   0.767   6.435  17.092 -0.3813  1.2336  1.4886
10892TIP3    H254092   0.795   6.582  17.113 -0.0465  1.6360 -1.4100
10893TIP3   OH254093   0.539   3.507  16.794 -0.0384 -0.4583  0.0462
10893TIP3    H154094   0.577   3.419  16.793  1.1874  0.0442 -1.9579
10893TIP3    H254095   0.500   3.518  16.708  0.1670  1.1142  0.1191
10894TIP3   OH254096   3.971   1.628   0.586 -0.3586 -0.6446  0.5721
10894TIP3    H154097   3.951   1.542   0.549  0.4484  0.1505 -1.8904
10894TIP3    H254098   3.899   1.684   0.558  1.1642  0.3985 -1.5570
10895TIP3   OH254099   3.260   5.977   2.401  0.2931 -0.1420  0.2299
10895TIP3    H154100   3.212   6.045   2.449 -0.3606  0.4832 -1.2320
10895TIP3    H254101   3.200   5.902   2.400  0.7409 -0.5442  1.2542
10896TIP3   OH254102   4.656   4.177  10.573 -0.2260  0.3116 -0.1948
10896TIP3    H154103   4.719   4.187  10.501  2.2475  0.9945  1.8821
10896TIP3    H254104   4.636   4.084  10.575 -0.0453  0.2254 -1.5156
10897TIP3   OH254105   5.519   2.813   5.242 -0.0346  0.2489 -0.0743
10897TIP3    H154106   5.464   2.813   5.320  0.9567  2.3149  0.7143
10897TIP3    H254107   5.458   2.830   5.170 -0.9905 -1.8802  0.1491
10898TIP3   OH254108   3.499   1.188  12.456  0.3638 -0.4381 -0.4599
10898TIP3    H154109   3.498   1.111  12.513  0.4717  0.0455  0.2074
10898TIP3    H254110   3.503   1.152  12.367  1.4054 -1.2080 -0.1322
10899TIP3   OH254111   5.507   4.725  15.244  0.4441  0.0646  0.1798
10899TIP3    H154112   5.582   4.700  15.190 -0.4288 -2.2864 -0.0302
10899TIP3    H254113   5.539   4.799  15.296  3.5549 -2.0561  1.5232
10900TIP3   OH254114   2.765   3.567  13.775 -0.6803  0.7693 -0.5620
10900TIP3    H154115   2.732   3.549  13.863  0.1133  1.2313 -0.1559
10900TIP3    H254116   2.828   3.639  13.787 -0.8247  1.0839 -1.5565
10901TIP3   OH254117   5.712   6.629   2.680 -0.4693  0.5065  0.6545
10901TIP3    H154118   5.740   6.709   2.634 -1.5784  1.3239  1.3436
10901TIP3    H254119   5.743   6.557   2.625  2.0547  1.3483  0.8735
10902TIP3   OH254120   3.057   3.886   2.313  0.0017 -0.0711  0.1929
10902TIP3    H154121   3.076   3.978   2.292 -1.0982 -0.2463 -1.7679
10902TIP3    H254122   3.014   3.852   2.235 -1.8025 -1.6235  1.7696
10903TIP3   OH254123   5.577   3.239   2.315  0.3635 -0.3368 -0.6863
10903TIP3    H154124   5.639   3.279   2.254 -0.4389  0.7960 -0.7999
10903TIP3    H254125   5.610   3.261   2.402 -0.2074  0.8386 -0.7485
10904TIP3   OH254126   6.184   3.283   5.126  0.3081  0.0659 -1.0965
10904TIP3    H154127   6.092   3.257   5.133  0.5383 -0.1789  2.7629
10904TIP3    H254128   6.233   3.202   5.138  1.0269  0.6007 -0.3541
10905TIP3   OH254129   6.595   4.024   0.591  0.0202  0.3519 -0.0754
10905TIP3    H154130   6.670   4.079   0.615  0.4891 -1.5589  3.7032
10905TIP3    H254131   6.634   3.943   0.557 -0.2765 -0.2938  1.0484
10906TIP3   OH254132   6.378   2.358   1.994  0.2901 -0.5271  0.6743
10906TIP3    H154133   6.407   2.341   1.904 -1.9222 -1.0819  0.0083
10906TIP3    H254134   6.448   2.321   2.049  1.0078 -1.4590 -0.8051
10907TIP3   OH254135   3.998   0.850  10.658 -0.6373 -0.3125  0.5138
10907TIP3    H154136   3.918   0.887  10.696 -0.6150  2.2550 -1.5754
10907TIP3    H254137   4.021   0.911  10.587  1.5521 -2.5421 -0.8837
10908TIP3   OH254138   1.436   4.359   5.853 -0.0233 -0.3654 -0.6340
10908TIP3    H154139   1.385   4.370   5.934  0.5719  0.5791 -0.3753
10908TIP3    H254140   1.481   4.275   5.865 -0.3482 -0.4826 -0.2096
10909TIP3   OH254141   2.478   0.662  12.162 -0.2795  0.5503  0.2466
10909TIP3    H154142   2.400   0.700  12.122 -1.4307 -0.3075  1.5672
10909TIP3    H254143   2.544   0.664  12.094 -0.8922  3.0027 -0.3635
10910TIP3   OH254144   1.894   2.110   2.164 -0.2180  0.2757  0.2480
10910TIP3    H154145   1.988   2.109   2.144 -0.2030 -0.1496  0.3200
10910TIP3    H254146   1.877   2.197   2.200  0.0289  0.5748 -0.3394
10911TIP3   OH254147   3.544   2.348   3.824 -1.0651 -0.7560 -0.1510
10911TIP3    H154148   3.551   2.443   3.837 -0.9490 -0.7483 -0.2621
10911TIP3    H254149   3.450   2.330   3.829 -1.2280 -0.4189 -1.5474
10912TIP3   OH254150   4.508   2.732   1.066  0.6924 -0.3396 -0.3159
10912TIP3    H154151   4.481   2.820   1.040  0.9413  0.0064  0.5591
10912TIP3    H254152   4.590   2.717   1.020  0.8985  0.0866 -0.0967
10913TIP3   OH254153   0.185   4.584   0.844 -0.2147 -0.4426 -0.4795
10913TIP3    H154154   0.267   4.583   0.894  0.0903 -3.1004 -0.8846
10913TIP3    H254155   0.212   4.605   0.755 -0.3391  1.1595 -0.1602
10914TIP3   OH254156   0.271   4.144  17.079 -0.6282 -0.2053  0.1091
10914TIP3    H154157   0.303   4.220  17.127 -1.2398  0.2462 -0.1915
10914TIP3    H254158   0.299   4.159  16.989  1.0210 -1.3284  0.3883
10915TIP3   OH254159   2.117   2.428  13.402 -0.2051 -0.2577 -0.5161
10915TIP3    H154160   2.029   2.466  13.399 -0.0546  0.1742  0.3416
10915TIP3    H254161   2.129   2.401  13.493  1.6078  2.3140  0.1164
10916TIP3   OH254162   2.413   6.385  13.062  0.4185 -0.1655  0.0036
10916TIP3    H154163   2.370   6.469  13.051  0.6425  0.6386  3.8347
10916TIP3    H254164   2.506   6.406  13.070  1.3120 -1.4961 -4.3460
10917TIP3   OH254165   3.112   6.344  13.993  0.2326 -0.0609  0.2720
10917TIP3    H154166   3.099   6.300  14.077  0.3897  0.8929  0.8095
10917TIP3    H254167   3.070   6.286  13.929  0.0080 -0.7401  1.0164
10918TIP3   OH254168   1.509   5.055  14.068  0.1243 -0.3848  0.0182
10918TIP3    H154169   1.549   5.076  14.153 -0.1128 -0.6225  0.1907
10918TIP3    H254170   1.583   5.051  14.008  0.4636 -1.6272  0.4929
10919TIP3   OH254171   3.917   5.329  13.118  0.0725  0.0831 -0.0960
10919TIP3    H154172   3.981   5.288  13.060 -0.2485 -0.8060  0.1578
10919TIP3    H254173   3.926   5.281  13.200 -2.7421 -1.9391 -0.8248
10920TIP3   OH254174   3.969   4.618   5.071  0.1136  0.4920 -0.1417
10920TIP3    H154175   3.879   4.588   5.056 -0.7322  0.3287  4.0256
10920TIP3    H254176   3.960   4.711   5.092  1.1133  0.7881 -0.9798
10921TIP3   OH254177   2.959   2.953  15.420 -0.3763 -0.1661 -0.2799
10921TIP3    H154178   3.047   2.933  15.450 -0.5315 -0.5820 -0.0977
10921TIP3    H254179   2.948   3.047  15.440  0.3366  0.1010 -1.1259
10922TIP3   OH254180   5.988   2.873   2.396  0.2888  0.2191 -0.1945
10922TIP3    H154181   6.016   2.914   2.478 -1.1741  0.0480  0.4219
10922TIP3    H254182   5.924   2.933   2.359 -0.2700 -0.4788 -0.3826
10923TIP3   OH254183   1.228   6.659  14.865 -0.4826  0.0819  0.4262
10923TIP3    H154184   1.278   6.591  14.911  0.4497  0.7525  0.4527
10923TIP3    H254185   1.285   6.736  14.869 -2.0456  1.2412  1.5322
10924TIP3   OH254186   2.944   0.469   4.061  0.5326 -0.2523 -0.0928
10924TIP3    H154187   2.936   0.374   4.061  1.4854 -0.3659  1.5207
10924TIP3    H254188   3.013   0.488   4.125 -0.4185  1.5834  0.4631
10925TIP3   OH254189   3.440   3.871   5.367 -0.1064 -0.0768 -0.6567
10925TIP3    H154190   3.347   3.848   5.374 -0.0932  0.3143  1.6488
10925TIP3    H254191   3.484   3.808   5.424  0.9571  0.2170 -1.1390
10926TIP3   OH254192   0.817   5.706   1.529  0.2182 -0.7990 -0.1599
10926TIP3    H154193   0.894   5.719   1.473 -1.1760 -0.3945 -2.0705
10926TIP3    H254194   0.809   5.611   1.537 -0.3802 -0.9295 -1.8952
10927TIP3   OH254195   3.776   4.127  14.109 -1.1181  0.0626 -0.3119
10927TIP3    H154196   3.844   4.194  14.120 -0.0749 -1.0217  0.0277
10927TIP3    H254197   3.768   4.087  14.196 -1.9091 -0.1010 -0.4523
10928TIP3   OH254198   5.735   0.748  15.663 -0.0917  0.1658 -0.1459
10928TIP3    H154199   5.649   0.723  15.698  1.0095 -1.9955  1.1796
10928TIP3    H254200   5.798   0.706  15.721  1.8905  1.0968 -1.5166
10929TIP3   OH254201   4.192   6.557   2.321 -0.6319  0.2786 -0.4916
10929TIP3    H154202   4.243   6.502   2.262 -0.4975 -1.5820  1.2281
10929TIP3    H254203   4.101   6.534   2.304 -0.5377 -1.9263  1.3624
10930TIP3   OH254204   5.664   0.346  11.104  0.7689  0.6480  0.2699
10930TIP3    H154205   5.600   0.285  11.140  1.5178  0.1035  0.7173
10930TIP3    H254206   5.688   0.310  11.019 -0.4924  1.5666 -0.4924
10931TIP3   OH254207   5.657   1.802   1.995  0.1537 -0.4157 -0.0509
10931TIP3    H154208   5.677   1.711   2.018 -1.5895 -0.5400  1.1706
10931TIP3    H254209   5.673   1.851   2.075 -0.0000  0.1847 -0.3842
10932TIP3   OH254210   6.257   6.298  10.808 -0.4068  0.3033 -0.0117
10932TIP3    H154211   6.176   6.251  10.789 -0.4326  0.3363  0.0170
10932TIP3    H254212   6.319   6.265  10.743 -0.4326  0.2506 -0.0098
10933TIP3   OH254213   3.390   5.701  10.474 -0.3999 -0.1108 -0.0709
10933TIP3    H154214   3.321   5.768  10.473  0.4481  0.8117  0.4431
10933TIP3    H254215   3.462   5.740  10.423  0.1862 -0.5227  0.4230
10934TIP3   OH254216   0.168   6.757   3.807 -0.0943 -0.0602  0.5470
10934TIP3    H154217   0.152   6.844   3.844 -1.6590  0.5070 -1.3313
10934TIP3    H254218   0.149   6.767   3.714 -0.0125 -2.3584  0.2459
10935TIP3   OH254219   5.620   4.378  17.223 -0.7420  0.3680  0.2884
10935TIP3    H154220   5.529   4.409  17.219 -1.5695 -1.7690  1.3766
10935TIP3    H254221   5.672   4.454  17.196 -2.8776  1.4000 -1.1955
10936TIP3   OH254222   0.846   5.784   4.692 -0.1713 -0.2500 -0.0610
10936TIP3    H154223   0.911   5.842   4.730  0.3846 -0.9207  0.0423
10936TIP3    H254224   0.764   5.807   4.737 -0.0585  0.7452 -0.3509
10937TIP3   OH254225   5.067   2.674  10.589 -0.3464 -1.0235  0.4250
10937TIP3    H154226   5.053   2.765  10.563  0.0838 -1.2997 -0.8760
10937TIP3    H254227   5.079   2.627  10.506  1.2413 -1.9491  1.1234
10938TIP3   OH254228   3.562   0.728   6.298  0.5023 -0.2459  0.1304
10938TIP3    H154229   3.609   0.646   6.287  2.6346  0.6868  1.5586
10938TIP3    H254230   3.507   0.715   6.375  0.4444 -0.4969  0.0454
10939TIP3   OH254231   5.111   3.566   1.063  0.1226 -0.4901 -0.9791
10939TIP3    H154232   5.187   3.583   1.007 -0.2809  1.2460 -1.0642
10939TIP3    H254233   5.119   3.629   1.135 -1.2209 -0.2388 -1.0070
10940TIP3   OH254234   5.975   0.308  14.061 -0.5860 -0.1990 -0.2715
10940TIP3    H154235   5.921   0.378  14.097 -0.5182 -1.5160  2.7202
10940TIP3    H254236   6.064   0.342  14.064 -0.7811  0.4357 -1.2039
10941TIP3   OH254237   6.623   2.936  16.853 -0.2075 -0.0965  0.2224
10941TIP3    H154238   6.640   2.948  16.946  0.3483  0.3433  0.0629
10941TIP3    H254239   6.530   2.958  16.843 -0.5458 -1.1674  0.8401
10942TIP3   OH254240   3.418   6.360  11.190 -0.4696  0.0984  0.9738
10942TIP3    H154241   3.489   6.383  11.130 -0.0481  1.4125  1.9313
10942TIP3    H254242   3.416   6.264  11.189  0.4568  0.0700 -0.0411
10943TIP3   OH254243   6.080   5.577   3.500 -0.3138 -0.1668  0.3402
10943TIP3    H154244   6.127   5.515   3.445  1.0679  0.9949  0.1478
10943TIP3    H254245   6.053   5.647   3.441 -0.7396  0.0468  0.7748
10944TIP3   OH254246   0.303   4.602  13.989 -0.1440 -0.0292  0.0818
10944TIP3    H154247   0.255   4.669  13.940 -1.6846  0.3103  1.9419
10944TIP3    H254248   0.276   4.520  13.949  0.8985  0.3362 -1.4896
10945TIP3   OH254249   5.292   0.039  11.369  0.2388  0.4715  0.4086
10945TIP3    H154250   5.267   0.130  11.350 -0.5331  0.0955 -0.4926
10945TIP3    H254251   5.269  -0.009  11.289 -2.1619 -1.0327  1.8645
10946TIP3   OH254252   0.704   3.569   4.466 -0.2107  0.3302 -0.1095
10946TIP3    H154253   0.713   3.646   4.409  0.9213  0.6309  0.4346
10946TIP3    H254254   0.666   3.502   4.410  0.0146  0.8977 -0.9647
10947TIP3   OH254255   0.284   3.050   3.425 -0.2166  0.3457 -0.3477
10947TIP3    H154256   0.319   3.034   3.513 -1.5681  1.4270  0.4389
10947TIP3    H254257   0.194   3.017   3.430 -0.3156  0.4642 -1.3106
10948TIP3   OH254258   2.311   0.833  12.017 -0.2152 -0.1594  0.0031
10948TIP3    H154259   2.273   0.882  11.944  1.3114  0.1930 -0.5979
10948TIP3    H254260   2.280   0.879  12.095  0.1389  0.9866 -0.5143
10949TIP3   OH254261   4.480   2.259   1.599 -0.9155 -0.7789  0.5523
10949TIP3    H154262   4.428   2.180   1.606 -0.8261 -1.0272 -1.2484
10949TIP3    H254263   4.567   2.233   1.631 -1.4558 -0.7620  2.1220
10950TIP3   OH254264   4.013   2.746   5.049 -0.1285  0.1653 -0.3531
10950TIP3    H154265   3.970   2.676   5.098  0.6381 -1.0376 -1.3340
10950TIP3    H254266   3.952   2.766   4.978 -0.8314  1.2778  0.5283
10951TIP3   OH254267   3.442   2.735   4.602 -0.0403 -0.2140  0.2936
10951TIP3    H154268   3.383   2.808   4.621  1.4659  0.7929  1.2383
10951TIP3    H254269   3.432   2.720   4.507 -1.6721  0.0090  0.3992
10952TIP3   OH254270   2.776   0.035   0.843 -0.0203 -0.3131  0.3388
10952TIP3    H154271   2.760   0.078   0.928  0.7830  0.3701  0.1510
10952TIP3    H254272   2.700  -0.023   0.832 -0.8913  0.6944  0.8289
10953TIP3   OH254273   1.753   2.242   0.823 -0.0877  0.7157 -0.4556
10953TIP3    H154274   1.802   2.321   0.845 -1.8911  1.3065  1.6979
10953TIP3    H254275   1.664   2.272   0.806 -0.7223 -0.8020  0.0265
10954TIP3   OH254276   1.821   4.312  12.862  0.0045 -0.2572 -0.0608
10954TIP3    H154277   1.782   4.354  12.939 -0.4761 -1.4185  0.3642
10954TIP3    H254278   1.764   4.237  12.845  0.6446 -0.5452 -0.9834
10955TIP3   OH254279   0.766   5.845  16.919  0.0927 -0.0572 -0.3563
10955TIP3    H154280   0.719   5.769  16.954  1.6633 -0.7879  0.2423
10955TIP3    H254281   0.706   5.882  16.854 -1.7910 -0.2579  1.1776
10956TIP3   OH254282   4.748   1.152   2.371 -0.3036  0.7202 -0.0016
10956TIP3    H154283   4.742   1.094   2.446  0.1346 -0.2172 -0.6712
10956TIP3    H254284   4.670   1.134   2.319  0.7199 -0.6751 -1.1552
10957TIP3   OH254285   5.061   6.472   1.969 -0.5684 -0.7901 -0.0728
10957TIP3    H154286   5.000   6.526   1.919  1.5015  0.0557 -1.8780
10957TIP3    H254287   5.047   6.383   1.936  1.1157 -0.1872 -2.7803
10958TIP3   OH254288   5.889   4.516  15.069 -0.4727 -0.7511  0.0822
10958TIP3    H154289   5.939   4.474  15.139  0.0702 -0.8371 -0.3501
10958TIP3    H254290   5.836   4.582  15.113  1.0496  0.3025  0.4017
10959TIP3   OH254291   4.688   0.832   3.631 -0.4068 -0.0283 -0.6259
10959TIP3    H154292   4.738   0.910   3.656 -1.0460 -0.2117  1.3815
10959TIP3    H254293   4.669   0.844   3.538  2.7795  0.3619 -1.3325
10960TIP3   OH254294   5.116   6.553   0.954 -0.4867 -0.1341  1.0216
10960TIP3    H154295   5.062   6.620   0.996 -1.4380  0.0265 -0.3679
10960TIP3    H254296   5.167   6.514   1.025 -2.2057 -0.0695  2.3495
10961TIP3   OH254297   4.583   6.431   3.105  0.8021  0.3568  0.5720
10961TIP3    H154298   4.619   6.408   3.019 -1.0062  0.3211 -0.2382
10961TIP3    H254299   4.648   6.490   3.143  2.7962 -1.5417  0.2503
10962TIP3   OH254300   3.184   3.860   0.278 -0.3030  0.6688  0.5937
10962TIP3    H154301   3.146   3.946   0.293 -0.9082  0.6057 -0.4542
10962TIP3    H254302   3.110   3.800   0.275 -0.4406  0.7680 -3.0619
10963TIP3   OH254303   0.125   4.505   4.227 -0.2266 -0.2426 -0.3877
10963TIP3    H154304   0.125   4.580   4.287 -0.1823 -1.3809  1.0985
10963TIP3    H254305   0.217   4.483   4.215 -0.2833 -1.0556  0.5252
10964TIP3   OH254306   4.922   3.480  14.626 -0.0600  0.7470  0.0904
10964TIP3    H154307   4.872   3.517  14.553 -0.0010  1.1511  0.2545
10964TIP3    H254308   4.991   3.429  14.584 -1.3026 -0.8204 -0.1656
10965TIP3   OH254309   1.612   2.559  10.741  0.0645  0.1632 -0.2724
10965TIP3    H154310   1.667   2.637  10.738  0.1276  0.1428  0.2077
10965TIP3    H254311   1.552   2.574  10.814  0.1340 -0.2722 -0.1184
10966TIP3   OH254312   5.695   5.520   1.656  0.0921  0.2007 -0.2235
10966TIP3    H154313   5.709   5.580   1.582 -1.5178  2.4119  1.1290
10966TIP3    H254314   5.600   5.506   1.658  0.3013 -1.3201  0.3440
10967TIP3   OH254315   1.399   4.043   0.436  0.4891  0.4975 -0.2440
10967TIP3    H154316   1.397   4.096   0.356  0.6923 -0.1148 -0.6699
10967TIP3    H254317   1.308   4.041   0.465  0.7543  2.6611  0.8763
10968TIP3   OH254318   0.513   3.382   2.528 -0.1554 -0.1770  0.0906
10968TIP3    H154319   0.474   3.328   2.596  0.3395  0.2194  0.7008
10968TIP3    H254320   0.603   3.396   2.557  0.1620 -0.2732 -0.8076
10969TIP3   OH254321   1.965   3.969  10.508  0.2133 -0.1770 -0.2921
10969TIP3    H154322   1.894   3.941  10.566  0.3825  2.3711  1.2823
10969TIP3    H254323   1.986   3.891  10.457 -0.5516 -2.3273  2.4361
10970TIP3   OH254324   2.947   4.439  16.099  0.5970  0.0769  0.5280
10970TIP3    H154325   3.011   4.367  16.098  0.5917  0.0277  1.7979
10970TIP3    H254326   2.977   4.499  16.031  1.2801 -0.5554  0.2574
10971TIP3   OH254327   1.692   5.333   1.606  0.0614 -0.8747 -0.2159
10971TIP3    H154328   1.681   5.426   1.624 -3.3132 -0.8167 -1.7830
10971TIP3    H254329   1.704   5.328   1.511  0.7733 -2.0596 -0.0925
10972TIP3   OH254330   2.556   6.659   0.047  0.0454 -0.4068  0.2156
10972TIP3    H154331   2.642   6.700   0.042 -0.4452  0.6082 -4.6575
10972TIP3    H254332   2.572   6.567   0.029  0.2634 -0.6068  1.3895
10973TIP3   OH254333   3.572   6.522   0.300  0.1503 -0.1895 -0.5416
10973TIP3    H154334   3.635   6.492   0.234 -0.3337 -0.8841 -0.6922
10973TIP3    H254335   3.487   6.517   0.256 -0.1183 -0.1733 -0.0275
10974TIP3   OH254336   5.271   2.741   3.137  0.4064 -0.8182  0.2695
10974TIP3    H154337   5.260   2.650   3.110 -0.0918 -0.9218  0.8053
10974TIP3    H254338   5.346   2.772   3.086  0.6757 -1.5726  0.1940
10975TIP3   OH254339   0.217   3.914   4.268  0.5970  0.2492 -0.6742
10975TIP3    H154340   0.147   3.929   4.332  0.6040 -0.3166 -0.5359
10975TIP3    H254341   0.207   3.986   4.205  1.6117  1.8114  0.8505
10976TIP3   OH254342   4.094   6.050  13.827  0.2783 -0.0579 -0.5583
10976TIP3    H154343   4.005   6.014  13.834  1.5404 -3.4836 -0.2385
10976TIP3    H254344   4.112   6.050  13.734 -0.0413  0.6966 -0.6281
10977TIP3   OH254345   6.032   3.366  14.737  0.3140  0.1363 -0.2401
10977TIP3    H154346   6.003   3.275  14.737 -0.4579  0.3602 -1.1898
10977TIP3    H254347   6.116   3.365  14.783  0.0878 -0.9731  0.1713
10978TIP3   OH254348   5.222   3.227   4.511 -0.0233 -0.1024  0.1361
10978TIP3    H154349   5.201   3.143   4.470  3.2839 -1.2102  0.4313
10978TIP3    H254350   5.151   3.285   4.484 -2.7746 -3.0696  0.4006
10979TIP3   OH254351   1.839   2.853  14.981 -0.2008 -0.2862  0.1305
10979TIP3    H154352   1.882   2.931  14.946 -0.5669 -0.7560 -1.4534
10979TIP3    H254353   1.880   2.838  15.066  0.0917  1.4376  0.3193
10980TIP3   OH254354   0.396   6.572  15.400  0.1660 -0.3953  0.1394
10980TIP3    H154355   0.473   6.523  15.429  0.9083  0.0590 -0.9900
10980TIP3    H254356   0.374   6.628  15.474  1.6170  0.2664  0.1097
10981TIP3   OH254357   5.650   0.588   1.857 -0.1128 -0.3414 -0.3083
10981TIP3    H154358   5.734   0.558   1.892 -0.5564  0.5469  1.6864
10981TIP3    H254359   5.602   0.508   1.838  0.9078 -0.8591 -0.7846
10982TIP3   OH254360   2.990   2.072   3.544 -0.4484  0.1901  0.1166
10982TIP3    H154361   2.967   1.980   3.532  0.1609 -0.0437  0.6566
10982TIP3    H254362   3.062   2.086   3.482 -1.5022  0.7148 -1.0309
10983TIP3   OH254363   5.856   2.260   3.814  0.0808 -0.3228 -0.0357
10983TIP3    H154364   5.771   2.297   3.836 -0.7381 -0.9459 -2.0069
10983TIP3    H254365   5.887   2.221   3.897 -0.6679  1.4902  1.1538
10984TIP3   OH254366   1.763   3.136  10.621  0.2081 -0.5155  0.3262
10984TIP3    H154367   1.809   3.207  10.667  1.2550  0.9236 -2.6449
10984TIP3    H254368   1.818   3.059  10.634  1.6941  0.3895 -0.2661
10985TIP3   OH254369   0.877   0.485   2.817  0.4271  0.0943  0.6053
10985TIP3    H154370   0.796   0.472   2.767  0.5626 -0.1719  0.4517
10985TIP3    H254371   0.885   0.580   2.826 -0.5493  0.0985  1.6843
10986TIP3   OH254372   3.590   4.088  12.249  0.0594  0.1518  0.2302
10986TIP3    H154373   3.634   4.115  12.168 -1.6727  0.9240 -0.5002
10986TIP3    H254374   3.516   4.148  12.258 -0.6756 -0.8895  1.5684
10987TIP3   OH254375   1.460   2.038  15.639  0.3482 -0.0018 -0.2456
10987TIP3    H154376   1.543   2.086  15.635 -0.6392  1.7261 -2.8119
10987TIP3    H254377   1.414   2.075  15.714  1.3419  0.0026  0.3723
10988TIP3   OH254378   2.921   3.760  11.563 -0.6527  0.4085 -0.8792
10988TIP3    H154379   2.887   3.672  11.549  0.0499 -0.1873  0.9218
10988TIP3    H254380   3.004   3.762  11.516 -0.3427 -0.1208 -0.3541
10989TIP3   OH254381   4.335   2.097   1.773 -0.4024  0.1080 -0.3513
10989TIP3    H154382   4.344   2.033   1.703 -1.4778  0.2305 -0.6243
10989TIP3    H254383   4.396   2.068   1.840  0.2704 -0.3041 -1.1204
10990TIP3   OH254384   0.660   5.247   3.588  0.1985 -0.2439 -0.3958
10990TIP3    H154385   0.592   5.188   3.621 -0.4321  0.5999 -0.1225
10990TIP3    H254386   0.694   5.204   3.510  0.8413 -1.6828  0.6420
10991TIP3   OH254387   0.139   1.919  11.704 -0.0039  0.2408  0.5329
10991TIP3    H154388   0.225   1.890  11.673 -0.1255  0.0282  0.3953
10991TIP3    H254389   0.101   1.965  11.629 -0.7050 -1.1240  0.0313
10992TIP3   OH254390   0.744   1.779  12.180  0.2552 -0.4229 -0.2274
10992TIP3    H154391   0.780   1.702  12.138  2.1641  0.0303  0.4879
10992TIP3    H254392   0.818   1.820  12.224 -1.0208  0.9374  0.7709
10993TIP3   OH254393   5.424   3.008   3.771 -0.3870  0.4391 -0.0927
10993TIP3    H154394   5.381   3.068   3.710  0.2000  0.2381 -0.7203
10993TIP3    H254395   5.392   2.921   3.746 -0.2246  0.3658 -0.0499
10994TIP3   OH254396   0.458   2.993  11.932  0.2933 -0.5562  0.0030
10994TIP3    H154397   0.488   3.079  11.902 -1.1353 -0.1822 -0.4154
10994TIP3    H254398   0.437   2.946  11.851 -1.1711 -0.4452  0.2974
10995TIP3   OH254399   5.862   5.944   2.477 -0.3449 -0.8336  0.3314
10995TIP3    H154400   5.850   6.031   2.439  1.4218 -0.4422  0.5774
10995TIP3    H254401   5.832   5.883   2.409 -0.9809 -0.0616 -0.0919
10996TIP3   OH254402   3.271   3.416   1.958  0.1382  0.5971  0.1857
10996TIP3    H154403   3.343   3.370   1.915 -1.1351 -0.6072 -0.7493
10996TIP3    H254404   3.233   3.471   1.890  0.2968  1.3985  0.7316
10997TIP3   OH254405   3.481   1.664   3.246  0.1249 -0.2152  0.0622
10997TIP3    H154406   3.572   1.695   3.247  0.0323  0.0401  0.7329
10997TIP3    H254407   3.428   1.743   3.254 -0.1513 -0.3957  0.0381
10998TIP3   OH254408   5.358   2.232  14.154 -0.1902 -0.2466 -0.7915
10998TIP3    H154409   5.309   2.314  14.154  0.5450  0.2116  0.3593
10998TIP3    H254410   5.387   2.221  14.244 -0.8119 -2.1182 -0.7746
10999TIP3   OH254411   2.536   5.683   6.729  0.1720  0.4686 -0.5000
10999TIP3    H154412   2.493   5.611   6.683  0.5612  0.0382 -0.2016
10999TIP3    H254413   2.601   5.716   6.667  0.5384  0.0391 -0.3533
11000TIP3   OH254414   5.259   6.590  16.109  0.0287  0.2273 -0.0631
11000TIP3    H154415   5.291   6.671  16.068  2.7373 -1.5391 -1.8030
11000TIP3    H254416   5.217   6.542  16.037  0.6188 -0.8966  0.3158
11001TIP3   OH254417   3.596   1.606  12.727  0.4145 -0.9436 -0.1781
11001TIP3    H154418   3.667   1.594  12.664  0.4728  0.7213 -0.4664
11001TIP3    H254419   3.532   1.538  12.705 -0.3614  0.5964 -3.1815
11002TIP3   OH254420   5.891   4.959   0.995  0.0108  0.1202  0.2121
11002TIP3    H154421   5.944   5.037   1.007  2.5623 -1.1358 -1.8143
11002TIP3    H254422   5.943   4.888   1.035 -0.9183 -0.9292 -0.3788
11003TIP3   OH254423   2.882   0.468   3.780 -0.4740 -0.1182 -0.1647
11003TIP3    H154424   2.819   0.407   3.741 -1.4263 -0.1618  1.3708
11003TIP3    H254425   2.886   0.443   3.872  0.0825  1.3421  0.2345
11004TIP3   OH254426   1.800   3.835   0.638  0.0694 -0.5385  0.0771
11004TIP3    H154427   1.780   3.744   0.613  0.1044 -0.4548 -0.2712
11004TIP3    H254428   1.893   3.845   0.617  0.4088 -0.8164  1.3505
11005TIP3   OH254429   4.115   0.120   3.971 -0.0839 -0.1175  0.0497
11005TIP3    H154430   4.196   0.142   3.926 -1.1615 -0.3656 -2.1674
11005TIP3    H254431   4.046   0.138   3.907 -1.6837 -1.2312  1.3580
11006TIP3   OH254432   0.594   0.905  14.428 -0.1878  0.3473  0.0306
11006TIP3    H154433   0.599   0.938  14.518  0.3736 -1.5496  0.7485
11006TIP3    H254434   0.552   0.820  14.436  0.9541 -0.3876 -1.3311
11007TIP3   OH254435   3.787   4.839   1.613  0.0619  0.2399  0.1942
11007TIP3    H154436   3.834   4.757   1.629 -0.1925  0.4050  1.9098
11007TIP3    H254437   3.854   4.907   1.621 -0.0102  0.3093  0.2034
11008TIP3   OH254438   3.143   1.830   2.133 -0.2368 -0.0226  0.1389
11008TIP3    H154439   3.169   1.916   2.103 -1.9665  0.1306 -1.1200
11008TIP3    H254440   3.189   1.769   2.076 -1.4139  0.1924 -1.0774
11009TIP3   OH254441   1.399   1.561   2.817 -0.6910 -0.1983 -0.0064
11009TIP3    H154442   1.377   1.555   2.910 -0.9346  0.2626 -0.0298
11009TIP3    H254443   1.320   1.530   2.772  0.0239 -2.0341 -0.0421
11010TIP3   OH254444   5.341   3.476  14.524  0.1899 -0.5844 -0.0532
11010TIP3    H154445   5.322   3.565  14.494  0.4840 -0.1760  0.9437
11010TIP3    H254446   5.406   3.444  14.461  0.4696  0.0965 -0.1274
11011TIP3   OH254447   0.993   2.896   2.303 -0.1167  0.1981 -0.3619
11011TIP3    H154448   0.975   2.981   2.263 -0.5342  0.5567  0.5475
11011TIP3    H254449   1.070   2.864   2.257 -1.2760  0.0089 -2.2859
11012TIP3   OH254450   5.515   1.885  12.425 -0.2100 -0.3149 -0.5256
11012TIP3    H154451   5.476   1.835  12.497 -0.8867 -1.6039 -1.7280
11012TIP3    H254452   5.493   1.976  12.443 -0.1666 -0.5858  0.9953
11013TIP3   OH254453   0.923   1.244   4.164 -0.0011 -0.8594 -0.6154
11013TIP3    H154454   0.937   1.157   4.202  0.6360  0.8101  3.5285
11013TIP3    H254455   0.828   1.256   4.166  0.0153 -0.5866  1.4111
11014TIP3   OH254456   3.607   5.896  14.860 -0.3215  0.9853 -0.5435
11014TIP3    H154457   3.679   5.944  14.819  0.2520  0.3729 -0.2637
11014TIP3    H254458   3.639   5.873  14.946  0.0572 -1.3407 -1.2428
11015TIP3   OH254459   4.892   3.541   3.228 -0.4689  0.3871  0.1437
11015TIP3    H154460   4.969   3.590   3.257 -1.2929  0.7948  1.7900
11015TIP3    H254461   4.851   3.511   3.309 -1.1162 -1.2997 -0.7601
11016TIP3   OH254462   0.660   3.019   5.402 -0.0327 -0.2574 -0.4202
11016TIP3    H154463   0.734   2.964   5.428  0.6735  0.6587 -0.4471
11016TIP3    H254464   0.584   2.980   5.446  0.6649 -0.4651  0.6329
11017TIP3   OH254465   4.144   0.971   3.315  0.2068  0.2659  0.7930
11017TIP3    H154466   4.158   0.939   3.404 -0.7947 -0.9255  0.5353
11017TIP3    H254467   4.165   0.897   3.259  0.1356  0.7913  0.0535
11018TIP3   OH254468   5.399   0.296   1.046  0.7805  0.3197  0.3683
11018TIP3    H154469   5.481   0.255   1.016  0.6576  0.1821  0.2181
11018TIP3    H254470   5.343   0.222   1.069  1.0579  0.4288  1.4603
11019TIP3   OH254471   1.146   2.148   1.909 -0.3534  0.4301 -0.1504
11019TIP3    H154472   1.159   2.226   1.963 -0.3410  0.7028 -0.5410
11019TIP3    H254473   1.168   2.075   1.966  0.3858  0.7505 -0.0157
11020TIP3   OH254474   0.392   2.065  16.367 -0.1550  0.1652 -0.6231
11020TIP3    H154475   0.324   2.013  16.412  0.3119 -1.9685 -2.2051
11020TIP3    H254476   0.423   2.007  16.297  1.9209  1.8459 -1.1790
11021TIP3   OH254477   0.528   1.009  13.936  0.2448 -0.0074 -0.3529
11021TIP3    H154478   0.435   1.023  13.952  0.0801 -1.4339  0.1180
11021TIP3    H254479   0.540   1.028  13.843 -0.6612 -0.4519 -0.5699
11022TIP3   OH254480   6.128   1.593  16.362  0.5167  0.0674 -0.1114
11022TIP3    H154481   6.099   1.574  16.273  0.1898 -0.8281  0.1690
11022TIP3    H254482   6.209   1.543  16.371 -0.4640 -1.4354  0.7151
11023TIP3   OH254483   5.155   5.539   1.137  0.4106  0.3761 -0.1476
11023TIP3    H154484   5.085   5.486   1.099 -0.5580 -0.1197  2.1597
11023TIP3    H254485   5.169   5.610   1.075 -2.3419  0.6478 -0.5738
11024TIP3   OH254486   5.734   6.653   1.024 -0.2341  1.1777  0.6124
11024TIP3    H154487   5.745   6.680   1.115  0.0948  0.6474  0.7361
11024TIP3    H254488   5.639   6.655   1.010 -0.3689  0.3338  1.2675
11025TIP3   OH254489   2.929   2.704   4.104  0.1244 -0.1906  0.9092
11025TIP3    H154490   2.905   2.743   4.019 -0.7201 -1.7945  0.3806
11025TIP3    H254491   3.025   2.704   4.104  0.1430 -0.6766 -0.3119
11026TIP3   OH254492   3.905   5.741  11.744 -0.2124 -0.8761 -0.0013
11026TIP3    H154493   3.846   5.739  11.819  0.0389  0.7735  0.2699
11026TIP3    H254494   3.953   5.658  11.749 -1.3348 -1.5106  0.7090
11027TIP3   OH254495   1.409   0.350   0.284  0.1442  0.0198  0.5974
11027TIP3    H154496   1.364   0.373   0.203  1.5035 -0.4950 -0.3343
11027TIP3    H254497   1.438   0.260   0.270 -0.4372 -0.4265  2.0559
11028TIP3   OH254498   4.330   0.843   4.245  0.3534  0.2173 -0.1384
11028TIP3    H154499   4.304   0.900   4.172 -1.3666  0.4447  0.6050
11028TIP3    H254500   4.417   0.875   4.270  0.0273  1.6120 -0.6477
11029TIP3   OH254501   0.369   4.398  15.953 -0.1177  0.1944  0.3062
11029TIP3    H154502   0.344   4.356  16.035  0.4133 -1.2032 -0.2125
11029TIP3    H254503   0.409   4.481  15.979 -0.1430 -0.1350  1.4442
11030TIP3   OH254504   6.755   0.204  15.327 -0.1497 -0.1419  0.4284
11030TIP3    H154505   6.779   0.119  15.289 -0.2601 -0.8040  1.7691
11030TIP3    H254506   6.835   0.236  15.369 -0.1314  0.3753  0.0030
11031TIP3   OH254507   1.230   1.525  14.386 -0.4956 -0.3658 -0.1712
11031TIP3    H154508   1.226   1.543  14.480  1.4542 -0.6611  0.0111
11031TIP3    H254509   1.143   1.548  14.354 -1.4103 -0.8101  1.7925
11032TIP3   OH254510   0.213   0.076  11.622 -0.4406  0.2247 -0.7147
11032TIP3    H154511   0.170   0.014  11.682  2.3188 -2.1949 -1.0118
11032TIP3    H254512   0.208   0.034  11.536 -2.1756  2.5017 -1.8317
11033TIP3   OH254513   1.828   4.947   2.767 -0.0863 -0.0431 -0.0176
11033TIP3    H154514   1.883   5.006   2.715  1.5560  0.3309  1.9909
11033TIP3    H254515   1.743   4.949   2.724  0.0769  3.2932 -0.4449
11034TIP3   OH254516   4.082   1.227   3.457  0.1822 -0.1798  0.2704
11034TIP3    H154517   4.085   1.224   3.553  1.3002 -0.7243  0.2287
11034TIP3    H254518   4.060   1.138   3.431  1.4310 -0.4317 -0.0053
11035TIP3   OH254519   2.151   0.826   5.013 -0.4247  0.1557  0.0843
11035TIP3    H154520   2.063   0.849   4.985 -0.6772 -0.5843  0.2329
11035TIP3    H254521   2.140   0.798   5.104  0.0085  0.3128  0.1869
11036TIP3   OH254522   2.510   5.285   5.878  0.5149  0.4041 -0.1009
11036TIP3    H154523   2.523   5.380   5.877  1.6066  0.3388  2.1969
11036TIP3    H254524   2.589   5.249   5.837  0.0020  0.4633 -1.1742
11037TIP3   OH254525   6.777   6.255   0.195 -0.2535  0.2951 -0.1128
11037TIP3    H154526   6.717   6.208   0.137 -0.8533  1.7306 -0.6862
11037TIP3    H254527   6.754   6.224   0.283 -0.2024 -0.9292 -0.5056
11038TIP3   OH254528   2.110   4.973  14.740  0.1271  0.4129  0.6581
11038TIP3    H154529   2.167   4.967  14.816  0.8598  1.4159  0.2154
11038TIP3    H254530   2.076   5.063  14.742 -0.2261  0.3011  0.0733
11039TIP3   OH254531   6.232   5.125  12.715  0.0845 -0.0704 -0.2376
11039TIP3    H154532   6.275   5.126  12.629 -2.0191  4.6144 -1.5728
11039TIP3    H254533   6.294   5.169  12.773 -0.3398  1.0696 -0.6187
11040TIP3   OH254534   2.149   6.506   3.679 -0.3629 -0.1236  0.0027
11040TIP3    H154535   2.198   6.424   3.674  0.5088  0.4204 -2.8439
11040TIP3    H254536   2.195   6.564   3.618 -2.2839  1.7277  0.1959
11041TIP3   OH254537   0.039   6.253  12.191 -0.3553  0.1191  0.1150
11041TIP3    H154538   0.076   6.170  12.220  1.5736  1.2554  1.1122
11041TIP3    H254539  -0.000   6.291  12.270  1.4534  1.4534  0.4587
11042TIP3   OH254540   1.635   4.509  15.575  0.0886 -0.0801  0.3626
11042TIP3    H154541   1.609   4.429  15.529 -0.1050 -0.3753  0.9752
11042TIP3    H254542   1.695   4.480  15.644  0.9971  0.4457 -0.1768
11043TIP3   OH254543   5.050   3.297   0.301  0.1517 -0.0336 -0.8446
11043TIP3    H154544   5.015   3.353   0.370 -0.0481  0.2009 -1.1333
11043TIP3    H254545   4.991   3.222   0.299  1.2664 -0.9941  0.5507
11044TIP3   OH254546   4.212   3.118  14.269 -0.2565  0.1228  0.8953
11044TIP3    H154547   4.131   3.159  14.300  0.5258  1.1711  1.6089
11044TIP3    H254548   4.280   3.183  14.286  0.6228 -0.3759 -0.5229
11045TIP3   OH254549   3.024   2.689  15.986  0.0502  0.2831  0.3916
11045TIP3    H154550   3.105   2.645  15.961 -0.2798  1.0541 -2.3860
11045TIP3    H254551   2.955   2.628  15.960 -0.3093  0.8329  0.0329
11046TIP3   OH254552   1.095   0.123  16.011  0.5051  0.1353 -0.1901
11046TIP3    H154553   1.025   0.097  15.951 -0.0009  1.5076 -0.2327
11046TIP3    H254554   1.083   0.218  16.021  2.3719  0.3935 -0.1985
11047TIP3   OH254555   0.032   4.557   3.479  0.3742  0.0132  0.2063
11047TIP3    H154556  -0.019   4.616   3.534  2.4853  0.9572  1.2592
11047TIP3    H254557   0.070   4.493   3.540 -1.0397 -1.8983 -0.7896
11048TIP3   OH254558   6.773   2.111  12.504 -0.1998  0.4552  0.4643
11048TIP3    H154559   6.734   2.101  12.417 -2.0707  2.5685  0.9664
11048TIP3    H254560   6.719   2.056  12.560 -0.5745  1.0284  0.6730
11049TIP3   OH254561   6.303   5.918  13.771  0.0367  0.1214  0.3353
11049TIP3    H154562   6.370   5.853  13.748 -2.6497 -1.8580 -2.6596
11049TIP3    H254563   6.292   5.971  13.693 -2.5498 -0.3025  0.3300
11050TIP3   OH254564   0.798   6.610   2.523 -0.2603 -0.2915  0.2624
11050TIP3    H154565   0.716   6.652   2.495  0.5451  0.1828 -1.4722
11050TIP3    H254566   0.842   6.678   2.575 -0.5329 -0.2246  0.4128
11051TIP3   OH254567   2.629   0.090  15.634 -0.1236 -0.2157 -0.0938
11051TIP3    H154568   2.679   0.132  15.564  0.4424  0.3885  0.6520
11051TIP3    H254569   2.542   0.076  15.596  0.4687 -0.8639 -1.2583
11052TIP3   OH254570   5.263   5.655  13.277 -0.2610  0.1405 -0.2738
11052TIP3    H154571   5.255   5.705  13.358 -0.4525 -0.0795 -0.1554
11052TIP3    H254572   5.305   5.716  13.215  1.9723 -0.3831  0.6154
11053TIP3   OH254573   3.010   4.800   2.034 -0.0460  0.2748 -0.1173
11053TIP3    H154574   3.054   4.715   2.027 -1.2211 -0.3638 -0.0428
11053TIP3    H254575   2.938   4.785   2.095 -3.7107 -0.2788 -4.0780
11054TIP3   OH254576   4.342   4.930   3.500 -0.7751  0.1456 -0.1222
11054TIP3    H154577   4.310   5.018   3.517  1.8112  1.2668 -0.5542
11054TIP3    H254578   4.361   4.929   3.407  0.8515 -0.2105  0.1688
11055TIP3   OH254579   2.300   0.817   4.454  0.3994  0.5435 -0.2528
11055TIP3    H154580   2.331   0.835   4.543 -0.6251  1.5816 -0.0825
11055TIP3    H254581   2.310   0.899   4.407 -2.1042  1.0001 -0.1474
11056TIP3   OH254582   0.570   5.905   3.125  0.0445  0.3679 -1.0492
11056TIP3    H154583   0.563   5.857   3.042  0.9017  0.9590 -1.4798
11056TIP3    H254584   0.636   5.857   3.175 -2.1593 -1.4306  0.3513
11057TIP3   OH254585   6.683   5.410   5.319  0.6284 -0.5507  0.4593
11057TIP3    H154586   6.630   5.344   5.364  1.5440 -1.8146 -0.2492
11057TIP3    H254587   6.635   5.492   5.331 -2.4472 -1.8654 -1.6091
11058TIP3   OH254588   4.130   6.414  13.378  0.2916  0.3458  0.0531
11058TIP3    H154589   4.039   6.399  13.403  1.1944 -0.5990  3.3004
11058TIP3    H254590   4.154   6.337  13.327 -0.6979  0.6259 -0.8769
11059TIP3   OH254591   5.589   3.903  15.933 -0.6524 -0.1628 -0.4801
11059TIP3    H154592   5.623   3.820  15.967 -0.8855 -0.5047 -1.0554
11059TIP3    H254593   5.606   3.899  15.839  3.6122  2.4494 -0.0427
11060TIP3   OH254594   0.375   1.820  15.747 -0.5210  0.4198 -0.1111
11060TIP3    H154595   0.356   1.888  15.683  1.1197  1.6579  0.6796
11060TIP3    H254596   0.317   1.839  15.821 -0.4267  0.6382 -0.0955
11061TIP3   OH254597   5.393   2.676   0.989  0.3605  0.2190  0.2452
11061TIP3    H154598   5.444   2.718   0.920 -1.2264 -0.3550 -1.3665
11061TIP3    H254599   5.453   2.613   1.030  1.9877  2.1517  0.9583
11062TIP3   OH254600   2.028   5.871  15.675  0.1951  0.1699  0.3742
11062TIP3    H154601   1.966   5.941  15.657  0.2649  0.4195  1.0610
11062TIP3    H254602   1.993   5.827  15.752  0.9699  0.4452  0.8940
11063TIP3   OH254603   0.647   4.243  15.921 -0.1965  0.0588 -0.6013
11063TIP3    H154604   0.627   4.288  16.003 -0.1732 -0.3826 -0.3473
11063TIP3    H254605   0.677   4.156  15.949  1.5758  0.5141 -0.9935
11064TIP3   OH254606   0.378   5.129  16.888  0.3042 -1.0485 -0.2761
11064TIP3    H154607   0.402   5.156  16.799  1.1942 -0.7849  0.0338
11064TIP3    H254608   0.285   5.151  16.896  0.5283  0.0968 -0.7102
11065TIP3   OH254609   6.173   2.869   1.071 -0.5867  0.0838 -0.9582
11065TIP3    H154610   6.175   2.923   1.150 -0.4893 -0.4510 -0.5866
11065TIP3    H254611   6.192   2.929   0.999 -1.0084  0.6405 -0.6085
11066TIP3   OH254612   5.839   4.959  16.267 -0.7856  0.3463  0.2492
11066TIP3    H154613   5.751   4.943  16.302 -0.0511  0.7041  2.3325
11066TIP3    H254614   5.898   4.910  16.324  0.4390  0.5467 -0.7914
11067TIP3   OH254615   1.124   3.871   0.270  0.1680  0.0848 -0.1827
11067TIP3    H154616   1.057   3.843   0.331 -0.8468 -1.3515 -1.8510
11067TIP3    H254617   1.082   3.940   0.218  0.1174 -0.4804 -0.9129
11068TIP3   OH254618   0.390   5.148  13.803  0.8182 -0.2103 -0.5663
11068TIP3    H154619   0.318   5.150  13.740 -1.6916  0.9352  2.1044
11068TIP3    H254620   0.416   5.239  13.813 -1.5211  0.2920  2.6763
11069TIP3   OH254621   2.656   1.296   2.155  0.2141 -0.3437  0.0169
11069TIP3    H154622   2.577   1.241   2.155 -0.4186  0.4718  1.8107
11069TIP3    H254623   2.640   1.362   2.088 -0.4087 -0.4777  0.0288
11070TIP3   OH254624   0.769   1.013  13.157 -0.0099 -0.1405  0.0141
11070TIP3    H154625   0.799   1.048  13.073  1.0794 -1.3664 -0.1475
11070TIP3    H254626   0.733   1.089  13.204 -0.2117  0.6400 -1.3676
11071TIP3   OH254627   5.402   2.458  13.318  0.3997  0.4031  0.1365
11071TIP3    H154628   5.345   2.398  13.270 -0.5449  1.8067 -0.5765
11071TIP3    H254629   5.432   2.408  13.394 -0.0989 -1.0477 -0.5945
11072TIP3   OH254630   5.606   0.716  16.723 -0.4765  0.2617  0.2621
11072TIP3    H154631   5.658   0.754  16.793 -0.3977  1.7302 -0.5635
11072TIP3    H254632   5.646   0.748  16.642  0.0526 -2.1896 -0.5479
11073TIP3   OH254633   6.673   6.064   1.281 -0.4501 -0.1237  0.2980
11073TIP3    H154634   6.719   6.119   1.217  0.2752 -0.2946  0.6667
11073TIP3    H254635   6.595   6.114   1.304 -0.2611  0.3396 -0.0514
11074TIP3   OH254636   1.942   4.186   5.253  0.1005  0.7048  0.4608
11074TIP3    H154637   1.986   4.101   5.258 -0.3169  0.4537 -0.1478
11074TIP3    H254638   1.849   4.165   5.247  0.1219  1.0846 -2.6444
11075TIP3   OH254639   6.490   1.593  11.427 -0.3424 -0.0087  0.0784
11075TIP3    H154640   6.494   1.646  11.347 -2.7475  0.1995  0.0166
11075TIP3    H254641   6.415   1.535  11.414  0.0633 -0.9445  1.6305
11076TIP3   OH254642   1.987   2.514  13.990  0.9041  0.4554 -0.2777
11076TIP3    H154643   1.981   2.568  14.069 -0.8791  2.6542 -1.7779
11076TIP3    H254644   2.080   2.506  13.972  1.2528  1.6119  0.9544
11077TIP3   OH254645   6.737   0.041   0.966 -0.1160  0.1242 -0.4797
11077TIP3    H154646   6.659   0.077   0.923  0.2054 -0.4483 -1.5643
11077TIP3    H254647   6.714  -0.049   0.986  0.0190  0.1641 -0.1267
11078TIP3   OH254648   4.379   1.855   0.537  0.1923  0.1626 -0.1047
11078TIP3    H154649   4.374   1.882   0.445 -0.5517 -0.8043 -0.3557
11078TIP3    H254650   4.356   1.763   0.537  1.3986 -0.1804  0.9126
11079TIP3   OH254651   1.032   5.589   1.879  0.7906 -0.3504 -0.4424
11079TIP3    H154652   1.015   5.540   1.799 -0.5373 -0.3911 -0.1623
11079TIP3    H254653   1.025   5.524   1.949 -1.9004  0.3032  0.0176
11080TIP3   OH254654   0.438   3.072  12.181 -0.0926 -0.0397  0.1974
11080TIP3    H154655   0.431   3.168  12.176 -0.0143  0.0262  1.1815
11080TIP3    H254656   0.423   3.042  12.091 -1.9870  0.7751  0.1863
11081TIP3   OH254657   3.522   0.950   6.473  0.0889  0.3746 -0.2883
11081TIP3    H154658   3.520   0.900   6.391 -0.5343 -1.5496  0.8227
11081TIP3    H254659   3.441   0.925   6.517  1.1412  0.1582  1.5901
11082TIP3   OH254660   3.637   5.753  12.960  0.4118  0.4735 -0.2126
11082TIP3    H154661   3.627   5.661  12.985 -2.3036  1.1032  1.3716
11082TIP3    H254662   3.639   5.751  12.864 -0.1306 -1.1837 -0.2223
11083TIP3   OH254663   1.267   5.276  11.691 -0.3677  0.0395 -0.1500
11083TIP3    H154664   1.262   5.185  11.664  1.0781  0.4568 -2.0598
11083TIP3    H254665   1.353   5.285  11.731 -0.5092  0.5739  0.0520
11084TIP3   OH254666   2.503   3.195   4.698 -0.2215  0.0407 -0.1763
11084TIP3    H154667   2.468   3.189   4.787 -1.5457  1.0975 -0.5760
11084TIP3    H254668   2.426   3.217   4.644  0.2952 -1.8773 -1.7970
11085TIP3   OH254669   1.577   0.647  12.897  0.1366 -0.9943  0.1966
11085TIP3    H154670   1.528   0.701  12.959  2.0894  2.3065 -0.8943
11085TIP3    H254671   1.668   0.655  12.925  1.2475  1.4972 -3.4632
11086TIP3   OH254672   6.635   0.973   5.091 -0.4448  0.3197 -1.0494
11086TIP3    H154673   6.643   0.980   5.186 -1.0295  1.7137 -1.0764
11086TIP3    H254674   6.643   0.879   5.073  0.9758  0.1586  0.2347
11087TIP3   OH254675   0.289   4.581  14.932  0.2679 -0.2042 -0.1887
11087TIP3    H154676   0.255   4.541  14.852 -1.2868 -1.7727  1.1840
11087TIP3    H254677   0.380   4.550  14.936  0.0078 -1.1028 -0.7461
11088TIP3   OH254678   4.421   5.148   0.363 -0.1987  1.1329  0.2559
11088TIP3    H154679   4.329   5.132   0.341 -0.3117  0.1652  1.3280
11088TIP3    H254680   4.432   5.109   0.449  1.9518 -1.4827 -1.0280
11089TIP3   OH254681   2.800   2.991  16.787  0.4006 -0.2874  0.4104
11089TIP3    H154682   2.706   2.994  16.770  0.0543  1.5330  2.2610
11089TIP3    H254683   2.821   3.078  16.821  2.7311 -0.7145  0.2158
11090TIP3   OH254684   1.453   6.437   1.968  0.5414 -0.5220 -0.0273
11090TIP3    H154685   1.460   6.380   2.044 -1.5899  0.4383  0.9756
11090TIP3    H254686   1.394   6.391   1.909  1.2915 -0.7459 -0.6125
11091TIP3   OH254687   3.170   3.218   0.544 -0.2975  0.4911  0.3029
11091TIP3    H154688   3.166   3.300   0.595  1.0325 -0.2060  1.6000
11091TIP3    H254689   3.133   3.152   0.603 -1.5742  0.1506 -0.8224
11092TIP3   OH254690   2.587   3.225  13.463  0.8452  0.0383 -0.0385
11092TIP3    H154691   2.642   3.252  13.537 -0.9722  1.1629  0.9736
11092TIP3    H254692   2.581   3.303  13.409 -0.1862  0.0938  0.1481
11093TIP3   OH254693   4.475   0.027   4.508  0.4669 -0.0439  0.3375
11093TIP3    H154694   4.483  -0.068   4.521  2.0744 -0.0771 -0.5791
11093TIP3    H254695   4.386   0.039   4.475  0.3223 -1.2780  0.2247
11094TIP3   OH254696   2.712   2.730   3.551 -0.2179  0.2389 -0.6428
11094TIP3    H154697   2.647   2.703   3.615 -0.8994 -1.7091 -2.0581
11094TIP3    H254698   2.790   2.677   3.571  0.4183  1.4038  0.0564
11095TIP3   OH254699   2.355   2.281   3.518  0.7273 -0.0892  0.3650
11095TIP3    H154700   2.364   2.205   3.460 -0.6193 -1.3960  1.7601
11095TIP3    H254701   2.298   2.341   3.470  1.0197 -0.3755 -0.3551
11096TIP3   OH254702   0.354   3.869   5.848 -0.1203  0.0887 -0.0273
11096TIP3    H154703   0.316   3.913   5.924  2.6893 -0.6329  1.9756
11096TIP3    H254704   0.399   3.939   5.800  1.0175  0.0806  0.9706
11097TIP3   OH254705   4.034   0.530  10.558  0.2683 -0.1010 -0.6367
11097TIP3    H154706   3.985   0.449  10.575 -0.7927  0.7076  0.2911
11097TIP3    H254707   4.000   0.560  10.473 -0.4994  0.1986 -0.2288
11098TIP3   OH254708   1.845   5.098  13.028 -0.3129 -0.2267 -0.3568
11098TIP3    H154709   1.922   5.062  12.985 -1.4774 -0.2092 -2.5824
11098TIP3    H254710   1.845   5.191  13.005 -0.2071  0.1197  0.9250
11099TIP3   OH254711   0.421   6.064   4.135  0.8424 -0.8728  0.4411
11099TIP3    H154712   0.492   6.095   4.191  0.1469 -0.2241  0.9820
11099TIP3    H254713   0.435   6.108   4.051  1.3951 -1.1840  0.3640
11100TIP3   OH254714   4.661   4.955  14.729 -0.4497  0.5065 -0.3327
11100TIP3    H154715   4.626   4.911  14.807  2.3195 -1.2098  0.0682
11100TIP3    H254716   4.612   4.917  14.656  1.4444 -3.0493  0.0527
11101TIP3   OH254717   2.445   1.462  15.624  0.1981  0.5831  0.1118
11101TIP3    H154718   2.386   1.481  15.697  1.5689 -1.5315  1.9173
11101TIP3    H254719   2.390   1.469  15.546 -2.1299 -0.0465  1.5922
11102TIP3   OH254720   5.652   3.071  11.418 -0.5769  0.4159 -0.2124
11102TIP3    H154721   5.629   3.037  11.504 -0.8140  1.7965  0.2983
11102TIP3    H254722   5.576   3.053  11.363  0.2604 -2.1461 -0.6971
11103TIP3   OH254723   0.577   3.868  12.590 -0.2360  0.4723  0.1444
11103TIP3    H154724   0.666   3.835  12.582 -0.6364 -0.3342 -1.4507
11103TIP3    H254725   0.523   3.790  12.602 -1.0993  0.4748 -2.8430
11104TIP3   OH254726   4.008   2.099   4.742  0.0476 -0.0136  0.5339
11104TIP3    H154727   4.038   2.190   4.749  0.6939 -0.1211 -0.6199
11104TIP3    H254728   3.914   2.107   4.722  0.2623  0.4313 -0.3686
11105TIP3   OH254729   2.738   0.142   5.761  0.0725 -0.1142  0.0461
11105TIP3    H154730   2.742   0.229   5.721  1.3378  1.3997  3.1262
11105TIP3    H254731   2.682   0.153   5.837  1.2994 -1.6142  1.2339
11106TIP3   OH254732   0.230   5.219  16.036  0.1403 -0.0913  0.4437
11106TIP3    H154733   0.248   5.312  16.050 -1.3122  0.1660  0.8102
11106TIP3    H254734   0.151   5.218  15.982 -0.5707 -1.0952  1.4403
11107TIP3   OH254735   0.818   1.602  12.495  0.2305 -0.1652  0.7904
11107TIP3    H154736   0.800   1.696  12.500  0.9863  0.0051  0.4737
11107TIP3    H254737   0.736   1.564  12.462  1.1710  0.8966 -3.2581
11108TIP3   OH254738   0.864   1.533  16.216  0.6753 -0.0754 -0.0540
11108TIP3    H154739   0.886   1.571  16.300 -0.2508 -1.0457  0.6562
11108TIP3    H254740   0.771   1.512  16.222  0.6192 -0.2951 -1.2616
11109TIP3   OH254741   5.568   5.297  15.771  0.5886  0.3680  0.0045
11109TIP3    H154742   5.497   5.359  15.755 -1.0829 -0.9443  1.9087
11109TIP3    H254743   5.541   5.217  15.725  1.6926  0.3418 -0.6496
11110TIP3   OH254744   6.729   5.368   4.963 -0.4116  0.1763  0.3529
11110TIP3    H154745   6.693   5.308   5.028 -0.7652  0.9418  0.8750
11110TIP3    H254746   6.699   5.455   4.991  2.6358  1.0296  1.3955
11111TIP3   OH254747   4.272   4.834  13.544  0.1099 -0.1972 -0.3597
11111TIP3    H154748   4.307   4.846  13.632  1.7835  0.4344 -1.0862
11111TIP3    H254749   4.332   4.773  13.502  0.0050  0.4313 -1.4501
11112TIP3   OH254750   3.688   2.060  14.402  0.6207 -0.2488 -0.1420
11112TIP3    H154751   3.764   2.116  14.391  1.3985 -1.3376 -0.4251
11112TIP3    H254752   3.724   1.974  14.423 -0.4591 -1.0796 -1.4934
11113TIP3   OH254753   4.108   5.239   4.308 -0.2246  0.1673 -0.1926
11113TIP3    H154754   4.095   5.274   4.220  0.1400  1.6187  0.3049
11113TIP3    H254755   4.201   5.216   4.312 -0.0798  0.7670  0.0278
11114TIP3   OH254756   3.074   0.842  13.765  0.2658 -0.5612 -0.4857
11114TIP3    H154757   3.016   0.818  13.694  1.3186  0.9267 -1.9392
11114TIP3    H254758   3.119   0.921  13.734 -0.3437  1.0957  2.4359
11115TIP3   OH254759   2.950   6.607  16.929  0.6609 -0.2651  0.4915
11115TIP3    H154760   2.895   6.532  16.954  0.9268 -0.4238  0.6019
11115TIP3    H254761   3.037   6.570  16.915  0.4923 -0.2149 -0.8519
11116TIP3   OH254762   5.088   5.360   2.636  0.1959  0.0703  0.3250
11116TIP3    H154763   5.032   5.338   2.710  1.0510  1.4596  1.4399
11116TIP3    H254764   5.126   5.277   2.609 -1.9835 -0.8273 -0.1634
11117TIP3   OH254765   0.664   2.915  12.707  0.7506  0.1714 -0.0664
11117TIP3    H154766   0.625   2.947  12.625  1.0398 -1.2083 -0.7887
11117TIP3    H254767   0.618   2.962  12.776 -1.6732 -0.7694 -0.9075
11118TIP3   OH254768   2.429   2.978   2.133 -0.3355  0.8236 -0.3257
11118TIP3    H154769   2.359   3.036   2.160 -0.4701  0.3065  0.4761
11118TIP3    H254770   2.387   2.893   2.122  0.2943  0.3212  0.9650
11119TIP3   OH254771   2.082   0.647  15.827  0.0659  0.3287 -0.7669
11119TIP3    H154772   2.113   0.735  15.805 -1.5163  1.0257 -0.3205
11119TIP3    H254773   2.116   0.631  15.916 -0.8944  1.1334 -0.2343
11120TIP3   OH254774   2.111   2.884  14.323  0.1807  0.3583 -0.1127
11120TIP3    H154775   2.060   2.944  14.268  0.1025  0.5858  0.2065
11120TIP3    H254776   2.202   2.900  14.297  0.1724  0.7167  0.0675
11121TIP3   OH254777   6.473   3.477  11.172  0.1960  0.8331  0.2631
11121TIP3    H154778   6.419   3.437  11.103  0.6427  1.7870 -0.6695
11121TIP3    H254779   6.531   3.407  11.201 -0.5514  0.1911  0.2660
11122TIP3   OH254780   5.238   1.562   1.470  0.0038 -0.2294 -0.4274
11122TIP3    H154781   5.185   1.511   1.531 -1.8936 -1.3063 -2.7888
11122TIP3    H254782   5.198   1.649   1.469  1.9864  0.8418  2.0693
11123TIP3   OH254783   3.001   1.168  14.339 -0.3215 -0.5957 -0.6157
11123TIP3    H154784   3.053   1.243  14.369 -2.8410  1.1692 -0.4014
11123TIP3    H254785   3.061   1.094  14.346  2.8050  1.5348 -2.2233
11124TIP3   OH254786   5.720   0.211   0.532 -0.4672 -0.1367 -0.0804
11124TIP3    H154787   5.733   0.117   0.527 -2.6255 -0.6080  1.7541
11124TIP3    H254788   5.635   0.226   0.490 -0.6657  0.8384  0.6356
11125TIP3   OH254789   1.832   3.092  14.330  0.2387  0.3905  0.4996
11125TIP3    H154790   1.911   3.131  14.369  0.6560 -1.3423  1.5252
11125TIP3    H254791   1.855   3.076  14.239  0.7656  0.7367  0.5696
11126TIP3   OH254792   5.829   3.352   1.474 -0.6399 -0.0745 -0.3738
11126TIP3    H154793   5.767   3.408   1.521  0.4035  3.6024 -2.8966
11126TIP3    H254794   5.776   3.307   1.408 -1.0718  0.8418 -0.6735
11127TIP3   OH254795   0.861   3.871   2.510  0.4967  0.7238 -0.3332
11127TIP3    H154796   0.868   3.778   2.488 -0.0629  0.0303  2.1240
11127TIP3    H254797   0.943   3.909   2.477  0.9670 -0.7371 -0.9359
11128TIP3   OH254798   6.018   5.072   1.909  0.3271 -0.0459  0.7068
11128TIP3    H154799   6.068   5.153   1.902  1.1981 -0.5871  0.4251
11128TIP3    H254800   5.938   5.089   1.859  1.1907  0.1376 -0.6849
11129TIP3   OH254801   1.882   6.805  16.021 -0.5806  0.2011  0.2024
11129TIP3    H154802   1.897   6.885  16.073  0.2542  1.0096 -1.2196
11129TIP3    H254803   1.798   6.819  15.979  0.6301  1.5273 -1.9934
11130TIP3   OH254804   3.917   5.301   5.191 -0.4402  0.2876  0.5921
11130TIP3    H154805   3.917   5.390   5.155 -3.2645  0.4561  0.7640
11130TIP3    H254806   3.868   5.249   5.127 -0.0727 -0.8363  1.1978
11131TIP3   OH254807   3.558   3.325  15.792 -0.1850  0.4630  0.4835
11131TIP3    H154808   3.523   3.238  15.773  0.2788  0.3257  0.2482
11131TIP3    H254809   3.524   3.380  15.722  0.9113  0.1112 -0.3632
11132TIP3   OH254810   5.459   6.281   4.433 -0.3286 -0.5731 -0.6230
11132TIP3    H154811   5.445   6.213   4.498  2.5365 -0.8184 -0.1557
11132TIP3    H254812   5.418   6.359   4.470 -0.8009 -1.2730  0.3488
11133TIP3   OH254813   5.635   3.329  15.016 -0.0352 -0.7919  0.0029
11133TIP3    H154814   5.589   3.406  15.050  0.5097 -0.1382 -0.7200
11133TIP3    H254815   5.687   3.362  14.943  0.8399 -1.6982  0.1955
11134TIP3   OH254816   5.543   3.241  12.986 -0.0572  0.5125 -0.0159
11134TIP3    H154817   5.538   3.173  13.053  1.8472 -0.3869 -0.6801
11134TIP3    H254818   5.608   3.207  12.924 -0.0020  2.3855 -1.0471
11135TIP3   OH254819   3.170   1.225   1.064 -0.2148 -0.0857 -0.3587
11135TIP3    H154820   3.219   1.151   1.099 -2.4076 -1.9188 -0.9217
11135TIP3    H254821   3.168   1.210   0.970 -1.7152 -0.0614 -0.3669
11136TIP3   OH254822   5.844   1.374   4.776  0.2079  0.8812 -0.0781
11136TIP3    H154823   5.820   1.345   4.864  2.6133  0.2213  0.4290
11136TIP3    H254824   5.871   1.465   4.788  2.2067  0.2950  0.2715
11137TIP3   OH254825   3.720   3.948  11.556  0.1619 -0.3611  0.1934
11137TIP3    H154826   3.701   3.939  11.463 -0.2464  0.1702  0.2207
11137TIP3    H254827   3.644   3.994  11.592 -0.5214 -2.1294  1.1194
11138TIP3   OH254828   0.327   5.468  16.415 -0.0845  0.5226 -0.2241
11138TIP3    H154829   0.297   5.528  16.346 -0.5002  1.2512  0.5696
11138TIP3    H254830   0.360   5.526  16.484  0.0471 -0.1872  0.3224
11139TIP3   OH254831   1.128   5.830   1.774  0.4215  0.9356 -0.0339
11139TIP3    H154832   1.044   5.875   1.764 -0.4381 -0.8941 -1.6923
11139TIP3    H254833   1.105   5.739   1.792  1.8961 -0.2301 -3.2298
11140TIP3   OH254834   0.683   6.643   0.674  0.1741 -0.0853 -0.0885
11140TIP3    H154835   0.750   6.707   0.697  1.0683 -1.0555  0.0897
11140TIP3    H254836   0.706   6.614   0.586  0.9370 -1.5610  0.5619
11141TIP3   OH254837   4.078   2.305  12.792  0.3250  0.2280  0.0849
11141TIP3    H154838   4.071   2.319  12.697  0.1876  1.3579  0.2530
11141TIP3    H254839   4.170   2.284  12.805  0.2661 -0.3432 -0.3405
11142TIP3   OH254840   5.397   0.266   3.213 -0.3203  0.1750 -0.4773
11142TIP3    H154841   5.406   0.199   3.281 -1.4108 -1.1205 -1.5499
11142TIP3    H254842   5.468   0.248   3.152  0.6675  1.3478  0.2734
11143TIP3   OH254843   5.257   3.463   1.450 -0.3328  0.0402 -0.3169
11143TIP3    H154844   5.181   3.516   1.428  0.1170  0.5566 -0.6681
11143TIP3    H254845   5.317   3.524   1.494  0.2865 -0.1090 -0.9309
11144TIP3   OH254846   6.540   6.241  16.552 -0.5314  0.1003  0.5863
11144TIP3    H154847   6.626   6.264  16.516 -0.0352 -1.1949  0.8955
11144TIP3    H254848   6.531   6.298  16.629 -1.0845  2.0361 -0.8218
11145TIP3   OH254849   4.783   4.138  14.351 -0.4355  0.0513  0.8390
11145TIP3    H154850   4.798   4.200  14.280  0.5905 -0.7120  0.3848
11145TIP3    H254851   4.762   4.193  14.427  1.7608  1.0381  0.7782
11146TIP3   OH254852   6.039   0.328  13.695  0.5105 -0.1606 -0.2051
11146TIP3    H154853   6.061   0.421  13.702 -1.1962  0.1504  2.3742
11146TIP3    H254854   6.101   0.284  13.755  1.2091 -0.7043 -1.2916
11147TIP3   OH254855   6.674   2.452  11.195 -0.2297 -0.1808 -0.2432
11147TIP3    H154856   6.602   2.506  11.162 -0.4389  0.1457  0.7032
11147TIP3    H254857   6.751   2.508  11.190 -0.5401  0.4162  1.2224
11148TIP3   OH254858   1.035   5.113  13.408  0.0555  0.0714  0.3954
11148TIP3    H154859   0.995   5.043  13.356  1.1516 -1.2102  1.2034
11148TIP3    H254860   0.962   5.170  13.431 -0.8219 -0.6110 -0.5907
11149TIP3   OH254861   5.369   6.731  13.857  0.0504 -0.0829  0.1591
11149TIP3    H154862   5.307   6.658  13.852  0.1979 -0.1420 -2.0827
11149TIP3    H254863   5.442   6.697  13.908 -0.5296 -0.9967  0.4105
11150TIP3   OH254864   4.153   0.176   1.761 -0.4910 -0.3821  0.2525
11150TIP3    H154865   4.146   0.110   1.692 -3.1796  0.6162 -0.5728
11150TIP3    H254866   4.246   0.201   1.762 -0.2240 -0.9619 -2.5166
11151TIP3   OH254867   2.285   3.981   0.870  0.3496 -0.5526  0.0135
11151TIP3    H154868   2.347   3.927   0.820  2.6663  0.4130  1.6404
11151TIP3    H254869   2.320   4.070   0.862 -1.6219  0.2552 -0.0696
11152TIP3   OH254870   0.874   0.801   3.562 -0.0452 -0.0254 -0.9181
11152TIP3    H154871   0.933   0.774   3.492 -0.1152 -1.7287 -0.3592
11152TIP3    H254872   0.896   0.893   3.578  0.2925  0.2551 -2.8247
11153TIP3   OH254873   6.733   1.833  13.233 -0.8494 -0.1802  0.1221
11153TIP3    H154874   6.819   1.794  13.220 -0.2147  1.0690  0.4217
11153TIP3    H254875   6.709   1.810  13.323  0.2231  1.3731  0.8463
11154TIP3   OH254876   4.644   2.899  10.582  0.3405 -0.0625  0.2030
11154TIP3    H154877   4.639   2.830  10.516  1.2404  1.3971 -1.4896
11154TIP3    H254878   4.572   2.958  10.560  0.8403  0.6015  0.3134
11155TIP3   OH254879   4.476   0.746  17.171  0.1141  0.2756  0.5850
11155TIP3    H154880   4.429   0.701  17.100  0.2207 -0.6228  1.0703
11155TIP3    H254881   4.431   0.831  17.179  0.9548  0.9743 -1.4485
11156TIP3   OH254882   6.048   1.050   5.005 -0.6004 -0.7991 -0.2434
11156TIP3    H154883   6.124   1.003   5.040 -0.2145  0.0768  0.1278
11156TIP3    H254884   5.987   0.981   4.978  0.1822 -1.5095 -0.2241
11157TIP3   OH254885   1.206   2.870   1.663 -0.5577 -0.2703  0.3418
11157TIP3    H154886   1.268   2.915   1.721 -0.2791  0.2666 -0.3601
11157TIP3    H254887   1.196   2.783   1.702  1.3068 -0.6749  0.0171
11158TIP3   OH254888   5.040   5.495  11.502  0.5042  0.7038  0.1955
11158TIP3    H154889   5.054   5.430  11.571  0.2463  1.6005  1.1198
11158TIP3    H254890   4.994   5.567  11.546 -0.6564  0.8302 -1.1625
11159TIP3   OH254891   2.213   4.322  12.153 -0.7786 -0.7182 -0.1780
11159TIP3    H154892   2.274   4.309  12.081 -1.0420  2.1562 -1.0639
11159TIP3    H254893   2.126   4.307  12.114 -0.9175  0.7879 -0.5248
11160TIP3   OH254894   4.776   3.246  12.471 -0.8933  0.0459 -0.4584
11160TIP3    H154895   4.839   3.294  12.526  0.6120  1.0241 -2.8463
11160TIP3    H254896   4.764   3.162  12.515  0.7795  0.5156  1.0059
11161TIP3   OH254897   1.344   1.574  16.205 -0.5840 -0.1434 -0.0515
11161TIP3    H154898   1.309   1.544  16.289 -0.1863  1.4240  0.7062
11161TIP3    H254899   1.338   1.669  16.208 -0.0859 -0.0257 -1.6016
11162TIP3   OH254900   4.601   4.714  14.027 -0.2769  0.1750 -0.1018
11162TIP3    H154901   4.605   4.726  13.933 -1.0209 -0.2426 -0.1905
11162TIP3    H254902   4.576   4.800  14.061  0.1161  0.3576 -0.2705
11163TIP3   OH254903   5.891   1.623  15.836 -0.0057  0.1509  0.3596
11163TIP3    H154904   5.941   1.705  15.833  0.3724 -0.1054 -0.8641
11163TIP3    H254905   5.955   1.555  15.818 -0.5468 -0.3004  0.1101
11164TIP3   OH254906   5.041   6.256  16.558  0.2246 -0.6225  0.3273
11164TIP3    H154907   5.115   6.265  16.618 -0.1235 -1.9943  0.9920
11164TIP3    H254908   5.057   6.322  16.490  1.4696 -0.1539  1.0518
11165TIP3   OH254909   0.559   2.186   0.199  0.0666  0.4201 -0.1442
11165TIP3    H154910   0.546   2.136   0.118 -0.2173 -1.2297  0.8645
11165TIP3    H254911   0.470   2.209   0.227  0.0889  0.1222  0.1882
11166TIP3   OH254912   4.372   6.202  11.233 -0.5398  0.5797 -0.2764
11166TIP3    H154913   4.299   6.263  11.242 -0.6688  0.4611 -0.5262
11166TIP3    H254914   4.390   6.199  11.139 -0.2114  0.6112 -0.2160
11167TIP3   OH254915   3.579   3.301   5.643 -0.8290  0.1930  0.4697
11167TIP3    H154916   3.494   3.328   5.608 -1.0773 -0.2208  0.7321
11167TIP3    H254917   3.631   3.381   5.645 -1.7270  0.7959  1.7816
11168TIP3   OH254918   4.697   2.588  14.929  0.3716  0.7193 -0.1677
11168TIP3    H154919   4.765   2.525  14.908  0.7856  0.9620  0.4355
11168TIP3    H254920   4.621   2.534  14.952  0.2028  0.4478 -1.2795
11169TIP3   OH254921   0.133   3.444   1.128 -0.5868 -0.0112  0.1187
11169TIP3    H154922   0.213   3.398   1.154 -0.0593  0.5149 -0.5324
11169TIP3    H254923   0.062   3.384   1.150  0.1017 -1.2898 -1.0000
11170TIP3   OH254924   4.063   2.483  15.616  0.0370 -0.9136 -0.1576
11170TIP3    H154925   4.072   2.464  15.523 -1.3639 -3.6702  0.1659
11170TIP3    H254926   3.969   2.474  15.634  0.1766  0.2785  1.4065
11171TIP3   OH254927   0.657   1.447  15.831  0.1271 -0.2380  0.0764
11171TIP3    H154928   0.624   1.445  15.741  0.5991  1.4605 -0.1787
11171TIP3    H254929   0.620   1.527  15.868  3.8099  1.8222 -0.2401
11172TIP3   OH254930   5.092   2.008  16.576  0.5986  0.7362  0.0978
11172TIP3    H154931   5.090   1.913  16.581  1.0061  0.6902 -0.5495
11172TIP3    H254932   5.006   2.032  16.540  0.8737  0.5468 -0.6963
11173TIP3   OH254933   1.780   6.093  13.373  0.1713 -0.6404 -0.2111
11173TIP3    H154934   1.699   6.043  13.374  0.3657 -0.9689 -0.4041
11173TIP3    H254935   1.761   6.170  13.320 -0.0733 -0.6145 -0.0856
11174TIP3   OH254936   3.717   4.337   5.023 -0.5187 -0.0588 -0.3041
11174TIP3    H154937   3.771   4.258   5.023 -1.1182 -0.4894 -1.1026
11174TIP3    H254938   3.705   4.358   5.116 -0.3536 -0.9116 -0.0828
11175TIP3   OH254939   4.183   4.595  13.421  0.5111 -0.0813  0.0354
11175TIP3    H154940   4.164   4.616  13.330 -1.4090  0.1817  0.4568
11175TIP3    H254941   4.205   4.680  13.461  0.1444 -0.0134  0.0907
11176TIP3   OH254942   4.911   5.782   1.341  0.0647  0.2938 -0.2389
11176TIP3    H154943   4.994   5.813   1.377  1.1765 -0.9555 -1.5804
11176TIP3    H254944   4.898   5.833   1.261  0.1647 -0.3194 -0.6568
11177TIP3   OH254945   2.253   4.068  10.520  0.3114  0.6712  0.1312
11177TIP3    H154946   2.296   3.984  10.507  0.9216  0.8013  1.1824
11177TIP3    H254947   2.160   4.046  10.532  0.6599 -0.0101  1.8079
11178TIP3   OH254948   0.713   2.669  13.050  0.6079  0.0860  0.2581
11178TIP3    H154949   0.746   2.583  13.024  0.6345 -0.4936  2.0904
11178TIP3    H254950   0.620   2.655  13.066  0.5369  0.4948  0.2163
11179TIP3   OH254951   4.607   6.079   2.474  0.7454  0.7566  0.1646
11179TIP3    H154952   4.647   6.105   2.391  0.2285 -1.1025 -0.7141
11179TIP3    H254953   4.679   6.044   2.526  0.6425 -0.7883 -0.6675
11180TIP3   OH254954   4.787   6.396  15.657  0.4524  0.2970  0.4387
11180TIP3    H154955   4.766   6.489  15.667  0.5402  0.3747 -0.0680
11180TIP3    H254956   4.717   6.362  15.602 -0.3872 -0.2630  1.8087
11181TIP3   OH254957   5.745   2.167   0.632  0.1897 -0.0260 -0.2396
11181TIP3    H154958   5.736   2.228   0.559  0.3865 -2.3101 -2.3176
11181TIP3    H254959   5.791   2.216   0.700 -0.2199  2.2738 -1.5334
11182TIP3   OH254960   0.941   2.126  11.643  0.6022 -0.4465  0.5179
11182TIP3    H154961   0.893   2.053  11.683 -2.3708  0.0164 -1.8509
11182TIP3    H254962   1.000   2.084  11.581  1.0798 -0.9307  1.2875
11183TIP3   OH254963   1.805   1.115  13.280 -0.1439  0.0168 -0.0390
11183TIP3    H154964   1.851   1.056  13.339  0.5127  1.5587  1.0692
11183TIP3    H254965   1.874   1.149  13.222 -0.4905 -0.2117 -0.5912
11184TIP3   OH254966   4.864   1.365  13.174  0.6567 -0.1556 -0.2183
11184TIP3    H154967   4.770   1.366  13.188  0.6651  0.6600 -0.1713
11184TIP3    H254968   4.889   1.273  13.181  0.3314 -0.0979  2.8640
11185TIP3   OH254969   3.683   2.241   6.358 -0.0023 -0.0551 -0.5940
11185TIP3    H154970   3.726   2.218   6.441  2.8233  1.1305 -1.6064
11185TIP3    H254971   3.626   2.315   6.381  1.0032  0.4872  0.2576
11186TIP3   OH254972   0.270   4.664   3.401 -0.0974 -0.1136 -0.1002
11186TIP3    H154973   0.199   4.604   3.376 -1.9879  2.1394 -0.5675
11186TIP3    H254974   0.225   4.739   3.440  2.1050  1.1906  0.1102
11187TIP3   OH254975   5.602   3.652  14.065 -0.4110 -0.3555 -0.4995
11187TIP3    H154976   5.679   3.596  14.070 -0.4772 -0.6313 -2.0602
11187TIP3    H254977   5.527   3.594  14.078 -0.3847 -0.1818  0.4613
11188TIP3   OH254978   2.799   5.441   5.739 -0.3975 -0.0897 -0.3147
11188TIP3    H154979   2.769   5.351   5.729 -0.8357 -0.0842  0.7867
11188TIP3    H254980   2.725   5.487   5.777 -0.1763  0.7445 -0.8705
11189TIP3   OH254981   0.716   4.351  13.777 -0.2148 -0.3883 -0.6374
11189TIP3    H154982   0.779   4.279  13.775  0.2893  0.0347 -0.2641
11189TIP3    H254983   0.650   4.326  13.712 -1.4691 -2.4389  1.3018
11190TIP3   OH254984   2.439   6.615  12.022 -0.2144 -0.1396  0.3359
11190TIP3    H154985   2.379   6.613  12.097 -1.1092  0.1796 -0.3380
11190TIP3    H254986   2.476   6.704  12.023 -0.4695 -0.0297  0.2260
11191TIP3   OH254987   6.409   6.477  15.539  0.2772  0.1450 -0.4829
11191TIP3    H154988   6.500   6.466  15.567  1.3529  1.4356 -3.1618
11191TIP3    H254989   6.386   6.393  15.500  1.4385  0.7014 -2.5239
11192TIP3   OH254990   2.789   2.589  13.239 -0.3380 -0.1859 -0.5039
11192TIP3    H154991   2.748   2.672  13.265 -1.0292 -0.8746  0.7057
11192TIP3    H254992   2.814   2.603  13.147  1.5683  2.1160  0.2458
11193TIP3   OH254993   0.665   4.647  13.473  0.3396 -0.0430 -0.1876
11193TIP3    H154994   0.712   4.715  13.521  1.6777 -0.7466 -0.4514
11193TIP3    H254995   0.638   4.584  13.540 -2.1566  1.3915  0.2530
11194TIP3   OH254996   5.430   5.887  16.248 -0.6564  0.4571  0.1167
11194TIP3    H154997   5.438   5.982  16.250 -0.9999  0.5447 -1.5656
11194TIP3    H254998   5.511   5.856  16.209 -0.1667 -0.0200  1.4746
11195TIP3   OH254999   4.880   6.012  16.464  0.4115  0.0813  0.1469
11195TIP3    H155000   4.895   6.047  16.376  1.8123 -0.2679  0.2212
11195TIP3    H255001   4.932   6.068  16.522  1.4914 -1.1554  0.4393
11196TIP3   OH255002   5.572   5.414  16.221 -0.2335  0.1464 -0.0150
11196TIP3    H155003   5.550   5.460  16.140 -0.1852  0.8514  0.3580
11196TIP3    H255004   5.667   5.426  16.230  0.0154 -1.1963 -0.6054
11197TIP3   OH255005   2.406   4.777  11.247 -0.2754  0.0952  0.5218
11197TIP3    H155006   2.485   4.725  11.258  0.7803  1.1616 -1.3262
11197TIP3    H255007   2.437   4.859  11.207 -2.2234  0.8739  0.4894
11198TIP3   OH255008   5.527   5.097  13.725  0.1345 -1.0937 -0.1537
11198TIP3    H155009   5.605   5.090  13.780  0.0186 -1.6042 -0.0468
11198TIP3    H255010   5.549   5.164  13.660  0.4781 -0.8849  0.1776
11199TIP3   OH255011   0.134   5.133  17.023 -0.0437 -0.2996 -0.2508
11199TIP3    H155012   0.052   5.146  17.069 -1.0967 -1.7525 -1.5998
11199TIP3    H255013   0.139   5.039  17.008  0.2706  0.0534 -2.9450
11200TIP3   OH255014   3.844   2.691  16.152 -0.2471  0.1756 -1.0945
11200TIP3    H155015   3.919   2.637  16.127 -0.5717  0.4994 -2.9167
11200TIP3    H255016   3.880   2.755  16.214  0.3582 -1.4004  0.2427
11201TIP3   OH255017   0.542   2.279  12.530  0.0472  0.6536 -0.3578
11201TIP3    H155018   0.584   2.230  12.601  0.1407  1.7751  0.3766
11201TIP3    H255019   0.548   2.220  12.454 -2.1056 -1.5463  1.0558
11202TIP3   OH255020   3.629   0.270  12.517  0.3186 -0.0055  0.2482
11202TIP3    H155021   3.541   0.309  12.515  0.8439  1.2641  0.7591
11202TIP3    H255022   3.618   0.187  12.562 -0.8570 -0.5085 -0.8980
11203TIP3   OH255023   0.261   4.881  13.887 -0.0532  0.0777 -0.5399
11203TIP3    H155024   0.195   4.945  13.859 -0.1174  0.1200 -0.2944
11203TIP3    H255025   0.332   4.933  13.922 -0.7613 -0.0173  1.1031
11204TIP3   OH255026   6.542   0.619   2.171 -0.3360  0.6356  0.4276
11204TIP3    H155027   6.501   0.563   2.237 -1.5004  0.7199 -0.2071
11204TIP3    H255028   6.472   0.640   2.110  0.6837  0.6999 -0.7631
11205TIP3   OH255029   4.468   1.973  14.568  0.4089 -0.3529  0.0516
11205TIP3    H155030   4.450   1.882  14.547 -1.7977  0.1365 -0.3617
11205TIP3    H255031   4.389   2.020  14.542  1.2416  1.5988  0.8607
11206TIP3   OH255032   4.879   4.265  11.618 -0.4160  0.2829 -0.1315
11206TIP3    H155033   4.867   4.360  11.628 -1.2999  0.3600 -1.5742
11206TIP3    H255034   4.800   4.236  11.572  0.9253 -0.7620 -1.8968
11207TIP3   OH255035   2.069   0.445  11.997 -0.3012  0.3230  0.2517
11207TIP3    H155036   2.096   0.489  11.916 -0.8287  0.1015 -0.0476
11207TIP3    H255037   2.023   0.512  12.047 -4.3806 -0.6446 -1.7601
11208TIP3   OH255038   0.848   6.206   2.220  0.9727  0.8345  0.2602
11208TIP3    H155039   0.783   6.276   2.212 -1.4768 -1.2858  0.2019
11208TIP3    H255040   0.901   6.231   2.295 -1.7421  1.3315  2.1503
11209TIP3   OH255041   6.747   0.379   4.916 -0.4133 -0.4574  0.2474
11209TIP3    H155042   6.794   0.297   4.901  0.2010 -0.0085 -0.3914
11209TIP3    H255043   6.797   0.444   4.867 -0.2581  0.5120  1.6417
11210TIP3   OH255044   6.417   2.404  10.611 -0.0293  0.1086 -0.0294
11210TIP3    H155045   6.329   2.371  10.631 -0.5916  1.0455 -0.8566
11210TIP3    H255046   6.461   2.409  10.696 -1.3010  1.0638  0.6061
11211TIP3   OH255047   1.674   2.088   4.271  0.6290  1.0550  0.5107
11211TIP3    H155048   1.627   2.018   4.227  1.4983  0.7817 -0.0008
11211TIP3    H255049   1.749   2.045   4.311  0.2777  1.4321  1.6044
11212TIP3   OH255050   3.639   4.849  10.716  0.4173 -0.2371  0.3309
11212TIP3    H155051   3.638   4.943  10.734  0.6047  0.1578 -1.4968
11212TIP3    H255052   3.728   4.821  10.736  0.9817  0.4416 -1.0492
11213TIP3   OH255053   4.328   5.936  14.417  0.0626  0.6886  0.2389
11213TIP3    H155054   4.361   5.995  14.484 -2.4526  2.9922 -0.3382
11213TIP3    H255055   4.268   5.878  14.464  1.3835 -0.4438  0.5673
11214TIP3   OH255056   6.778   0.435  11.267 -0.3696  0.8778 -0.5511
11214TIP3    H155057   6.798   0.519  11.226 -2.0681  1.5674 -0.0328
11214TIP3    H255058   6.697   0.450  11.315  0.5413 -0.4128  1.5263
11215TIP3   OH255059   6.643   4.079   2.596  0.6760  0.4134  0.4558
11215TIP3    H155060   6.617   4.150   2.539 -2.6914 -2.2425 -1.7391
11215TIP3    H255061   6.586   4.088   2.673 -1.5658 -1.1137 -0.9234
11216TIP3   OH255062   6.554   1.591  14.367  0.3010  0.7647  0.2114
11216TIP3    H155063   6.637   1.639  14.363  0.3499  0.8680  1.7256
11216TIP3    H255064   6.492   1.645  14.317  1.2499  0.3899 -1.4409
11217TIP3   OH255065   1.027   2.085  14.565 -0.1237  0.0117  0.2308
11217TIP3    H155066   1.056   1.994  14.569  0.2049  0.1384  3.4996
11217TIP3    H255067   1.107   2.137  14.580 -0.2282  0.9226 -1.9857
11218TIP3   OH255068   4.448   1.067   0.254 -0.0721 -0.1716  0.0689
11218TIP3    H155069   4.463   0.977   0.281 -2.3809 -0.5712  0.1662
11218TIP3    H255070   4.464   1.119   0.333  2.6241 -0.2649 -0.3134
11219TIP3   OH255071   3.513   5.677   1.468 -0.1816 -0.2489 -0.1475
11219TIP3    H155072   3.595   5.631   1.450  0.8008 -0.0826  3.1379
11219TIP3    H255073   3.541   5.760   1.508 -1.9769  0.7970 -0.9370
11220TIP3   OH255074   1.986   3.097   4.905  0.1788  0.4531  0.4873
11220TIP3    H155075   1.927   3.081   4.832 -0.4562  1.4488  0.7577
11220TIP3    H255076   2.055   3.032   4.896 -0.2525  0.1385 -0.6054
11221TIP3   OH255077   3.835   6.381  14.130 -0.1769 -0.0928 -0.0816
11221TIP3    H155078   3.832   6.469  14.092 -0.4610 -1.1949 -2.8523
11221TIP3    H255079   3.924   6.351  14.113 -0.1470 -0.4418  0.6490
11222TIP3   OH255080   4.685   1.546   3.468 -0.0190  0.0248  0.0224
11222TIP3    H155081   4.725   1.461   3.452 -1.9831 -1.1061  0.7298
11222TIP3    H255082   4.608   1.547   3.411 -1.8325 -0.0934  2.3242
11223TIP3   OH255083   6.537   0.500   2.617 -0.2388  0.3363 -0.4993
11223TIP3    H155084   6.442   0.516   2.615 -0.3653 -0.3508 -0.2750
11223TIP3    H255085   6.545   0.406   2.631  0.4883  0.5417  0.5576
11224TIP3   OH255086   5.217   4.904  11.374  0.0817  0.5750 -0.1690
11224TIP3    H155087   5.164   4.973  11.334 -0.6540 -1.1986 -2.5202
11224TIP3    H255088   5.303   4.914  11.334 -0.1912 -0.1999 -0.9678
11225TIP3   OH255089   1.975   5.674   5.083  0.1573 -0.4036  0.0219
11225TIP3    H155090   1.894   5.678   5.032  0.0069  1.1983  0.3295
11225TIP3    H255091   2.035   5.732   5.037  1.3000 -1.8850 -0.4271
11226TIP3   OH255092   4.381   3.119  11.668  0.3629  0.3687  0.2597
11226TIP3    H155093   4.298   3.115  11.619  0.2717 -1.8620  0.4808
11226TIP3    H255094   4.447   3.132  11.600  0.1734 -1.9911 -0.4804
11227TIP3   OH255095   6.370   0.110  15.514  0.0052 -0.6146 -0.3643
11227TIP3    H155096   6.358   0.146  15.426 -2.3156 -1.7150 -0.5686
11227TIP3    H255097   6.465   0.099  15.522  0.4149  1.1366 -2.0409
11228TIP3   OH255098   4.929   4.289  14.140 -0.1300  0.0124 -0.2022
11228TIP3    H155099   4.904   4.378  14.117  0.4521  0.2193 -0.0676
11228TIP3    H255100   5.006   4.300  14.196 -0.1091 -0.5711 -0.1107
11229TIP3   OH255101   0.358   4.245   6.084  0.2555  0.1776 -0.3967
11229TIP3    H155102   0.444   4.206   6.070  1.2511  2.3461 -0.8165
11229TIP3    H255103   0.335   4.284   5.999  0.9540  3.3995  0.7509
11230TIP3   OH255104   4.648   1.642   3.720  0.7605 -0.3150 -0.0870
11230TIP3    H155105   4.662   1.640   3.625 -1.1138 -0.6362 -0.3987
11230TIP3    H255106   4.608   1.557   3.740  0.9970 -0.1918  0.9884
11231TIP3   OH255107   6.292   4.466  15.531  0.3691 -0.1173  0.1535
11231TIP3    H155108   6.258   4.427  15.611 -1.1407  0.4068 -0.1952
11231TIP3    H255109   6.227   4.532  15.507  0.9650 -0.0252 -1.3155
11232TIP3   OH255110   1.906   4.312  12.076  0.1877  0.3420 -0.5234
11232TIP3    H155111   1.871   4.234  12.118  1.6335 -0.2974 -0.4547
11232TIP3    H255112   1.844   4.382  12.099 -0.8516 -0.6667 -0.1686
11233TIP3   OH255113   6.388   5.546   3.608  0.3373 -0.0339  0.4575
11233TIP3    H155114   6.419   5.489   3.537  1.7822 -0.0958  1.1120
11233TIP3    H255115   6.324   5.603   3.566  0.5932 -0.5825 -0.7268
11234TIP3   OH255116   3.817   6.151   1.793  0.2105  0.4346  0.9132
11234TIP3    H155117   3.853   6.117   1.874  2.0840  0.4281  0.1379
11234TIP3    H255118   3.870   6.111   1.724 -0.0090  1.9584 -0.2120
11235TIP3   OH255119   6.418   5.698  14.003  0.5849  0.8747  0.2875
11235TIP3    H155120   6.503   5.679  14.043  0.9067 -0.6887 -1.0281
11235TIP3    H255121   6.414   5.640  13.927 -1.2699  1.5985 -0.2173
11236TIP3   OH255122   2.105   3.395   3.846 -0.4007  0.1761  0.8120
11236TIP3    H155123   2.139   3.313   3.881 -3.1182 -0.9885  0.9601
11236TIP3    H255124   2.039   3.422   3.910  0.7561  2.8049  1.0190
11237TIP3   OH255125   3.149   1.813  11.894 -0.1220 -0.1974  0.9674
11237TIP3    H155126   3.102   1.810  11.977  0.9940 -0.8511  1.5929
11237TIP3    H255127   3.083   1.841  11.831 -1.3731 -1.1101  1.8063
11238TIP3   OH255128   2.540   6.139  14.842 -0.5396  0.4054  0.0914
11238TIP3    H155129   2.560   6.127  14.749  0.0248  0.2473  0.2306
11238TIP3    H255130   2.578   6.223  14.864 -2.1545  1.2646 -0.2214
11239TIP3   OH255131   3.640   0.720  12.963 -0.2779 -0.7078 -0.5286
11239TIP3    H155132   3.725   0.723  12.920 -0.7320 -1.1668 -1.5177
11239TIP3    H255133   3.646   0.648  13.026  0.2328 -0.3858 -0.2122
11240TIP3   OH255134   2.647   6.395  14.846 -0.4767  0.4870  0.2642
11240TIP3    H155135   2.610   6.451  14.777  0.0464 -0.3322 -0.7058
11240TIP3    H255136   2.677   6.457  14.913  0.7856  1.4658 -1.1215
11241TIP3   OH255137   0.041   3.281   2.081 -0.4867  0.1698 -0.6216
11241TIP3    H155138   0.032   3.272   1.986  0.3800 -1.2737 -0.6067
11241TIP3    H255139  -0.046   3.307   2.112 -0.0209  4.2399 -2.1072
11242TIP3   OH255140   6.207   6.148   3.285  0.1441 -0.1821 -0.2558
11242TIP3    H155141   6.270   6.168   3.354 -0.0080 -2.1427  0.5127
11242TIP3    H255142   6.261   6.112   3.214  0.1871  0.9446 -0.8275
11243TIP3   OH255143   2.020   4.678  12.363 -0.0950 -0.4035  0.2930
11243TIP3    H155144   2.001   4.609  12.426  1.6908 -1.3781 -0.1571
11243TIP3    H255145   2.113   4.667  12.343  0.0281  1.5975 -0.4654
11244TIP3   OH255146   6.310   3.801  14.313 -0.3320 -0.2225 -0.0509
11244TIP3    H155147   6.280   3.742  14.382  0.8120  1.1925  1.7526
11244TIP3    H255148   6.315   3.746  14.234 -1.2241 -2.0053  1.0754
11245TIP3   OH255149   5.193   5.502  12.129 -0.0244  0.6238  0.3272
11245TIP3    H155150   5.202   5.595  12.106 -0.1230  0.5491 -0.0281
11245TIP3    H255151   5.268   5.460  12.088  0.0472  0.5528  0.5290
11246TIP3   OH255152   2.565   0.207   3.349  0.1834  0.0275 -0.4976
11246TIP3    H155153   2.528   0.257   3.421 -0.7120 -0.0490 -0.8903
11246TIP3    H255154   2.515   0.235   3.272  1.5391  0.5738 -1.2114
11247TIP3   OH255155   1.724   3.894   1.872  0.1982  0.1487 -0.3091
11247TIP3    H155156   1.654   3.904   1.936  0.1041 -0.7082 -0.2604
11247TIP3    H255157   1.685   3.923   1.789  0.7221  2.4980  0.2047
11248TIP3   OH255158   1.168   1.881   4.565  0.0867 -0.0438  0.5515
11248TIP3    H155159   1.251   1.924   4.587 -1.4230  3.6610 -0.1484
11248TIP3    H255160   1.103   1.924   4.621 -1.5404 -2.2343  0.4874
11249TIP3   OH255161   4.336   0.935  16.703  0.3626  0.1486  0.1075
11249TIP3    H155162   4.392   0.898  16.634  0.5368  0.1521  0.2455
11249TIP3    H255163   4.270   0.986  16.656  0.0722 -0.4049 -0.0827
11250TIP3   OH255164   5.111   4.013  14.097 -0.2497  0.1090  0.4162
11250TIP3    H155165   5.195   4.054  14.076  0.2934 -1.8095 -1.4736
11250TIP3    H255166   5.046   4.081  14.081  0.8344  1.2468  0.6960
11251TIP3   OH255167   5.929   0.390   2.102 -0.1471  0.2881 -0.0108
11251TIP3    H155168   5.854   0.381   2.162 -0.6487 -2.4591 -0.9445
11251TIP3    H255169   5.922   0.480   2.070 -1.6254  0.8720  1.7219
11252TIP3   OH255170   6.073   2.993   1.867 -0.0341  0.1990  0.4875
11252TIP3    H155171   6.136   3.014   1.798  0.0295 -0.2109  0.4180
11252TIP3    H255172   6.084   3.063   1.932  0.0175  0.4972  0.1586
11253TIP3   OH255173   3.706   3.542  15.919  0.2552 -0.1572  0.0378
11253TIP3    H155174   3.655   3.477  15.873 -0.3745  1.5677 -1.8185
11253TIP3    H255175   3.642   3.597  15.963  0.5512  1.0410 -0.9651
11254TIP3   OH255176   4.534   2.871   2.019 -0.4888 -0.1409 -0.0307
11254TIP3    H155177   4.612   2.816   2.027 -0.0626  0.4302 -0.2137
11254TIP3    H255178   4.497   2.847   1.934 -0.3356 -0.1898 -0.0838
11255TIP3   OH255179   5.174   1.963   2.890 -0.8389 -0.2803 -0.4003
11255TIP3    H155180   5.098   2.001   2.934 -0.4773  1.9124 -1.5865
11255TIP3    H255181   5.192   2.021   2.817  1.9822 -0.7233 -0.1726
11256TIP3   OH255182   2.401   4.220   0.875 -0.0382 -0.5970  0.7392
11256TIP3    H155183   2.375   4.311   0.859 -0.8893 -0.9873 -0.1359
11256TIP3    H255184   2.423   4.218   0.969 -0.3993  0.4079  0.8612
11257TIP3   OH255185   5.653   6.564   1.876 -0.0948  0.6943 -0.1210
11257TIP3    H155186   5.702   6.508   1.937 -0.6130  2.1808  1.7633
11257TIP3    H255187   5.670   6.653   1.907 -0.1755  1.5562 -2.3655
11258TIP3   OH255188   1.551   1.123  12.967  0.3696 -0.1857 -0.2568
11258TIP3    H155189   1.457   1.134  12.979  0.4551  0.8230 -0.3464
11258TIP3    H255190   1.590   1.185  13.029  0.9772 -0.7626 -0.0530
11259TIP3   OH255191   3.287   6.502  13.192  0.3230  0.0649 -0.0436
11259TIP3    H155192   3.297   6.517  13.098  1.1165  2.0912  0.3275
11259TIP3    H255193   3.202   6.541  13.214  0.0134 -0.6435  0.0497
11260TIP3   OH255194   4.101   6.469  12.396  0.6354 -0.6387  0.9603
11260TIP3    H155195   4.128   6.516  12.475  0.2850  0.3593  0.4995
11260TIP3    H255196   4.024   6.418  12.423 -1.3936  2.0364  0.5931
11261TIP3   OH255197   4.261   4.464   4.007  0.4663 -0.7275  0.3951
11261TIP3    H155198   4.175   4.493   4.035  1.2857 -0.3393  2.6711
11261TIP3    H255199   4.304   4.544   3.975  0.2764 -0.7733  0.0184
11262TIP3   OH255200   4.369   1.912  15.617 -0.6462 -0.3346 -0.9682
11262TIP3    H155201   4.311   1.878  15.549  1.3430 -2.2731 -1.8421
11262TIP3    H255202   4.450   1.935  15.570  0.3879 -0.6771  0.5569
11263TIP3   OH255203   5.415   3.061   5.740  0.2458  0.2742 -0.8122
11263TIP3    H155204   5.503   3.038   5.711  0.2891  1.8233 -2.0954
11263TIP3    H255205   5.427   3.097   5.828  0.5640 -1.5084 -0.0841
11264TIP3   OH255206   5.735   2.818   3.645 -0.1826  0.7024 -0.3367
11264TIP3    H155207   5.720   2.850   3.556 -1.2116  1.9242  0.2422
11264TIP3    H255208   5.808   2.871   3.678  0.6884 -0.2503 -0.6746
11265TIP3   OH255209   2.737   2.375   1.804 -0.0738  0.0233 -0.2695
11265TIP3    H155210   2.814   2.324   1.780  0.4663  0.0966  1.1836
11265TIP3    H255211   2.703   2.332   1.883  0.1335  1.5890  0.7252
11266TIP3   OH255212   2.119   1.854  12.810  0.3962 -0.2483 -0.3657
11266TIP3    H155213   2.056   1.813  12.752 -1.7097  1.4967  0.5411
11266TIP3    H255214   2.067   1.887  12.883  2.5756  0.0288  1.1876
11267TIP3   OH255215   6.524   0.380  12.461 -0.1094  0.1884  0.0897
11267TIP3    H155216   6.481   0.387  12.376 -0.5097  0.8880  0.3415
11267TIP3    H255217   6.497   0.458  12.508 -0.0286 -0.2759  0.9285
11268TIP3   OH255218   3.470   5.743   2.981  0.4031  0.0178 -0.5100
11268TIP3    H155219   3.418   5.818   2.950  1.2201  0.7825 -0.0667
11268TIP3    H255220   3.550   5.747   2.929  0.9371  0.1411  0.3105
11269TIP3   OH255221   6.443   2.872   0.828 -0.1599  0.0557 -0.2498
11269TIP3    H155222   6.514   2.859   0.766 -1.1934  1.1131 -1.7150
11269TIP3    H255223   6.460   2.958   0.866 -0.8743  0.4979 -0.9184
11270TIP3   OH255224   0.442   4.437   5.613  0.3667 -0.4847  0.0796
11270TIP3    H155225   0.506   4.447   5.684 -0.8266  0.5074  1.0718
11270TIP3    H255226   0.479   4.485   5.540  0.7028  0.2059  0.6872
11271TIP3   OH255227   2.133   4.681   4.710  0.3021 -0.3001  0.2688
11271TIP3    H155228   2.136   4.589   4.737  0.5181 -0.6169 -0.7813
11271TIP3    H255229   2.040   4.697   4.692  0.2852 -0.3635  0.2986
11272TIP3   OH255230   0.443   1.812   3.701  0.2529  0.1856 -0.0007
11272TIP3    H155231   0.465   1.901   3.674  2.1312 -0.8141 -2.1120
11272TIP3    H255232   0.379   1.782   3.637  0.5390 -0.3794 -0.0308
11273TIP3   OH255233   1.804   0.185  11.069 -0.0582  0.3571 -0.0854
11273TIP3    H155234   1.774   0.128  11.140  0.6742 -2.8524 -2.0860
11273TIP3    H255235   1.895   0.205  11.091  0.0498 -0.3020  0.0984
11274TIP3   OH255236   0.517   2.989  15.592  0.5743 -0.1452 -0.5034
11274TIP3    H155237   0.585   2.927  15.619  0.5902 -0.2581 -0.8079
11274TIP3    H255238   0.480   2.952  15.513 -1.0615 -0.9895  0.6096
11275TIP3   OH255239   1.307   1.505   4.757  0.2672  0.1143  0.2164
11275TIP3    H155240   1.238   1.454   4.800 -0.3610 -0.3836 -1.3345
11275TIP3    H255241   1.260   1.572   4.707  1.0054  0.9910  0.6720
11276TIP3   OH255242   1.919   0.267   2.875 -0.0636 -0.1964  0.0613
11276TIP3    H155243   1.834   0.223   2.869  0.1747 -0.7465  0.5270
11276TIP3    H255244   1.953   0.265   2.785 -1.3836  1.8117 -0.5390
11277TIP3   OH255245   5.815   6.464   1.431 -0.0764 -0.4777  0.4458
11277TIP3    H155246   5.842   6.438   1.519 -0.1036  0.7513  0.8220
11277TIP3    H255247   5.763   6.543   1.444  1.2281  0.6139 -0.8246
11278TIP3   OH255248   3.241   3.883  15.564  0.4770 -0.2603 -0.3658
11278TIP3    H155249   3.157   3.855  15.601  0.9384 -0.3895  0.6095
11278TIP3    H255250   3.234   3.863  15.470 -1.8471  2.7021 -0.9997
11279TIP3   OH255251   1.169   6.377   4.390 -0.1737  0.1645 -0.6846
11279TIP3    H155252   1.113   6.436   4.339  1.1153  0.7822 -1.4392
11279TIP3    H255253   1.224   6.436   4.442 -0.2436 -0.4393  0.0918
11280TIP3   OH255254   1.830   3.031  16.410  0.0220 -0.3971  0.0261
11280TIP3    H155255   1.752   3.086  16.412 -0.1841 -0.6607 -0.5770
11280TIP3    H255256   1.815   2.970  16.337  1.3419  0.3986 -0.9715
11281TIP3   OH255257   1.400   0.065   2.457  0.0686  0.5853  0.6875
11281TIP3    H155258   1.383  -0.023   2.492  1.5196  1.2973  3.4841
11281TIP3    H255259   1.495   0.075   2.461 -0.1046  2.5085  1.1266
11282TIP3   OH255260   3.506   0.330  15.481 -0.4877  0.3352 -0.1390
11282TIP3    H155261   3.549   0.336  15.566  1.0884  0.4305 -0.8928
11282TIP3    H255262   3.527   0.242  15.450 -3.2536 -0.6826  0.6371
11283TIP3   OH255263   3.603   1.392  14.398  0.5944  0.5935 -0.1364
11283TIP3    H155264   3.581   1.447  14.473  0.6207  3.5233 -2.1137
11283TIP3    H255265   3.529   1.401  14.338  0.7853 -1.2572 -0.7426
11284TIP3   OH255266   0.954   0.940   1.090 -0.1894  0.1438 -0.0146
11284TIP3    H155267   0.906   0.900   1.163  0.7570  0.7229  0.9436
11284TIP3    H255268   0.915   1.028   1.082  0.7287  0.6469  0.8214
11285TIP3   OH255269   5.852   3.701  10.998 -0.2159  0.5869 -0.0640
11285TIP3    H155270   5.944   3.676  11.002  0.0386  1.2813 -1.2041
11285TIP3    H255271   5.840   3.761  11.072  0.5573  1.4296 -0.6062
11286TIP3   OH255272   2.469   4.370  12.306  0.3789 -0.1309 -0.1880
11286TIP3    H155273   2.408   4.335  12.371 -1.7615  0.8032 -1.5479
11286TIP3    H255274   2.481   4.299  12.243  0.6102 -0.2868  0.0336
11287TIP3   OH255275   3.061   0.916  16.569 -0.3406 -0.1759  0.1991
11287TIP3    H155276   3.091   0.969  16.643 -0.4947  1.6847 -1.0069
11287TIP3    H255277   3.006   0.849  16.609 -1.4885  1.5550  1.6953
11288TIP3   OH255278   0.214   4.628  15.179  0.1837  0.3284 -0.1549
11288TIP3    H155279   0.277   4.593  15.241 -1.1024 -1.4073  0.2587
11288TIP3    H255280   0.252   4.610  15.093 -0.6858 -2.8846  0.0020
11289TIP3   OH255281   1.342   0.328   4.945 -0.4147 -0.0728 -0.1152
11289TIP3    H155282   1.332   0.240   4.908 -0.4276  0.4808 -1.5142
11289TIP3    H255283   1.343   0.315   5.040  0.6747 -1.7025 -0.3073
11290TIP3   OH255284   6.808   6.274   2.140 -0.4328 -0.2018 -0.1625
11290TIP3    H155285   6.777   6.241   2.056 -0.2689 -0.4274 -0.1364
11290TIP3    H255286   6.882   6.330   2.118 -0.5746 -0.0270 -0.1912
11291TIP3   OH255287   2.984   4.027   3.783  0.2306  0.2983  0.0710
11291TIP3    H155288   3.005   4.103   3.837  0.8878 -0.6899  1.2346
11291TIP3    H255289   3.066   3.977   3.778 -0.8604 -1.8065  1.7418
11292TIP3   OH255290   6.163   1.172   2.147  0.5649 -0.0070  0.0431
11292TIP3    H155291   6.105   1.207   2.079 -1.1578  0.4308  1.6370
11292TIP3    H255292   6.116   1.096   2.181  0.2763  1.0729  2.2103
11293TIP3   OH255293   3.940   1.827  13.628 -0.3090  0.2496  0.3999
11293TIP3    H155294   4.012   1.891  13.630  0.0645 -0.1701  0.8426
11293TIP3    H255295   3.868   1.873  13.587  0.1974  0.7060  0.0043
11294TIP3   OH255296   6.584   0.471  11.728  0.0547 -0.0322  0.3764
11294TIP3    H155297   6.614   0.558  11.757  0.7637 -1.1633  3.3940
11294TIP3    H255298   6.656   0.412  11.753 -1.3001 -1.7577  0.3502
11295TIP3   OH255299   1.683   0.470  14.053  0.3106  0.4326 -0.5699
11295TIP3    H155300   1.762   0.426  14.085 -0.0213  0.2259 -0.0118
11295TIP3    H255301   1.714   0.555  14.021  0.7410  0.4146 -0.2155
11296TIP3   OH255302   3.423   2.105  13.483 -0.4975 -0.5618  0.3007
11296TIP3    H155303   3.370   2.184  13.468 -1.3426 -1.3844 -1.3369
11296TIP3    H255304   3.504   2.122  13.435 -1.2038 -1.1662 -1.1814
11297TIP3   OH255305   1.886   0.238  11.988  0.2225 -0.3414  0.1114
11297TIP3    H155306   1.891   0.328  11.956 -1.5753 -0.5241 -0.7977
11297TIP3    H255307   1.974   0.219  12.020  0.6233  1.7536  0.3850
11298TIP3   OH255308   5.093   6.277   1.752  0.3868 -0.3809 -0.3844
11298TIP3    H155309   5.091   6.349   1.690  1.6015  0.2095  0.2382
11298TIP3    H255310   5.155   6.214   1.715  1.5731  0.2397  0.4731
11299TIP3   OH255311   2.385   1.033  15.126 -0.3312  0.5598 -0.5614
11299TIP3    H155312   2.479   1.033  15.109  0.0925  2.8437  1.2821
11299TIP3    H255313   2.345   1.048  15.040  0.9618 -0.0249 -1.3050
11300TIP3   OH255314   1.831   6.445   3.842  0.4417 -0.0039 -0.2376
11300TIP3    H155315   1.782   6.504   3.785  1.9910  0.4454 -1.1709
11300TIP3    H255316   1.868   6.379   3.783  0.1933 -0.8909  0.5656
11301TIP3   OH255317   4.567   1.020   4.329 -0.1021  0.2341  0.3215
11301TIP3    H155318   4.616   1.024   4.411  0.6393  1.1173 -0.1317
11301TIP3    H255319   4.620   0.966   4.272 -0.7191 -0.5489  0.4779
11302TIP3   OH255320   0.238   5.606   3.405 -0.6473 -0.3784 -0.4822
11302TIP3    H155321   0.288   5.658   3.343 -0.8183  0.7621  0.3109
11302TIP3    H255322   0.296   5.534   3.429  1.0807  1.4653  1.2089
11303TIP3   OH255323   0.045   0.314   6.150 -0.3057 -0.2908 -0.0292
11303TIP3    H155324   0.135   0.307   6.120 -1.0761 -3.6335 -2.0491
11303TIP3    H255325   0.043   0.261   6.231 -0.2940  0.5434  0.5268
11304TIP3   OH255326   1.697   2.083  16.276  0.1009  0.8671 -0.1196
11304TIP3    H155327   1.767   2.131  16.320  0.7866 -0.3050  0.1014
11304TIP3    H255328   1.643   2.049  16.348  0.2590  0.3694 -0.2343
11305TIP3   OH255329   1.437   1.708  11.050 -0.4162  0.2405 -0.2696
11305TIP3    H155330   1.488   1.640  11.006 -0.1480 -0.0044  0.4081
11305TIP3    H255331   1.346   1.679  11.041 -0.2270 -0.9841  1.2477
11306TIP3   OH255332   0.161   3.131   2.812  0.2434 -0.4983 -0.3725
11306TIP3    H155333   0.100   3.139   2.886  0.6617  0.5118 -0.1123
11306TIP3    H255334   0.155   3.039   2.786  0.2121 -0.9213  1.0319
11307TIP3   OH255335   1.782   2.392   3.726  0.8227  0.2384 -0.2441
11307TIP3    H155336   1.772   2.302   3.757  2.0106 -0.0912 -0.7224
11307TIP3    H255337   1.721   2.399   3.653 -0.3984  0.3315  0.7479
11308TIP3   OH255338   3.891   0.055  14.271 -0.1644  0.2994 -0.2266
11308TIP3    H155339   3.964  -0.007  14.271 -0.1569  0.2882 -1.0898
11308TIP3    H255340   3.932   0.141  14.272 -0.0598  0.3224 -2.0668
11309TIP3   OH255341   4.851   4.894   2.743 -0.1156 -0.4541  0.1162
11309TIP3    H155342   4.808   4.970   2.782  1.4144  0.6528 -0.2756
11309TIP3    H255343   4.921   4.872   2.805  0.5139 -0.4815 -0.5952
11310TIP3   OH255344   1.632   2.339   1.163  0.0221 -0.0343  0.6936
11310TIP3    H155345   1.685   2.325   1.242 -2.9860  0.6641  3.0547
11310TIP3    H255346   1.567   2.269   1.165 -0.4897  0.3574 -0.8799
11311TIP3   OH255347   0.054   1.733   5.890 -0.4099  0.2481 -0.3696
11311TIP3    H155348   0.132   1.712   5.941  0.3598  1.4465 -1.0151
11311TIP3    H255349   0.013   1.806   5.938 -0.5222  0.3676 -0.6461
11312TIP3   OH255350   4.894   0.147  16.923  0.0395  0.3564  0.2857
11312TIP3    H155351   4.908   0.144  16.829 -0.6916 -0.5991  0.1844
11312TIP3    H255352   4.982   0.148  16.961  0.3478 -0.1276 -0.3951
11313TIP3   OH255353   4.423   2.642  11.994  0.2396 -0.1334 -0.0694
11313TIP3    H155354   4.420   2.643  11.898  0.5327  1.3819 -0.0970
11313TIP3    H255355   4.347   2.694  12.020  0.2934 -0.3433  0.5191
11314TIP3   OH255356   5.729   2.956  16.916 -0.0247 -0.3527 -0.1297
11314TIP3    H155357   5.740   2.954  17.011 -1.0976  0.1931  0.0156
11314TIP3    H255358   5.635   2.946  16.902 -0.0524  0.9931 -1.0788
11315TIP3   OH255359   1.601   6.479  13.771  0.1187 -0.4595  0.4392
11315TIP3    H155360   1.575   6.570  13.760 -2.7281 -1.1827  0.3083
11315TIP3    H255361   1.567   6.434  13.694  1.3178 -1.6671  0.5739
11316TIP3   OH255362   2.203   6.619  15.499  0.2411  0.2870 -0.4602
11316TIP3    H155363   2.292   6.589  15.486  0.0004 -0.5414 -0.2506
11316TIP3    H255364   2.155   6.588  15.421 -0.1998 -0.6734  0.1743
11317TIP3   OH255365   4.046   2.519  11.769 -0.5193 -0.0209 -0.2178
11317TIP3    H155366   4.140   2.514  11.750 -0.5351  0.0453 -0.3092
11317TIP3    H255367   4.036   2.601  11.817 -0.5808  0.1270 -0.4862
11318TIP3   OH255368   4.206   3.843   3.535  0.3611  0.0820  0.1602
11318TIP3    H155369   4.274   3.847   3.602 -0.0214 -2.6077  0.8059
11318TIP3    H255370   4.152   3.768   3.559 -0.9291  0.1716 -2.1279
11319TIP3   OH255371   3.133   5.111   4.994  0.0771  0.1663 -0.3795
11319TIP3    H155372   3.041   5.120   4.967 -0.6464  1.9320  2.2680
11319TIP3    H255373   3.132   5.131   5.087  3.0704 -0.6772 -0.0743
11320TIP3   OH255374   4.325   2.697   0.575  0.1901  0.4898  0.2565
11320TIP3    H155375   4.420   2.693   0.591  0.3117  1.5407 -0.1447
11320TIP3    H255376   4.312   2.780   0.529 -0.8418  0.0358 -0.3093
11321TIP3   OH255377   2.055   1.864   5.772 -0.2669  0.0803 -0.0180
11321TIP3    H155378   2.141   1.840   5.804 -0.8545 -1.6388  0.3660
11321TIP3    H255379   2.037   1.803   5.700 -1.2712  0.2289  0.0807
11322TIP3   OH255380   5.266   2.993  16.030 -0.3438 -0.3474  0.1098
11322TIP3    H155381   5.304   2.961  15.948  1.5728  0.4327  0.6241
11322TIP3    H255382   5.176   3.018  16.007  0.5144  1.0659 -2.1108
11323TIP3   OH255383   0.287   5.113  15.240 -0.1110 -0.0345 -0.1864
11323TIP3    H155384   0.326   5.045  15.295  0.3354 -1.2738 -1.9395
11323TIP3    H255385   0.255   5.178  15.301 -0.4356 -1.7580  1.5647
11324TIP3   OH255386   0.106   6.529   1.138  0.5207 -0.0426 -0.0053
11324TIP3    H155387   0.158   6.509   1.216  0.6555 -0.6046 -0.2329
11324TIP3    H255388   0.170   6.557   1.073  0.2844  1.6802  0.4642
11325TIP3   OH255389   4.647   1.199  14.562 -0.3985  0.1226  0.2858
11325TIP3    H155390   4.609   1.287  14.572 -4.0874 -1.5277  3.0951
11325TIP3    H255391   4.644   1.182  14.468  1.3830  3.2543 -0.4712
11326TIP3   OH255392   3.781   4.278  15.195  0.6461  0.7840  0.5231
11326TIP3    H155393   3.692   4.313  15.196  0.6080  0.6970  1.4905
11326TIP3    H255394   3.798   4.256  15.286  1.5177  0.4294  0.2788
11327TIP3   OH255395   4.661   1.272  11.839  0.8129 -0.4029  0.0733
11327TIP3    H155396   4.571   1.237  11.839  0.8234 -0.4723 -0.9820
11327TIP3    H255397   4.652   1.361  11.805  1.0191 -0.0300  0.9885
11328TIP3   OH255398   2.997   5.119   0.781 -0.6273 -0.1841  0.2093
11328TIP3    H155399   2.949   5.199   0.760  1.6179  1.0048 -0.7026
11328TIP3    H255400   3.000   5.071   0.699 -0.3045 -0.2587  0.2637
11329TIP3   OH255401   6.328   6.269  16.021  0.1449  0.4090  0.2186
11329TIP3    H155402   6.372   6.257  16.105 -1.1059 -0.5117  0.7772
11329TIP3    H255403   6.252   6.210  16.025  0.0818  0.3184 -1.5720
11330TIP3   OH255404   2.038   1.670   4.141 -0.0826 -0.1600  0.3529
11330TIP3    H155405   2.115   1.718   4.172  1.3833 -1.6109 -0.8698
11330TIP3    H255406   2.026   1.700   4.051 -0.4895 -0.4676  0.3028
11331TIP3   OH255407   2.674   3.290   0.881  0.0587  0.2729  0.1915
11331TIP3    H155408   2.741   3.222   0.894 -0.1493 -0.2783 -1.4112
11331TIP3    H255409   2.593   3.242   0.866 -0.4566  0.9235  0.7970
11332TIP3   OH255410   3.613   5.375   5.256 -0.3772 -0.3243 -0.8002
11332TIP3    H155411   3.528   5.333   5.249 -0.7368  0.2690 -0.0756
11332TIP3    H255412   3.667   5.314   5.306 -0.6359 -0.3162 -0.5123
11333TIP3   OH255413   3.172   4.995   2.963  0.3681  0.5219  0.8059
11333TIP3    H155414   3.142   5.066   3.019 -0.1475  0.8997  0.0580
11333TIP3    H255415   3.167   5.030   2.874 -0.0891 -0.5028  0.4098
11334TIP3   OH255416   1.978   3.704  15.376 -0.1203  0.5136  0.0851
11334TIP3    H155417   2.021   3.776  15.421  0.1612  0.4824 -0.1305
11334TIP3    H255418   2.045   3.668  15.318 -0.1007 -0.2661  0.5779
11335TIP3   OH255419   6.755   6.319   5.459  0.9604 -0.1875  0.0672
11335TIP3    H155420   6.707   6.265   5.522  1.1184 -0.6650 -0.2091
11335TIP3    H255421   6.713   6.301   5.375 -0.2257  1.6011  0.2285
11336TIP3   OH255422   3.135   2.023  10.974 -0.3390  0.7585 -0.4530
11336TIP3    H155423   3.193   2.096  10.953 -1.1492  1.3985 -0.5551
11336TIP3    H255424   3.079   2.056  11.045  0.6019 -0.4709  0.9100
11337TIP3   OH255425   3.324   4.911   3.816 -0.0721  0.7663 -0.3407
11337TIP3    H155426   3.325   5.002   3.786 -1.7824  0.8460 -0.2389
11337TIP3    H255427   3.356   4.861   3.741  1.9606  1.4977 -0.0401
11338TIP3   OH255428   6.763   2.958   0.983 -0.6541  0.1710 -0.1125
11338TIP3    H155429   6.678   2.914   0.976 -0.4905 -0.0771 -0.5883
11338TIP3    H255430   6.749   3.044   0.944 -1.3009  1.0561  1.8912
11339TIP3   OH255431   5.953   2.723  15.359  0.0679  0.1031 -0.3354
11339TIP3    H155432   5.905   2.654  15.405  0.6667 -0.2310 -0.1987
11339TIP3    H255433   5.946   2.799  15.417 -1.3240  0.4298 -0.8832
11340TIP3   OH255434   0.585   0.740  13.066  0.1111 -0.5766 -0.1856
11340TIP3    H155435   0.618   0.830  13.074  0.9369 -0.9953  1.5374
11340TIP3    H255436   0.648   0.697  13.007 -0.2937 -0.0431 -1.0274
11341TIP3   OH255437   5.505   0.550  10.384  0.5326 -0.2740  0.2520
11341TIP3    H155438   5.448   0.485  10.424 -1.8491  2.4885  1.6783
11341TIP3    H255439   5.594   0.518  10.401 -0.4096 -4.3939 -1.4644
11342TIP3   OH255440   0.982   6.405  12.953  0.1528 -0.1255 -0.1864
11342TIP3    H155441   0.989   6.457  12.873 -1.1908  1.1113  0.4511
11342TIP3    H255442   0.891   6.416  12.981  0.6518 -0.3212  1.6380
11343TIP3   OH255443   0.267   3.790   0.004  0.7057  0.0379  0.3502
11343TIP3    H155444   0.213   3.820   0.078  1.0925  2.1827 -0.1731
11343TIP3    H255445   0.354   3.825   0.021  1.2202 -0.8593 -0.3155
11344TIP3   OH255446   6.558   4.022   1.565 -0.5808 -0.0197 -0.2198
11344TIP3    H155447   6.463   4.024   1.576 -0.3911 -0.9849  2.6961
11344TIP3    H255448   6.573   3.958   1.495 -2.0650  0.2018 -0.7741
11345TIP3   OH255449   0.918   1.332  13.017  0.1043  0.0210  0.1238
11345TIP3    H155450   0.927   1.311  13.110  0.0729 -0.7314 -0.0375
11345TIP3    H255451   0.992   1.390  12.998 -0.6697  1.3128  0.9319
11346TIP3   OH255452   4.689   6.288   6.378  0.1648  0.2434  0.9389
11346TIP3    H155453   4.688   6.192   6.368  2.2046  0.1566  1.1783
11346TIP3    H255454   4.652   6.303   6.465  0.9403 -0.4437  1.4052
11347TIP3   OH255455   2.887   3.956  13.621  0.0355  0.3441 -0.0907
11347TIP3    H155456   2.824   3.925  13.685  0.7839 -2.6578 -0.6641
11347TIP3    H255457   2.950   4.007  13.672  0.4075 -1.6491  1.5367
11348TIP3   OH255458   2.308   4.366   0.169 -0.0861 -0.1441 -0.2196
11348TIP3    H155459   2.273   4.293   0.117  1.8079 -1.1749 -0.1507
11348TIP3    H255460   2.367   4.323   0.231 -1.8194  1.0976  2.4363
11349TIP3   OH255461   1.187   0.774   5.513 -0.0541 -0.3818 -0.3991
11349TIP3    H155462   1.099   0.812   5.503  0.3480  0.3592 -1.3100
11349TIP3    H255463   1.243   0.849   5.532  0.3552 -0.8818  0.4164
11350TIP3   OH255464   0.066   4.436   2.064  0.0492  0.0937 -0.1965
11350TIP3    H155465   0.002   4.365   2.067 -0.4632  0.5356 -0.4597
11350TIP3    H255466   0.015   4.515   2.082  0.8528  0.2540  1.5803
11351TIP3   OH255467   2.463   6.365   0.879 -0.4032 -0.2375 -0.4649
11351TIP3    H155468   2.443   6.370   0.786 -0.7382  1.3112 -0.3320
11351TIP3    H255469   2.428   6.281   0.906  1.1474 -1.4772 -2.0536
11352TIP3   OH255470   1.952   0.661  14.222 -0.5679  0.3963  0.1861
11352TIP3    H155471   1.948   0.607  14.301  0.5906  0.8478  0.5800
11352TIP3    H255472   1.878   0.721  14.229  0.0595  1.0649  1.4176
11353TIP3   OH255473   3.111   0.072   1.985  0.8000  0.0028 -0.1384
11353TIP3    H155474   3.081   0.042   1.899 -0.0227 -1.5736  0.6500
11353TIP3    H255475   3.154   0.156   1.968 -2.2622  1.4268 -1.6584
11354TIP3   OH255476   6.561   6.125   0.110  0.0209  0.2469 -0.2839
11354TIP3    H155477   6.511   6.113   0.191 -0.3862  0.8526 -0.4383
11354TIP3    H255478   6.495   6.147   0.044  0.5231  1.5971 -0.3764
11355TIP3   OH255479   5.947   1.509   4.486 -0.4338 -0.5693 -0.1119
11355TIP3    H155480   5.856   1.514   4.515 -0.4874  2.0982 -0.4309
11355TIP3    H255481   5.942   1.513   4.390 -0.0031 -1.2644 -0.1680
11356TIP3   OH255482   1.447   5.975   5.790 -0.2796  0.8122  0.0376
11356TIP3    H155483   1.524   5.948   5.741 -1.4185 -0.9678 -0.8924
11356TIP3    H255484   1.445   6.070   5.781  0.7906  0.7289 -1.4875
11357TIP3   OH255485   5.384   2.908   0.499  0.4805 -0.1906  0.2103
11357TIP3    H155486   5.322   2.891   0.570  1.6223 -0.1390  1.2395
11357TIP3    H255487   5.363   2.996   0.470 -0.5424 -0.5206 -0.0986
11358TIP3   OH255488   5.127   6.750   5.685 -0.0877  0.7369 -0.1097
11358TIP3    H155489   5.089   6.702   5.612  1.4067  1.4252 -1.3986
11358TIP3    H255490   5.085   6.836   5.682 -1.8988 -0.0172  1.4759
11359TIP3   OH255491   3.668   4.258   0.249  0.0190 -0.7359 -0.5834
11359TIP3    H155492   3.719   4.326   0.204 -0.3061 -0.0453  0.0620
11359TIP3    H255493   3.733   4.207   0.297  0.1169  0.2808  0.4166
11360TIP3   OH255494   4.843   4.467  13.529  0.3271 -0.0593 -0.4079
11360TIP3    H155495   4.803   4.449  13.444  0.7690  1.3179 -0.9194
11360TIP3    H255496   4.825   4.388  13.581 -1.9358 -0.0020 -1.0247
11361TIP3   OH255497   5.210   5.193  15.532  0.3374  0.1109  0.2323
11361TIP3    H155498   5.179   5.123  15.476  2.6454  0.5178 -1.7222
11361TIP3    H255499   5.267   5.149  15.596 -0.0134 -0.0339  0.4473
11362TIP3   OH255500   0.633   6.229  13.747  0.4180 -0.0636 -0.0979
11362TIP3    H155501   0.680   6.219  13.664  1.1910 -0.5419  0.3806
11362TIP3    H255502   0.697   6.204  13.814 -0.6706 -1.2334  0.5447
11363TIP3   OH255503   6.253   0.469   2.580 -0.6691 -0.4101 -0.8382
11363TIP3    H155504   6.195   0.544   2.570 -0.4815  0.0094  0.8645
11363TIP3    H255505   6.204   0.408   2.634  0.1302 -0.4140 -0.0880
11364TIP3   OH255506   3.632   2.555   1.261  0.3690 -0.8399 -0.0172
11364TIP3    H155507   3.643   2.630   1.320  1.1998 -0.3898 -0.7144
11364TIP3    H255508   3.596   2.592   1.181 -2.4786 -1.7098  0.7576
11365TIP3   OH255509   5.868   6.370   0.009  0.8299 -0.4163 -0.4866
11365TIP3    H155510   5.935   6.375   0.077  0.5903 -0.8063 -0.2170
11365TIP3    H255511   5.917   6.379  -0.074  1.6555 -3.5875 -0.4916
11366TIP3   OH255512   2.659   6.596  15.626 -0.2171 -0.8837 -0.1526
11366TIP3    H155513   2.705   6.553  15.699  1.3941 -2.3694 -1.9355
11366TIP3    H255514   2.688   6.687  15.629 -1.3316 -0.5320  1.8874
11367TIP3   OH255515   5.668   5.781   3.294  0.4350  0.0557  0.0425
11367TIP3    H155516   5.581   5.814   3.273 -0.0098 -0.2021  1.3801
11367TIP3    H255517   5.652   5.696   3.336  1.3030  0.1708  0.6335
11368TIP3   OH255518   3.496   5.513  15.251 -0.2202  0.5492  0.0267
11368TIP3    H155519   3.424   5.562  15.292 -0.4352  0.5790 -0.3744
11368TIP3    H255520   3.452   5.454  15.190 -0.2188 -2.3521  2.5983
11369TIP3   OH255521   4.254   3.226  12.266 -0.1893 -0.4790 -0.4374
11369TIP3    H155522   4.284   3.302  12.215 -0.8693  0.1030  0.0041
11369TIP3    H255523   4.334   3.177  12.285  0.3864  0.5985  0.0350
11370TIP3   OH255524   1.172   6.754   1.323  0.3305  0.5283 -0.6952
11370TIP3    H155525   1.268   6.752   1.315  0.2676 -0.4193 -1.3329
11370TIP3    H255526   1.156   6.736   1.416  0.7553 -0.0447 -0.7240
11371TIP3   OH255527   3.046   2.144  11.223  0.2573  0.2466 -0.0550
11371TIP3    H155528   3.085   2.086  11.288 -0.6173  1.0555  1.2513
11371TIP3    H255529   3.069   2.232  11.253 -0.7431  0.6576 -0.4647
11372TIP3   OH255530   0.939   1.148  16.275  0.3520 -0.0256  0.7370
11372TIP3    H155531   0.844   1.142  16.277  0.3341 -0.2621 -0.3322
11372TIP3    H255532   0.965   1.154  16.368 -0.7078  0.3601  1.0187
11373TIP3   OH255533   3.167   4.148  12.947 -0.3526 -0.1485  0.3299
11373TIP3    H155534   3.252   4.193  12.952 -0.8253  0.8316 -0.2850
11373TIP3    H255535   3.156   4.109  13.034 -0.4561  1.9190  1.2893
11374TIP3   OH255536   1.828   0.390   4.147 -0.1982 -0.4695  0.0593
11374TIP3    H155537   1.736   0.362   4.146  0.1413 -1.6368 -0.3451
11374TIP3    H255538   1.862   0.358   4.230 -0.1846  0.1176  0.2891
11375TIP3   OH255539   1.934   2.322  16.107 -0.2551 -0.0551 -0.8487
11375TIP3    H155540   1.908   2.330  16.199 -3.2228 -0.7874 -1.5058
11375TIP3    H255541   1.966   2.233  16.098  2.8248  0.8551 -0.0248
11376TIP3   OH255542   0.410   6.780  16.402 -0.0696 -0.1596  0.1581
11376TIP3    H155543   0.343   6.714  16.422  0.7231 -1.3302 -0.8968
11376TIP3    H255544   0.490   6.746  16.441 -0.1407  1.4555  1.7989
11377TIP3   OH255545   1.403   2.107   3.209  0.0134  0.1453  0.1782
11377TIP3    H155546   1.366   2.189   3.177 -1.0047  1.0695  3.3947
11377TIP3    H255547   1.460   2.077   3.138  1.0327  3.9816 -0.8232
11378TIP3   OH255548   0.366   4.906  15.400  0.6357 -0.2902 -0.1910
11378TIP3    H155549   0.383   4.890  15.493  1.7994 -0.8979 -0.4903
11378TIP3    H255550   0.327   4.824  15.368  0.9729 -0.3669 -0.4102
11379TIP3   OH255551   5.522   4.837  14.878  0.1998  0.1659  0.2607
11379TIP3    H155552   5.499   4.884  14.958 -1.5078  1.0438 -0.6925
11379TIP3    H255553   5.491   4.893  14.807  3.3620  0.3455 -1.1592
11380TIP3   OH255554   6.655   5.876   2.941 -0.4696  0.2247  0.2580
11380TIP3    H155555   6.735   5.925   2.926 -0.2432  0.1210  1.0894
11380TIP3    H255556   6.683   5.799   2.991 -0.5264 -1.6683 -2.3929
11381TIP3   OH255557   1.815   2.976   0.931  0.0006 -0.4331 -0.2903
11381TIP3    H155558   1.840   2.897   0.883 -0.7444  0.0029 -1.4621
11381TIP3    H255559   1.745   2.947   0.989 -0.6911 -0.5450 -1.1519
11382TIP3   OH255560   2.435   0.817  14.373  0.3672 -0.4060  0.7121
11382TIP3    H155561   2.525   0.798  14.344  0.4665  0.1844  0.6242
11382TIP3    H255562   2.439   0.907  14.406 -0.7045  0.4893 -1.4410
11383TIP3   OH255563   6.693   0.856   3.307  0.1326  0.5448 -0.8754
11383TIP3    H155564   6.727   0.929   3.255 -0.3558  0.1170 -1.8005
11383TIP3    H255565   6.627   0.815   3.252  0.5109 -0.7008 -0.4320
11384TIP3   OH255566   0.566   0.181  14.512  0.3234 -0.0539 -0.2198
11384TIP3    H155567   0.641   0.217  14.561  1.3275  1.1710 -2.5102
11384TIP3    H255568   0.603   0.107  14.464 -0.7270 -1.4422  1.0182
11385TIP3   OH255569   3.726   4.720   0.371 -0.4861 -0.2045  0.2488
11385TIP3    H155570   3.804   4.762   0.334 -0.1476 -0.1703  0.9798
11385TIP3    H255571   3.745   4.714   0.464 -2.2343  1.7545  0.8064
11386TIP3   OH255572   6.634   6.198  15.454  0.4753 -0.5014 -0.2563
11386TIP3    H155573   6.645   6.284  15.495 -1.7261  0.8232 -2.1545
11386TIP3    H255574   6.540   6.185  15.451  0.7449 -2.7194 -0.6105
11387TIP3   OH255575   6.482   3.187  16.464  0.1137 -0.8233 -0.4584
11387TIP3    H155576   6.479   3.164  16.371  0.1072 -0.3065 -0.5869
11387TIP3    H255577   6.394   3.221  16.483  0.4203  0.0114 -0.5078
11388TIP3   OH255578   6.717   1.498  16.683 -0.8518  0.0208 -0.0064
11388TIP3    H155579   6.804   1.475  16.650 -1.0307  0.5710 -0.9163
11388TIP3    H255580   6.704   1.589  16.655 -1.5758  0.0620  0.4278
11389TIP3   OH255581   5.146   3.039   4.075 -0.2792  0.4561  0.4323
11389TIP3    H155582   5.103   2.954   4.064 -1.6089  1.2646 -1.1856
11389TIP3    H255583   5.121   3.068   4.163 -0.2296 -0.5997  0.8014
11390TIP3   OH255584   3.523   4.392  16.058 -0.2262  0.2101 -0.0381
11390TIP3    H155585   3.608   4.412  16.097  0.0892  0.2728 -0.7501
11390TIP3    H255586   3.526   4.431  15.971  0.2383 -2.4534 -1.3163
11391TIP3   OH255587   0.032   4.681   5.491  0.2386  0.2846  0.3527
11391TIP3    H155588   0.097   4.742   5.455 -0.6650  0.4234 -1.1374
11391TIP3    H255589  -0.050   4.707   5.448 -0.6721 -0.3015  1.7006
11392TIP3   OH255590   1.168   0.686   1.608 -0.1557 -0.0512  0.2948
11392TIP3    H155591   1.101   0.654   1.546  0.5252  0.0757 -0.5233
11392TIP3    H255592   1.240   0.715   1.552 -0.1825  1.6134  1.0792
11393TIP3   OH255593   6.736   3.822  15.902  0.2139 -0.4552  0.3101
11393TIP3    H155594   6.713   3.753  15.963 -0.8490  2.1136  3.0818
11393TIP3    H255595   6.766   3.894  15.958  0.3459  1.6663 -2.2971
11394TIP3   OH255596   3.658   1.886  14.678 -0.1470  0.0376 -0.2305
11394TIP3    H155597   3.575   1.876  14.631  0.8865  0.7001 -2.2847
11394TIP3    H255598   3.656   1.816  14.744 -2.1909 -0.1418 -0.4059
11395TIP3   OH255599   4.850   5.300  12.396  0.0949  0.5240  0.0931
11395TIP3    H155600   4.886   5.372  12.448  1.3202 -0.6502  0.9178
11395TIP3    H255601   4.894   5.307  12.312 -0.2705  1.1174 -0.0548
11396TIP3   OH255602   3.018   6.071  14.968 -0.2940  0.6483 -0.5725
11396TIP3    H155603   2.949   6.056  15.032  0.1631  1.2742  0.0800
11396TIP3    H255604   3.074   6.138  15.008  1.1002 -0.3585 -0.7640
11397TIP3   OH255605   3.150   6.425  11.165 -0.4564  0.1566  0.8133
11397TIP3    H155606   3.245   6.429  11.153 -0.5745 -0.4141 -0.5484
11397TIP3    H255607   3.117   6.503  11.119 -0.7509 -0.6070 -0.3060
11398TIP3   OH255608   5.451   4.486  13.131  0.1794 -0.1004 -0.0764
11398TIP3    H155609   5.450   4.561  13.190  0.3058 -2.5353  3.3559
11398TIP3    H255610   5.366   4.443  13.145 -0.5358  0.1074 -3.1118
11399TIP3   OH255611   5.775   6.115   0.876 -0.2025 -0.6399 -0.1895
11399TIP3    H155612   5.818   6.196   0.903  1.7312 -1.1241 -1.6212
11399TIP3    H255613   5.745   6.076   0.958 -1.0596  1.4202  0.5366
11400TIP3   OH255614   5.842   1.985  13.990  0.2522  0.0163 -0.1514
11400TIP3    H155615   5.923   2.036  13.994  0.0081  0.3599  0.8952
11400TIP3    H255616   5.776   2.043  14.029 -0.4668 -0.3287 -0.8207
11401TIP3   OH255617   4.409   0.857  16.197  0.0781  0.7286  0.0489
11401TIP3    H155618   4.455   0.784  16.238 -0.9313 -0.2987 -0.5976
11401TIP3    H255619   4.450   0.935  16.235  2.4559 -0.1026 -0.6117
11402TIP3   OH255620   3.412   5.773   4.457 -0.1122  0.2556  0.2138
11402TIP3    H155621   3.373   5.687   4.474  0.2115  0.2497  0.9358
11402TIP3    H255622   3.482   5.755   4.394  0.0467 -0.0258  0.4708
11403TIP3   OH255623   5.741   1.226   0.927 -0.2062  0.1165 -0.0326
11403TIP3    H155624   5.830   1.235   0.962 -0.7824  2.2343  1.0983
11403TIP3    H255625   5.692   1.183   0.996 -0.1286 -0.9767 -0.6250
11404TIP3   OH255626   2.533   3.023   6.037 -0.1932 -0.2487 -0.1686
11404TIP3    H155627   2.517   3.097   5.978 -1.8804 -1.6688 -1.5717
11404TIP3    H255628   2.449   3.009   6.081  0.4742 -0.5506  1.0660
11405TIP3   OH255629   4.601   4.979   2.401  0.4098 -0.1615  0.5153
11405TIP3    H155630   4.560   5.049   2.350  1.4759  0.6025  0.6537
11405TIP3    H255631   4.528   4.927   2.434 -0.3239 -0.5301 -1.5540
11406TIP3   OH255632   4.489   1.469  13.470  0.3944 -0.0139 -0.1287
11406TIP3    H155633   4.486   1.376  13.448 -0.1487  0.3765 -1.8104
11406TIP3    H255634   4.560   1.476  13.534 -1.4218 -2.0095  2.3511
11407TIP3   OH255635   6.188   2.120  16.402 -0.3953  0.0091 -0.0063
11407TIP3    H155636   6.116   2.061  16.381 -0.4101 -0.7231  1.8815
11407TIP3    H255637   6.147   2.194  16.446 -0.5186  2.1260 -3.3375
11408TIP3   OH255638   1.700   5.342   3.782  0.2791 -0.3530  0.4388
11408TIP3    H155639   1.717   5.402   3.709 -0.5362 -0.4077  0.1930
11408TIP3    H255640   1.693   5.400   3.858 -0.4415 -0.1362  0.2123
11409TIP3   OH255641   4.847   1.162   0.214 -0.0078  0.5158  0.1408
11409TIP3    H155642   4.770   1.216   0.230  0.8277  1.4400  1.2096
11409TIP3    H255643   4.825   1.111   0.136 -2.6769 -1.1326  1.8131
11410TIP3   OH255644   1.062   6.528   4.143 -0.2465 -0.5160 -0.0019
11410TIP3    H155645   1.060   6.547   4.049  0.0835  0.8698  0.2478
11410TIP3    H255646   0.977   6.556   4.175 -0.3164 -0.8864  0.1432
11411TIP3   OH255647   0.641   4.079  12.755 -0.0521 -0.1446  0.7416
11411TIP3    H155648   0.600   3.997  12.726 -1.6605 -0.0142  2.5001
11411TIP3    H255649   0.667   4.123  12.674 -1.6351 -1.1418 -0.3562
11412TIP3   OH255650   1.314   1.448  13.713 -0.1405  0.1045  0.5164
11412TIP3    H155651   1.386   1.400  13.672  0.2939  0.9394  0.2973
11412TIP3    H255652   1.235   1.406  13.679  0.1479  1.5583 -2.2340
11413TIP3   OH255653   0.384   5.909  16.249 -0.6124  0.4313  0.0163
11413TIP3    H155654   0.463   5.946  16.209 -0.9705  1.0619 -0.1276
11413TIP3    H255655   0.414   5.866  16.329 -0.0256  0.0298 -0.4112
11414TIP3   OH255656   4.543   0.154  11.733  0.0999 -0.0907  0.5584
11414TIP3    H155657   4.614   0.216  11.747 -0.0570  0.4733 -0.9653
11414TIP3    H255658   4.471   0.186  11.787  0.0376  1.0548 -0.1830
11415TIP3   OH255659   0.325   5.867   1.967  0.3944 -0.2512 -0.9561
11415TIP3    H155660   0.312   5.790   2.023  1.9760 -0.4435 -0.8099
11415TIP3    H255661   0.358   5.832   1.885  0.7078  0.2364 -1.0421
11416TIP3   OH255662   5.515   1.027   0.832 -0.5546  0.0989  1.0581
11416TIP3    H155663   5.550   0.945   0.796 -1.2980  0.0849  0.3179
11416TIP3    H255664   5.584   1.092   0.818 -1.2963  0.4057 -1.7084
11417TIP3   OH255665   2.493   3.528  17.151  0.4373  0.1732  0.5919
11417TIP3    H155666   2.588   3.531  17.140  0.3411 -0.2994 -0.5877
11417TIP3    H255667   2.471   3.609  17.195  1.2198  1.0981 -0.6566
11418TIP3   OH255668   5.007   0.067  15.564 -0.0495  0.1978  0.6927
11418TIP3    H155669   5.084   0.100  15.611 -0.4237  2.2136 -0.0175
11418TIP3    H255670   4.941   0.135  15.577 -0.7213 -0.0393 -1.2612
11419TIP3   OH255671   3.543   4.343   1.277 -0.3410 -0.0602 -0.4530
11419TIP3    H155672   3.455   4.329   1.242 -0.7607 -0.5329  0.7270
11419TIP3    H255673   3.596   4.368   1.201 -1.3988 -0.1705 -1.2473
11420TIP3   OH255674   4.935   1.155  12.901  0.2189 -0.0897 -0.0953
11420TIP3    H155675   4.930   1.155  12.997  1.9464 -1.0194  0.0414
11420TIP3    H255676   4.987   1.077  12.880  3.0270  2.0049 -1.5349
11421TIP3   OH255677   0.232   2.242   0.920  0.0544 -0.0522 -0.0139
11421TIP3    H155678   0.183   2.211   0.844 -0.5384 -0.8691  0.6799
11421TIP3    H255679   0.319   2.204   0.909  0.1189  0.2432 -0.5390
11422TIP3   OH255680   2.884   0.224  14.283 -0.2357  0.2646  0.1568
11422TIP3    H155681   2.910   0.308  14.321  0.1929  0.2980 -0.2095
11422TIP3    H255682   2.853   0.172  14.357  1.0971  0.1321  0.6311
11423TIP3   OH255683   5.248   3.223  16.329 -0.0105 -0.6101 -0.5082
11423TIP3    H155684   5.325   3.168  16.345  0.4654  0.1702 -0.0292
11423TIP3    H255685   5.214   3.243  16.416  0.1989  0.3667 -0.6380
11424TIP3   OH255686   4.710   4.118  12.326 -0.5581  0.0925  0.4939
11424TIP3    H155687   4.665   4.035  12.309 -0.6996  0.6034 -2.0888
11424TIP3    H255688   4.642   4.177  12.357 -0.7135 -0.4069  1.1169
11425TIP3   OH255689   5.047   1.321  14.289 -0.4467 -0.3080 -0.3090
11425TIP3    H155690   5.034   1.358  14.202  1.3565  0.5432 -0.2577
11425TIP3    H255691   5.125   1.267  14.282 -1.5288 -2.0653  0.2817
11426TIP3   OH255692   5.237   2.574   2.287 -0.6480 -0.3680 -0.1600
11426TIP3    H155693   5.325   2.609   2.296 -0.8192 -0.2213  1.1466
11426TIP3    H255694   5.185   2.648   2.253 -1.0889  0.8842  2.9448
11427TIP3   OH255695   0.949   5.471  13.700 -0.4479  0.0845 -0.0127
11427TIP3    H155696   0.941   5.471  13.795  1.8966 -1.1444  0.2740
11427TIP3    H255697   0.968   5.562  13.677 -1.5780  0.4922  0.5954
11428TIP3   OH255698   0.032   4.822   5.744 -0.3713 -0.1823 -0.1430
11428TIP3    H155699   0.037   4.763   5.669 -3.1228  1.8386 -2.1569
11428TIP3    H255700  -0.050   4.798   5.787 -1.0064  1.3916 -0.3921
11429TIP3   OH255701   2.901   6.097   4.395  0.0850  0.1430 -0.2107
11429TIP3    H155702   2.827   6.040   4.373 -0.1974  0.7743 -0.9421
11429TIP3    H255703   2.976   6.058   4.351  0.0072  0.0042 -0.2195
11430TIP3   OH255704   0.026   6.028   3.231  0.0453 -0.0402  0.2685
11430TIP3    H155705   0.036   5.946   3.183 -2.8716 -1.3687  1.7463
11430TIP3    H255706   0.035   6.004   3.323  0.6207  1.5960  0.6835
11431TIP3   OH255707   3.744   6.377  13.656 -0.5474  0.4325 -0.7361
11431TIP3    H155708   3.676   6.310  13.667  1.1413 -1.0911  1.5868
11431TIP3    H255709   3.801   6.343  13.587  0.5042 -0.8153  0.6802
11432TIP3   OH255710   5.613   4.103   1.800  0.1436 -0.5246 -0.3690
11432TIP3    H155711   5.535   4.158   1.787  0.0519 -0.8333 -1.1442
11432TIP3    H255712   5.628   4.106   1.895  1.2181  2.3384 -0.5341
11433TIP3   OH255713   6.600   2.079  11.609 -0.0738 -0.1266 -0.5171
11433TIP3    H155714   6.657   2.094  11.685  0.1127  1.3797 -0.9302
11433TIP3    H255715   6.628   1.994  11.576  3.1628  1.2277 -1.6929
11434TIP3   OH255716   5.000   5.406  16.186  0.2037  0.3596 -0.9173
11434TIP3    H155717   4.945   5.397  16.263  0.8076 -0.4989 -0.5637
11434TIP3    H255718   5.057   5.481  16.205  1.9493 -1.2210  0.5400
11435TIP3   OH255719   5.379   0.305   4.447  0.3604  0.4547  0.0788
11435TIP3    H155720   5.336   0.251   4.381 -2.4292  1.0387  1.2666
11435TIP3    H255721   5.317   0.376   4.464  0.8259  0.1979  3.4633
11436TIP3   OH255722   4.698   5.872  14.435  0.0104  0.0217  0.6879
11436TIP3    H155723   4.706   5.788  14.389  1.4960  0.4407  0.0919
11436TIP3    H255724   4.637   5.923  14.382  0.3583 -0.1247  0.1348
11437TIP3   OH255725   6.282   2.191  17.129  0.2229 -0.1633  0.4701
11437TIP3    H155726   6.315   2.117  17.181 -0.6851 -0.6803  0.3254
11437TIP3    H255727   6.191   2.200  17.156 -0.2222 -0.3282 -0.9051
11438TIP3   OH255728   1.711   1.649  11.475  0.4087  0.8068  0.0712
11438TIP3    H155729   1.748   1.639  11.387 -1.9664 -2.6510 -0.7407
11438TIP3    H255730   1.766   1.593  11.530 -0.4795 -0.2429 -0.0864
11439TIP3   OH255731   3.214   2.380  15.821 -0.4320  0.2350  0.6516
11439TIP3    H155732   3.249   2.291  15.811 -1.3972  0.0134 -1.3611
11439TIP3    H255733   3.215   2.416  15.732 -0.1883  2.2119  1.4116
11440TIP3   OH255734   6.464   4.836  17.194 -0.0322  0.6156 -0.1549
11440TIP3    H155735   6.411   4.916  17.197  0.5053  0.9357  1.2204
11440TIP3    H255736   6.544   4.863  17.149  0.2920  0.9401  0.6149
11441TIP3   OH255737   5.586   0.079  12.138 -0.4473 -0.5737  0.0622
11441TIP3    H155738   5.524   0.008  12.127  2.3806 -3.2096 -0.1199
11441TIP3    H255739   5.614   0.102  12.049 -0.0013 -0.5499  0.2023
11442TIP3   OH255740   2.859   2.399  14.472  0.3215 -0.0943 -0.4244
11442TIP3    H155741   2.938   2.435  14.511  0.4994  0.4089 -1.2238
11442TIP3    H255742   2.787   2.450  14.509  0.3932 -0.2986  0.0087
11443TIP3   OH255743   0.107   5.180   5.917 -0.5647  0.0376 -0.2461
11443TIP3    H155744   0.093   5.219   6.003 -0.9851  0.1855 -0.3749
11443TIP3    H255745   0.018   5.172   5.880 -0.6823 -2.4578  0.3757
11444TIP3   OH255746   3.584   4.195   2.143  0.3356 -0.1643 -0.2689
11444TIP3    H155747   3.541   4.272   2.106  1.9247  0.0947 -1.6865
11444TIP3    H255748   3.512   4.136   2.165 -0.9325  1.6499  0.7864
11445TIP3   OH255749   0.907   3.744  17.109  0.0195 -0.3839  1.2888
11445TIP3    H155750   0.862   3.686  17.047 -1.8123  1.1563  1.0948
11445TIP3    H255751   0.985   3.695  17.136  0.0797 -1.7104 -1.0724
11446TIP3   OH255752   5.283   3.942  10.361 -0.2896  0.2659  0.1840
11446TIP3    H155753   5.336   4.013  10.397 -0.8391  1.0865 -0.5658
11446TIP3    H255754   5.314   3.864  10.406 -0.2717  1.0964  1.6879
11447TIP3   OH255755   4.542   6.347   0.884 -0.3025  0.3861 -0.0632
11447TIP3    H155756   4.568   6.429   0.925 -0.6515 -0.8049  2.7208
11447TIP3    H255757   4.539   6.368   0.790  1.7159  2.9377  0.3196
11448TIP3   OH255758   3.758   0.750   0.506  0.3911  0.0815  0.0100
11448TIP3    H155759   3.699   0.708   0.444 -1.0677  0.1831  1.2597
11448TIP3    H255760   3.766   0.686   0.577  2.3147 -0.1856 -0.3929
11449TIP3   OH255761   3.316   1.435   0.260  0.3124  0.0266 -0.5222
11449TIP3    H155762   3.407   1.405   0.262  0.2619 -0.1121 -0.2033
11449TIP3    H255763   3.318   1.518   0.308  0.5407  0.7960 -1.8236
11450TIP3   OH255764   3.185   2.504   4.114  0.1944  0.0363  0.1079
11450TIP3    H155765   3.107   2.475   4.161  1.1529 -2.2338  0.4719
11450TIP3    H255766   3.165   2.489   4.022  0.9678 -3.0143  0.3139
11451TIP3   OH255767   2.392   3.960  14.860  0.1799  0.1284 -0.3134
11451TIP3    H155768   2.307   4.003  14.863 -0.2928 -0.6306 -1.9438
11451TIP3    H255769   2.456   4.030  14.877 -0.6351  1.1857 -1.4818
11452TIP3   OH255770   0.222   3.644  14.946 -0.1544  0.2510  0.2718
11452TIP3    H155771   0.223   3.575  14.880  1.4119 -0.1449  0.6866
11452TIP3    H255772   0.131   3.647  14.976 -1.0124  0.7311 -2.1655
11453TIP3   OH255773   5.545   5.259  13.509  0.0708 -0.8580 -0.9379
11453TIP3    H155774   5.610   5.280  13.441  0.0969  0.0604 -0.6469
11453TIP3    H255775   5.505   5.178  13.479  1.0483 -1.2153 -1.3450
11454TIP3   OH255776   3.310   5.590  13.656  0.0005  0.3885 -0.2921
11454TIP3    H155777   3.250   5.660  13.683  2.0386  2.3299 -0.4731
11454TIP3    H255778   3.375   5.586  13.726  0.6474 -0.4290 -0.9244
11455TIP3   OH255779   1.468   6.275   0.081  0.2623 -0.0305 -0.3273
11455TIP3    H155780   1.562   6.285   0.097  0.1537  1.9553 -0.7248
11455TIP3    H255781   1.462   6.243  -0.009  0.5517 -0.3508 -0.2353
11456TIP3   OH255782   1.524   6.162  15.070 -0.2837 -0.2838  0.2308
11456TIP3    H155783   1.545   6.121  15.154 -2.3163  0.2268  1.0442
11456TIP3    H255784   1.433   6.137  15.053 -0.3350  0.7453 -1.1461
11457TIP3   OH255785   4.704   4.981  12.100  0.3750 -0.1918  0.1526
11457TIP3    H155786   4.763   4.907  12.111  0.1225 -0.4128  0.0143
11457TIP3    H255787   4.737   5.026  12.022 -0.9861 -1.6020 -1.3091
11458TIP3   OH255788   0.526   4.165   1.194 -0.0015 -0.6018 -0.6107
11458TIP3    H155789   0.503   4.198   1.107 -0.7058  0.7814  0.0847
11458TIP3    H255790   0.574   4.237   1.236  1.9926 -1.9083 -0.4847
11459TIP3   OH255791   3.983   5.503   1.167  0.3724  0.4897  0.0422
11459TIP3    H155792   3.930   5.423   1.169  0.0438  0.7077  0.1932
11459TIP3    H255793   3.920   5.574   1.185  1.3205  0.4550  5.0484
11460TIP3   OH255794   3.004   1.056  16.341  0.0198 -0.6587  0.7822
11460TIP3    H155795   3.027   1.126  16.402  0.5608 -1.0408  1.0187
11460TIP3    H255796   3.011   0.976  16.393  2.6105 -1.2198 -0.3075
11461TIP3   OH255797   1.878   3.874  14.129  0.0285 -0.0979  0.6207
11461TIP3    H155798   1.839   3.800  14.175 -1.2020 -0.0801 -0.3337
11461TIP3    H255799   1.815   3.945  14.140  0.4675  0.3587  0.2373
11462TIP3   OH255800   3.086   5.018   0.159 -0.1063 -0.0184  0.2978
11462TIP3    H155801   3.032   4.940   0.162  1.6076 -1.3909 -1.3469
11462TIP3    H255802   3.159   4.999   0.218  0.6399  0.0365 -0.5823
11463TIP3   OH255803   5.322   5.704   1.488 -0.5399  0.1513  0.1384
11463TIP3    H155804   5.256   5.670   1.549 -0.3310 -1.4047 -0.4380
11463TIP3    H255805   5.289   5.789   1.460 -3.2233 -1.2685 -1.4366
11464TIP3   OH255806   0.389   5.084   5.968 -0.0852  0.3182 -0.1756
11464TIP3    H155807   0.313   5.137   5.944 -1.4304 -1.0591  0.8513
11464TIP3    H255808   0.353   5.010   6.017  1.6084 -1.9318 -2.0854
11465TIP3   OH255809   0.982   6.622  14.392  0.1909 -0.2114  0.4507
11465TIP3    H155810   0.992   6.596  14.484  1.3117 -1.6433 -0.0339
11465TIP3    H255811   1.071   6.639  14.362 -0.2851  1.7565  0.0033
11466TIP3   OH255812   1.129   0.167  11.189  0.4533  0.0349  0.1288
11466TIP3    H155813   1.124   0.253  11.148 -0.1483 -0.9302 -1.9367
11466TIP3    H255814   1.216   0.135  11.168 -0.9335 -1.8841 -3.6745
11467TIP3   OH255815   0.703   5.881   4.104  0.4983 -0.1524  0.3130
11467TIP3    H155816   0.671   5.796   4.135  0.4759  0.2396  1.4255
11467TIP3    H255817   0.678   5.942   4.173  0.2129  0.8251 -0.6338
11468TIP3   OH255818   1.990   1.266  15.716 -0.4219  0.1998  0.0378
11468TIP3    H155819   1.920   1.253  15.780 -1.3513  1.5553 -0.6581
11468TIP3    H255820   1.952   1.324  15.650  1.6919  1.9214  0.2053
11469TIP3   OH255821   2.126   4.790  15.210 -0.7824 -0.0022  0.5320
11469TIP3    H155822   2.117   4.791  15.115 -0.2849  0.1247  0.4841
11469TIP3    H255823   2.036   4.794  15.242 -1.0014 -0.9579  0.0681
11470TIP3   OH255824   5.813   3.484  14.855  0.2293 -0.3076  0.3608
11470TIP3    H155825   5.884   3.446  14.804  1.3124  2.6003 -0.4861
11470TIP3    H255826   5.856   3.520  14.933 -0.0694  2.1388 -0.5159
11471TIP3   OH255827   1.619   4.241  10.639  0.0827 -0.0633 -0.1072
11471TIP3    H155828   1.602   4.315  10.697  0.0330  0.8406 -1.2491
11471TIP3    H255829   1.558   4.173  10.669  1.8639 -0.6263  2.5887
11472TIP3   OH255830   6.227   4.910   2.514  0.3361  0.3558 -0.3447
11472TIP3    H155831   6.280   4.835   2.539  0.8937  1.3115  1.5723
11472TIP3    H255832   6.283   4.959   2.453  0.0735 -0.6033 -1.3886
11473TIP3   OH255833   0.694   0.547  10.184 -0.4350  0.5718 -0.1859
11473TIP3    H155834   0.713   0.632  10.225 -1.6360  0.7763 -0.0184
11473TIP3    H255835   0.600   0.534  10.199 -0.3258 -0.6453 -0.4853
11474TIP3   OH255836   6.470   0.722  16.816  0.2855 -0.2083  0.1588
11474TIP3    H155837   6.480   0.765  16.901 -0.9924  2.6859 -1.0366
11474TIP3    H255838   6.390   0.760  16.779  1.2423 -0.7617 -2.6992
11475TIP3   OH255839   2.054   5.013   0.358 -0.2647 -0.3042  0.0211
11475TIP3    H155840   2.106   4.933   0.353  0.0426 -0.1496  0.6209
11475TIP3    H255841   2.089   5.068   0.288  0.5071 -0.1386  0.5183
11476TIP3   OH255842   4.830   1.113   0.667  0.1255  0.8931  0.1071
11476TIP3    H155843   4.753   1.170   0.677  0.2932  1.1747 -0.1712
11476TIP3    H255844   4.801   1.044   0.607 -0.6585 -0.3923  1.8897
11477TIP3   OH255845   4.675   3.809  15.512 -0.3139  0.2766 -0.0507
11477TIP3    H155846   4.672   3.844  15.601 -1.4559  0.4145 -0.1315
11477TIP3    H255847   4.744   3.743  15.514  1.1693  1.7517  0.3828
11478TIP3   OH255848   4.847   0.828   1.645  0.0416 -0.1070 -0.0350
11478TIP3    H155849   4.914   0.774   1.686 -0.9236 -0.0725  1.7210
11478TIP3    H255850   4.891   0.910   1.623  0.4461  0.2244  1.8251
11479TIP3   OH255851   0.636   0.265  14.018  0.3505 -0.6815  0.5427
11479TIP3    H155852   0.597   0.322  13.951  2.9735 -0.1986 -0.7013
11479TIP3    H255853   0.606   0.177  13.995 -1.1161 -0.1898  0.5001
11480TIP3   OH255854   2.636   2.775  13.378 -0.8424 -0.3259 -0.3058
11480TIP3    H155855   2.620   2.724  13.458 -0.7939  1.5071  0.9319
11480TIP3    H255856   2.574   2.848  13.383  0.2202  0.6727 -1.1387
11481TIP3   OH255857   5.866   6.630  11.959 -0.4033 -0.4588  0.1751
11481TIP3    H155858   5.919   6.707  11.941 -0.0463 -0.9195 -0.8093
11481TIP3    H255859   5.879   6.613  12.053  1.4070 -0.7141 -0.0948
11482TIP3   OH255860   1.949   4.042  16.093 -0.1725  0.7707 -0.1026
11482TIP3    H155861   1.954   4.088  16.009 -0.4042 -1.9762 -1.7178
11482TIP3    H255862   1.878   3.979  16.082  0.3026 -0.1944  1.9026
11483TIP3   OH255863   6.530   0.151  15.842 -0.0164  0.0515 -0.4067
11483TIP3    H155864   6.458   0.093  15.815  0.5704 -0.5497 -0.7047
11483TIP3    H255865   6.606   0.118  15.795  0.3840  0.9182 -0.3873
11484TIP3   OH255866   3.674   6.253   5.881  0.2428 -0.4179 -0.1502
11484TIP3    H155867   3.761   6.283   5.907  0.9783 -2.3827 -0.1875
11484TIP3    H255868   3.617   6.277   5.953  1.0308 -0.0639  0.3598
11485TIP3   OH255869   1.710   5.771  11.827 -0.1475  0.1257  0.1990
11485TIP3    H155870   1.760   5.693  11.800  0.9147  0.6529  0.5735
11485TIP3    H255871   1.623   5.738  11.846  0.2209 -0.9382  0.1238
11486TIP3   OH255872   0.729   4.190   4.778  0.4461  0.0877  0.1251
11486TIP3    H155873   0.706   4.109   4.824 -1.0660  1.0808  1.2542
11486TIP3    H255874   0.657   4.250   4.800  0.4141  1.0783 -2.4143
11487TIP3   OH255875   0.198   0.825   3.355 -0.0749  0.0754  0.0477
11487TIP3    H155876   0.247   0.874   3.289 -0.0635 -0.6590 -0.4940
11487TIP3    H255877   0.106   0.841   3.332 -0.0707 -0.6169 -0.4857
11488TIP3   OH255878   6.159   2.131  13.204  0.8477 -0.4916 -0.6150
11488TIP3    H155879   6.220   2.084  13.261  0.2222  0.0930  0.5736
11488TIP3    H255880   6.161   2.221  13.236 -1.8935 -0.7588  0.6325
11489TIP3   OH255881   2.953   0.750   1.236 -0.3589 -0.4145  0.3576
11489TIP3    H155882   2.893   0.825   1.231  1.8954  1.5129  0.5445
11489TIP3    H255883   2.971   0.739   1.329 -0.3047 -0.8963  0.2939
11490TIP3   OH255884   5.800   4.515   1.659  0.8468  0.2497 -0.2604
11490TIP3    H155885   5.796   4.546   1.749  1.1086 -2.7644  0.8986
11490TIP3    H255886   5.710   4.491   1.638  1.0841 -0.9454 -0.0103
11491TIP3   OH255887   0.101   3.730  10.673 -0.4563 -0.8442 -0.1005
11491TIP3    H155888   0.161   3.663  10.641  0.9773  0.0223  0.6637
11491TIP3    H255889   0.139   3.813  10.643 -2.3893 -0.3360 -1.3494
11492TIP3   OH255890   1.743   1.249   4.392 -0.5262 -0.0463 -0.0301
11492TIP3    H155891   1.831   1.273   4.421 -0.9604  1.5667  0.0668
11492TIP3    H255892   1.686   1.271   4.466 -1.2892  1.3342 -0.9643
11493TIP3   OH255893   4.187   3.282  14.615  0.4232  0.2280  0.2686
11493TIP3    H155894   4.136   3.257  14.537 -0.5514  1.9997  0.2640
11493TIP3    H255895   4.127   3.270  14.688  1.1627 -0.9152  0.7154
11494TIP3   OH255896   3.277   4.665  13.839 -0.3173  0.0581 -0.2074
11494TIP3    H155897   3.316   4.581  13.863 -0.9206 -1.3475 -3.4895
11494TIP3    H255898   3.185   4.646  13.824 -1.4782  2.3503  3.0563
11495TIP3   OH255899   0.794   2.133  16.759  0.5230  0.8360  0.3241
11495TIP3    H155900   0.781   2.155  16.666  1.9892  0.7133  0.0751
11495TIP3    H255901   0.881   2.096  16.763 -0.5502 -1.7720  1.3341
11496TIP3   OH255902   2.518   3.717  15.639  0.5934  0.6417  0.7950
11496TIP3    H155903   2.572   3.671  15.576  1.1588  1.2598  0.8201
11496TIP3    H255904   2.437   3.665  15.645  0.4285  0.7148 -0.6188
11497TIP3   OH255905   1.238   5.699   4.630  0.1513  0.0250  0.8987
11497TIP3    H155906   1.287   5.623   4.600 -0.3086 -0.5078  1.4747
11497TIP3    H255907   1.197   5.734   4.550  0.9691  0.1257  0.5131
11498TIP3   OH255908   6.235   6.300  17.096 -0.1261 -0.2691  0.5934
11498TIP3    H155909   6.294   6.374  17.082  0.6444 -1.1436 -1.0996
11498TIP3    H255910   6.287   6.238  17.147 -0.2797 -0.2385  0.7884
11499TIP3   OH255911   5.019   3.332  16.795 -0.5730 -0.0834  0.1036
11499TIP3    H155912   5.047   3.419  16.826  1.4374 -0.0500 -1.6083
11499TIP3    H255913   4.950   3.351  16.731  0.8903  0.4198 -1.3922
11500TIP3   OH255914   4.298   2.726  15.940  0.0178 -0.0723  0.1742
11500TIP3    H155915   4.304   2.677  15.858 -1.9736 -0.8721  0.4523
11500TIP3    H255916   4.227   2.788  15.927  0.9359  1.1335  0.6710
11501TIP3   OH255917   2.600   3.064  13.725  0.2806 -0.5797  0.9644
11501TIP3    H155918   2.558   3.085  13.642  1.4809  0.5657  0.6173
11501TIP3    H255919   2.543   3.102  13.791 -0.1211 -0.5626  0.6144
11502TIP3   OH255920   1.523   5.457  12.829  0.1138  0.0302  0.3145
11502TIP3    H155921   1.465   5.381  12.835  0.8664 -0.6342 -0.5381
11502TIP3    H255922   1.507   5.493  12.742  0.8544 -0.0546  0.1375
11503TIP3   OH255923   4.505   4.898  13.724  1.0017  0.1670 -0.2511
11503TIP3    H155924   4.519   4.953  13.802 -1.6047 -1.2171  1.3242
11503TIP3    H255925   4.593   4.866  13.701  1.8742  0.7470  2.0167
11504TIP3   OH255926   5.235   2.661   0.599 -0.3509  0.8937 -0.9088
11504TIP3    H155927   5.181   2.734   0.628 -2.2167 -1.2271  1.4885
11504TIP3    H255928   5.183   2.619   0.530 -1.9577 -1.0827  1.3227
11505TIP3   OH255929   1.750   3.048  13.789 -0.0379  0.1380  0.2672
11505TIP3    H155930   1.660   3.015  13.787  0.0764 -0.2445 -2.6185
11505TIP3    H255931   1.740   3.143  13.783 -0.2659  0.1205  0.3453
11506TIP3   OH255932   1.060   1.950   6.585  0.1248  0.1808  0.0600
11506TIP3    H155933   1.081   1.863   6.621  2.4648  0.4464 -0.4599
11506TIP3    H255934   1.043   2.004   6.663 -1.7643 -0.7789  0.3713
11507TIP3   OH255935   6.805   4.409   6.499 -0.1472 -0.1048 -0.3200
11507TIP3    H155936   6.723   4.422   6.547  1.3793  0.2476  2.3959
11507TIP3    H255937   6.831   4.320   6.521  0.3860 -0.0869 -0.8631
11508TIP3   OH255938   3.964   3.909  12.981 -0.5581 -0.3261  0.2701
11508TIP3    H155939   3.872   3.930  13.001 -1.0122 -0.8284 -1.1942
11508TIP3    H255940   3.961   3.821  12.944  0.5361 -0.3654  0.2499
11509TIP3   OH255941   6.669   4.985  11.805  0.4302 -0.4169 -0.4994
11509TIP3    H155942   6.614   4.974  11.882 -0.8612  1.1636 -1.1312
11509TIP3    H255943   6.667   4.901  11.761  1.0140 -1.2819  1.0437
11510TIP3   OH255944   4.279   3.448   3.486 -0.7164  0.0955  0.5456
11510TIP3    H155945   4.253   3.436   3.577  1.4309  0.6115  1.2996
11510TIP3    H255946   4.312   3.363   3.459  1.4738  0.6251  1.3127
11511TIP3   OH255947   0.701   5.007   4.109 -0.2345 -0.2223  0.3902
11511TIP3    H155948   0.653   5.074   4.158 -1.2495 -0.8293  0.2517
11511TIP3    H255949   0.785   5.048   4.089 -0.7212  0.8971  0.5654
11512TIP3   OH255950   0.510   0.653   2.451 -0.1391  0.4685 -0.2547
11512TIP3    H155951   0.488   0.746   2.445 -1.8217  0.0490 -1.3369
11512TIP3    H255952   0.592   0.651   2.499  0.9365  2.6291 -1.8399
11513TIP3   OH255953   2.642   0.604   3.274 -0.1188 -0.3991 -0.4983
11513TIP3    H155954   2.626   0.527   3.329  1.9482  0.2597  1.1475
11513TIP3    H255955   2.607   0.677   3.324  1.1046  0.1279 -0.4008
11514TIP3   OH255956   1.209   2.941  16.484 -0.6331  0.1223  0.2559
11514TIP3    H155957   1.184   3.031  16.505 -1.0965 -0.5655  2.9906
11514TIP3    H255958   1.276   2.918  16.548  1.6489 -0.6068 -2.1993
11515TIP3   OH255959   0.254   4.749   3.880 -0.0955 -0.7870  0.1777
11515TIP3    H155960   0.317   4.732   3.809  0.7806  0.6934  0.5476
11515TIP3    H255961   0.305   4.740   3.960 -0.2465  0.7238  0.4741
11516TIP3   OH255962   1.373   6.252  14.640  0.2396  0.0810 -0.2745
11516TIP3    H155963   1.466   6.272  14.647  0.2683 -0.3590  0.6699
11516TIP3    H255964   1.356   6.250  14.546  1.4345 -1.0140 -0.4915
11517TIP3   OH255965   3.070   5.923  13.572  0.2506  0.3740 -0.0853
11517TIP3    H155966   3.160   5.925  13.539  0.2975  0.3406  0.0409
11517TIP3    H255967   3.026   5.994  13.525  0.4542  0.6714  0.1715
11518TIP3   OH255968   4.999   3.293  14.845  0.6419  0.7215  0.1791
11518TIP3    H155969   4.952   3.302  14.762 -0.0637  0.1385  0.4985
11518TIP3    H255970   4.931   3.300  14.912  0.8069 -1.1736  0.6210
11519TIP3   OH255971   2.623   3.803  13.416  0.0608  0.0696 -0.2996
11519TIP3    H155972   2.581   3.798  13.501  0.5427 -0.9480 -0.1008
11519TIP3    H255973   2.593   3.724  13.370  0.7857 -0.0432 -0.5920
11520TIP3   OH255974   3.585   2.580  12.587  0.1630 -0.0977 -0.2270
11520TIP3    H155975   3.622   2.660  12.550 -0.3707 -0.3993 -1.4692
11520TIP3    H255976   3.555   2.530  12.511 -0.9430 -0.7756  0.6226
11521TIP3   OH255977   0.065   5.016   4.689 -0.3034 -0.2991 -0.0063
11521TIP3    H155978   0.091   4.982   4.774  0.8238 -2.2684 -1.0642
11521TIP3    H255979   0.047   4.938   4.636 -0.7027  0.8475 -1.6561
11522TIP3   OH255980   3.817   1.228  13.245 -0.1337  0.3034 -0.4142
11522TIP3    H155981   3.728   1.262  13.252 -0.6667 -1.2122  0.5861
11522TIP3    H255982   3.817   1.148  13.297  2.1259  0.8398  0.5230
11523TIP3   OH255983   1.139   2.717  16.716 -0.0216 -0.1308  0.3093
11523TIP3    H155984   1.154   2.681  16.803  1.0136  0.4896  0.4023
11523TIP3    H255985   1.191   2.798  16.713  1.8796 -1.3057 -1.6663
11524TIP3   OH255986   1.884   1.181   2.587  0.1212  0.4583  0.1391
11524TIP3    H155987   1.857   1.122   2.658 -2.2670  1.4894  0.1823
11524TIP3    H255988   1.875   1.128   2.508 -1.6561  0.6082  0.2093
11525TIP3   OH255989   5.641   4.288  13.408 -0.2167  0.0323 -0.0652
11525TIP3    H155990   5.565   4.339  13.439 -2.1557 -1.9961 -1.2296
11525TIP3    H255991   5.695   4.352  13.362 -0.7885  1.7040  1.4677
11526TIP3   OH255992   2.144   5.822   2.795 -0.3486  0.0778  0.0385
11526TIP3    H155993   2.096   5.898   2.827  1.8389  0.5868  2.4242
11526TIP3    H255994   2.144   5.761   2.869  1.2799 -0.5556 -0.4416
11527TIP3   OH255995   0.999   0.014  15.060  0.1287 -0.1556 -0.0493
11527TIP3    H155996   1.030   0.071  14.989 -1.0090  1.4669  0.6752
11527TIP3    H255997   1.077  -0.001  15.114  0.5527  0.3422 -0.5054
11528TIP3   OH255998   6.805   5.603   5.963 -0.1836 -0.1520 -0.4912
11528TIP3    H155999   6.790   5.621   6.056 -1.5199  2.0543 -1.0487
11528TIP3    H256000   6.895   5.571   5.959 -0.7917 -2.5297  1.7705
11529TIP3   OH256001   2.499   5.763   3.997 -0.1388 -0.0345  0.0406
11529TIP3    H156002   2.444   5.838   4.022 -0.1313  1.2152 -3.1156
11529TIP3    H256003   2.443   5.712   3.938  0.6223 -1.2706  0.3700
11530TIP3   OH256004   3.706   5.739   4.371  0.0870  0.6272 -0.2672
11530TIP3    H156005   3.772   5.774   4.311  0.8899 -1.6447 -0.8161
11530TIP3    H256006   3.744   5.753   4.459  2.7216 -2.9026 -0.6080
11531TIP3   OH256007   3.796   5.678   0.783 -0.1231  0.2808 -0.9783
11531TIP3    H156008   3.858   5.734   0.828  0.2570  0.0749 -1.2432
11531TIP3    H256009   3.849   5.607   0.747 -0.6941 -0.7434  0.0990
11532TIP3   OH256010   0.033   5.196   1.302 -0.8651  0.4881 -0.2797
11532TIP3    H156011  -0.032   5.126   1.300 -1.1343  0.7327 -2.4778
11532TIP3    H256012  -0.019   5.276   1.308 -0.7313  0.6353 -1.0036
11533TIP3   OH256013   2.582   2.963  11.795 -0.0840 -0.0102  0.3514
11533TIP3    H156014   2.612   3.036  11.741 -2.3846  1.1255  0.4772
11533TIP3    H256015   2.501   2.995  11.835 -0.2661 -2.0506  1.7577
11534TIP3   OH256016   2.278   0.288   1.387  0.1828 -0.2258  0.3279
11534TIP3    H156017   2.204   0.342   1.415  0.2691 -0.2406  0.5810
11534TIP3    H256018   2.244   0.240   1.311  0.8784  2.1113 -1.5965
11535TIP3   OH256019   2.777   1.469   3.607 -0.3088 -0.4589  0.0314
11535TIP3    H156020   2.823   1.552   3.613 -0.1057 -0.6025  0.6053
11535TIP3    H256021   2.843   1.403   3.630 -1.2047 -0.5403  2.7296
11536TIP3   OH256022   0.530   3.662   0.310  0.3724  0.3557 -0.0456
11536TIP3    H156023   0.581   3.645   0.231  0.7093  2.4492 -0.3390
11536TIP3    H256024   0.584   3.627   0.381  0.9326  0.0991 -0.5874
11537TIP3   OH256025   3.545   0.454   4.185  0.6542 -0.2472 -0.5358
11537TIP3    H156026   3.497   0.500   4.116  0.1587 -0.5641 -0.4016
11537TIP3    H256027   3.591   0.384   4.139 -0.2227 -0.8850 -0.4496
11538TIP3   OH256028   1.230   2.759  14.752  0.3931  0.2972 -0.9108
11538TIP3    H156029   1.213   2.852  14.732  0.1475 -0.1433 -2.9897
11538TIP3    H256030   1.189   2.745  14.837  0.6619  2.1637 -0.4259
11539TIP3   OH256031   4.094   0.261   2.206 -0.6298 -0.2738 -0.3222
11539TIP3    H156032   4.050   0.292   2.127  0.6142 -0.0368 -0.9452
11539TIP3    H256033   4.081   0.167   2.205 -0.0613 -0.3559 -1.1808
11540TIP3   OH256034   0.263   6.803  15.517  0.5451 -0.5451  0.7695
11540TIP3    H156035   0.194   6.781  15.454  0.9369  0.1622  0.0718
11540TIP3    H256036   0.291   6.891  15.491  1.2338 -0.5522  1.4753
11541TIP3   OH256037   5.560   5.324   3.063  0.3121  0.6784  0.3104
11541TIP3    H156038   5.617   5.280   3.126  0.6679  1.7565  0.7682
11541TIP3    H256039   5.620   5.367   3.002 -0.0208 -0.7135 -1.0725
11542TIP3   OH256040   1.727   5.975   5.910  0.2576  0.0889 -0.9062
11542TIP3    H156041   1.737   5.889   5.869  0.0507 -0.0671 -0.6294
11542TIP3    H256042   1.811   5.992   5.951  0.4573  0.2324 -1.3661
11543TIP3   OH256043   3.166   4.584  14.837  0.3876 -0.8092  0.3776
11543TIP3    H156044   3.255   4.602  14.807  0.3130 -0.5598  0.3079
11543TIP3    H256045   3.129   4.528  14.769  0.9973 -2.2009  1.1448
11544TIP3   OH256046   5.489   1.312   4.874 -0.1864  0.1487 -0.2751
11544TIP3    H156047   5.512   1.257   4.949  1.2574  1.3589  0.2061
11544TIP3    H256048   5.441   1.253   4.815 -0.6220 -1.0305  1.2082
11545TIP3   OH256049   1.473   2.839  15.192  0.5490 -0.0640 -0.2654
11545TIP3    H156050   1.461   2.887  15.111 -0.1557  0.8272  0.3499
11545TIP3    H256051   1.472   2.747  15.166 -1.8816  0.1153 -1.0144
11546TIP3   OH256052   0.692   3.204  11.563 -0.4638  0.0828  0.2822
11546TIP3    H156053   0.711   3.148  11.487 -1.3693  0.8813 -0.5680
11546TIP3    H256054   0.743   3.284  11.546  0.7013 -0.3858  1.4063
11547TIP3   OH256055   2.193   2.534   2.694  0.2064 -0.1805 -0.7334
11547TIP3    H156056   2.128   2.604   2.683  0.4769  0.1075 -0.5226
11547TIP3    H256057   2.155   2.459   2.649 -0.8533 -0.3958  0.4806
11548TIP3   OH256058   5.806   2.233   1.734  0.1083 -0.0966  0.1133
11548TIP3    H156059   5.839   2.199   1.651 -1.2883 -1.3817  0.0472
11548TIP3    H256060   5.823   2.327   1.729  1.6525 -0.3811 -0.8500
11549TIP3   OH256061   6.766   1.467   2.551 -0.1105 -0.0527  0.6273
11549TIP3    H156062   6.720   1.505   2.626 -2.3594  1.3608 -1.2990
11549TIP3    H256063   6.696   1.429   2.498  1.2195  0.2163 -1.4233
11550TIP3   OH256064   3.114   1.852   2.853  0.5277 -0.5642  0.8084
11550TIP3    H156065   3.142   1.809   2.934  0.0129 -1.1508  0.6762
11550TIP3    H256066   3.043   1.911   2.881  0.3452 -0.7716  0.7818
11551TIP3   OH256067   4.972   2.430   6.216  0.6547 -0.3037 -0.3012
11551TIP3    H156068   4.937   2.511   6.254  5.2924  1.4874  0.8698
11551TIP3    H256069   4.984   2.372   6.292  1.5660 -0.2703 -0.4144
11552TIP3   OH256070   4.471   2.393   3.692  0.7565  0.1029  0.3532
11552TIP3    H156071   4.466   2.308   3.648 -3.7886 -0.6526  1.7918
11552TIP3    H256072   4.565   2.409   3.702  1.8717 -4.3511 -0.6553
11553TIP3   OH256073   6.238   6.480   0.599  0.4827 -0.0937 -0.6494
11553TIP3    H156074   6.301   6.551   0.586 -0.4031  0.4207 -2.3960
11553TIP3    H256075   6.292   6.402   0.607  1.4327  0.6359  0.4110
11554TIP3   OH256076   3.976   6.730  14.791  0.1563  0.2204  0.1516
11554TIP3    H156077   3.906   6.678  14.751  0.7677 -0.0459 -0.6027
11554TIP3    H256078   4.008   6.786  14.721  1.2126 -0.2092  0.2567
11555TIP3   OH256079   2.614   1.461   5.174  0.0798  1.0834  0.2191
11555TIP3    H156080   2.544   1.453   5.238 -0.5158 -0.8275 -0.5922
11555TIP3    H256081   2.666   1.536   5.204  0.9974 -0.8183  4.0812
11556TIP3   OH256082   5.702   1.487  16.745  0.0348 -0.4533  0.1856
11556TIP3    H156083   5.697   1.534  16.662  0.9558  0.8938  0.8458
11556TIP3    H256084   5.713   1.395  16.720  1.4357  0.0513 -1.2065
11557TIP3   OH256085   4.234   6.121  14.239 -0.4186 -0.2435  0.4411
11557TIP3    H156086   4.142   6.141  14.224 -1.2116 -2.2910  2.0149
11557TIP3    H256087   4.234   6.070  14.321  2.2164  0.4938  0.9972
11558TIP3   OH256088   1.215   1.239   2.324  0.0767 -0.4735  0.0050
11558TIP3    H156089   1.212   1.144   2.312 -0.1254 -0.6386  1.2020
11558TIP3    H256090   1.123   1.264   2.334  0.1274 -0.1415 -0.3461
11559TIP3   OH256091   1.688   0.347  12.160 -0.6156  0.4627  0.1321
11559TIP3    H156092   1.705   0.436  12.130 -0.5819  0.6664  0.7280
11559TIP3    H256093   1.769   0.299  12.142 -1.0558  0.2217 -1.3242
11560TIP3   OH256094   6.026   2.285   5.985 -0.1389  0.2028 -0.2106
11560TIP3    H156095   6.023   2.215   6.050 -0.2369 -1.8500 -2.2805
11560TIP3    H256096   5.943   2.277   5.938  0.2017  1.1849 -1.0094
11561TIP3   OH256097   5.945   5.444  13.308  0.2569  0.4229 -0.0289
11561TIP3    H156098   6.009   5.373  13.296 -0.7963 -0.4305 -0.8475
11561TIP3    H256099   5.869   5.400  13.346  0.2289  1.4775  1.2253
11562TIP3   OH256100   0.650   0.045   4.067  0.0747  0.2760  0.3312
11562TIP3    H156101   0.568  -0.003   4.057  0.2716  0.1987 -1.2249
11562TIP3    H256102   0.623   0.135   4.085 -0.4321  0.5204 -1.3940
11563TIP3   OH256103   2.770   6.300   4.120 -0.0420 -0.3400 -0.0101
11563TIP3    H156104   2.841   6.353   4.154 -0.7361 -0.9857  2.6468
11563TIP3    H256105   2.752   6.336   4.033  0.7237  2.5282  0.9396
11564TIP3   OH256106   6.665   1.092   2.735 -0.3685 -0.2587 -0.0080
11564TIP3    H156107   6.602   1.121   2.668  1.0700 -0.5952 -1.5801
11564TIP3    H256108   6.722   1.030   2.689  0.0133 -1.3461  1.8477
11565TIP3   OH256109   2.690   2.995   3.553 -0.6313  0.0104  0.1007
11565TIP3    H156110   2.720   2.906   3.575 -3.0580 -1.3439 -1.6297
11565TIP3    H256111   2.609   3.005   3.603 -0.5829  1.1178 -0.0352
11566TIP3   OH256112   3.702   1.439  10.570 -0.2930  0.3396 -0.0720
11566TIP3    H156113   3.621   1.474  10.607 -1.4309 -1.8918 -0.2646
11566TIP3    H256114   3.746   1.515  10.532 -1.9574  1.7306  0.6495
11567TIP3   OH256115   1.575   3.579   4.905 -0.2959  0.3831  0.1518
11567TIP3    H156116   1.635   3.543   4.970  0.6152 -0.0522 -0.8955
11567TIP3    H256117   1.521   3.505   4.878  1.7061 -0.3748 -2.1439
11568TIP3   OH256118   0.593   5.968   1.945  0.5470  0.0224  0.1742
11568TIP3    H156119   0.549   6.034   1.999 -0.4708 -1.4206  1.1944
11568TIP3    H256120   0.653   6.018   1.890  1.1852  1.6310  2.1922
11569TIP3   OH256121   1.066   5.945  13.894 -0.1915 -0.6342  0.0645
11569TIP3    H156122   1.059   6.034  13.858  0.3607 -1.1474 -1.4149
11569TIP3    H256123   1.047   5.888  13.819 -0.4858 -1.7626  0.9792
11570TIP3   OH256124   1.085   5.083  14.116 -0.2049 -0.5341  0.4710
11570TIP3    H156125   1.124   5.070  14.202 -0.3125 -1.6426  0.3621
11570TIP3    H256126   1.155   5.121  14.063 -0.3620  0.9169  1.2267
11571TIP3   OH256127   4.654   2.768   0.595  0.5789 -0.4217 -0.1485
11571TIP3    H156128   4.718   2.698   0.580  1.9621  0.3169  1.8691
11571TIP3    H256129   4.702   2.834   0.644 -1.6901  0.2359  1.3420
11572TIP3   OH256130   4.167   3.536   5.563  0.3476 -0.7303 -0.2830
11572TIP3    H156131   4.184   3.551   5.470  1.7595  0.5013  0.1524
11572TIP3    H256132   4.223   3.462   5.586 -1.1328 -2.0507 -0.7171
11573TIP3   OH256133   0.766   5.229  11.318  0.2546  0.1553  0.4227
11573TIP3    H156134   0.800   5.202  11.232  0.7344  0.9238  0.3666
11573TIP3    H256135   0.696   5.166  11.337  1.8678 -1.6697  0.6578
11574TIP3   OH256136   5.582   3.781   4.782 -0.0559 -0.5117 -0.0981
11574TIP3    H156137   5.525   3.820   4.849  2.9750 -0.7973  2.8719
11574TIP3    H256138   5.589   3.689   4.806 -2.6383 -1.9135 -3.7889
11575TIP3   OH256139   3.639   1.955  15.231  0.3232 -0.2590 -0.3865
11575TIP3    H156140   3.554   1.952  15.188  0.5427  1.8253 -1.0733
11575TIP3    H256141   3.636   2.034  15.285  1.6333 -0.4483  0.0034
11576TIP3   OH256142   0.354   1.951   0.615  0.6666 -0.4219  0.6528
11576TIP3    H156143   0.297   1.951   0.538  1.7652  1.4271 -0.2387
11576TIP3    H256144   0.416   2.022   0.599  2.3754 -1.4649  2.2090
11577TIP3   OH256145   5.550   6.687   2.430 -0.9260  0.1935  0.4673
11577TIP3    H156146   5.638   6.689   2.394 -0.9527  0.7012  0.4114
11577TIP3    H256147   5.559   6.727   2.517 -0.7140 -1.7459  1.3791
11578TIP3   OH256148   3.284   4.386  16.218  0.1289 -0.6121 -0.2477
11578TIP3    H156149   3.377   4.372  16.197  0.5991  0.1092  1.1913
11578TIP3    H256150   3.278   4.479  16.239 -0.5536 -0.9647  1.2854
11579TIP3   OH256151   2.648   5.419   4.726 -0.3772 -0.3205  0.7319
11579TIP3    H156152   2.585   5.488   4.705 -0.0135  0.5447  2.3525
11579TIP3    H256153   2.723   5.465   4.762  1.2304 -1.3390 -1.1376
11580TIP3   OH256154   0.131   2.172   4.751  0.5530  0.2658 -0.2929
11580TIP3    H156155   0.122   2.086   4.708  0.6607 -0.1804  0.5572
11580TIP3    H256156   0.201   2.215   4.703 -0.4961  0.4893 -1.6997
11581TIP3   OH256157   5.846   4.896  11.814 -0.0176  0.0380 -0.3424
11581TIP3    H156158   5.875   4.823  11.759  0.3385  1.2368 -1.7852
11581TIP3    H256159   5.768   4.863  11.857 -0.1079 -1.0611 -1.2870
11582TIP3   OH256160   5.941   0.271  14.749  0.3429 -0.1802 -0.1106
11582TIP3    H156161   5.976   0.195  14.795  0.9451  0.0299 -0.2144
11582TIP3    H256162   5.902   0.235  14.669  0.4182 -0.4040 -0.0458
11583TIP3   OH256163   1.513   4.785   1.088 -0.1248 -0.6748  0.2064
11583TIP3    H156164   1.539   4.697   1.059 -0.6746 -0.5499 -0.6792
11583TIP3    H256165   1.593   4.837   1.077 -0.3261 -0.6251 -1.1205
11584TIP3   OH256166   2.016   5.621   3.462  0.0883  0.3182  0.0562
11584TIP3    H156167   2.017   5.713   3.486 -0.0522  0.9649 -2.1987
11584TIP3    H256168   2.045   5.619   3.371 -0.9353 -1.7648 -0.3001
11585TIP3   OH256169   1.956   5.441   0.255 -0.0448  0.2668 -0.2457
11585TIP3    H156170   2.041   5.405   0.232 -0.2133  0.7386 -1.7064
11585TIP3    H256171   1.915   5.372   0.308  0.7860 -0.4533 -0.5082
11586TIP3   OH256172   6.575   6.711  13.148 -0.2003  0.4741  0.4003
11586TIP3    H156173   6.591   6.799  13.116  0.1875  0.3235  0.1710
11586TIP3    H256174   6.630   6.704  13.227 -1.3827  0.9482  1.2910
11587TIP3   OH256175   3.031   3.364   0.945  0.1810  0.7299  0.3807
11587TIP3    H156176   3.116   3.393   0.977 -0.7974  4.1055  0.3052
11587TIP3    H256177   2.986   3.330   1.023  0.7567  1.1245  0.8886
11588TIP3   OH256178   2.306   4.998  15.272 -0.1102 -0.4917 -0.2600
11588TIP3    H156179   2.241   4.936  15.238 -0.6355 -0.7223  1.0864
11588TIP3    H256180   2.254   5.074  15.300  0.3484 -0.1328 -0.3709
11589TIP3   OH256181   6.664   6.373   5.857  0.3526 -0.5533  0.4223
11589TIP3    H156182   6.691   6.461   5.833  0.2602 -0.4486  0.6982
11589TIP3    H256183   6.684   6.366   5.951  0.6926 -0.9509  0.3249
11590TIP3   OH256184   1.547   6.164   1.181  0.0660  0.4445 -0.5243
11590TIP3    H156185   1.593   6.161   1.264 -1.1861  0.3470  0.1832
11590TIP3    H256186   1.463   6.120   1.197 -0.1014  0.1914 -1.8959
11591TIP3   OH256187   1.157   3.897  13.421  0.1726 -0.8257 -0.3420
11591TIP3    H156188   1.072   3.875  13.382  0.3793 -1.3994 -0.4868
11591TIP3    H256189   1.148   3.870  13.512 -0.5084  1.0459  0.1841
11592TIP3   OH256190   4.197   5.401  16.434  0.0270  0.9042 -0.0506
11592TIP3    H156191   4.138   5.461  16.388 -0.5170 -0.5829 -1.3841
11592TIP3    H256192   4.153   5.316  16.428  2.2547 -0.2487 -1.0251
11593TIP3   OH256193   0.542   5.177   5.401  0.3270 -0.6046  0.7607
11593TIP3    H156194   0.494   5.214   5.327  0.7933  0.0736  0.7853
11593TIP3    H256195   0.480   5.179   5.474 -0.4045 -2.0558  0.1934
11594TIP3   OH256196   6.194   2.191   0.946 -0.4795 -0.5427  0.2384
11594TIP3    H156197   6.131   2.236   0.891 -0.7868  0.8455  1.6694
11594TIP3    H256198   6.262   2.256   0.963 -0.1584 -1.0906  1.1198
11595TIP3   OH256199   2.935   1.289  16.216  0.4258 -0.0044  0.1566
11595TIP3    H156200   2.955   1.195  16.222 -0.7218 -0.3788 -1.3515
11595TIP3    H256201   3.001   1.324  16.156  0.2843 -0.0335 -0.0171
11596TIP3   OH256202   1.322   0.338  14.742  0.5344  0.6173  0.3332
11596TIP3    H156203   1.405   0.385  14.746  1.1570 -0.0954 -2.2436
11596TIP3    H256204   1.259   0.402  14.708  0.4174  0.7028  0.7095
11597TIP3   OH256205   1.865   3.055  13.131 -0.3353 -0.4329 -0.1545
11597TIP3    H156206   1.817   3.093  13.058  0.2604  0.5876 -0.0310
11597TIP3    H256207   1.812   3.077  13.208 -0.3375 -0.4446 -0.1526
11598TIP3   OH256208   3.017   6.679   4.268  0.4488 -0.7856 -0.2474
11598TIP3    H156209   3.049   6.589   4.263 -0.2387 -1.0801  0.4354
11598TIP3    H256210   2.924   6.673   4.246  0.6164 -0.0769 -1.2538
11599TIP3   OH256211   3.185   3.921  11.686 -0.4787  0.5806  0.1652
11599TIP3    H156212   3.172   3.988  11.754  0.4712  2.2741 -1.2364
11599TIP3    H256213   3.110   3.862  11.695 -0.7895  1.2112  2.1386
11600TIP3   OH256214   0.463   0.491  11.095 -0.3360 -0.7080  0.4023
11600TIP3    H156215   0.467   0.472  11.002 -0.3229 -0.2750  0.3143
11600TIP3    H256216   0.497   0.412  11.137 -1.5696 -1.4147  0.0999
11601TIP3   OH256217   4.436   6.173  13.772 -0.5007 -0.4250 -0.2419
11601TIP3    H156218   4.369   6.232  13.738 -1.4876 -2.1143 -1.3142
11601TIP3    H256219   4.425   6.177  13.867 -0.9548  0.6297 -0.3242
11602TIP3   OH256220   5.444   0.770  14.466 -0.0230  0.3891  0.4565
11602TIP3    H156221   5.503   0.711  14.513  0.6807 -0.0653 -0.9268
11602TIP3    H256222   5.500   0.843  14.439 -0.3972  0.6085  0.2634
11603TIP3   OH256223   4.101   6.772   0.523 -0.0273  0.0885  0.7714
11603TIP3    H156224   4.006   6.775   0.512  0.2490 -1.0443 -3.5109
11603TIP3    H256225   4.133   6.852   0.480  1.0181 -0.2833  0.8201
11604TIP3   OH256226   4.213   1.012   5.465  0.3621 -0.5106  0.2593
11604TIP3    H156227   4.152   1.038   5.534 -0.2231 -2.2322  0.4522
11604TIP3    H256228   4.214   0.916   5.469 -0.0416 -0.7116 -2.3978
11605TIP3   OH256229   5.346   1.379   2.900 -0.8041  0.3075  0.0080
11605TIP3    H156230   5.364   1.332   2.981 -1.1907  1.1345  0.5827
11605TIP3    H256231   5.292   1.320   2.849 -0.8050 -0.1037  0.4802
11606TIP3   OH256232   3.145   6.109   5.863  0.3988 -0.2658  0.1690
11606TIP3    H156233   3.203   6.054   5.811 -2.0025 -0.8183 -2.1417
11606TIP3    H256234   3.068   6.122   5.807 -2.0404 -0.2020  3.2567
11607TIP3   OH256235   6.567   1.550   3.323 -0.1336 -0.5648  0.4228
11607TIP3    H156236   6.629   1.612   3.284 -1.8200  0.3615 -0.9283
11607TIP3    H256237   6.510   1.605   3.378 -1.4933 -0.8917 -0.5908
11608TIP3   OH256238   4.109   5.083   2.492  0.1290  0.0995 -0.6276
11608TIP3    H156239   4.079   5.117   2.407  1.6881 -0.5424 -1.4898
11608TIP3    H256240   4.098   4.989   2.486  2.3030 -0.1953 -1.0647
11609TIP3   OH256241   4.180   1.486  12.139 -0.3838 -0.1290  0.3435
11609TIP3    H156242   4.093   1.518  12.115 -0.6017  0.7471  2.1813
11609TIP3    H256243   4.170   1.454  12.228  0.4457 -3.0648 -0.4955
11610TIP3   OH256244   3.962   1.031   4.084  0.2657  0.0760 -0.3843
11610TIP3    H156245   3.989   0.946   4.120 -0.5659 -0.0052  0.0715
11610TIP3    H256246   4.026   1.049   4.015  0.5928 -0.8075 -0.3285
11611TIP3   OH256247   1.857   3.103   5.714 -0.5165  0.4767  0.0334
11611TIP3    H156248   1.927   3.101   5.779 -1.5874 -1.6500  1.2601
11611TIP3    H256249   1.848   3.012   5.686 -0.3453  1.2714 -2.8995
11612TIP3   OH256250   2.974   1.520   6.068 -0.0094  0.0826  0.3325
11612TIP3    H156251   3.004   1.604   6.103 -1.8505  0.5185  0.9698
11612TIP3    H256252   2.943   1.471   6.144 -4.0299  1.0281 -0.4403
11613TIP3   OH256253   2.338   3.536   4.477 -0.3006 -0.2437  0.3365
11613TIP3    H156254   2.333   3.458   4.422 -0.4205 -1.5453  2.0901
11613TIP3    H256255   2.431   3.545   4.497 -0.3436 -0.2369  0.5380
11614TIP3   OH256256   3.408   0.697   2.394  0.0346 -0.4561 -0.6179
11614TIP3    H156257   3.425   0.675   2.302  1.8262 -0.1070 -0.4131
11614TIP3    H256258   3.492   0.682   2.438 -0.3919  0.7872  0.6918
11615TIP3   OH256259   1.905   1.052   6.038  0.2122 -0.0701  0.3622
11615TIP3    H156260   1.843   1.100   5.982 -0.7390 -0.3977  1.1119
11615TIP3    H256261   1.901   1.097   6.122 -1.3539 -1.9115  1.3594
11616TIP3   OH256262   1.892   1.150  12.654 -0.2635  0.7479  0.3531
11616TIP3    H156263   1.838   1.087  12.701  0.3950  2.2954  3.5005
11616TIP3    H256264   1.837   1.227  12.643 -0.5221  0.3091 -1.9237
11617TIP3   OH256265   0.474   6.531  12.938 -0.3843  0.0636  0.0658
11617TIP3    H156266   0.548   6.584  12.966 -1.2987  1.5699 -0.2509
11617TIP3    H256267   0.408   6.543  13.006 -1.9883  2.4119 -1.7438
11618TIP3   OH256268   2.357   3.211  15.799  0.4008 -1.2777  0.4039
11618TIP3    H156269   2.443   3.254  15.798 -0.2075 -0.0038  0.6485
11618TIP3    H256270   2.370   3.133  15.852  1.2781 -0.7953  0.9321
11619TIP3   OH256271   4.290   2.817   5.017  0.2290 -0.0324  0.2872
11619TIP3    H156272   4.318   2.738   5.062 -0.6006 -1.1565 -1.0704
11619TIP3    H256273   4.195   2.819   5.028  0.1836  0.4689 -0.1570
11620TIP3   OH256274   3.894   4.888   1.893  0.1199  0.2763  0.2950
11620TIP3    H156275   3.876   4.968   1.844 -1.9060 -1.5582 -2.2295
11620TIP3    H256276   3.859   4.905   1.981 -0.0796  2.2086 -0.1145
11621TIP3   OH256277   2.637   2.422   0.805  0.1518 -0.1781 -0.4242
11621TIP3    H156278   2.583   2.422   0.885  0.0817 -2.2620 -0.3972
11621TIP3    H256279   2.726   2.433   0.837  0.1101 -0.8593 -0.0316
11622TIP3   OH256280   5.590   3.167  12.308 -0.4523  0.4561  0.3974
11622TIP3    H156281   5.547   3.241  12.265  0.2766 -0.4572 -2.0961
11622TIP3    H256282   5.528   3.095  12.299  0.0845  0.0291  0.0837
11623TIP3   OH256283   0.354   2.156  14.806 -0.1275  0.1598  0.1988
11623TIP3    H156284   0.427   2.214  14.784 -0.8454  1.1316  0.3289
11623TIP3    H256285   0.278   2.194  14.762 -0.9363  0.2744  1.6242
11624TIP3   OH256286   0.954   3.379   1.690 -0.2737  0.3060  0.0443
11624TIP3    H156287   0.968   3.469   1.661  1.0622  0.0105 -0.3110
11624TIP3    H256288   1.021   3.365   1.757 -0.4881 -0.4143  0.1165
11625TIP3   OH256289   5.652   4.599   5.850 -0.1252 -0.0205 -0.1249
11625TIP3    H156290   5.586   4.640   5.907 -1.2328 -1.3549 -0.3822
11625TIP3    H256291   5.711   4.670   5.826 -0.8575  0.9988  0.9893
11626TIP3   OH256292   3.157   1.561  16.800  0.0615 -0.1965  0.1268
11626TIP3    H156293   3.176   1.628  16.865 -2.2832 -0.0653  0.7617
11626TIP3    H256294   3.112   1.492  16.849 -1.7139 -0.1209 -1.3033
11627TIP3   OH256295   5.373   1.294  14.505 -0.4423  0.4670 -0.1242
11627TIP3    H156296   5.358   1.266  14.415  0.4051  0.5946 -0.3123
11627TIP3    H256297   5.292   1.274  14.550 -0.1553 -1.5995 -0.4335
11628TIP3   OH256298   1.694   1.350   0.964 -0.4673  0.2407 -0.5588
11628TIP3    H156299   1.718   1.338   0.872 -0.0888  0.7685 -0.5330
11628TIP3    H256300   1.769   1.317   1.013 -0.8503 -0.4489 -0.4250
11629TIP3   OH256301   4.119   0.947   1.102 -0.1383 -0.1061  0.0553
11629TIP3    H156302   4.110   0.853   1.088 -0.2659 -0.0384 -0.3318
11629TIP3    H256303   4.028   0.979   1.104 -0.1106 -0.0667  0.7086
11630TIP3   OH256304   4.464   1.296  11.393 -0.6009 -0.5625  0.3252
11630TIP3    H156305   4.380   1.281  11.351 -0.8162 -0.0735  0.5791
11630TIP3    H256306   4.517   1.220  11.369 -1.2138 -1.0234  0.4283
11631TIP3   OH256307   4.451   1.569  11.068 -0.0583 -0.3757 -0.2356
11631TIP3    H156308   4.359   1.582  11.086  0.2396  1.4707  0.1240
11631TIP3    H256309   4.457   1.565  10.972 -0.7052 -2.4991 -0.2377
11632TIP3   OH256310   0.704   4.358  16.941  0.6225  0.0263  0.1470
11632TIP3    H156311   0.622   4.347  16.989  1.0064  0.4310  0.9253
11632TIP3    H256312   0.730   4.269  16.917 -0.1487 -0.0818 -0.2892
11633TIP3   OH256313   4.731   0.541  16.888  0.1937 -0.1645  0.9304
11633TIP3    H156314   4.763   0.631  16.874  0.0539 -0.1670  0.5786
11633TIP3    H256315   4.776   0.512  16.968  1.1114 -0.1838  0.4273
11634TIP3   OH256316   0.526   6.745   3.682 -0.1297  0.1006  0.2982
11634TIP3    H156317   0.506   6.838   3.671 -0.7496 -0.2011 -1.4486
11634TIP3    H256318   0.619   6.737   3.664  0.1794  0.5425  1.6473
11635TIP3   OH256319   1.529   3.195  12.089  0.0096  0.1287 -0.3779
11635TIP3    H156320   1.582   3.238  12.021  0.6286 -1.0811 -0.6872
11635TIP3    H256321   1.587   3.190  12.165  0.4100 -1.3310 -0.7626
11636TIP3   OH256322   5.849   6.753  14.343 -0.1049 -0.1698 -0.0213
11636TIP3    H156323   5.759   6.767  14.315 -0.3201 -0.3485  0.5553
11636TIP3    H256324   5.850   6.663  14.375 -0.1530  0.3370  1.5240
11637TIP3   OH256325   1.248   5.455   6.342 -0.0276 -0.3442  0.3295
11637TIP3    H156326   1.194   5.394   6.391  1.7343 -1.6311  0.7985
11637TIP3    H256327   1.192   5.488   6.272 -1.6153 -0.9686  1.2748
11638TIP3   OH256328   5.452   3.260   1.998  0.0917  0.6383  0.1067
11638TIP3    H156329   5.371   3.277   2.046 -0.0054 -0.7271  0.4396
11638TIP3    H256330   5.445   3.316   1.920 -0.5639  1.5089  0.7721
11639TIP3   OH256331   2.622   1.584  13.315 -0.0135 -0.0516  0.1183
11639TIP3    H156332   2.544   1.533  13.296 -0.3497  0.1520  0.8971
11639TIP3    H256333   2.662   1.540  13.390  0.4750  0.0028 -0.1063
11640TIP3   OH256334   0.902   3.800   1.927 -0.6187 -0.0066  0.5029
11640TIP3    H156335   0.958   3.840   1.993  0.8781 -0.9138 -0.1718
11640TIP3    H256336   0.816   3.793   1.969  0.3695 -0.8784  2.4686
11641TIP3   OH256337   1.710   0.953  12.770 -0.4984 -0.4765  0.4594
11641TIP3    H156338   1.659   0.904  12.705  0.0515 -1.5670  0.8342
11641TIP3    H256339   1.644   0.992  12.827 -0.9399 -1.3776  0.5813
11642TIP3   OH256340   0.885   1.808  12.823  0.2409  0.3988  0.5681
11642TIP3    H156341   0.910   1.808  12.730  0.8429 -0.5586  0.7210
11642TIP3    H256342   0.899   1.718  12.852 -3.5246 -0.3218  0.6740
11643TIP3   OH256343   4.629   3.691   0.511  0.3507  0.0357  0.1910
11643TIP3    H156344   4.702   3.730   0.558  1.0829 -1.4468  0.3549
11643TIP3    H256345   4.575   3.651   0.580  0.6494 -0.8742 -0.0826
11644TIP3   OH256346   1.083   2.313   1.087 -0.1947 -0.0260 -0.2854
11644TIP3    H156347   1.135   2.386   1.119 -0.4192 -0.1940  0.4833
11644TIP3    H256348   1.126   2.287   1.006  0.6426  0.1366  0.0959
11645TIP3   OH256349   5.332   3.150   0.306 -0.2613 -0.4322 -0.5084
11645TIP3    H156350   5.388   3.213   0.261 -2.4234  1.7605 -0.3619
11645TIP3    H256351   5.247   3.193   0.310 -0.9319 -1.7698  3.0274
11646TIP3   OH256352   5.201   1.822  12.590 -0.6317  0.3929  0.1001
11646TIP3    H156353   5.174   1.862  12.508 -0.7556  0.7983  0.3369
11646TIP3    H256354   5.165   1.733  12.586 -0.6748  0.4254 -0.2645
11647TIP3   OH256355   2.427   2.260  11.933 -0.2171  0.4464  0.0003
11647TIP3    H156356   2.391   2.174  11.912 -0.1113  0.3780  0.0945
11647TIP3    H256357   2.351   2.315  11.951 -0.3446  0.6576 -1.1168
11648TIP3   OH256358   1.510   5.916   2.313 -0.4339  1.0564  0.7742
11648TIP3    H156359   1.557   5.835   2.332 -1.3107  0.4822  0.5543
11648TIP3    H256360   1.559   5.983   2.360  1.1517  0.6373 -0.2212
11649TIP3   OH256361   6.637   3.662  11.073  0.0325 -0.5589  0.2171
11649TIP3    H156362   6.652   3.709  11.155  1.9043 -0.6820 -0.0025
11649TIP3    H256363   6.572   3.595  11.095  0.5825 -0.6642  1.6396
11650TIP3   OH256364   0.339   5.919  14.011 -0.1894 -0.0602 -0.4836
11650TIP3    H156365   0.313   6.005  14.045  0.2826 -0.1477  0.1266
11650TIP3    H256366   0.424   5.935  13.970  0.7373 -0.5324  1.1367
11651TIP3   OH256367   0.820   0.955   0.173  0.6165  0.3424 -0.1175
11651TIP3    H156368   0.905   0.968   0.131  0.7950  0.6897  0.3378
11651TIP3    H256369   0.840   0.943   0.265  0.2500 -0.7048 -0.1598
11652TIP3   OH256370   1.212   1.192   0.431 -0.2314 -0.1742  0.0252
11652TIP3    H156371   1.152   1.179   0.358  0.0628 -0.2763 -0.2003
11652TIP3    H256372   1.155   1.194   0.509 -0.5397 -0.1043 -0.1995
11653TIP3   OH256373   4.993   4.090   3.860 -0.1388 -0.1861 -0.9833
11653TIP3    H156374   4.908   4.068   3.897  0.0101 -1.0622 -1.1463
11653TIP3    H256375   4.980   4.087   3.765  1.3141 -6.1934 -1.3944
11654TIP3   OH256376   2.180   0.534  10.956 -0.0414 -0.2316  0.0692
11654TIP3    H156377   2.170   0.612  11.011  2.0153  0.0860  0.0709
11654TIP3    H256378   2.126   0.552  10.880 -1.9127 -0.1057  1.3576
11655TIP3   OH256379   3.057   3.869  13.128 -0.0740 -0.2152  0.3323
11655TIP3    H156380   3.010   3.852  13.210 -1.2194 -2.6904 -0.7273
11655TIP3    H256381   3.000   3.831  13.060  1.6252  0.2483 -1.4295
11656TIP3   OH256382   0.268   1.306  15.616 -0.0846 -0.3977  1.1232
11656TIP3    H156383   0.255   1.399  15.593 -0.6823 -0.3637  1.5622
11656TIP3    H256384   0.299   1.308  15.707  2.6050 -0.5128  0.2958
11657TIP3   OH256385   0.711   5.814  13.229  0.5957 -0.3352 -0.0989
11657TIP3    H156386   0.799   5.812  13.266  0.5655  2.8547  0.4290
11657TIP3    H256387   0.724   5.797  13.136  1.5346 -1.4915  0.2122
11658TIP3   OH256388   4.506   6.704   0.687 -0.0804  0.5321  0.4672
11658TIP3    H156389   4.547   6.734   0.768 -0.1946 -1.8905  1.4823
11658TIP3    H256390   4.579   6.697   0.625  0.1288  1.6292  0.5732
11659TIP3   OH256391   1.461   0.911  15.339  0.3957 -0.1232  0.5211
11659TIP3    H156392   1.505   0.996  15.345  1.7939 -0.7664 -0.1129
11659TIP3    H256393   1.371   0.929  15.365  0.4352  1.7318 -0.4114
11660TIP3   OH256394   1.121   2.241   0.601 -0.3645  0.2871 -0.1770
11660TIP3    H156395   1.114   2.179   0.673  0.8864  0.0817 -0.2064
11660TIP3    H256396   1.118   2.188   0.522 -1.8463  0.5219 -0.3166
11661TIP3   OH256397   4.459   0.912   2.845 -1.0423 -0.0716  0.1783
11661TIP3    H156398   4.510   0.832   2.854  2.6275  1.8430 -1.5844
11661TIP3    H256399   4.411   0.900   2.763 -0.5503 -0.4761 -0.0547
11662TIP3   OH256400   0.238   6.434   3.893  0.6953 -0.3400  0.4345
11662TIP3    H156401   0.318   6.437   3.842  0.9658  0.4003  0.8873
11662TIP3    H256402   0.264   6.458   3.982 -0.2071  1.1268  0.3389
11663TIP3   OH256403   5.448   3.928   0.400  0.5459 -0.2636  0.3544
11663TIP3    H156404   5.396   3.848   0.392  1.2783 -0.7606  0.4408
11663TIP3    H256405   5.496   3.917   0.483  0.4351  0.3936  0.5098
11664TIP3   OH256406   4.045   0.091  10.707 -0.8044 -0.1184 -0.0299
11664TIP3    H156407   3.988   0.039  10.764 -1.4030  0.7657  0.1799
11664TIP3    H256408   4.134   0.067  10.735 -1.0852 -0.2994  0.7297
11665TIP3   OH256409   3.101   5.172   2.722  0.8591  0.6629 -0.7126
11665TIP3    H156410   3.049   5.206   2.795 -0.2578  1.4962 -1.8651
11665TIP3    H256411   3.091   5.237   2.653 -0.1875 -1.2929 -2.5093
11666TIP3   OH256412   6.525   4.157   1.013  0.0130  0.1658 -0.2938
11666TIP3    H156413   6.452   4.154   0.952  0.0554  0.0197 -0.3363
11666TIP3    H256414   6.587   4.219   0.973 -1.7247  3.3466  1.5397
11667TIP3   OH256415   1.013   4.062   4.063  0.1838 -0.5446 -1.1888
11667TIP3    H156416   0.926   4.099   4.077 -0.0486 -0.2776 -3.1171
11667TIP3    H256417   1.008   3.974   4.098 -0.5906 -0.2363 -0.5008
11668TIP3   OH256418   6.260   6.743  15.096  0.3746  0.5026 -0.4827
11668TIP3    H156419   6.231   6.724  15.185  1.7287 -2.0141 -0.4895
11668TIP3    H256420   6.295   6.832  15.101  0.1727  0.5268  1.4167
11669TIP3   OH256421   5.100   2.804   3.816 -0.3169  0.0456 -0.0798
11669TIP3    H156422   5.194   2.818   3.807 -0.2276 -1.0885 -1.3742
11669TIP3    H256423   5.085   2.797   3.910  0.8409  0.5509  0.1532
11670TIP3   OH256424   0.947   5.763  14.999 -0.2548 -0.4879  0.1557
11670TIP3    H156425   0.984   5.676  15.011 -1.6113 -0.9264  1.4159
11670TIP3    H256426   0.878   5.750  14.933 -0.6104 -0.4363  0.5103
11671TIP3   OH256427   4.722   0.624   1.502 -0.0344 -0.0933  0.1397
11671TIP3    H156428   4.739   0.559   1.570  0.8299  0.6877  0.6913
11671TIP3    H256429   4.718   0.708   1.549 -1.1327  0.2697 -0.5527
11672TIP3   OH256430   3.326   3.277  14.492 -0.3138  0.0659  0.3920
11672TIP3    H156431   3.294   3.194  14.528 -0.9926 -0.2017 -0.7612
11672TIP3    H256432   3.273   3.290  14.413  1.0326  0.6859 -0.4334
11673TIP3   OH256433   1.756   4.403   1.432 -0.0591 -0.2748 -0.0300
11673TIP3    H156434   1.837   4.366   1.467  0.1402  2.4732  2.8549
11673TIP3    H256435   1.784   4.471   1.372 -0.1907  0.3934  0.6482
11674TIP3   OH256436   2.403   4.663  15.852  0.1434  0.1572 -0.3999
11674TIP3    H156437   2.393   4.635  15.761 -0.1986  1.4698 -0.7816
11674TIP3    H256438   2.474   4.727  15.850  0.3763 -0.0699  0.3183
11675TIP3   OH256439   4.892   4.696  14.526 -0.3641  0.1676 -0.3224
11675TIP3    H156440   4.930   4.747  14.598 -0.7685 -0.2086  0.1633
11675TIP3    H256441   4.965   4.641  14.495 -0.3588 -0.1358  0.2258
11676TIP3   OH256442   1.695   2.674   3.770  0.1639  0.1990  0.5168
11676TIP3    H156443   1.787   2.700   3.770  0.2363 -0.0300 -0.0762
11676TIP3    H256444   1.697   2.580   3.748 -0.2913  0.5752 -1.3435
11677TIP3   OH256445   0.264   4.789  12.175 -0.0882  0.2515 -0.0723
11677TIP3    H156446   0.179   4.817  12.140  0.6178  0.5496 -1.5967
11677TIP3    H256447   0.322   4.863  12.161  0.2703  0.3420  1.6769
11678TIP3   OH256448   4.568   4.723   5.601 -0.4681  0.2040  0.1150
11678TIP3    H156449   4.663   4.710   5.611  0.0075  2.5005 -0.7401
11678TIP3    H256450   4.560   4.773   5.520 -2.6083 -1.5116 -0.8138
11679TIP3   OH256451   4.571   6.397   0.585 -0.5055 -0.2243  0.4736
11679TIP3    H156452   4.605   6.308   0.575  1.4197  0.4594  0.4266
11679TIP3    H256453   4.628   6.450   0.529  0.0782  1.4110  2.5078
11680TIP3   OH256454   2.803   5.870  11.964 -0.1834  0.4740 -0.7140
11680TIP3    H156455   2.847   5.785  11.965 -2.1283 -0.6304 -2.4384
11680TIP3    H256456   2.718   5.853  12.005 -0.0911  1.9402  0.1564
11681TIP3   OH256457   6.424   2.286  12.557 -0.3265  0.1877 -0.0331
11681TIP3    H156458   6.497   2.245  12.604  0.8918  0.0208 -1.9517
11681TIP3    H256459   6.458   2.300  12.469 -2.4879  0.5553 -0.8562
11682TIP3   OH256460   2.298   6.702   1.915  0.6952 -0.6941 -0.0584
11682TIP3    H156461   2.343   6.695   1.831 -0.7104  0.1526 -0.9113
11682TIP3    H256462   2.368   6.718   1.978  1.5410  2.2620 -1.5652
11683TIP3   OH256463   5.936   0.693   5.126 -0.0784 -0.0094  0.1338
11683TIP3    H156464   5.880   0.758   5.083  0.1251 -0.0686 -0.2247
11683TIP3    H256465   5.881   0.658   5.197  0.1424  1.2186  0.9327
11684TIP3   OH256466   4.646   2.141  14.715 -0.3505  0.3657  0.3214
11684TIP3    H156467   4.607   2.067  14.668  1.4217  0.9169 -2.2287
11684TIP3    H256468   4.591   2.216  14.692  0.1030  0.5088 -0.3147
11685TIP3   OH256469   5.456   6.753   2.131  0.1708 -0.0308 -0.2913
11685TIP3    H156470   5.466   6.659   2.139 -0.5961 -0.2940 -1.9717
11685TIP3    H256471   5.409   6.780   2.210 -0.4111 -1.1961 -0.2320
11686TIP3   OH256472   4.643   5.786  11.755  0.1016  0.4634  0.1157
11686TIP3    H156473   4.601   5.843  11.819 -0.3247  2.0020 -1.4414
11686TIP3    H256474   4.574   5.767  11.692  0.4899 -1.0577  0.1216
11687TIP3   OH256475   5.915   6.031  12.441  0.1927 -0.0996 -0.1868
11687TIP3    H156476   5.829   5.998  12.415 -0.4647  0.5385  1.0609
11687TIP3    H256477   5.895   6.111  12.490  1.5959  0.8756 -1.1438
11688TIP3   OH256478   1.203   1.203   1.844 -0.2372  0.6404 -0.3168
11688TIP3    H156479   1.112   1.233   1.852  0.0819  1.4202  0.4688
11688TIP3    H256480   1.223   1.212   1.750 -0.5611  1.6716 -0.2974
11689TIP3   OH256481   4.204   1.084   3.914 -0.6711 -0.5885  0.3673
11689TIP3    H156482   4.236   0.995   3.932 -0.2079 -0.3165  0.9243
11689TIP3    H256483   4.276   1.127   3.868 -1.2229 -0.7613 -0.6850
11690TIP3   OH256484   4.772   2.200  14.960 -0.3085 -0.2736  0.5349
11690TIP3    H156485   4.798   2.292  14.955  0.7745 -0.5935  0.1203
11690TIP3    H256486   4.719   2.186  14.882 -0.8868  0.1108  0.8484
11691TIP3   OH256487   2.133   0.109   4.986  0.4145 -0.2172  0.1806
11691TIP3    H156488   2.059   0.123   4.926  1.1600 -0.6254 -0.8567
11691TIP3    H256489   2.133   0.015   5.002  1.3398 -0.3811 -0.6813
11692TIP3   OH256490   3.241   4.871   2.675 -0.5892  0.7040 -0.0858
11692TIP3    H156491   3.167   4.864   2.614  0.6018 -1.8469 -1.4313
11692TIP3    H256492   3.201   4.865   2.762 -2.0380  0.1776 -0.7477
11693TIP3   OH256493   1.847   2.767  15.827 -0.2593  0.3227  0.1217
11693TIP3    H156494   1.898   2.702  15.874  0.0992 -0.1769 -0.9142
11693TIP3    H256495   1.878   2.852  15.860 -0.9386 -0.0093  1.6971
11694TIP3   OH256496   3.669   4.907  11.997 -0.9345  0.4096  0.6652
11694TIP3    H156497   3.592   4.934  12.048 -0.7756 -1.1095  1.7746
11694TIP3    H256498   3.732   4.878  12.063  0.8222  2.1144 -0.2070
11695TIP3   OH256499   1.230   5.533  17.070  0.0258  0.2022 -0.3293
11695TIP3    H156500   1.156   5.571  17.119 -0.4303 -0.7934 -0.2325
11695TIP3    H256501   1.198   5.448  17.041  1.0525 -0.1202 -0.5265
11696TIP3   OH256502   6.493   5.232  14.184  0.6843  0.2107 -0.2560
11696TIP3    H156503   6.538   5.258  14.104 -0.9710  0.6301 -1.0955
11696TIP3    H256504   6.453   5.313  14.216  0.0158 -0.2545  0.1048
11697TIP3   OH256505   2.364   6.281   3.985 -0.1792  0.1396  0.1310
11697TIP3    H156506   2.434   6.313   3.929 -0.6214  2.0690  0.6130
11697TIP3    H256507   2.373   6.330   4.066 -1.4050 -0.3827  0.6169
11698TIP3   OH256508   2.068   4.729  11.041 -0.6685 -0.1513 -0.2448
11698TIP3    H156509   2.128   4.678  11.096 -0.3627 -0.5233 -0.9133
11698TIP3    H256510   2.106   4.724  10.954 -1.2125  0.3421 -0.5152
11699TIP3   OH256511   1.274   1.691  12.418 -0.1031  0.0373  0.1787
11699TIP3    H156512   1.182   1.712  12.402 -0.4022  0.8887  2.5529
11699TIP3    H256513   1.319   1.775  12.412  0.6440 -0.4380 -1.4246
11700TIP3   OH256514   5.688   3.478  12.971 -0.2778 -0.5226 -0.1767
11700TIP3    H156515   5.619   3.412  12.969  0.7190 -1.5789 -0.3318
11700TIP3    H256516   5.721   3.475  13.061 -0.6272  0.2195 -0.0078
11701TIP3   OH256517   4.141   0.699  14.893  0.1824 -0.0762  0.7063
11701TIP3    H156518   4.203   0.771  14.881 -1.0291  1.1477  1.4273
11701TIP3    H256519   4.083   0.704  14.817  0.5911 -0.8472  0.3299
11702TIP3   OH256520   0.913   1.283  15.919 -0.4435  0.0770 -0.4207
11702TIP3    H156521   0.832   1.328  15.894 -0.5483  0.5911  0.7696
11702TIP3    H256522   0.951   1.338  15.987  0.9626 -0.1232 -1.0089
11703TIP3   OH256523   5.173   2.304  11.144 -0.0587  0.4952 -0.2131
11703TIP3    H156524   5.260   2.275  11.170 -0.2363 -0.1349 -0.3055
11703TIP3    H256525   5.172   2.397  11.164  0.4667  0.4072  0.2426
11704TIP3   OH256526   3.004   6.047   6.362  0.1814 -0.2466  0.4198
11704TIP3    H156527   2.989   6.129   6.409  1.5804  0.4782 -0.3436
11704TIP3    H256528   2.921   6.030   6.317 -0.5037  0.1162  1.5072
11705TIP3   OH256529   2.671   5.129   4.109  0.2170 -0.0921  0.4186
11705TIP3    H156530   2.644   5.051   4.062  0.0731 -0.9427  1.8546
11705TIP3    H256531   2.600   5.192   4.094  0.6209  0.0156 -1.2435
11706TIP3   OH256532   0.027   1.604  15.895  0.1372  0.5284 -0.0672
11706TIP3    H156533  -0.002   1.651  15.817 -0.4241  0.6535  0.2075
11706TIP3    H256534  -0.018   1.519  15.890  0.5467  0.3163 -0.1706
11707TIP3   OH256535   4.393   3.087  14.801  0.2280 -0.5208  0.2813
11707TIP3    H156536   4.325   3.089  14.734  0.4843 -2.9564 -0.1214
11707TIP3    H256537   4.475   3.079  14.752  0.7243  0.8638  0.8188
11708TIP3   OH256538   3.253   6.042  13.035  0.5549  0.0252 -0.3025
11708TIP3    H156539   3.229   5.956  13.069 -1.3498 -0.0798 -1.7125
11708TIP3    H256540   3.349   6.044  13.040  0.9819 -3.4625 -3.0096
11709TIP3   OH256541   5.150   0.145   3.614  0.0113 -0.1970 -0.0221
11709TIP3    H156542   5.175   0.232   3.582 -0.5002 -0.2666 -0.6357
11709TIP3    H256543   5.061   0.133   3.582  0.3666 -1.2819 -0.6588
11710TIP3   OH256544   4.639   3.127  11.526 -0.0463  0.0057  0.0979
11710TIP3    H156545   4.584   3.114  11.449  1.3364 -0.5863 -0.8340
11710TIP3    H256546   4.675   3.215  11.515  1.6441 -0.7697 -0.9779
11711TIP3   OH256547   2.646   3.903   0.511 -0.2362  0.2123 -0.9843
11711TIP3    H156548   2.613   3.977   0.562 -1.7980 -0.1943 -1.3595
11711TIP3    H256549   2.740   3.902   0.528 -0.2824  1.9037 -0.4862
11712TIP3   OH256550   5.991   2.322  16.493  0.5582  0.1070  0.0876
11712TIP3    H156551   6.008   2.323  16.587 -0.3965 -1.5755  0.3154
11712TIP3    H256552   5.900   2.293  16.486  0.9397 -0.7990 -1.3909
11713TIP3   OH256553   0.123   2.410  11.738 -0.4580  0.0562  0.4123
11713TIP3    H156554   0.039   2.456  11.728  0.5159  1.7010 -0.6032
11713TIP3    H256555   0.173   2.465  11.797  1.1190  0.9557 -1.6370
11714TIP3   OH256556   0.405   1.163  11.428 -0.0937  0.7673  0.3587
11714TIP3    H156557   0.371   1.193  11.512  2.0042  2.1048  0.8075
11714TIP3    H256558   0.497   1.190  11.429  0.2744 -0.2402 -1.8823
11715TIP3   OH256559   0.924   4.257  14.698  0.0696  0.5584  0.2794
11715TIP3    H156560   0.857   4.275  14.763  0.3715  0.2666  0.6765
11715TIP3    H256561   0.903   4.169  14.666  0.5455  0.2663  0.7598
11716TIP3   OH256562   4.381   0.137   2.057  0.0446  0.2906  0.1184
11716TIP3    H156563   4.394   0.163   2.148  0.7456  0.2381  0.0348
11716TIP3    H256564   4.292   0.103   2.054  0.6334 -1.4232  1.1862
11717TIP3   OH256565   2.490   1.189   0.425  0.0001 -0.0546 -0.2043
11717TIP3    H156566   2.572   1.176   0.377  0.2162  0.5268  0.0050
11717TIP3    H256567   2.516   1.192   0.517 -0.5139 -2.0553  0.0555
11718TIP3   OH256568   0.193   3.456  11.785  0.1065  0.2062 -0.8247
11718TIP3    H156569   0.252   3.390  11.821  2.0969  1.8683 -0.8733
11718TIP3    H256570   0.152   3.413  11.710 -0.3224 -1.6516  0.3979
11719TIP3   OH256571   1.484   0.346   4.489 -0.0597  0.2015  0.6229
11719TIP3    H156572   1.393   0.342   4.519 -1.0149  3.8919 -1.2144
11719TIP3    H256573   1.480   0.330   4.395  1.3761 -0.5850  0.6573
11720TIP3   OH256574   6.508   3.239   4.503 -0.6884  0.8519  0.5210
11720TIP3    H156575   6.447   3.226   4.430  1.3585  0.0485 -1.1531
11720TIP3    H256576   6.491   3.164   4.561 -0.2973 -0.2263 -0.7016
11721TIP3   OH256577   3.996   0.744  14.308  0.0386  0.2152  0.6126
11721TIP3    H156578   3.960   0.731  14.220  1.8011 -1.0252  0.0153
11721TIP3    H256579   4.084   0.707  14.303  0.7049  1.4024  2.5219
11722TIP3   OH256580   3.313   3.813   5.105 -0.2352 -0.1306  0.3710
11722TIP3    H156581   3.400   3.817   5.144  0.0533  0.9982 -0.3473
11722TIP3    H256582   3.276   3.732   5.139  1.1755 -0.7495  0.5223
11723TIP3   OH256583   4.942   1.532   4.739 -0.0155  0.0293 -0.5139
11723TIP3    H156584   5.029   1.535   4.779  0.5309  0.0967 -1.6474
11723TIP3    H256585   4.948   1.462   4.674 -1.1120 -0.5924  0.0316
11724TIP3   OH256586   0.672   0.312  11.364 -0.3239 -0.3351 -0.1511
11724TIP3    H156587   0.736   0.332  11.296  0.9488 -1.6627  0.5791
11724TIP3    H256588   0.615   0.245  11.325  0.1749 -0.8271 -0.0420
11725TIP3   OH256589   3.871   0.274  10.592  0.6794  0.0214  0.1670
11725TIP3    H156590   3.821   0.284  10.673 -0.4279 -3.5458  0.1181
11725TIP3    H256591   3.945   0.218  10.617  0.8332 -0.3599 -1.0740
11726TIP3   OH256592   6.389   5.835  15.059 -0.3206  0.4687  0.3280
11726TIP3    H156593   6.431   5.785  14.990 -0.6900  0.6939 -0.0632
11726TIP3    H256594   6.459   5.891  15.093 -0.4432  1.3178 -0.7622
11727TIP3   OH256595   4.496   5.630  12.409  0.3632  0.3632 -0.2621
11727TIP3    H156596   4.536   5.572  12.474  0.0620  0.1302 -0.2772
11727TIP3    H256597   4.412   5.588  12.389  1.3650 -0.7602 -2.4232
11728TIP3   OH256598   0.324   6.651  14.130  0.5440 -0.3710  0.7310
11728TIP3    H156599   0.341   6.741  14.157  0.4627 -0.1745  0.1494
11728TIP3    H256600   0.406   6.622  14.091  0.4854 -0.4585  0.6733
11729TIP3   OH256601   5.688   2.773  12.487 -0.6050 -0.7251  0.4486
11729TIP3    H156602   5.647   2.746  12.569 -0.2773  0.5975  1.0773
11729TIP3    H256603   5.771   2.813  12.513 -0.3592 -0.5443 -0.5483
11730TIP3   OH256604   1.201   6.136  14.159  0.0696  0.2982  0.1769
11730TIP3    H156605   1.194   6.121  14.065  1.4840 -0.6569  0.1830
11730TIP3    H256606   1.130   6.085  14.198 -1.1935  1.5613 -0.4175
11731TIP3   OH256607   3.884   3.451   3.751 -0.3640  0.1304 -0.4514
11731TIP3    H156608   3.794   3.419   3.754  0.1114 -1.3281 -1.0381
11731TIP3    H256609   3.936   3.379   3.786  0.5788  0.9925 -0.0288
11732TIP3   OH256610   5.050   4.028  15.512 -0.0483  0.3026  0.4354
11732TIP3    H156611   5.139   3.994  15.522  0.7807  2.0778 -0.4901
11732TIP3    H256612   5.008   3.966  15.452  2.0331  1.7849 -2.8261
11733TIP3   OH256613   0.302   1.938   4.423  0.3633 -0.2789 -0.5827
11733TIP3    H156614   0.225   1.909   4.473 -0.9529  2.5985 -0.7791
11733TIP3    H256615   0.370   1.952   4.489  0.2100 -1.1845 -0.2141
11734TIP3   OH256616   0.555   3.578   2.766  0.7546 -0.2050 -0.0930
11734TIP3    H156617   0.605   3.528   2.701  0.3214  0.0956 -0.6661
11734TIP3    H256618   0.488   3.623   2.715 -0.1689 -0.6721  0.6767
11735TIP3   OH256619   4.511   2.520   4.008  0.2676 -0.6130  0.7089
11735TIP3    H156620   4.425   2.493   3.978 -0.5654  0.5346  1.9522
11735TIP3    H256621   4.494   2.591   4.070  2.1711  0.5584 -0.0237
11736TIP3   OH256622   4.028   6.576  15.124 -0.0333 -0.4521 -0.1472
11736TIP3    H156623   3.945   6.572  15.078 -0.8330  0.0427  1.2131
11736TIP3    H256624   4.012   6.533  15.208  0.7585  0.6321  0.5887
11737TIP3   OH256625   5.888   0.474   4.553  0.1899 -0.3886 -0.0386
11737TIP3    H156626   5.809   0.516   4.520 -0.2310 -1.0112  0.1549
11737TIP3    H256627   5.858   0.422   4.628  0.6051 -1.4164 -0.5704
11738TIP3   OH256628   1.961   5.625   1.805 -0.4345  0.1311 -0.2640
11738TIP3    H156629   1.958   5.721   1.801 -1.6866  0.0562 -2.3238
11738TIP3    H256630   1.887   5.597   1.751  1.2586 -2.0296 -1.5663
11739TIP3   OH256631   1.585   3.047  10.891  0.3817  0.1226  0.4458
11739TIP3    H156632   1.535   3.043  10.809  0.5897 -1.8585  0.3520
11739TIP3    H256633   1.661   3.102  10.871 -0.1143  0.5271 -0.3688
11740TIP3   OH256634   1.546   6.306   2.485  0.0537 -0.1085 -0.3334
11740TIP3    H156635   1.456   6.299   2.516 -0.1349  0.9976 -0.5914
11740TIP3    H256636   1.548   6.388   2.437  0.7214 -1.0349 -1.9766
11741TIP3   OH256637   4.701   6.150  14.826 -0.1434 -0.3569 -0.7080
11741TIP3    H156638   4.771   6.156  14.891  0.0660  1.6779 -1.0539
11741TIP3    H256639   4.746   6.150  14.742 -0.5058  0.1137 -0.9106
11742TIP3   OH256640   4.983   6.803   0.667 -0.1871  0.0793 -0.0560
11742TIP3    H156641   4.919   6.798   0.738  0.7916 -0.6199  0.8006
11742TIP3    H256642   5.051   6.862   0.699 -0.5558  1.1447 -1.1221
11743TIP3   OH256643   2.418   3.243   5.402 -0.6246  0.7108  0.3046
11743TIP3    H156644   2.336   3.244   5.451 -0.8479 -0.4519 -0.0098
11743TIP3    H256645   2.441   3.335   5.392 -1.4359  1.0288  1.1450
11744TIP3   OH256646   3.227   3.777   4.466  0.3762 -0.3829  0.0575
11744TIP3    H156647   3.262   3.865   4.455  1.0590 -0.4915  1.2246
11744TIP3    H256648   3.262   3.747   4.550 -1.4691 -0.9949  0.6643
11745TIP3   OH256649   5.429   5.888  13.130 -0.5200 -0.6514 -0.4236
11745TIP3    H156650   5.462   5.828  13.197 -2.3839 -0.1140  1.0643
11745TIP3    H256651   5.502   5.898  13.070  1.6832 -0.2910  2.1153
11746TIP3   OH256652   0.928   4.957  12.583 -0.0008 -0.4808  0.9359
11746TIP3    H156653   0.866   4.935  12.514 -0.0212  1.7766  0.1426
11746TIP3    H256654   1.014   4.943  12.544 -0.0164 -0.4471  0.8894
11747TIP3   OH256655   1.109   0.811  16.683 -0.1233 -0.6047  0.3999
11747TIP3    H156656   1.140   0.824  16.594  2.5607 -1.2885  1.1477
11747TIP3    H256657   1.026   0.764  16.673  0.5349 -1.4057 -1.7197
11748TIP3   OH256658   3.777   0.866  11.921 -0.4808 -0.6710  0.1859
11748TIP3    H156659   3.872   0.854  11.920 -0.2377  0.4329  2.6235
11748TIP3    H256660   3.761   0.932  11.854  1.0798  2.1996  2.4282
11749TIP3   OH256661   2.700   2.156  10.513 -0.8345 -0.2087  0.7815
11749TIP3    H156662   2.707   2.245  10.478  0.2620 -0.7824 -0.5266
11749TIP3    H256663   2.609   2.150  10.541 -0.7855  1.5195  1.4621
11750TIP3   OH256664   4.344   3.385  12.923  0.3350 -0.6445 -0.1720
11750TIP3    H156665   4.311   3.310  12.973 -0.5037 -0.7349 -0.8299
11750TIP3    H256666   4.378   3.445  12.989  0.5558 -1.3831  0.3991
11751TIP3   OH256667   2.714   4.516  12.436  0.3037  0.3494 -0.5401
11751TIP3    H156668   2.630   4.523  12.390  1.3562  0.5519 -2.5643
11751TIP3    H256669   2.729   4.602  12.474  0.3523  0.8549 -1.6515
11752TIP3   OH256670   0.320   3.273   2.016 -0.0184  0.1172  0.1099
11752TIP3    H156671   0.270   3.286   2.097 -0.5760 -2.1479  0.1961
11752TIP3    H256672   0.261   3.223   1.960  1.1543 -0.2152 -0.8676
11753TIP3   OH256673   2.173   0.531  13.061 -0.1446 -0.0429  0.3581
11753TIP3    H156674   2.079   0.515  13.065  0.0475 -0.9538  2.0208
11753TIP3    H256675   2.206   0.461  13.005 -0.6263  1.4542 -1.9622
11754TIP3   OH256676   1.221   6.387   3.231 -0.1124 -0.6150  0.1521
11754TIP3    H156677   1.236   6.481   3.241 -0.4561 -0.5928  0.4752
11754TIP3    H256678   1.160   6.365   3.300 -2.5580 -0.4657 -1.8259
11755TIP3   OH256679   4.573   1.831   1.062  0.2375  0.0782  0.1380
11755TIP3    H156680   4.602   1.842   0.972  1.4621 -0.9524  0.3703
11755TIP3    H256681   4.529   1.747   1.064 -1.3031  0.8438  0.1787
11756TIP3   OH256682   0.803   6.543  12.532  0.2876 -0.5442  0.4258
11756TIP3    H156683   0.797   6.601  12.608 -1.1869 -0.7972  0.5221
11756TIP3    H256684   0.897   6.531  12.518  0.6560  2.0890  0.2239
11757TIP3   OH256685   1.142   0.216  16.797 -0.1975 -0.3777 -0.0008
11757TIP3    H156686   1.216   0.166  16.761  0.8881  0.9739  0.2202
11757TIP3    H256687   1.165   0.307  16.778 -2.1289  0.0510 -0.4560
11758TIP3   OH256688   2.949   6.648  12.176 -0.6176 -0.8789  0.8314
11758TIP3    H156689   2.970   6.615  12.088  0.1595 -0.4006  0.8243
11758TIP3    H256690   2.867   6.695  12.165  0.6371  1.2227 -0.1784
11759TIP3   OH256691   2.461   6.026  13.150  0.4905  0.6056 -0.3705
11759TIP3    H156692   2.405   6.054  13.077  0.4113  0.7883 -0.2391
11759TIP3    H256693   2.399   6.001  13.219  0.5414 -0.3852 -0.6614
11760TIP3   OH256694   6.077   3.453  16.408  0.0376 -0.5366  0.0972
11760TIP3    H156695   6.145   3.509  16.446 -1.8711  1.3959  0.8409
11760TIP3    H256696   6.064   3.488  16.319 -0.9862  0.0836  0.4763
11761TIP3   OH256697   5.207   4.598  11.263 -0.4253 -0.3703  0.1012
11761TIP3    H156698   5.229   4.638  11.179  1.5565  0.8947  1.1622
11761TIP3    H256699   5.167   4.668  11.314 -1.4040 -1.0675  0.3279
11762TIP3   OH256700   2.480   3.508   0.574 -0.3195 -0.0254 -0.0360
11762TIP3    H156701   2.396   3.500   0.619  0.3897 -0.5022  1.2499
11762TIP3    H256702   2.496   3.422   0.536 -0.4196  0.0691 -0.2924
11763TIP3   OH256703   5.789   5.397  11.207 -0.0779 -0.0834  0.1624
11763TIP3    H156704   5.716   5.387  11.146 -0.8135  0.7501  0.8842
11763TIP3    H256705   5.764   5.345  11.284  0.0270  0.3040  0.4638
11764TIP3   OH256706   2.041   2.840   1.975 -0.2883  0.2717 -0.0059
11764TIP3    H156707   2.023   2.812   1.885  0.7870 -0.6335  0.0373
11764TIP3    H256708   2.032   2.935   1.973 -1.1981  0.1903 -0.8425
11765TIP3   OH256709   2.992   4.602   3.402 -0.3313  0.0317  0.8252
11765TIP3    H156710   2.971   4.630   3.313  0.7744 -0.5139  0.3704
11765TIP3    H256711   2.922   4.541   3.425 -0.6749  0.2453  0.3589
11766TIP3   OH256712   0.496   1.299   3.965  0.2997 -0.2381  0.0126
11766TIP3    H156713   0.524   1.275   4.054 -0.1520 -1.4981 -0.1595
11766TIP3    H256714   0.405   1.269   3.960  0.2613  0.0014 -0.8167
11767TIP3   OH256715   0.134   1.892   4.678  0.1375 -0.2273  0.1688
11767TIP3    H156716   0.067   1.910   4.744  1.4881  1.1319  1.2499
11767TIP3    H256717   0.136   1.797   4.671 -1.2452 -0.3285  0.7996
11768TIP3   OH256718   6.750   5.992   0.392  0.3333 -0.7637  0.6562
11768TIP3    H156719   6.675   6.050   0.398  0.3965 -0.5165 -0.6613
11768TIP3    H256720   6.725   5.927   0.326  1.4575 -0.3529 -0.2190
11769TIP3   OH256721   2.032   3.605  14.327  0.5104 -0.2873 -0.0239
11769TIP3    H156722   2.103   3.647  14.375  0.6820 -0.6361  0.0353
11769TIP3    H256723   1.964   3.590  14.392  0.0250  0.8171 -0.2522
11770TIP3   OH256724   6.371   5.148  14.842 -0.3513  0.1262 -0.1435
11770TIP3    H156725   6.345   5.058  14.863 -1.7473  0.8553  1.5549
11770TIP3    H256726   6.410   5.181  14.923 -0.7965  1.3606 -0.4054
11771TIP3   OH256727   6.442   0.105  14.566  0.1401  0.2453 -0.2226
11771TIP3    H156728   6.389   0.125  14.489 -0.4269 -0.4139 -0.0150
11771TIP3    H256729   6.419   0.173  14.629  0.9498  1.0620 -0.7809
11772TIP3   OH256730   4.794   2.625  16.021  0.0435  0.2290  0.1762
11772TIP3    H156731   4.705   2.659  16.018  0.5805  1.6209 -0.7821
11772TIP3    H256732   4.832   2.648  15.937  0.7146 -2.1034 -0.2358
11773TIP3   OH256733   3.191   5.614  15.188  0.0448 -0.1687  0.2613
11773TIP3    H156734   3.184   5.709  15.183  2.3857  0.0119 -1.3105
11773TIP3    H256735   3.240   5.597  15.269 -1.1060 -0.1312  0.9854
11774TIP3   OH256736   4.253   1.085   2.750  0.5754  0.0248 -0.0602
11774TIP3    H156737   4.221   1.065   2.838  0.5540 -0.1940 -0.1160
11774TIP3    H256738   4.178   1.121   2.705  0.4649 -0.2803 -0.1234
11775TIP3   OH256739   6.616   6.408  11.324  0.3286  0.0405 -0.3040
11775TIP3    H156740   6.672   6.371  11.393  0.1588  0.9232  0.3188
11775TIP3    H256741   6.633   6.502  11.327  0.9125  0.0212 -2.0118
11776TIP3   OH256742   4.018   0.916   0.624 -0.2305 -0.7545  0.0862
11776TIP3    H156743   4.060   0.834   0.651 -2.0179 -1.2633  1.5303
11776TIP3    H256744   3.959   0.890   0.553  2.0222  0.0244 -2.2242
11777TIP3   OH256745   5.866   0.543  14.140 -0.7337  0.1162 -0.5618
11777TIP3    H156746   5.848   0.564  14.049  1.3289 -0.8621 -1.2336
11777TIP3    H256747   5.800   0.593  14.189  0.8685  4.3868 -2.2991
11778TIP3   OH256748   6.609   3.068   3.388 -0.5520  0.0508  0.4289
11778TIP3    H156749   6.515   3.068   3.406 -0.7680 -1.4270 -0.5475
11778TIP3    H256750   6.641   3.147   3.431 -2.1049  0.1789  1.4465
11779TIP3   OH256751   5.159   6.658  11.484  0.3047 -0.5174 -0.0258
11779TIP3    H156752   5.212   6.731  11.453 -0.8262  0.1330 -0.4796
11779TIP3    H256753   5.091   6.698  11.538 -0.2992 -1.2323 -0.2340
11780TIP3   OH256754   0.806   2.023  16.330 -0.1126 -0.3795  0.1525
11780TIP3    H156755   0.778   1.989  16.245 -0.8117 -0.3977  0.3797
11780TIP3    H256756   0.769   2.111  16.334 -0.2758 -0.4607  0.5244
11781TIP3   OH256757   5.768   5.192  14.215 -0.2187 -0.2548 -0.4891
11781TIP3    H156758   5.851   5.240  14.218  0.3437 -1.2210 -0.2653
11781TIP3    H256759   5.770   5.134  14.291 -1.1018 -0.2951 -0.4795
11782TIP3   OH256760   6.245   6.255   2.990  0.3368  0.6192 -0.0676
11782TIP3    H156761   6.198   6.296   3.063 -1.3955 -0.4296 -0.5205
11782TIP3    H256762   6.187   6.267   2.915 -0.0029 -2.0792 -0.3336
11783TIP3   OH256763   3.272   2.064   2.081 -0.5321  0.4328  0.1379
11783TIP3    H156764   3.366   2.075   2.067 -0.8668  0.5826 -2.4379
11783TIP3    H256765   3.243   2.146   2.120  0.3764  0.3834  0.9431
11784TIP3   OH256766   5.636   2.928   2.206  0.6905  0.3194  0.0888
11784TIP3    H156767   5.673   3.006   2.165  2.0308 -0.2729  0.1362
11784TIP3    H256768   5.557   2.959   2.251  0.0223  1.2539 -1.6575
11785TIP3   OH256769   0.597   4.952   3.358 -0.5894 -0.1752  0.1021
11785TIP3    H156770   0.615   4.896   3.433  2.0845  0.0349 -0.3001
11785TIP3    H256771   0.541   5.022   3.393 -0.4137 -0.7520  1.5878
11786TIP3   OH256772   2.583   5.110  14.830  0.1089 -0.4705 -0.6489
11786TIP3    H156773   2.548   5.039  14.884  1.8080 -1.5139 -0.8622
11786TIP3    H256774   2.592   5.072  14.743 -0.5571  0.5472 -1.1823
11787TIP3   OH256775   2.977   3.277   0.300 -0.2329  0.0853 -0.0588
11787TIP3    H156776   2.967   3.325   0.218 -1.1535  0.9078  0.5141
11787TIP3    H256777   3.025   3.338   0.357 -1.6302  0.4496  0.7576
11788TIP3   OH256778   5.963   4.271   1.908  0.2855  0.0910 -0.1715
11788TIP3    H156779   6.013   4.352   1.902  2.7190 -1.2619  0.6671
11788TIP3    H256780   5.975   4.241   1.998  0.3126 -1.7185 -0.7370
11789TIP3   OH256781   4.547   1.307   1.015  0.5384  0.0276  0.0251
11789TIP3    H156782   4.488   1.335   1.086 -0.3681 -2.1875  0.2348
11789TIP3    H256783   4.490   1.260   0.954  1.5201  0.9018 -1.6025
11790TIP3   OH256784   5.615   0.690   0.220  0.1585 -0.1257 -0.5538
11790TIP3    H156785   5.554   0.617   0.236 -1.9116  1.7638  0.8024
11790TIP3    H256786   5.558   0.765   0.204  1.9697  2.1266  2.4697
11791TIP3   OH256787   5.342   4.687   0.903 -0.4035 -0.4112 -0.3650
11791TIP3    H156788   5.267   4.695   0.844 -0.2093 -2.5194 -0.9591
11791TIP3    H256789   5.414   4.729   0.856 -0.8307  0.2092 -0.4836
11792TIP3   OH256790   2.633   4.176  16.463  0.5972  0.1930 -0.1710
11792TIP3    H156791   2.656   4.257  16.418  1.3861  0.1692  0.1711
11792TIP3    H256792   2.576   4.129  16.401 -0.7060  1.4374  0.0201
11793TIP3   OH256793   6.635   0.075  11.145 -0.0888  0.4466 -0.2943
11793TIP3    H156794   6.541   0.088  11.130  0.1763  1.8716 -0.9138
11793TIP3    H256795   6.672   0.068  11.057  0.7793  3.1818 -0.2212
11794TIP3   OH256796   6.584   2.592   1.394 -0.4516  0.0191 -0.8262
11794TIP3    H156797   6.594   2.516   1.337 -1.1646 -0.6902 -0.0247
11794TIP3    H256798   6.589   2.667   1.334  1.3164 -0.5748 -1.4857
11795TIP3   OH256799   0.161   0.819   1.552  0.2027  0.2501  0.0514
11795TIP3    H156800   0.119   0.859   1.476  0.5324  0.5321  0.0129
11795TIP3    H256801   0.118   0.860   1.628 -0.6274 -0.5551  0.0335
11796TIP3   OH256802   5.832   3.714  15.878 -0.5510 -0.0919 -0.2066
11796TIP3    H156803   5.790   3.650  15.820 -0.8696 -0.8353  0.8131
11796TIP3    H256804   5.843   3.667  15.961  0.2880  0.8132  0.2066
11797TIP3   OH256805   2.325   5.513   0.448  0.9488 -0.5843  0.1610
11797TIP3    H156806   2.280   5.449   0.504  1.1149 -0.7662  0.0874
11797TIP3    H256807   2.413   5.519   0.485  0.3682  1.0690  1.3840
11798TIP3   OH256808   5.651   3.990   3.954 -0.2790 -0.8557 -0.3361
11798TIP3    H156809   5.611   3.939   3.884 -0.3795 -0.8902 -0.2533
11798TIP3    H256810   5.632   3.941   4.033 -1.2628 -0.1677 -0.1238
11799TIP3   OH256811   6.186   5.101  11.212  0.0761  0.0448 -0.2997
11799TIP3    H156812   6.270   5.147  11.209  0.3167 -0.3566  0.1638
11799TIP3    H256813   6.145   5.122  11.128 -0.9104  3.1216  0.8121
11800TIP3   OH256814   1.895   5.989  11.743 -0.1055  0.3138  0.0433
11800TIP3    H156815   1.852   5.904  11.737 -0.8737  0.6619  0.5118
11800TIP3    H256816   1.986   5.968  11.766  0.3588 -0.4927 -2.2238
11801TIP3   OH256817   0.484   4.552   2.639 -0.5360  0.1422 -0.5213
11801TIP3    H156818   0.468   4.478   2.579  1.2251  0.0134 -0.9080
11801TIP3    H256819   0.576   4.576   2.622 -0.5926  1.3633  0.7717
11802TIP3   OH256820   5.216   2.917  14.319 -0.1840 -0.2537  0.0628
11802TIP3    H156821   5.188   3.009  14.320 -0.9589 -0.4802 -0.2089
11802TIP3    H256822   5.186   2.883  14.235  0.7565 -0.5634 -0.1503
11803TIP3   OH256823   3.639   2.297   5.460 -0.4351  0.1606 -0.6411
11803TIP3    H156824   3.734   2.289   5.466 -0.5455 -0.7514  0.2599
11803TIP3    H256825   3.610   2.315   5.550 -1.0942  0.6852 -0.9455
11804TIP3   OH256826   3.953   6.093   1.389  0.1170  0.1307 -0.6641
11804TIP3    H156827   4.047   6.087   1.373  0.5473  0.7310  1.2855
11804TIP3    H256828   3.928   6.008   1.426  0.8501  1.2216  2.7349
11805TIP3   OH256829   1.837   6.693   0.180  0.0823  0.1751 -0.0503
11805TIP3    H156830   1.833   6.719   0.088  0.5733 -1.6187 -0.6018
11805TIP3    H256831   1.914   6.637   0.186  0.0224  0.2207  1.4459
11806TIP3   OH256832   0.036   1.100   0.785  0.2215  0.4530  0.2407
11806TIP3    H156833  -0.006   1.031   0.734 -0.5078  1.6073 -0.7562
11806TIP3    H256834   0.064   1.165   0.720 -0.4765  1.8275  1.2636
11807TIP3   OH256835   1.929   2.330   0.176  0.4069  0.0621  0.1045
11807TIP3    H156836   1.994   2.296   0.114 -0.2775  0.4141 -0.8426
11807TIP3    H256837   1.914   2.259   0.237 -1.1526 -1.4972 -1.9547
11808TIP3   OH256838   4.102   5.903   4.773  0.4442  0.4920 -0.3485
11808TIP3    H156839   4.163   5.958   4.822 -0.0765  2.4735 -1.8120
11808TIP3    H256840   4.117   5.925   4.681 -1.2547 -0.2788 -0.8579
11809TIP3   OH256841   2.602   2.676  10.479  0.0969  0.3227 -0.4185
11809TIP3    H156842   2.515   2.683  10.519  0.6615  1.5598  0.6873
11809TIP3    H256843   2.641   2.600  10.522  0.5269  1.3692  1.1266
11810TIP3   OH256844   2.291   2.174   2.234 -0.5447  0.3803  0.4193
11810TIP3    H156845   2.355   2.207   2.298  0.8779 -0.8530 -0.2936
11810TIP3    H256846   2.227   2.125   2.287  0.4113 -0.3175  0.9663
11811TIP3   OH256847   6.037   4.911   5.862 -0.4536  0.0460  0.4649
11811TIP3    H156848   6.017   4.863   5.943  1.9235 -1.9753  0.0140
11811TIP3    H256849   6.099   4.979   5.889 -0.3825 -0.0243  0.4795
11812TIP3   OH256850   5.214   0.909  13.195 -0.4491 -0.4116 -0.1605
11812TIP3    H156851   5.281   0.953  13.142  0.4014  0.9866  1.9532
11812TIP3    H256852   5.255   0.826  13.220 -0.1037 -0.2540 -0.1896
11813TIP3   OH256853   1.216   2.912   0.409 -0.2678  0.0448 -0.3430
11813TIP3    H156854   1.283   2.868   0.356 -1.2008 -1.0677 -0.6452
11813TIP3    H256855   1.176   2.841   0.460  0.9903  1.1326  2.3690
11814TIP3   OH256856   5.019   3.949   3.470  0.3290  0.3694  0.2663
11814TIP3    H156857   4.974   4.013   3.525 -1.0623  1.3677 -1.8880
11814TIP3    H256858   4.974   3.866   3.487 -0.9057  0.9197 -0.2553
11815TIP3   OH256859   0.510   2.480   2.142 -0.2204 -0.2660  0.6181
11815TIP3    H156860   0.480   2.570   2.130 -1.0379 -0.7535 -1.3828
11815TIP3    H256861   0.432   2.426   2.129 -0.1413 -1.2754  3.4678
11816TIP3   OH256862   4.784   4.182  13.914  0.1446 -0.2184 -0.1169
11816TIP3    H156863   4.805   4.092  13.889 -0.7778 -0.2495 -0.8388
11816TIP3    H256864   4.849   4.205  13.980  3.1937  0.0787 -2.9410
11817TIP3   OH256865   1.548   2.586  16.470  0.5446  0.6299  0.4202
11817TIP3    H156866   1.453   2.586  16.474  0.4838  0.5133 -0.8120
11817TIP3    H256867   1.574   2.503  16.509  0.2395  1.3275  2.2053
11818TIP3   OH256868   1.224   3.504   4.278  0.2473  0.3266 -0.1218
11818TIP3    H156869   1.230   3.553   4.196 -0.7677 -0.3879 -0.6415
11818TIP3    H256870   1.134   3.517   4.308  0.1074 -0.7842 -0.0074
11819TIP3   OH256871   1.318   3.169  15.439 -0.7837  0.1885  0.3335
11819TIP3    H156872   1.315   3.119  15.521 -0.0608 -2.1691 -0.9689
11819TIP3    H256873   1.234   3.151  15.397 -0.9473  0.9665  0.3180
11820TIP3   OH256874   0.510   0.291   3.344 -0.4766  0.7508 -0.5058
11820TIP3    H156875   0.424   0.326   3.369 -2.0024 -3.0126  0.1201
11820TIP3    H256876   0.493   0.240   3.265  1.5616  1.1153 -1.2468
11821TIP3   OH256877   2.785   0.399  12.479  0.1564  0.2597  0.0367
11821TIP3    H156878   2.794   0.342  12.403 -0.1146 -1.7399  1.4081
11821TIP3    H256879   2.705   0.449  12.463  0.1281 -0.0975 -0.9939
11822TIP3   OH256880   1.854   1.515  15.863 -0.9046 -0.0791  0.1838
11822TIP3    H156881   1.896   1.595  15.894  0.2690 -0.6535  0.1342
11822TIP3    H256882   1.913   1.445  15.891 -1.7070 -0.8908 -0.1271
11823TIP3   OH256883   4.016   5.329  16.837 -0.4940 -0.2506  0.2292
11823TIP3    H156884   3.992   5.326  16.744 -0.1205  0.0165  0.1250
11823TIP3    H256885   4.023   5.422  16.856 -0.9140 -0.2935  0.6180
11824TIP3   OH256886   5.029   0.154   0.427  0.1876 -0.4635  0.0964
11824TIP3    H156887   4.947   0.186   0.390  0.3361 -1.8330 -1.5661
11824TIP3    H256888   5.003   0.081   0.483  0.1889 -0.3980  0.1805
11825TIP3   OH256889   3.933   2.071   5.600  0.5844 -0.3675  0.2911
11825TIP3    H156890   3.927   1.976   5.588 -0.2311 -0.2859  0.0104
11825TIP3    H256891   3.878   2.089   5.676 -0.4898  0.0589 -0.5719
11826TIP3   OH256892   2.376   6.063   1.657 -0.2471  0.3811 -0.6814
11826TIP3    H156893   2.307   6.112   1.612 -1.4026 -0.6532 -0.0892
11826TIP3    H256894   2.337   6.039   1.741  0.1136 -1.9026 -1.1177
11827TIP3   OH256895   0.297   3.955  14.361  0.0931 -0.0312  0.4516
11827TIP3    H156896   0.250   3.909  14.291  1.9531  1.2209 -1.7729
11827TIP3    H256897   0.336   4.031  14.318  2.1970  0.2474  2.6377
11828TIP3   OH256898   3.553   3.831  12.564 -0.5740  0.4281 -0.0223
11828TIP3    H156899   3.527   3.918  12.533 -1.5827  0.2202  0.1759
11828TIP3    H256900   3.590   3.788  12.488 -1.5836  0.4708 -0.5633
11829TIP3   OH256901   6.215   6.616  12.538  0.1134  0.1571 -0.4323
11829TIP3    H156902   6.172   6.559  12.475  0.7766 -0.5205 -0.2896
11829TIP3    H256903   6.194   6.705  12.508 -0.7694 -0.1542 -0.7671
11830TIP3   OH256904   4.520   3.825   5.062 -0.1753 -0.6860 -0.5647
11830TIP3    H156905   4.540   3.735   5.087  0.8819 -0.9132 -2.0891
11830TIP3    H256906   4.424   3.826   5.053 -0.2053 -1.6518 -0.5199
11831TIP3   OH256907   0.399   6.721   5.280  0.0372 -0.4130 -0.4894
11831TIP3    H156908   0.338   6.686   5.345  1.5304 -1.9885  0.1351
11831TIP3    H256909   0.463   6.770   5.332  0.0971  0.0666 -1.0054
11832TIP3   OH256910   3.883   5.043   4.390 -0.0452 -0.3464 -0.8593
11832TIP3    H156911   3.822   5.048   4.463  0.1967 -2.6272 -0.4327
11832TIP3    H256912   3.937   5.122   4.398 -0.7249 -0.0088  0.7525
11833TIP3   OH256913   4.206   4.119   1.733 -0.1163  0.4020  0.1872
11833TIP3    H156914   4.236   4.077   1.653 -1.7711  0.3176 -0.4225
11833TIP3    H256915   4.207   4.213   1.712 -1.2294  0.3418 -0.2104
11834TIP3   OH256916   3.744   4.680  11.858 -0.2966 -0.3055 -0.3502
11834TIP3    H156917   3.694   4.762  11.862 -0.5185 -0.2096 -3.0698
11834TIP3    H256918   3.695   4.620  11.913 -2.5500  0.2758 -1.5763
11835TIP3   OH256919   5.352   0.439   5.290  0.3834  0.4201 -0.5005
11835TIP3    H156920   5.278   0.405   5.239  0.9779 -0.5174 -0.7512
11835TIP3    H256921   5.317   0.518   5.332 -0.6198  0.2578 -0.9927
11836TIP3   OH256922   6.551   4.665  15.371 -0.5276  0.3125 -0.8850
11836TIP3    H156923   6.634   4.702  15.344 -0.4416 -1.0279 -2.5868
11836TIP3    H256924   6.550   4.577  15.334 -1.9526 -0.3557  0.5961
11837TIP3   OH256925   0.550   5.808   1.578 -0.3340  0.1281  0.1657
11837TIP3    H156926   0.501   5.728   1.591  1.3934 -0.9120  0.6124
11837TIP3    H256927   0.640   5.779   1.560  0.3532  1.9489  0.3909
11838TIP3   OH256928   4.723   4.330   1.634  0.2111 -0.2828  0.3768
11838TIP3    H156929   4.659   4.297   1.698 -1.4279 -0.2083 -1.1415
11838TIP3    H256930   4.720   4.425   1.644  2.2519 -0.3282  2.2390
11839TIP3   OH256931   2.900   4.466   2.685  0.2954 -0.8251 -1.2568
11839TIP3    H156932   2.995   4.450   2.688  0.5046  0.0217 -2.5306
11839TIP3    H256933   2.868   4.436   2.770  1.6778 -1.3037 -0.8756
11840TIP3   OH256934   3.726   1.346   4.833 -0.3626  0.1294 -0.2713
11840TIP3    H156935   3.790   1.361   4.763 -0.7891 -0.3700 -0.7744
11840TIP3    H256936   3.758   1.400   4.906  1.6884 -1.5480  0.1562
11841TIP3   OH256937   1.905   6.526   1.714  0.4591  0.1013 -0.6616
11841TIP3    H156938   1.812   6.516   1.736 -0.3247  1.3956 -3.0203
11841TIP3    H256939   1.918   6.470   1.638  1.0792  1.3801 -1.5318
11842TIP3   OH256940   2.320   6.594  10.777 -0.0128  0.1426  0.0138
11842TIP3    H156941   2.362   6.641  10.705  0.1242  1.8594  1.1420
11842TIP3    H256942   2.366   6.510  10.781 -0.1234 -0.0533 -1.9495
11843TIP3   OH256943   4.080   1.340   6.250  0.2558  0.0174 -0.1220
11843TIP3    H156944   4.077   1.299   6.337  0.4993 -0.2605 -0.2427
11843TIP3    H256945   4.141   1.285   6.200  0.0564  0.1331 -0.4911
11844TIP3   OH256946   5.159   6.442   2.272 -0.4460  0.2379  0.2040
11844TIP3    H156947   5.189   6.362   2.229 -0.9606  0.7651 -1.1681
11844TIP3    H256948   5.087   6.474   2.218 -1.4442  0.6856  1.7151
11845TIP3   OH256949   4.757   2.709  13.760  0.1574  0.8324  0.3715
11845TIP3    H156950   4.782   2.696  13.852 -0.4171 -0.0039  0.4216
11845TIP3    H256951   4.664   2.729  13.763 -0.4848 -1.7394 -0.1564
11846TIP3   OH256952   2.317   0.001  17.169  0.5431  0.5449  0.6683
11846TIP3    H156953   2.339   0.055  17.093 -0.1375 -0.3016 -0.1542
11846TIP3    H256954   2.401  -0.029  17.203  0.9381  2.0111  1.0849
11847TIP3   OH256955   1.563   1.970   0.079  0.1089  0.2482  0.3431
11847TIP3    H156956   1.489   1.915   0.056  0.1942  1.1328 -2.4360
11847TIP3    H256957   1.637   1.932   0.030  0.4933  1.8415 -0.3890
11848TIP3   OH256958   3.259   6.699  15.866  0.1689  0.2594 -0.5499
11848TIP3    H156959   3.223   6.784  15.890  2.1977  1.2989 -1.0480
11848TIP3    H256960   3.192   6.636  15.894 -0.8063  1.9115  0.9922
11849TIP3   OH256961   2.836   1.595  13.560 -0.4802 -0.0797 -0.0407
11849TIP3    H156962   2.879   1.654  13.497 -1.2851  0.2383 -0.3135
11849TIP3    H256963   2.847   1.638  13.644 -0.1562 -0.0653 -0.0887
11850TIP3   OH256964   6.373   5.433   2.098  0.0108 -0.2408  0.1335
11850TIP3    H156965   6.420   5.358   2.134 -2.6103 -2.4493 -0.7136
11850TIP3    H256966   6.341   5.481   2.175 -0.0401 -1.2061  0.7223
11851TIP3   OH256967   0.034   0.178   3.838  0.1559  0.2253  0.1875
11851TIP3    H156968   0.072   0.266   3.835 -0.9072  0.6660 -1.2931
11851TIP3    H256969  -0.047   0.188   3.887  1.3268 -0.5197  2.4414
11852TIP3   OH256970   6.383   3.790   5.486 -0.1937 -0.0800  0.2004
11852TIP3    H156971   6.292   3.773   5.463  0.3581 -1.5260 -1.0970
11852TIP3    H256972   6.432   3.772   5.405  1.2947  0.2030  1.0020
11853TIP3   OH256973   2.976   0.787  16.873  0.1952  0.4787  0.6025
11853TIP3    H156974   2.932   0.744  16.800 -0.2969  2.6212 -0.4493
11853TIP3    H256975   2.927   0.759  16.950 -0.6276 -0.1775 -0.1357
11854TIP3   OH256976   3.039   0.887  15.235 -0.1667 -0.9208 -0.2035
11854TIP3    H156977   2.981   0.841  15.174 -1.2836 -0.9266  0.8042
11854TIP3    H256978   3.054   0.824  15.305  0.6529 -0.7323 -0.2013
11855TIP3   OH256979   3.427   1.884  13.819 -0.9791 -0.2277 -0.0779
11855TIP3    H156980   3.348   1.933  13.841 -1.2764  0.3142 -2.1241
11855TIP3    H256981   3.490   1.951  13.793 -0.6939 -0.7880 -0.8834
11856TIP3   OH256982   1.594   4.341  11.910 -0.2748 -0.6639 -0.2486
11856TIP3    H156983   1.627   4.323  11.823 -0.4934 -0.2474 -0.4229
11856TIP3    H256984   1.524   4.277  11.923 -0.6242 -0.3633 -0.6093
11857TIP3   OH256985   5.146   4.472   2.672  0.2718 -0.2908 -0.1781
11857TIP3    H156986   5.202   4.549   2.678  0.6233 -0.6541  2.7525
11857TIP3    H256987   5.196   4.409   2.620  1.4489  0.3162  0.1952
11858TIP3   OH256988   0.929   4.331  15.819  0.0882  0.3106 -0.1890
11858TIP3    H156989   0.951   4.421  15.795  0.9515  0.2777  0.4365
11858TIP3    H256990   0.834   4.333  15.834  0.2101  1.2795  0.5290
11859TIP3   OH256991   2.874   1.747   4.880  0.0602  0.6910  0.0076
11859TIP3    H156992   2.833   1.662   4.894 -0.3546  0.9230  0.2300
11859TIP3    H256993   2.914   1.741   4.793  0.7703 -0.0181  0.3749
11860TIP3   OH256994   2.360   0.702   5.546  0.3474 -0.2091 -0.1275
11860TIP3    H156995   2.406   0.626   5.512 -0.3662 -1.3476  1.3668
11860TIP3    H256996   2.268   0.677   5.546  0.2440 -0.0040  1.8770
11861TIP3   OH256997   3.099   5.928  15.221  0.2177  0.0933 -0.4402
11861TIP3    H156998   3.005   5.946  15.214  0.1790  0.7671  1.2298
11861TIP3    H256999   3.140   5.987  15.158 -0.5421 -1.4429 -2.4817
11862TIP3   OH257000   4.032   1.007  15.485 -0.0204  0.1471 -0.0163
11862TIP3    H157001   4.107   1.053  15.523 -1.1591  2.6214 -0.5430
11862TIP3    H257002   3.995   0.957  15.557  0.2735  1.4511  1.0720
11863TIP3   OH257003   3.761   6.325   6.549  0.2641  0.5960 -0.5167
11863TIP3    H157004   3.728   6.411   6.575 -0.9314  0.3590 -1.1640
11863TIP3    H257005   3.688   6.266   6.568  0.8172 -0.1660 -0.7464
11864TIP3   OH257006   3.965   3.722  11.386 -0.7434 -0.1747  0.5484
11864TIP3    H157007   3.987   3.807  11.347  0.0859 -2.1787 -4.0037
11864TIP3    H257008   3.878   3.701  11.350 -1.0325 -1.1748  1.7753
11865TIP3   OH257009   3.437   5.104   5.950  0.2822 -0.2638 -0.5168
11865TIP3    H157010   3.403   5.033   5.896  0.8486 -0.4405 -0.6429
11865TIP3    H257011   3.359   5.152   5.977  0.0198  0.2922 -2.1226
11866TIP3   OH257012   2.478   0.225   0.926  0.3177  0.3083 -0.3308
11866TIP3    H157013   2.396   0.251   0.968  0.8536 -0.7913  1.5469
11866TIP3    H257014   2.532   0.304   0.930  0.8390 -0.0772  2.4752
11867TIP3   OH257015   0.953   1.827  14.194 -0.3910  0.2606 -0.2736
11867TIP3    H157016   0.865   1.789  14.186  0.0629 -0.8343 -0.0947
11867TIP3    H257017   0.993   1.812  14.108 -0.1203  0.1006 -0.1199
11868TIP3   OH257018   3.365   5.229   5.282 -0.1042  0.2721  0.1314
11868TIP3    H157019   3.282   5.263   5.249  0.2656  0.6034 -0.4683
11868TIP3    H257020   3.340   5.149   5.329 -0.6256 -0.3855 -1.2021
11869TIP3   OH257021   6.415   1.563  15.209 -0.3698 -0.3959  0.0607
11869TIP3    H157022   6.440   1.600  15.294 -0.9504 -0.0211  0.0792
11869TIP3    H257023   6.332   1.606  15.188  0.9622  1.3999 -1.8991
11870TIP3   OH257024   0.744   6.299  12.373  0.0237  0.5534  0.0579
11870TIP3    H157025   0.771   6.359  12.442  0.7316 -0.0966  0.3555
11870TIP3    H257026   0.821   6.290  12.317 -0.1283  0.0647 -0.0799
11871TIP3   OH257027   2.840   1.364  12.500 -0.2298 -0.1720  0.3193
11871TIP3    H157028   2.773   1.420  12.463  0.6858  0.8904  0.2039
11871TIP3    H257029   2.914   1.371  12.439  0.2157 -0.8021  0.7642
11872TIP3   OH257030   6.166   3.389  16.050  0.2669 -0.2947  0.4590
11872TIP3    H157031   6.090   3.447  16.053  0.2036 -0.0065 -2.8947
11872TIP3    H257032   6.130   3.301  16.063 -1.0492 -0.3632 -2.8330
11873TIP3   OH257033   5.116   0.731  13.570  0.5772  0.2671 -0.2608
11873TIP3    H157034   5.135   0.638  13.563 -1.5120 -0.0582 -2.8818
11873TIP3    H257035   5.200   0.771  13.595  1.9827 -2.0771 -0.9643
11874TIP3   OH257036   2.284   4.507  14.575 -0.6758 -0.7092 -0.8613
11874TIP3    H157037   2.293   4.414  14.592  1.4861 -0.1632  1.6218
11874TIP3    H257038   2.263   4.546  14.660 -1.6351  1.0697 -1.8449
11875TIP3   OH257039   2.777   1.258   5.509  0.2254  0.9530  0.5853
11875TIP3    H157040   2.860   1.244   5.554  0.0529 -0.3396  0.5515
11875TIP3    H257041   2.794   1.229   5.419 -0.5196 -0.2682  0.8233
11876TIP3   OH257042   6.517   1.720  16.570 -0.1672  0.5956 -0.1692
11876TIP3    H157043   6.482   1.804  16.538 -4.0619 -1.0723 -0.7825
11876TIP3    H257044   6.529   1.668  16.490  1.6428  0.2579  0.2680
11877TIP3   OH257045   0.131   4.773   5.990  0.5969 -0.2672  0.4339
11877TIP3    H157046   0.121   4.818   5.906  0.7743  0.6626  0.8969
11877TIP3    H257047   0.192   4.828   6.039  0.1420 -0.5538  1.3414
11878TIP3   OH257048   1.127   4.843   2.382 -0.5815 -0.2322 -0.1682
11878TIP3    H157049   1.042   4.811   2.350 -1.9357  2.3508  0.5831
11878TIP3    H257050   1.111   4.863   2.475  1.3859 -1.3133  0.4564
11879TIP3   OH257051   0.777   6.586  13.443  0.1194  0.6451 -0.0890
11879TIP3    H157052   0.844   6.609  13.379 -0.9641  1.6390 -0.9181
11879TIP3    H257053   0.745   6.670  13.477 -0.4613  0.1843  0.5481
11880TIP3   OH257054   2.530   6.365  14.078  0.4245 -0.0401 -0.1824
11880TIP3    H157055   2.521   6.281  14.032  1.8210  0.5277 -1.5723
11880TIP3    H257056   2.624   6.382  14.079  0.1242  1.9287 -0.7199
11881TIP3   OH257057   6.509   6.408   5.304  0.4740  0.0672  0.6256
11881TIP3    H157058   6.534   6.456   5.225  0.8521  2.2748  1.9997
11881TIP3    H257059   6.423   6.371   5.283 -0.3868  2.3530 -0.1689
11882TIP3   OH257060   4.180   2.244  16.969  0.7735 -0.1236  0.2459
11882TIP3    H157061   4.143   2.158  16.984 -0.6797  0.2583 -0.9375
11882TIP3    H257062   4.266   2.241  17.012  0.6361 -2.0384  0.4677
11883TIP3   OH257063   1.781   0.427  14.578  0.6763  0.1523 -0.0527
11883TIP3    H157064   1.822   0.376  14.648 -0.5061 -0.3897  0.2658
11883TIP3    H257065   1.724   0.489  14.623 -1.4005 -1.3085 -0.4862
11884TIP3   OH257066   1.598   5.703   3.327 -0.1561  0.5274  0.1663
11884TIP3    H157067   1.683   5.714   3.284 -0.9779  1.9762 -1.1758
11884TIP3    H257068   1.552   5.638   3.273 -0.5622  1.0865 -0.1672
11885TIP3   OH257069   4.434   5.743  11.579 -0.4167 -0.6925  0.3279
11885TIP3    H157070   4.361   5.683  11.596 -1.4342  0.6500  0.8305
11885TIP3    H257071   4.395   5.830  11.584  0.5468  0.0144 -2.6120
11886TIP3   OH257072   3.794   3.444   2.915 -0.3059 -0.1844  0.1144
11886TIP3    H157073   3.756   3.440   3.003 -1.2457  1.6443 -0.1529
11886TIP3    H257074   3.888   3.435   2.929 -0.6011 -2.4934  1.0245
11887TIP3   OH257075   5.523   1.740  15.417 -0.2692 -0.0507  0.3242
11887TIP3    H157076   5.569   1.712  15.496  0.7320  1.3123  0.2615
11887TIP3    H257077   5.478   1.661  15.386 -0.8165 -0.5749  2.3224
11888TIP3   OH257078   2.589   4.599  13.925 -0.6600 -0.1149 -0.1275
11888TIP3    H157079   2.662   4.537  13.923  0.4073  0.9213  2.5230
11888TIP3    H257080   2.568   4.614  13.832  1.4956 -1.5555 -0.9307
11889TIP3   OH257081   2.586   3.001   5.036  0.4556 -0.0570 -0.8132
11889TIP3    H157082   2.581   2.905   5.034  0.6870 -0.0882 -0.1214
11889TIP3    H257083   2.623   3.021   5.122 -0.0262  0.6714 -0.7664
11890TIP3   OH257084   5.904   2.455   1.321  0.0095  0.5273 -0.4494
11890TIP3    H157085   5.854   2.501   1.388  0.5404  1.1132 -0.4490
11890TIP3    H257086   5.954   2.523   1.277 -0.1537  0.1184 -1.2895
11891TIP3   OH257087   1.777   3.551  17.159 -0.5011  0.0731  0.0774
11891TIP3    H157088   1.792   3.645  17.169 -0.0262  0.0044  0.0451
11891TIP3    H257089   1.840   3.510  17.217  0.3464 -0.2591 -1.0346
11892TIP3   OH257090   0.071   5.964   2.581  0.0798  0.2623 -0.2909
11892TIP3    H157091   0.074   6.027   2.509  0.0475  0.5894 -0.0138
11892TIP3    H257092   0.050   6.018   2.658 -1.0096 -0.2442 -0.2249
11893TIP3   OH257093   1.089   0.500  13.560 -0.2606 -0.0758  0.1423
11893TIP3    H157094   1.089   0.552  13.479 -0.0105  0.0977  0.2499
11893TIP3    H257095   1.178   0.465  13.566 -1.0363 -2.4237 -1.1212
11894TIP3   OH257096   1.609   4.983   1.911 -0.7822 -0.1269  0.3441
11894TIP3    H157097   1.555   5.043   1.859 -1.3404  0.3620  1.4660
11894TIP3    H257098   1.552   4.956   1.983  0.2047 -0.2556  1.0937
11895TIP3   OH257099   2.285   4.116   3.002 -0.0723 -0.6199 -0.3413
11895TIP3    H157100   2.270   4.184   3.068 -1.6860  0.3045 -1.5872
11895TIP3    H257101   2.380   4.113   2.992  0.2542 -1.0316  2.2264
11896TIP3   OH257102   1.069   6.577  12.509  0.1849  0.1689  0.2981
11896TIP3    H157103   1.129   6.593  12.436 -1.1779 -0.7884 -1.0880
11896TIP3    H257104   1.070   6.659  12.559  2.3371  0.3005  0.1323
11897TIP3   OH257105   6.651   1.169  13.383  0.0838 -0.7935  0.3829
11897TIP3    H157106   6.586   1.183  13.315 -1.2132 -0.6039  1.6207
11897TIP3    H257107   6.680   1.078  13.372 -0.9260 -1.1046  0.2612
11898TIP3   OH257108   5.920   5.741  11.295  0.0621  0.2754 -0.4089
11898TIP3    H157109   5.922   5.828  11.253 -1.5575 -0.4213 -2.0454
11898TIP3    H257110   5.829   5.713  11.288  0.5333 -1.5245  0.1867
11899TIP3   OH257111   6.048   1.885  10.885 -0.2325  0.4027 -0.3208
11899TIP3    H157112   6.051   1.810  10.826 -1.1719  0.0760  0.0370
11899TIP3    H257113   6.077   1.959  10.831  0.9987 -0.2467 -0.5936
11900TIP3   OH257114   3.386   0.278   5.634  0.2731 -0.3847  0.1727
11900TIP3    H157115   3.332   0.336   5.688 -2.1691 -0.5711 -1.8875
11900TIP3    H257116   3.459   0.334   5.606  0.4758  0.2916  1.8975
11901TIP3   OH257117   3.170   0.612   1.140  0.8875  0.2791  0.2484
11901TIP3    H157118   3.088   0.651   1.172  0.5676 -1.0550  1.1245
11901TIP3    H257119   3.164   0.620   1.045 -0.5790 -0.3760  0.2558
11902TIP3   OH257120   5.400   4.356  13.510 -0.0438 -0.2256 -0.3658
11902TIP3    H157121   5.320   4.355  13.457 -0.9801 -0.4514  1.0064
11902TIP3    H257122   5.395   4.277  13.563  1.1144 -0.2494 -0.2540
11903TIP3   OH257123   2.812   6.029  15.146  0.2794 -0.1029 -0.6341
11903TIP3    H157124   2.757   6.017  15.069 -0.4034  0.3115 -0.2274
11903TIP3    H257125   2.751   6.059  15.214  0.6976 -1.3102  0.3103
11904TIP3   OH257126   5.653   3.347   5.098 -0.1704  0.1094 -0.4576
11904TIP3    H157127   5.616   3.302   5.022 -1.4067  0.3591 -0.0291
11904TIP3    H257128   5.580   3.352   5.160  0.5737  0.7062  0.3815
11905TIP3   OH257129   5.562   0.703  14.887 -0.1439 -0.1812  0.1318
11905TIP3    H157130   5.492   0.668  14.943  0.2666 -0.8029  0.2707
11905TIP3    H257131   5.535   0.679  14.798  0.0698 -0.7567  0.2157
11906TIP3   OH257132   6.640   4.948   2.305 -0.2707  0.1091 -0.0108
11906TIP3    H157133   6.697   4.974   2.234 -0.4752 -0.2891 -0.3233
11906TIP3    H257134   6.644   4.852   2.306 -0.5280  0.0975  0.2958
11907TIP3   OH257135   0.202   0.476  12.599 -0.3498 -0.3648 -0.0281
11907TIP3    H157136   0.180   0.516  12.684 -2.0273  0.6643 -0.8700
11907TIP3    H257137   0.187   0.547  12.536 -0.2989 -1.4438 -1.2827
11908TIP3   OH257138   0.202   0.841   4.771  0.7429 -0.0444  0.2195
11908TIP3    H157139   0.170   0.848   4.861 -0.4613 -0.5272 -0.1543
11908TIP3    H257140   0.273   0.777   4.775 -0.0689 -0.9317  0.6353
11909TIP3   OH257141   2.371   2.748  11.973  0.4527 -0.1720 -0.8255
11909TIP3    H157142   2.289   2.782  12.008  1.6421 -0.2493  2.4118
11909TIP3    H257143   2.437   2.774  12.038  2.8514 -0.9440 -2.7948
11910TIP3   OH257144   5.903   5.520   4.644 -0.6240 -0.2757  0.4391
11910TIP3    H157145   5.945   5.571   4.575 -1.2237 -1.7550 -1.0879
11910TIP3    H257146   5.936   5.558   4.725  0.0169  1.6077 -0.6394
11911TIP3   OH257147   1.612   6.550  14.042 -0.3891 -0.4032  0.4682
11911TIP3    H157148   1.540   6.512  14.092 -1.6601 -2.3028 -2.5343
11911TIP3    H257149   1.627   6.488  13.970  1.4585  1.9770 -1.3740
11912TIP3   OH257150   5.040   4.062  12.408  0.3605  0.0124 -0.0122
11912TIP3    H157151   4.974   3.993  12.413  0.8231 -0.4912 -0.6962
11912TIP3    H257152   5.054   4.088  12.498  1.0411 -1.6214  0.3839
11913TIP3   OH257153   5.224   3.483  13.660  0.1558  0.1031 -0.1060
11913TIP3    H157154   5.184   3.473  13.574  1.5830  0.0413 -0.8028
11913TIP3    H257155   5.214   3.576  13.681 -2.1835 -0.2780  0.7307
11914TIP3   OH257156   5.005   0.722  10.926  0.1641 -0.6369 -0.0832
11914TIP3    H157157   4.972   0.651  10.871 -1.0691 -0.1435 -0.0158
11914TIP3    H257158   4.927   0.770  10.953  0.7099 -0.8854  2.1687
11915TIP3   OH257159   0.916   2.666   0.936  0.3905 -0.5036 -0.7869
11915TIP3    H157160   0.925   2.638   1.027  1.2743 -0.7226 -0.9322
11915TIP3    H257161   0.932   2.587   0.884 -2.3311 -0.9068 -1.1198
11916TIP3   OH257162   5.748   5.213  13.910 -0.8648 -0.1040  0.3530
11916TIP3    H157163   5.793   5.183  13.988  1.0423  0.4245 -0.4876
11916TIP3    H257164   5.774   5.305  13.900 -1.8005  0.1065 -0.4112
11917TIP3   OH257165   1.764   1.780   0.513  0.0463 -0.4601 -0.1384
11917TIP3    H157166   1.693   1.816   0.460 -0.2815 -0.9531 -0.0352
11917TIP3    H257167   1.841   1.784   0.455 -0.4330 -1.5571 -0.8838
11918TIP3   OH257168   6.070   3.654   6.430  0.1523  0.2831  0.1696
11918TIP3    H157169   6.164   3.672   6.433  0.0805  0.7163 -0.1189
11918TIP3    H257170   6.061   3.569   6.473  0.9138 -0.6913 -1.5021
11919TIP3   OH257171   2.106   6.626   0.085  0.2409  0.6676  0.3095
11919TIP3    H157172   2.132   6.539   0.054 -0.2354  0.8301 -0.5545
11919TIP3    H257173   2.177   6.684   0.058  1.4755  0.2906  2.4811
11920TIP3   OH257174   4.653   4.612  10.542  0.1943  0.1514  0.4559
11920TIP3    H157175   4.740   4.593  10.506  0.5182  0.2865  1.1680
11920TIP3    H257176   4.662   4.696  10.586 -0.0180 -0.3482  1.4719
11921TIP3   OH257177   2.811   1.673   5.188  0.2081  0.6677  0.7756
11921TIP3    H157178   2.861   1.714   5.117 -0.0718 -0.5608 -0.1667
11921TIP3    H257179   2.877   1.625   5.238  0.3941  1.4703  1.3194
11922TIP3   OH257180   1.802   5.880   1.364 -0.1079  0.3191 -0.5827
11922TIP3    H157181   1.719   5.834   1.372  0.1958 -0.1668 -0.1384
11922TIP3    H257182   1.860   5.837   1.428 -0.0504  1.8483  0.4542
11923TIP3   OH257183   1.926   2.655  17.126 -0.2715 -0.5110  0.2861
11923TIP3    H157184   1.982   2.583  17.098 -0.7287 -0.6530 -0.2745
11923TIP3    H257185   1.983   2.710  17.180  0.6113 -0.2747 -0.8496
11924TIP3   OH257186   4.521   5.739   3.607  1.0691 -0.0245 -0.0467
11924TIP3    H157187   4.434   5.753   3.569  0.9025 -0.3247  0.2218
11924TIP3    H257188   4.566   5.680   3.546  1.2368  0.4603 -0.4011
11925TIP3   OH257189   5.475   3.414  13.769  0.3263  0.5342  0.4318
11925TIP3    H157190   5.411   3.447  13.706  0.7689  1.0981  0.2671
11925TIP3    H257191   5.541   3.483  13.774 -0.8674  1.6334  3.3038
11926TIP3   OH257192   2.673   3.084   1.865  0.3352  0.1061  0.6705
11926TIP3    H157193   2.724   3.015   1.823  1.8681  1.1435  0.7341
11926TIP3    H257194   2.712   3.165   1.832 -1.3415  0.9459  0.6864
11927TIP3   OH257195   6.785   5.298  13.040 -0.5226  0.2358 -0.1256
11927TIP3    H157196   6.799   5.220  13.094 -0.1775 -0.1739 -0.7975
11927TIP3    H257197   6.761   5.264  12.954  0.4389  0.8475 -0.6547
11928TIP3   OH257198   4.401   6.543   6.461  0.1494  0.1038 -0.1978
11928TIP3    H157199   4.365   6.456   6.480  1.4138 -0.4549 -0.1952
11928TIP3    H257200   4.464   6.527   6.391  0.2406  1.0591 -0.3411
11929TIP3   OH257201   1.028   6.542   2.976  0.3896  0.0709  0.4407
11929TIP3    H157202   0.991   6.484   3.042  0.4976 -0.4349  0.0608
11929TIP3    H257203   0.969   6.617   2.974 -0.0905 -0.3047  0.5069
11930TIP3   OH257204   6.709   6.443  14.478  0.3922 -0.0482 -0.1820
11930TIP3    H157205   6.778   6.381  14.453  0.3364 -1.0657  1.9937
11930TIP3    H257206   6.738   6.480  14.561 -2.0080 -1.1637  1.2695
11931TIP3   OH257207   1.929   4.757  10.646  0.3566  0.1296  0.3447
11931TIP3    H157208   1.991   4.830  10.645  0.6670 -0.0950 -1.7336
11931TIP3    H257209   1.858   4.785  10.587 -0.0409 -0.8160  0.3544
11932TIP3   OH257210   2.016   1.485   2.233 -0.1648  0.1581  0.7485
11932TIP3    H157211   1.985   1.475   2.143  2.0536 -1.2796  0.0604
11932TIP3    H257212   1.945   1.448   2.286  0.1186 -2.8546 -0.7274
11933TIP3   OH257213   3.664   1.885   4.286  0.1355 -0.3678 -0.0461
11933TIP3    H157214   3.710   1.968   4.295 -1.5099  0.7561 -1.2544
11933TIP3    H257215   3.590   1.905   4.228 -0.8312 -2.4739  0.3536
11934TIP3   OH257216   1.788   0.819   5.444 -0.4391  0.4086  0.5983
11934TIP3    H157217   1.784   0.820   5.348  1.5838  3.1151  0.4423
11934TIP3    H257218   1.857   0.756   5.465  1.2703  2.0380  0.0637
11935TIP3   OH257219   1.249   3.439  12.900 -0.3828 -0.1139  0.1597
11935TIP3    H157220   1.312   3.478  12.960 -0.4283 -0.4986  0.4648
11935TIP3    H257221   1.179   3.505  12.892  0.1186  0.3686 -0.2913
11936TIP3   OH257222   4.699   5.380   5.255  0.3777  0.4470 -0.1515
11936TIP3    H157223   4.731   5.357   5.168  4.1782 -0.5604  1.3179
11936TIP3    H257224   4.608   5.351   5.255  0.8306 -1.4257 -3.0885
11937TIP3   OH257225   5.775   6.145   6.403 -0.5798 -0.3357  0.1041
11937TIP3    H157226   5.841   6.114   6.341 -1.7201 -0.5598 -1.0202
11937TIP3    H257227   5.702   6.085   6.392 -0.9370 -0.1887  1.4558
11938TIP3   OH257228   2.735   0.301  13.567 -0.1862 -1.0022  0.4979
11938TIP3    H157229   2.696   0.280  13.481 -1.5629 -0.9709  1.0856
11938TIP3    H257230   2.779   0.385  13.553 -1.4284 -0.3812  0.0996
11939TIP3   OH257231   2.600   6.156   2.330  0.2035 -0.2850  0.0914
11939TIP3    H157232   2.681   6.206   2.320 -2.0083  3.7343  0.3455
11939TIP3    H257233   2.611   6.110   2.413  1.6901  1.3408  0.8753
11940TIP3   OH257234   6.421   2.698   1.728  0.3597  0.4390  0.0354
11940TIP3    H157235   6.427   2.603   1.724  0.2201  0.4605 -1.5215
11940TIP3    H257236   6.336   2.718   1.688  0.9071  1.2497 -0.7913
11941TIP3   OH257237   2.325   3.625  11.718 -0.1750  0.1081 -0.3397
11941TIP3    H157238   2.244   3.677  11.716 -0.1588  0.1261 -0.8008
11941TIP3    H257239   2.395   3.689  11.729 -0.2331  0.0822  0.1679
11942TIP3   OH257240   3.484   1.903  11.279  0.2050  0.0296 -0.5335
11942TIP3    H157241   3.578   1.900  11.259  0.2775 -0.0054 -0.2073
11942TIP3    H257242   3.481   1.900  11.375 -0.1301  0.0263 -0.5443
11943TIP3   OH257243   0.162   6.786  15.004 -0.2117 -0.0521  0.0786
11943TIP3    H157244   0.166   6.742  14.919 -0.0732  1.0518 -0.5034
11943TIP3    H257245   0.253   6.807  15.025 -0.4309  2.2142 -0.9059
11944TIP3   OH257246   4.139   4.527   6.587 -0.4529 -0.1558 -0.4940
11944TIP3    H157247   4.234   4.527   6.588 -0.4272 -0.8485 -1.3585
11944TIP3    H257248   4.115   4.619   6.574  0.1323 -0.1079 -1.3023
11945TIP3   OH257249   6.798   6.071   2.334  0.3822  0.6264  0.0726
11945TIP3    H157250   6.832   5.993   2.289  0.2438  1.3332 -1.3082
11945TIP3    H257251   6.805   6.141   2.269 -0.5266  1.5275  0.9193
11946TIP3   OH257252   6.393   4.591   1.541 -0.2375  0.5218 -0.3073
11946TIP3    H157253   6.418   4.665   1.596  0.8632 -0.2478  0.2669
11946TIP3    H257254   6.429   4.611   1.455 -0.3832  0.8850 -0.2838
11947TIP3   OH257255   1.761   4.732   5.236 -0.1952  0.1856 -0.8815
11947TIP3    H157256   1.839   4.781   5.261 -0.0980  0.5160 -1.7813
11947TIP3    H257257   1.795   4.650   5.200 -0.3353 -0.3166  0.0966
11948TIP3   OH257258   6.273   2.718  16.034  0.7509  0.1905  0.6228
11948TIP3    H157259   6.207   2.753  16.093  1.9218  1.8500  1.0192
11948TIP3    H257260   6.306   2.639  16.077 -3.7274 -3.3088 -1.4400
11949TIP3   OH257261   0.651   6.131  16.568  0.2220  0.3775 -0.5044
11949TIP3    H157262   0.591   6.056  16.570  0.5914  0.0856 -0.0190
11949TIP3    H257263   0.685   6.132  16.479  1.4407 -1.0360 -0.0952
11950TIP3   OH257264   5.855   0.162  14.522  0.1902  0.6425 -0.3692
11950TIP3    H157265   5.819   0.224  14.458  0.5244 -0.6159 -1.8437
11950TIP3    H257266   5.832   0.076  14.486  0.3068 -0.1101  1.2854
11951TIP3   OH257267   6.240   3.281  16.618  0.4311  0.2127 -0.4822
11951TIP3    H157268   6.145   3.282  16.628  0.4033  0.5321 -0.7805
11951TIP3    H257269   6.268   3.366  16.650  0.2739  1.6058 -3.7279
11952TIP3   OH257270   0.535   4.534  15.066  0.0331  0.2639 -0.1027
11952TIP3    H157271   0.551   4.526  15.160  0.8443  0.2554 -0.2364
11952TIP3    H257272   0.609   4.490  15.025 -0.0415  0.7336 -0.7573
11953TIP3   OH257273   0.623   6.630   1.913  0.2275 -0.1240 -0.1681
11953TIP3    H157274   0.621   6.713   1.961  0.6321 -0.1823 -0.0416
11953TIP3    H257275   0.536   6.593   1.925  0.7090 -0.7773  1.6597
11954TIP3   OH257276   0.443   2.309  14.399 -0.2627  0.0437  0.0677
11954TIP3    H157277   0.429   2.316  14.305 -0.8686 -1.8424 -0.0339
11954TIP3    H257278   0.360   2.339  14.438  0.3017  1.6913  0.0816
11955TIP3   OH257279   0.150   0.123   5.920  0.0031 -0.3374 -0.1637
11955TIP3    H157280   0.073   0.085   5.962 -1.8042  3.7124  0.5976
11955TIP3    H257281   0.196   0.168   5.991  0.2058  1.5730 -1.4240
11956TIP3   OH257282   2.184   1.110  13.746  1.0767 -0.0378  0.0348
11956TIP3    H157283   2.158   1.183  13.690  0.5649  0.3797  0.8073
11956TIP3    H257284   2.169   1.141  13.835 -2.5018 -2.2449  0.3995
11957TIP3   OH257285   5.219   1.736   5.178  0.4373 -0.2428  0.1115
11957TIP3    H157286   5.312   1.714   5.173  0.4897  0.3228 -2.3148
11957TIP3    H257287   5.209   1.812   5.121 -1.2083  0.9069  1.8235
11958TIP3   OH257288   2.249   1.939  14.970 -0.6493  0.0466 -0.5375
11958TIP3    H157289   2.316   1.995  14.930 -0.3031 -1.6310 -2.4946
11958TIP3    H257290   2.168   1.966  14.928 -0.9011  0.6978  0.3354
11959TIP3   OH257291   1.083   1.162  12.724  0.1133 -0.3572 -0.4648
11959TIP3    H157292   1.090   1.097  12.655  2.8838  0.6817 -1.3120
11959TIP3    H257293   1.069   1.245  12.678  0.2840  0.1296  0.3403
11960TIP3   OH257294   1.772   0.577  12.040 -0.4783  0.1491  0.8443
11960TIP3    H157295   1.828   0.595  11.965 -0.3220  2.4600  1.4449
11960TIP3    H257296   1.723   0.658  12.054 -0.3363 -0.1065  3.3738
11961TIP3   OH257297   1.181   0.669   2.893  0.0959  0.4211  0.1728
11961TIP3    H157298   1.245   0.738   2.910  1.0671 -0.3879 -0.1054
11961TIP3    H257299   1.138   0.696   2.812  1.2699  0.1491 -0.5625
11962TIP3   OH257300   4.940   1.596  12.149  0.1367 -0.0807 -0.6460
11962TIP3    H157301   4.904   1.684  12.135  0.7610  0.2532 -0.1955
11962TIP3    H257302   5.033   1.606  12.130  0.2018 -0.6628 -0.6312
11963TIP3   OH257303   2.381   1.718  16.434  0.2166  0.3829 -0.1317
11963TIP3    H157304   2.345   1.739  16.348 -1.0659  0.5861  0.4271
11963TIP3    H257305   2.419   1.631  16.423 -1.0342 -0.1244 -0.6104
11964TIP3   OH257306   1.713   1.569   4.901 -0.4887 -0.3013  0.3697
11964TIP3    H157307   1.739   1.480   4.879 -2.1547 -0.3656 -1.5715
11964TIP3    H257308   1.665   1.560   4.984 -1.3666 -1.3556 -0.2331
11965TIP3   OH257309   1.957   3.909  16.822 -0.1400  0.5523  0.3906
11965TIP3    H157310   1.898   3.839  16.847  1.4528 -0.4876  1.4072
11965TIP3    H257311   2.045   3.874  16.840  0.9963  1.0619 -3.3172
11966TIP3   OH257312   5.422   2.970   4.112  0.1368  0.4705 -0.3305
11966TIP3    H157313   5.445   2.947   4.021  0.0920  1.6177 -0.6439
11966TIP3    H257314   5.327   2.982   4.110  0.4061  3.0097 -0.7549
11967TIP3   OH257315   6.650   4.826  16.580  0.1053  0.3248  0.0521
11967TIP3    H157316   6.745   4.835  16.578  0.1544  0.0363  0.9304
11967TIP3    H257317   6.620   4.885  16.511  0.9310  0.1994 -0.4348
11968TIP3   OH257318   6.266   5.366  10.735  0.5115 -0.4249  0.2400
11968TIP3    H157319   6.183   5.365  10.686  0.2325  0.0022  0.6975
11968TIP3    H257320   6.325   5.418  10.680  0.2882 -0.2019  0.2082
11969TIP3   OH257321   5.649   3.608  13.670  0.1807  0.2414 -0.0198
11969TIP3    H157322   5.738   3.572  13.670  0.3521  0.6602 -0.3969
11969TIP3    H257323   5.611   3.575  13.588  0.2581  0.7106 -0.2491
11970TIP3   OH257324   1.410   1.518  11.698 -0.3384 -0.0760 -0.4474
11970TIP3    H157325   1.322   1.533  11.733 -0.5593 -1.4809 -0.3253
11970TIP3    H257326   1.395   1.487  11.608 -0.0210 -1.1284 -0.1444
11971TIP3   OH257327   1.597   5.298  15.508  0.0273  1.0915 -0.1775
11971TIP3    H157328   1.565   5.375  15.462 -0.6021  1.5558  0.9980
11971TIP3    H257329   1.624   5.237  15.438 -2.0180  1.2687 -1.1943
11972TIP3   OH257330   3.912   2.840  11.514  0.1322  0.2297 -0.0800
11972TIP3    H157331   3.918   2.931  11.484 -0.3373 -0.0464 -1.0450
11972TIP3    H257332   3.823   2.832  11.546  0.7032  0.5954  1.7161
11973TIP3   OH257333   2.670   3.130  12.605 -0.4295  0.1996 -0.4817
11973TIP3    H157334   2.691   3.223  12.613  0.6797  0.1459 -2.2546
11973TIP3    H257335   2.745   3.086  12.645 -1.2490  0.0415  0.9369
11974TIP3   OH257336   3.330   6.167  16.696  0.1062 -0.3519 -0.8422
11974TIP3    H157337   3.398   6.148  16.761 -0.0159 -2.0230 -1.1670
11974TIP3    H257338   3.351   6.255  16.664 -0.1986  0.7852  1.8715
11975TIP3   OH257339   2.482   2.150   1.000 -0.3685 -0.5033 -0.0300
11975TIP3    H157340   2.567   2.132   1.042  0.5208  0.0320 -1.5399
11975TIP3    H257341   2.474   2.083   0.932 -0.3619  0.4596 -0.9997
11976TIP3   OH257342   0.499   1.923   5.339  0.4973  0.1078  0.0893
11976TIP3    H157343   0.458   1.932   5.253  1.4610  0.2899 -0.3666
11976TIP3    H257344   0.488   1.830   5.362 -0.0688  0.1324 -0.0582
11977TIP3   OH257345   3.244   5.130  15.053  0.0786  0.4913  0.0281
11977TIP3    H157346   3.154   5.132  15.084 -0.4702 -0.4430 -1.4247
11977TIP3    H257347   3.263   5.036  15.042  1.0974  0.6973 -0.0461
11978TIP3   OH257348   1.342   2.858   1.410  0.3397 -0.0227 -0.0115
11978TIP3    H157349   1.293   2.860   1.492  2.0699 -1.3842  1.1248
11978TIP3    H257350   1.282   2.896   1.345 -2.1537 -1.5171  1.2835
11979TIP3   OH257351   2.835   5.158  12.438 -0.6140  0.0067 -0.5419
11979TIP3    H157352   2.820   5.253  12.443 -1.0598 -0.1145  0.7195
11979TIP3    H257353   2.882   5.137  12.519  0.6709 -0.6516 -1.4344
11980TIP3   OH257354   0.689   2.286  17.070 -0.0387  0.3479 -0.7443
11980TIP3    H157355   0.610   2.256  17.026 -0.1313  0.6702 -0.8025
11980TIP3    H257356   0.745   2.209  17.074 -0.9520 -0.2998  0.6627
11981TIP3   OH257357   1.960   4.961  15.672  0.4544 -0.8625  0.4053
11981TIP3    H157358   1.931   5.049  15.652  0.0494 -0.4452  2.5424
11981TIP3    H257359   1.890   4.904  15.640 -1.3399 -0.0800  2.7050
11982TIP3   OH257360   5.689   0.260  13.526  0.5014 -0.0482 -0.1709
11982TIP3    H157361   5.599   0.261  13.558  0.3687  0.2463 -0.5475
11982TIP3    H257362   5.681   0.271  13.431  0.9949  1.7258 -0.0520
11983TIP3   OH257363   4.208   2.849  11.497  0.1044 -0.0041 -0.1807
11983TIP3    H157364   4.199   2.943  11.482  0.3846  0.1128  0.3727
11983TIP3    H257365   4.130   2.811  11.457  0.7488  0.3049 -1.7808
11984TIP3   OH257366   5.671   1.939   3.069  0.2974 -0.0628  0.9070
11984TIP3    H157367   5.660   1.961   2.976  0.6163 -0.2171  0.8311
11984TIP3    H257368   5.586   1.902   3.095  1.0201 -2.6044 -0.0551
11985TIP3   OH257369   0.215   3.589   2.928 -0.0416  0.1879  0.3421
11985TIP3    H157370   0.263   3.646   2.869 -0.2843  1.0184  0.9334
11985TIP3    H257371   0.280   3.525   2.958  0.8438  1.5817  1.5061
11986TIP3   OH257372   4.589   4.405  10.716  0.2523  0.0427 -0.1975
11986TIP3    H157373   4.646   4.331  10.695 -1.1185 -1.3260  0.7115
11986TIP3    H257374   4.603   4.467  10.644 -0.3076 -2.1297 -2.3133
11987TIP3   OH257375   4.775   1.732   4.996 -0.1071 -0.4659  0.2714
11987TIP3    H157376   4.777   1.641   4.966 -0.5174 -0.1169 -0.8808
11987TIP3    H257377   4.789   1.726   5.090 -0.3989 -1.7425  0.2618
11988TIP3   OH257378   4.601   2.836  13.994 -0.6797 -0.0164 -0.0125
11988TIP3    H157379   4.691   2.812  14.015 -0.5034  1.1265  0.6322
11988TIP3    H257380   4.597   2.930  14.012 -1.6295  0.2271 -1.3791
11989TIP3   OH257381   2.610   2.565   0.340 -0.8701  0.0452  0.6790
11989TIP3    H157382   2.557   2.530   0.411  0.7225 -1.3042  1.2745
11989TIP3    H257383   2.546   2.595   0.275 -2.3674 -2.0805  1.0667
11990TIP3   OH257384   4.792   6.329  12.298 -0.2467 -0.0779  0.2190
11990TIP3    H157385   4.740   6.257  12.262 -1.8441  1.1946 -0.1240
11990TIP3    H257386   4.882   6.309  12.272 -0.0767 -3.5715  2.8148
11991TIP3   OH257387   5.944   1.117   5.747 -0.0155 -0.1413  0.5746
11991TIP3    H157388   6.008   1.051   5.773 -1.1134 -1.1670  0.7251
11991TIP3    H257389   5.895   1.136   5.827 -0.0158  0.5244  0.4237
11992TIP3   OH257390   2.457   0.570   3.827 -0.2809 -0.1450 -0.3336
11992TIP3    H157391   2.508   0.512   3.884  1.5762  1.3913 -0.3357
11992TIP3    H257392   2.399   0.510   3.779  0.3490 -1.8015  0.8581
11993TIP3   OH257393   5.246   4.011   0.593 -0.8822 -0.0336 -0.1784
11993TIP3    H157394   5.328   4.035   0.550 -0.1009  0.3483  1.4421
11993TIP3    H257395   5.254   3.917   0.608 -0.5159  0.0866  0.4072
11994TIP3   OH257396   6.742   0.637  11.922  0.0404  0.4417 -0.5085
11994TIP3    H157397   6.649   0.626  11.941  0.0403 -1.6680 -1.4411
11994TIP3    H257398   6.784   0.564  11.967  1.1700  0.9763 -0.6750
11995TIP3   OH257399   2.873   0.839   3.701 -0.2192  0.0285 -0.1551
11995TIP3    H157400   2.869   0.917   3.646 -1.6344  0.1083  0.0311
11995TIP3    H257401   2.782   0.814   3.714  0.0052  0.3436  2.6088
11996TIP3   OH257402   0.403   5.261   5.197  0.0579 -0.2410  0.3879
11996TIP3    H157403   0.459   5.338   5.199 -0.1300  0.0912 -2.5127
11996TIP3    H257404   0.314   5.295   5.201 -0.0372 -0.2038 -1.2527
11997TIP3   OH257405   5.286   2.676   5.391 -0.7760  0.0188 -0.7131
11997TIP3    H157406   5.265   2.765   5.361  0.7002  0.6637  0.0564
11997TIP3    H257407   5.245   2.670   5.478  0.6084  0.6351  0.0177
11998TIP3   OH257408   6.466   1.452   3.977 -0.1399 -0.1501  0.7197
11998TIP3    H157409   6.384   1.464   4.025 -1.4496  0.4818 -1.4852
11998TIP3    H257410   6.534   1.469   4.041 -1.5418 -3.6006  3.4646
11999TIP3   OH257411   0.639   5.590  13.618 -0.4268 -0.1394 -0.1305
11999TIP3    H157412   0.563   5.545  13.654  0.2898 -2.2762 -1.1047
11999TIP3    H257413   0.604   5.671  13.581 -2.1203 -0.7553  0.0427
12000TIP3   OH257414   6.145   1.602  15.099 -0.3506  0.6008  0.2669
12000TIP3    H157415   6.184   1.603  15.012 -1.8999  0.8057 -0.4693
12000TIP3    H257416   6.064   1.551  15.088  0.1934 -0.7374  1.9501
12001TIP3   OH257417   5.440   2.666  15.107  0.4215 -0.1394  0.0419
12001TIP3    H157418   5.510   2.606  15.129  0.2715 -0.5167 -0.4813
12001TIP3    H257419   5.476   2.722  15.039  0.6570  0.5668  0.7294
12002TIP3   OH257420   1.077   4.876  16.304 -0.3204  0.1317 -0.6845
12002TIP3    H157421   1.150   4.887  16.242 -0.3512 -2.5187 -1.3191
12002TIP3    H257422   1.029   4.958  16.299 -0.8011 -0.1651 -4.9103
12003TIP3   OH257423   6.725   5.825   5.819  0.2043 -0.0010 -0.4193
12003TIP3    H157424   6.742   5.746   5.871 -2.0778 -1.1851 -1.3111
12003TIP3    H257425   6.792   5.887   5.847  1.3218 -1.8236  1.2302
12004TIP3   OH257426   0.736   0.259  10.657 -0.2621 -0.4903  0.9765
12004TIP3    H157427   0.737   0.328  10.590 -0.4630 -2.3967 -1.0882
12004TIP3    H257428   0.645   0.229  10.659 -0.0008 -1.2840  1.2359
12005TIP3   OH257429   3.558   3.429   4.128  0.1034  0.0654  0.7131
12005TIP3    H157430   3.533   3.445   4.219  0.9426  1.0607  0.7915
12005TIP3    H257431   3.650   3.454   4.124  0.6248 -1.7720  0.0291
12006TIP3   OH257432   5.722   0.582  10.871  1.0220  0.5605 -0.1345
12006TIP3    H157433   5.780   0.507  10.884  2.1224  1.7759  2.5532
12006TIP3    H257434   5.635   0.542  10.858  1.4319 -1.2250  2.0208
12007TIP3   OH257435   5.092   3.008   4.385 -0.4967 -0.2288 -0.2437
12007TIP3    H157436   5.100   2.913   4.374 -0.4162 -0.1531 -0.8664
12007TIP3    H257437   5.003   3.021   4.420  0.8340 -0.8515  4.0007
12008TIP3   OH257438   2.801   5.390  15.859  0.3211 -0.1879  0.0503
12008TIP3    H157439   2.867   5.439  15.809  0.7271 -0.2910  0.4836
12008TIP3    H257440   2.718   5.429  15.832  0.0997 -2.7729 -3.7395
12009TIP3   OH257441   2.061   4.200   4.354  0.1881 -0.0731 -0.1497
12009TIP3    H157442   2.121   4.274   4.344 -0.6246  0.5943 -0.1786
12009TIP3    H257443   1.973   4.238   4.345 -0.2942 -0.8247  1.0795
12010TIP3   OH257444   5.385   3.827  14.868 -0.4830  0.3565  0.1427
12010TIP3    H157445   5.472   3.857  14.841  0.9087 -1.3927  2.3389
12010TIP3    H257446   5.326   3.860  14.799  2.2955 -1.1636 -3.2709
12011TIP3   OH257447   3.329   1.126  14.927 -0.1788 -0.5460 -0.2676
12011TIP3    H157448   3.274   1.188  14.974  0.8072  0.3830 -0.2885
12011TIP3    H257449   3.321   1.045  14.976 -0.6219 -0.1006  0.4186
12012TIP3   OH257450   0.571   2.061  14.473 -0.0167 -0.2383 -0.4471
12012TIP3    H157451   0.510   2.003  14.518  0.1582 -1.5090 -1.7685
12012TIP3    H257452   0.520   2.138  14.450 -0.4572 -0.1915  0.6367
12013TIP3   OH257453   0.267   1.598   1.519  0.4020 -0.0729 -0.3631
12013TIP3    H157454   0.284   1.680   1.472 -0.0361  0.4721  0.3829
12013TIP3    H257455   0.306   1.612   1.605  0.7283 -0.8428 -0.3818
12014TIP3   OH257456   3.220   5.094   6.304 -0.5902 -0.6822 -0.8343
12014TIP3    H157457   3.230   5.141   6.387  1.2394 -1.5201 -0.5430
12014TIP3    H257458   3.159   5.148   6.253  0.1293  1.1099  0.1347
12015TIP3   OH257459   5.993   5.986   2.704  0.1295  0.1306  0.2203
12015TIP3    H157460   5.964   5.975   2.614  0.4175 -0.3183  0.1856
12015TIP3    H257461   5.951   6.068   2.732 -0.7091 -0.2093 -0.0189
12016TIP3   OH257462   1.929   5.580  12.165  0.7386  0.4813 -0.7813
12016TIP3    H157463   1.914   5.609  12.255  1.8786 -1.3165  0.0554
12016TIP3    H257464   1.873   5.503  12.155  2.2786 -0.6949 -0.7832
12017TIP3   OH257465   6.503   6.716  14.737 -0.5197 -0.1845 -0.6556
12017TIP3    H157466   6.422   6.697  14.783 -0.8240 -0.5426 -1.3225
12017TIP3    H257467   6.483   6.794  14.686 -0.7356 -0.7829 -1.5078
12018TIP3   OH257468   6.461   5.536  16.564  0.9478  0.3128  0.1574
12018TIP3    H157469   6.407   5.534  16.485  1.8187  1.7097 -0.5138
12018TIP3    H257470   6.417   5.476  16.624 -0.6193  0.4324 -0.8062
12019TIP3   OH257471   1.640   5.295  13.511  0.5939  0.4716 -0.0243
12019TIP3    H157472   1.591   5.289  13.593  1.1908 -0.1943  0.2928
12019TIP3    H257473   1.724   5.253  13.530  1.1363  1.2390 -0.6740
12020TIP3   OH257474   2.331   0.288  11.538 -0.7380 -0.2109 -0.3663
12020TIP3    H157475   2.377   0.308  11.456  0.4234 -0.8540  0.0966
12020TIP3    H257476   2.394   0.311  11.606  0.0400 -3.5795  0.2364
12021TIP3   OH257477   0.295   3.099  15.775 -0.4933  0.1104  0.4426
12021TIP3    H157478   0.329   3.049  15.701 -0.3161 -0.0708  0.6469
12021TIP3    H257479   0.361   3.089  15.843 -2.4673 -3.2722  2.1669
12022TIP3   OH257480   6.517   5.394   2.936 -0.4662  0.2855  0.4163
12022TIP3    H157481   6.524   5.339   2.858 -2.7634 -1.0814  1.0635
12022TIP3    H257482   6.556   5.478   2.910  1.2065 -0.9435 -1.3025
12023TIP3   OH257483   4.101   3.105   5.082  0.1384  0.3153  0.4482
12023TIP3    H157484   4.192   3.077   5.074  0.2935  0.8582  0.2948
12023TIP3    H257485   4.094   3.141   5.170 -0.4144 -1.4491  1.1706
12024TIP3   OH257486   5.715   0.750   2.608 -0.4632  0.1662 -0.9785
12024TIP3    H157487   5.662   0.818   2.649  0.5353  0.3073  0.1151
12024TIP3    H257488   5.760   0.795   2.536 -1.3496  0.1815 -1.5320
12025TIP3   OH257489   4.816   0.781   4.925 -0.1473 -0.3325 -0.2666
12025TIP3    H157490   4.723   0.771   4.944  0.0360 -1.0288  0.3008
12025TIP3    H257491   4.859   0.771   5.010  0.3541  1.5767 -0.2504
12026TIP3   OH257492   1.454   0.496   4.745 -0.2459 -0.2157 -0.1889
12026TIP3    H157493   1.469   0.447   4.664 -1.6752  1.0275 -1.2536
12026TIP3    H257494   1.421   0.430   4.807 -0.1676 -0.9825 -0.9485
12027TIP3   OH257495   1.830   2.387  15.439  0.4997 -0.0828  0.1398
12027TIP3    H157496   1.864   2.476  15.453  1.7482 -0.7398  1.4893
12027TIP3    H257497   1.738   2.393  15.467  0.6921  0.6779  0.6688
12028TIP3   OH257498   5.109   0.269  14.507  0.5575  0.2614  0.1948
12028TIP3    H157499   5.194   0.307  14.484  0.5245  1.1445  1.4333
12028TIP3    H257500   5.122   0.174  14.500  0.9878  0.4393 -1.7893
12029TIP3   OH257501   4.354   4.025  17.041 -0.1908 -0.7045  0.2386
12029TIP3    H157502   4.399   4.105  17.013  0.4731 -0.6996  1.2651
12029TIP3    H257503   4.384   3.958  16.979 -0.3477 -0.2780 -0.3106
12030TIP3   OH257504   0.638   1.422  12.689 -0.0307  0.5266  0.2554
12030TIP3    H157505   0.714   1.412  12.632 -1.2441 -0.5545 -1.2360
12030TIP3    H257506   0.600   1.507  12.663  1.2154  1.6117  1.7658
12031TIP3   OH257507   4.128   1.513   4.272 -0.3774 -0.6307 -0.0358
12031TIP3    H157508   4.078   1.435   4.246  0.2113 -1.0739  0.1282
12031TIP3    H257509   4.219   1.491   4.250 -0.2431  0.1208 -0.2390
12032TIP3   OH257510   6.123   3.754   5.394  0.3915 -0.2426 -0.2577
12032TIP3    H157511   6.100   3.673   5.440  1.5412 -1.2420 -1.3449
12032TIP3    H257512   6.068   3.821   5.433 -0.4530 -1.5211  0.8180
12033TIP3   OH257513   1.280   2.074  16.484  0.0831  0.3713  0.0788
12033TIP3    H157514   1.187   2.063  16.464  0.0000  1.9087 -0.5280
12033TIP3    H257515   1.282   2.083  16.579 -0.6727  2.3168 -0.0392
12034TIP3   OH257516   1.670   0.469  11.436 -0.1251 -0.1916 -0.0840
12034TIP3    H157517   1.610   0.542  11.419 -0.4664 -0.3100  0.5746
12034TIP3    H257518   1.692   0.436  11.349 -2.0806 -0.9976 -0.3336
12035TIP3   OH257519   0.191   4.997  13.492 -0.1610 -0.2548  0.4321
12035TIP3    H157520   0.145   5.069  13.534  0.7259  0.2279  0.6007
12035TIP3    H257521   0.277   5.033  13.470 -0.0389 -0.9861 -0.3258
12036TIP3   OH257522   6.126   1.160  13.330  0.3199  0.0362  0.3132
12036TIP3    H157523   6.199   1.097  13.338 -1.1022 -1.7129  0.1971
12036TIP3    H257524   6.095   1.172  13.420  1.1468  1.3163  0.4475
12037TIP3   OH257525   3.468   6.039   6.064 -0.0823 -0.1238  0.1085
12037TIP3    H157526   3.499   5.950   6.049  1.2346  0.1900  0.7977
12037TIP3    H257527   3.427   6.036   6.151 -0.4700 -0.1613 -0.0747
12038TIP3   OH257528   4.679   2.549  12.736 -0.1335 -1.0216  0.0234
12038TIP3    H157529   4.763   2.566  12.779 -0.4354 -0.5539  0.4352
12038TIP3    H257530   4.619   2.528  12.808 -0.1559 -2.3068 -0.3353
12039TIP3   OH257531   2.956   1.179  17.120  0.4261 -0.3091  0.1528
12039TIP3    H157532   3.024   1.119  17.149  0.2589 -0.8181 -0.4994
12039TIP3    H257533   3.002   1.247  17.071  0.8222  1.0198  2.2237
12040TIP3   OH257534   1.293   3.533   0.280 -0.7306 -0.2115  0.0614
12040TIP3    H157535   1.353   3.492   0.343 -0.0593  1.1133  0.3154
12040TIP3    H257536   1.317   3.495   0.196  1.2633  1.0864 -0.0165
12041TIP3   OH257537   1.401   1.504  12.256  0.7828 -0.1576 -0.6092
12041TIP3    H157538   1.369   1.584  12.299  1.6512  1.6036 -3.0297
12041TIP3    H257539   1.492   1.523  12.234  1.1482 -2.0125 -0.8870
12042TIP3   OH257540   3.992   3.589   5.770  0.8753  0.1687 -0.3142
12042TIP3    H157541   3.956   3.678   5.773  1.0470  0.2975 -1.7318
12042TIP3    H257542   4.044   3.587   5.690  1.3508 -1.0417  0.0078
12043TIP3   OH257543   3.921   2.067   2.502 -0.6367 -0.1934 -0.3222
12043TIP3    H157544   3.826   2.072   2.491 -0.5301  0.5572 -1.0886
12043TIP3    H257545   3.934   2.035   2.591 -1.6086  0.6604  0.1467
12044TIP3   OH257546   5.022   3.202  15.138 -0.5033  0.2991 -0.1621
12044TIP3    H157547   4.981   3.183  15.053  0.2643 -1.8486 -0.1157
12044TIP3    H257548   5.116   3.198  15.120 -0.2862 -2.3702  1.1395
12045TIP3   OH257549   0.484   3.048   1.493  0.2804 -0.1137  0.4893
12045TIP3    H157550   0.575   3.031   1.467  0.0700 -0.1576 -0.2093
12045TIP3    H257551   0.431   3.001   1.430 -0.3250  2.8189 -1.3945
12046TIP3   OH257552   3.006   4.618  14.100 -0.0120  0.5751  0.6497
12046TIP3    H157553   2.966   4.688  14.153 -2.7371 -0.1339 -0.3116
12046TIP3    H257554   3.089   4.600  14.144 -0.6686  2.2229  2.7859
12047TIP3   OH257555   5.175   2.464  14.230  0.3749  0.7177  0.8044
12047TIP3    H157556   5.259   2.499  14.258  0.3412  1.4887 -0.0134
12047TIP3    H257557   5.110   2.522  14.271  0.2467  0.3507  1.1303
12048TIP3   OH257558   6.188   0.543   2.955 -0.2699  0.2431  0.4178
12048TIP3    H157559   6.121   0.567   2.891  0.1086 -0.8556 -0.4220
12048TIP3    H257560   6.238   0.623   2.969 -1.3620  0.9266  0.6019
12049TIP3   OH257561   1.313   0.877  11.412  0.3609 -0.2603 -0.8603
12049TIP3    H157562   1.388   0.887  11.471 -0.5887 -0.9316  0.4982
12049TIP3    H257563   1.282   0.788  11.427 -0.2286 -0.2653 -2.0018
12050TIP3   OH257564   3.366   4.150  15.347 -0.6753 -0.1980  0.1388
12050TIP3    H157565   3.399   4.172  15.434 -1.7319  1.4179  0.1725
12050TIP3    H257566   3.429   4.191  15.287 -0.7032 -0.1262  0.1585
12051TIP3   OH257567   4.002   2.777  13.007  0.3330 -0.8833 -0.0085
12051TIP3    H157568   4.048   2.765  13.090  0.8505  1.8268  0.1705
12051TIP3    H257569   4.012   2.692  12.963  2.5950 -1.4767  1.4502
12052TIP3   OH257570   2.882   3.988  15.895  0.3745 -0.0844  0.0457
12052TIP3    H157571   2.907   3.969  15.986 -0.6384 -1.1555  0.1218
12052TIP3    H257572   2.903   3.908  15.847 -1.0228 -0.2970 -0.2510
12053TIP3   OH257573   3.691   1.872  11.773 -0.5923  0.2363 -0.2203
12053TIP3    H157574   3.654   1.905  11.691  0.0569 -0.9972 -1.0415
12053TIP3    H257575   3.648   1.788  11.787  0.8093 -0.5287 -0.4056
12054TIP3   OH257576   0.788   2.690   6.747  0.2336 -0.1236  0.1259
12054TIP3    H157577   0.767   2.604   6.784 -1.1049 -0.5401 -1.4443
12054TIP3    H257578   0.702   2.732   6.735  0.5680 -0.0073 -2.3451
12055TIP3   OH257579   3.995   6.588   2.653  0.4305 -0.0621 -0.0660
12055TIP3    H157580   3.913   6.567   2.697  1.1050  0.8098  1.7209
12055TIP3    H257581   3.994   6.536   2.573 -2.5857  1.1372 -0.9631
12056TIP3   OH257582   5.215   3.536   4.512  0.2968 -0.1526  0.1229
12056TIP3    H157583   5.290   3.576   4.470  0.9348 -0.5405  0.8712
12056TIP3    H257584   5.156   3.514   4.439  1.6642 -1.4141 -0.6650
12057TIP3   OH257585   3.404   0.023  11.310  0.2808  0.1018 -0.2073
12057TIP3    H157586   3.403   0.076  11.389  1.7726  1.5836 -1.1236
12057TIP3    H257587   3.440  -0.061  11.339 -1.2211 -0.1387  1.0750
12058TIP3   OH257588   3.827   4.357   0.044  0.5444  0.0221 -0.1722
12058TIP3    H157589   3.771   4.381  -0.030  0.7250  2.0899  0.3040
12058TIP3    H257590   3.836   4.262   0.037 -1.2481 -0.1074 -1.5065
12059TIP3   OH257591   0.943   4.425  10.789  0.0163 -0.2200  0.4966
12059TIP3    H157592   0.959   4.452  10.699  0.6695 -1.1445  0.3246
12059TIP3    H257593   0.880   4.353  10.782 -0.4218  0.1287  0.8235
12060TIP3   OH257594   6.764   4.710   6.308 -1.0953 -0.3294 -0.7304
12060TIP3    H157595   6.822   4.784   6.322 -0.8377 -1.0312  2.6507
12060TIP3    H257596   6.821   4.640   6.277 -0.2991 -0.5944  1.2043
12061TIP3   OH257597   1.058   0.008  13.671  0.4726 -0.0846 -0.9778
12061TIP3    H157598   1.133  -0.046  13.696  1.0790  0.8218 -0.7789
12061TIP3    H257599   0.987  -0.020  13.730  1.3285  0.6508  0.4726
12062TIP3   OH257600   4.934   1.099  16.915 -0.2078 -0.1071  0.1317
12062TIP3    H157601   4.933   1.159  16.989  0.2427 -1.8023  1.5999
12062TIP3    H257602   5.008   1.127  16.861 -1.7202  2.3609 -0.8303
12063TIP3   OH257603   2.168   1.592   5.590  0.4675 -0.3295 -0.0182
12063TIP3    H157604   2.168   1.571   5.497 -1.4502  1.8454 -0.6058
12063TIP3    H257605   2.206   1.680   5.595 -0.5715  0.0975  1.0545
12064TIP3   OH257606   6.486   5.608  12.097  0.0717  0.1601 -0.3093
12064TIP3    H157607   6.464   5.684  12.151 -0.9443  0.0250 -0.5282
12064TIP3    H257608   6.457   5.533  12.148 -1.8958  0.0802 -1.4879
12065TIP3   OH257609   5.436   1.788  13.626  0.3750  0.5671 -0.0902
12065TIP3    H157610   5.467   1.812  13.713  1.8519  0.6100 -0.6101
12065TIP3    H257611   5.500   1.826  13.565 -0.0679 -0.3303 -1.1573
12066TIP3   OH257612   3.823   5.467   2.599 -0.2199  0.3687 -0.2439
12066TIP3    H157613   3.797   5.433   2.684 -1.2509  1.9983  0.1243
12066TIP3    H257614   3.746   5.454   2.543  0.5505 -0.9663 -1.0364
12067TIP3   OH257615   4.857   6.736   2.880  0.0734 -0.4891 -0.3117
12067TIP3    H157616   4.855   6.727   2.975 -0.6024 -1.2708 -0.3881
12067TIP3    H257617   4.867   6.830   2.865  2.6457 -0.5459  0.5305
12068TIP3   OH257618   6.633   3.644  16.083  0.0444 -0.1536 -0.3413
12068TIP3    H157619   6.611   3.680  16.169  0.1591 -1.0128  0.0531
12068TIP3    H257620   6.548   3.624  16.043  0.0107 -2.4062  0.7274
12069TIP3   OH257621   0.571   1.433   0.640  0.0383 -0.0404 -0.1319
12069TIP3    H157622   0.660   1.404   0.623  0.7870  1.6868  0.6691
12069TIP3    H257623   0.569   1.524   0.610 -1.4114  0.0138  0.0484
12070TIP3   OH257624   5.334   0.139   5.800 -0.4883  0.0113 -0.3785
12070TIP3    H157625   5.313   0.053   5.763 -0.9639 -0.9686  1.9943
12070TIP3    H257626   5.421   0.128   5.840 -1.6356 -0.2727  2.2760
12071TIP3   OH257627   3.075   6.801   2.568  0.0877  0.7864  0.0510
12071TIP3    H157628   3.124   6.877   2.600  0.5194  0.7403 -0.5032
12071TIP3    H257629   3.022   6.774   2.644 -1.9896  3.1427 -0.4156
12072TIP3   OH257630   4.243   6.636   6.229  0.2545 -0.3544 -0.4940
12072TIP3    H157631   4.321   6.661   6.180  0.7792  0.0968  0.5422
12072TIP3    H257632   4.275   6.577   6.297 -0.3764 -0.5278 -0.3378
12073TIP3   OH257633   2.794   6.298  16.109 -0.6407 -0.3384 -0.5529
12073TIP3    H157634   2.828   6.210  16.124  0.1182 -0.2866 -1.8441
12073TIP3    H257635   2.848   6.355  16.164  1.0427 -0.3297 -2.1205
12074TIP3   OH257636   5.986   6.257   1.294  0.2840 -0.0822 -0.5628
12074TIP3    H157637   5.909   6.258   1.351  0.7457 -0.0428  0.0717
12074TIP3    H257638   5.951   6.234   1.207 -0.6428  1.3528 -0.6106
12075TIP3   OH257639   4.802   6.263   3.693 -0.4209  0.0328 -0.3979
12075TIP3    H157640   4.869   6.201   3.721 -1.4832  0.0158  2.4849
12075TIP3    H257641   4.846   6.320   3.630  1.9968 -0.5742  0.6387
12076TIP3   OH257642   2.610   4.672   4.799 -0.4145 -0.0680 -0.2596
12076TIP3    H157643   2.601   4.767   4.790 -2.3484 -0.0596  1.1299
12076TIP3    H257644   2.686   4.660   4.856  1.7212  0.4528 -2.8160
12077TIP3   OH257645   3.888   6.286  16.675 -0.0258 -0.4023 -0.8184
12077TIP3    H157646   3.920   6.261  16.589  1.3231 -1.4795 -0.0321
12077TIP3    H257647   3.955   6.255  16.736 -1.9768 -1.6920  0.8100
12078TIP3   OH257648   3.030   3.680  17.158 -0.1015  0.3128  1.0570
12078TIP3    H157649   3.108   3.710  17.205  1.4253  2.2018 -2.3386
12078TIP3    H257650   2.967   3.751  17.169  0.0408  0.4937  0.6880
12079TIP3   OH257651   4.698   5.787  15.617 -0.3085  0.1256  0.1188
12079TIP3    H157652   4.723   5.873  15.583 -0.4289  0.0972 -0.0426
12079TIP3    H257653   4.661   5.741  15.542 -1.2200  0.3141  0.4363
12080TIP3   OH257654   0.070   5.094  15.707  0.0822 -0.1197  0.1174
12080TIP3    H157655   0.049   5.082  15.614 -2.0924  0.2171  0.5145
12080TIP3    H257656   0.141   5.032  15.724  1.7190  1.0137 -2.1336
12081TIP3   OH257657   5.027   3.583  11.753  0.7496  0.2682  0.1616
12081TIP3    H157658   4.936   3.602  11.727  0.3815 -2.2509 -0.7080
12081TIP3    H257659   5.019   3.543  11.839  1.1704  1.0828  0.5844
12082TIP3   OH257660   5.509   4.440  14.178  0.5455 -0.1055  0.0024
12082TIP3    H157661   5.496   4.420  14.086  2.6780  2.9666 -1.1491
12082TIP3    H257662   5.591   4.396  14.201 -0.0439 -0.9685  0.5297
12083TIP3   OH257663   1.330   1.865  16.310  0.1938  0.0097 -0.0592
12083TIP3    H157664   1.257   1.862  16.248 -0.3859 -0.0830  0.6161
12083TIP3    H257665   1.331   1.954  16.343 -0.5656 -0.3640  1.0333
12084TIP3   OH257666   0.278   5.613   2.083  0.4075 -0.0242  0.1507
12084TIP3    H157667   0.191   5.594   2.048  0.3191  0.8145 -0.0932
12084TIP3    H257668   0.339   5.574   2.020  0.2910  2.4520 -1.6560
12085TIP3   OH257669   5.750   0.897   4.203 -0.7132  0.1440 -0.3384
12085TIP3    H157670   5.806   0.869   4.275  0.6033 -2.1355 -2.0888
12085TIP3    H257671   5.661   0.875   4.231 -0.1936 -1.0358  0.4627
12086TIP3   OH257672   3.094   1.527   2.950  0.3901 -0.5909  0.2718
12086TIP3    H157673   3.168   1.583   2.927 -0.5312  0.4941 -0.1287
12086TIP3    H257674   3.123   1.478   3.027  0.9658  0.9969  1.1060
12087TIP3   OH257675   0.715   5.822   0.388 -0.5968 -0.4552 -0.3908
12087TIP3    H157676   0.751   5.754   0.330 -1.8295 -0.0350 -1.7054
12087TIP3    H257677   0.730   5.903   0.340  1.7830  0.4100  1.6086
12088TIP3   OH257678   5.102   0.980   3.856 -0.0994 -0.4953  0.0868
12088TIP3    H157679   5.158   0.934   3.794 -0.6347 -0.1329 -0.6712
12088TIP3    H257680   5.159   1.045   3.896  0.3856 -1.0860  0.3822
12089TIP3   OH257681   4.898   2.271  14.476 -0.2419  0.6291 -0.0396
12089TIP3    H157682   4.826   2.332  14.488  0.2198  1.4930 -1.3651
12089TIP3    H257683   4.857   2.191  14.442 -0.5083  1.5592 -2.0812
12090TIP3   OH257684   3.352   3.452   5.276  0.3563 -0.4140  0.8065
12090TIP3    H157685   3.278   3.503   5.242  1.0207 -0.7539 -1.2983
12090TIP3    H257686   3.344   3.459   5.371 -1.5801  0.6920  0.6184
12091TIP3   OH257687   5.181   6.064  13.142 -0.1433  0.2652 -0.1158
12091TIP3    H157688   5.111   6.016  13.098  0.8270 -1.2963 -0.0328
12091TIP3    H257689   5.254   6.002  13.144  1.0608  1.6584  0.2928
12092TIP3   OH257690   2.303   0.414  14.551  0.1387 -0.3768 -0.1996
12092TIP3    H157691   2.308   0.395  14.457 -0.5287 -0.7796 -0.1567
12092TIP3    H257692   2.231   0.360  14.583  1.5524 -1.6602  0.9201
12093TIP3   OH257693   6.098   1.991   2.483 -0.7406 -0.1059 -0.0082
12093TIP3    H157694   6.120   2.038   2.564  0.9833  0.8362 -0.9584
12093TIP3    H257695   6.025   1.935   2.507 -1.7939  1.8263  1.6301
12094TIP3   OH257696   4.359   6.098  16.694  0.4309  0.0494 -0.0872
12094TIP3    H157697   4.416   6.164  16.735 -1.0207  0.7227  0.9494
12094TIP3    H257698   4.280   6.147  16.669 -0.0875 -1.0294 -0.6403
12095TIP3   OH257699   2.120   0.257   2.158  0.2782 -0.0672 -0.0840
12095TIP3    H157700   2.117   0.269   2.253 -0.6895 -0.3515 -0.0700
12095TIP3    H257701   2.209   0.282   2.134  1.8784 -3.6891  1.4063
12096TIP3   OH257702   3.537   1.146  16.492 -0.0115  0.2239  0.3262
12096TIP3    H157703   3.587   1.075  16.532 -0.3351 -0.3500 -0.2690
12096TIP3    H257704   3.559   1.141  16.399 -0.5183  0.5144  0.1880
12097TIP3   OH257705   5.652   0.433   3.287 -0.1610  0.0753  0.3809
12097TIP3    H157706   5.639   0.341   3.263 -2.0795  0.1536  0.9788
12097TIP3    H257707   5.700   0.429   3.370  1.2299 -0.3100 -0.3988
12098TIP3   OH257708   6.429   0.630  12.555 -0.2476 -0.2997 -0.3174
12098TIP3    H157709   6.386   0.713  12.535  0.4546  0.5892  1.6502
12098TIP3    H257710   6.492   0.651  12.624 -0.1200 -2.4973  0.3118
12099TIP3   OH257711   6.097   2.854   0.451  0.4433  0.2123 -1.0736
12099TIP3    H157712   6.050   2.936   0.437 -0.5232 -0.3937 -1.4493
12099TIP3    H257713   6.034   2.797   0.494  0.1165 -1.3091 -3.3920
12100TIP3   OH257714   6.232   2.786  14.295  0.1716 -0.5468  0.0134
12100TIP3    H157715   6.221   2.795  14.390  0.9655  0.7812  0.0070
12100TIP3    H257716   6.150   2.746  14.266  0.2336 -1.7126  1.3405
12101TIP3   OH257717   4.375   5.418  11.039  0.2418  0.4556  0.2832
12101TIP3    H157718   4.462   5.385  11.058 -0.3570 -2.0314 -0.9300
12101TIP3    H257719   4.319   5.380  11.107 -0.1965  0.3182 -0.1416
12102TIP3   OH257720   3.820   2.643  14.251  0.3519 -0.1607 -0.2803
12102TIP3    H157721   3.792   2.630  14.342 -1.5128 -2.4159 -1.0713
12102TIP3    H257722   3.738   2.657  14.203  1.4106  2.6965 -1.4482
12103TIP3   OH257723   0.134   3.050  11.661  0.3986  0.6554 -0.0764
12103TIP3    H157724   0.100   3.004  11.585 -0.6789  0.5550  0.4429
12103TIP3    H257725   0.229   3.044  11.653  0.2837 -0.3018 -0.8298
12104TIP3   OH257726   4.683   4.583   3.788 -0.5933 -0.4488  0.1424
12104TIP3    H157727   4.776   4.607   3.784 -0.0788 -1.9044  1.8227
12104TIP3    H257728   4.648   4.607   3.703  1.5674 -0.7444 -0.8840
12105TIP3   OH257729   4.926   1.349   1.391 -0.2535 -0.4734 -0.3262
12105TIP3    H157730   4.968   1.263   1.398 -0.8175 -0.7199  0.2035
12105TIP3    H257731   4.961   1.387   1.310 -0.3202 -1.3881 -0.7961
12106TIP3   OH257732   1.722   3.585   3.462 -0.7246 -0.0752  0.2195
12106TIP3    H157733   1.743   3.496   3.488  0.1365 -0.3315 -1.2209
12106TIP3    H257734   1.725   3.584   3.366 -0.7602  1.4777  0.1641
12107TIP3   OH257735   6.637   3.078  15.376 -0.0489 -1.1119  0.1771
12107TIP3    H157736   6.643   3.169  15.348 -1.3166 -0.6622  1.2698
12107TIP3    H257737   6.677   3.028  15.305  0.5476  0.2829 -0.4914
12108TIP3   OH257738   6.404   4.806  11.541  0.5243 -0.2766  0.2593
12108TIP3    H157739   6.425   4.889  11.582  0.0422  0.0434 -0.1318
12108TIP3    H257740   6.481   4.751  11.556  0.0883 -0.4257  2.2212
12109TIP3   OH257741   2.939   2.834  12.645  0.4694  0.2878  0.3516
12109TIP3    H157742   3.010   2.885  12.605  0.0786  0.7539  0.2508
12109TIP3    H257743   2.964   2.827  12.738  0.9380 -0.0533  0.2041
12110TIP3   OH257744   4.304   5.038  14.769  0.3043  0.3308 -0.1601
12110TIP3    H157745   4.285   5.112  14.711 -1.2797 -0.2031 -0.3637
12110TIP3    H257746   4.336   5.079  14.849 -0.8879  1.2877 -0.1331
12111TIP3   OH257747   5.631   0.306  11.562  0.2122  0.7682 -0.2783
12111TIP3    H157748   5.603   0.220  11.530  0.9197  1.3039 -2.5176
12111TIP3    H257749   5.549   0.351  11.583 -0.1404 -1.0990  3.0725
12112TIP3   OH257750   6.200   4.133   3.163  0.1235  0.1683  0.3523
12112TIP3    H157751   6.131   4.111   3.101  0.0048  0.0499  0.5240
12112TIP3    H257752   6.226   4.048   3.199 -0.7351  0.3536  1.4484
12113TIP3   OH257753   0.700   3.296   6.205 -0.5616  0.5112  0.7128
12113TIP3    H157754   0.618   3.252   6.229 -0.2822 -2.0842 -2.4112
12113TIP3    H257755   0.737   3.325   6.289 -3.2213 -0.8285  2.5029
12114TIP3   OH257756   1.158   4.410  10.943 -0.1809 -0.2290  0.2285
12114TIP3    H157757   1.214   4.463  10.886 -0.7107  2.1579  1.7844
12114TIP3    H257758   1.073   4.408  10.898  0.3727 -1.5333 -0.8113
12115TIP3   OH257759   1.112   4.571   2.176  0.1520  0.1023 -0.2925
12115TIP3    H157760   1.084   4.496   2.125  0.5365 -2.6866  3.1774
12115TIP3    H257761   1.032   4.609   2.211 -0.0134  1.0505 -1.6597
12116TIP3   OH257762   5.090   3.602   2.341  0.5357 -0.0688 -0.0707
12116TIP3    H157763   5.033   3.543   2.291 -0.4502  0.7446  0.0712
12116TIP3    H257764   5.106   3.675   2.281  2.1507 -0.6701 -0.4263
12117TIP3   OH257765   2.357   5.691  15.852 -0.1213  0.1558  0.3519
12117TIP3    H157766   2.300   5.632  15.802 -0.5979  0.1707  0.8779
12117TIP3    H257767   2.300   5.762  15.879  0.1317  0.1391  0.9383
12118TIP3   OH257768   5.664   5.827  12.391  0.6424 -0.1223 -0.4832
12118TIP3    H157769   5.584   5.783  12.421  0.5995 -0.0329 -0.4671
12118TIP3    H257770   5.722   5.756  12.364  1.9122 -0.4548  2.6746
12119TIP3   OH257771   6.467   0.042   1.329 -0.1444  0.2020 -0.0427
12119TIP3    H157772   6.561   0.024   1.325  0.3347  2.4214 -0.2732
12119TIP3    H257773   6.432  -0.026   1.386  1.7374 -0.2327  0.6789
12120TIP3   OH257774   6.662   6.176   4.473  0.5129  0.1672 -0.7642
12120TIP3    H157775   6.665   6.153   4.380  1.4864 -0.0291 -0.7000
12120TIP3    H257776   6.731   6.122   4.512 -0.3094 -0.2232  0.1785
12121TIP3   OH257777   0.722   3.273   5.339  0.1748  0.1674 -0.1471
12121TIP3    H157778   0.650   3.335   5.348  0.9561  0.8553  2.2064
12121TIP3    H257779   0.683   3.188   5.360  0.1700  0.6650  2.1196
12122TIP3   OH257780   4.688   2.396   5.011  0.5370 -0.2329  0.3319
12122TIP3    H157781   4.610   2.447   4.989  1.1900  0.1892 -1.1545
12122TIP3    H257782   4.696   2.404   5.106  0.1500  1.7633  0.2449
12123TIP3   OH257783   0.622   4.493   1.629 -0.1660  0.0755  0.1319
12123TIP3    H157784   0.674   4.423   1.668 -0.2493  0.4491  0.9504
12123TIP3    H257785   0.537   4.453   1.611 -0.0879 -0.1394  0.2389
12124TIP3   OH257786   5.109   0.947  16.225  0.2803 -0.1605  0.4676
12124TIP3    H157787   5.082   1.006  16.155  0.7850  0.6584  0.9426
12124TIP3    H257788   5.203   0.935  16.211  0.6081  0.8522  1.5797
12125TIP3   OH257789   0.896   3.201   3.654  0.6300 -0.7643 -0.7388
12125TIP3    H157790   0.938   3.205   3.568 -0.6770  0.1404 -1.3793
12125TIP3    H257791   0.842   3.281   3.658  2.3976  0.4546  1.8815
12126TIP3   OH257792   1.793   1.959   2.871  0.4056 -0.7699  0.4266
12126TIP3    H157793   1.808   2.041   2.824  0.4434 -0.9388  0.1392
12126TIP3    H257794   1.765   1.898   2.803 -0.3513 -0.8008  0.7548
12127TIP3   OH257795   1.646   6.047  17.181 -0.7642 -0.3228  0.5618
12127TIP3    H157796   1.635   5.967  17.232  1.8480 -0.9557  0.2622
12127TIP3    H257797   1.682   6.018  17.097  0.0361  1.1342  0.3618
12128TIP3   OH257798   5.165   0.900   2.625 -0.5148  0.0746 -0.2168
12128TIP3    H157799   5.230   0.966   2.599  0.1903 -1.4616 -2.7564
12128TIP3    H257800   5.096   0.908   2.559 -1.6474 -0.0605  0.9287
12129TIP3   OH257801   4.277   1.941   5.457  0.3647  0.0350  0.0294
12129TIP3    H157802   4.361   1.935   5.411 -0.8430 -2.4443 -2.1125
12129TIP3    H257803   4.270   1.859   5.505  0.8706  1.9163  3.6632
12130TIP3   OH257804   4.748   6.098   2.789  0.2474 -0.0968 -0.3294
12130TIP3    H157805   4.758   6.075   2.881 -0.4599  0.5160 -0.0918
12130TIP3    H257806   4.731   6.015   2.745 -2.6527 -0.0981  0.5718
12131TIP3   OH257807   1.200   4.384  14.043 -0.1479 -0.2657 -0.0735
12131TIP3    H157808   1.216   4.387  14.137  2.4835  1.0961 -0.4747
12131TIP3    H257809   1.180   4.475  14.019  1.2045 -0.1929 -1.0766
12132TIP3   OH257810   0.179   4.801  13.285 -0.0824 -0.4088 -0.0391
12132TIP3    H157811   0.264   4.758  13.288  0.4083  0.5810  0.7082
12132TIP3    H257812   0.182   4.866  13.355 -1.6670 -0.7379  0.3642
12133TIP3   OH257813   2.565   6.155  11.845  0.2618 -0.0215  0.2515
12133TIP3    H157814   2.660   6.144  11.844  0.2997  0.0715  1.3048
12133TIP3    H257815   2.536   6.132  11.757  0.7554 -4.5212  1.0405
12134TIP3   OH257816   3.803   0.004   1.162  0.0392  0.7699 -0.0504
12134TIP3    H157817   3.829   0.087   1.122 -2.6795  1.9731  0.4833
12134TIP3    H257818   3.795   0.023   1.255  0.3920 -0.4044  0.2376
12135TIP3   OH257819   6.805   3.432  12.422 -1.2424 -0.2631  0.4442
12135TIP3    H157820   6.898   3.441  12.401 -0.8477 -1.2643  1.5895
12135TIP3    H257821   6.777   3.520  12.445 -0.0028 -0.2608  2.1427
12136TIP3   OH257822   3.760   4.151  16.522  0.4275 -0.1593  0.1112
12136TIP3    H157823   3.766   4.096  16.600  0.9830  0.8021  0.7587
12136TIP3    H257824   3.677   4.198  16.532  1.2467  1.1490  0.9333
12137TIP3   OH257825   5.175   5.252  14.555  0.1599 -0.0863 -0.6577
12137TIP3    H157826   5.157   5.332  14.605 -1.0235  0.1858 -1.4957
12137TIP3    H257827   5.246   5.276  14.496  1.0011 -0.1720  0.2945
12138TIP3   OH257828   5.665   3.793  14.668 -0.4613 -0.4208  0.7925
12138TIP3    H157829   5.760   3.785  14.666 -0.5547 -1.7500 -1.4929
12138TIP3    H257830   5.637   3.767  14.581 -3.0664 -1.8016  1.9494
12139TIP3   OH257831   5.901   2.939  12.598 -0.3324 -0.3274  0.8282
12139TIP3    H157832   5.862   2.897  12.675  1.3738 -1.8795  0.9335
12139TIP3    H257833   5.989   2.964  12.626 -0.5998  1.5401  0.1301
12140TIP3   OH257834   2.738   2.336   3.519  0.2533  0.2065  0.4683
12140TIP3    H157835   2.692   2.410   3.479  0.2056  0.1451  0.4086
12140TIP3    H257836   2.820   2.330   3.471  0.0976 -0.0088  0.2280
12141TIP3   OH257837   3.434   0.948  13.576  0.0473  0.1050 -0.6490
12141TIP3    H157838   3.516   0.997  13.584  0.2031  0.0357 -1.5893
12141TIP3    H257839   3.391   0.957  13.661  1.5022 -0.7062  0.2127
12142TIP3   OH257840   2.745   1.227   4.469 -0.5569 -0.2146 -0.2793
12142TIP3    H157841   2.821   1.174   4.493 -0.6715 -0.0923  0.3685
12142TIP3    H257842   2.674   1.192   4.523 -0.5145  0.9525  0.5855
12143TIP3   OH257843   3.878   5.792  16.295  0.2868  0.0475 -0.6642
12143TIP3    H157844   3.942   5.861  16.314  1.1457 -0.3607 -1.9252
12143TIP3    H257845   3.801   5.839  16.264  0.8814  0.4656 -1.5630
12144TIP3   OH257846   0.823   0.321   1.254  0.0763 -0.4512  0.3397
12144TIP3    H157847   0.823   0.231   1.286 -0.5204  0.0216  1.7353
12144TIP3    H257848   0.783   0.315   1.167 -1.6117 -1.3058  1.1297
12145TIP3   OH257849   1.358   0.453  16.379  0.1235 -0.5368  0.0142
12145TIP3    H157850   1.284   0.392  16.385 -0.3472  0.0265 -0.0632
12145TIP3    H257851   1.403   0.427  16.298 -1.1288  0.3713 -1.0072
12146TIP3   OH257852   2.146   4.081   2.309 -0.3383 -0.4357  0.5635
12146TIP3    H157853   2.163   4.090   2.403 -1.0922  0.0201  0.6660
12146TIP3    H257854   2.059   4.042   2.305 -0.3706 -0.3110  0.0493
12147TIP3   OH257855   2.070   4.128   0.979  0.5481  0.0829 -0.0569
12147TIP3    H157856   2.139   4.068   0.953 -0.5623 -1.3307  0.1343
12147TIP3    H257857   2.071   4.197   0.913  0.0066 -1.6368 -1.9476
12148TIP3   OH257858   5.791   6.194  11.282  0.1779 -0.1593  0.0657
12148TIP3    H157859   5.710   6.171  11.235  0.3433 -0.4342 -0.0870
12148TIP3    H257860   5.855   6.129  11.253  0.4938  0.1418  0.0796
12149TIP3   OH257861   6.171   6.026  11.381 -0.1055 -0.0846 -0.7234
12149TIP3    H157862   6.232   6.099  11.387  0.0809  0.0429 -3.1248
12149TIP3    H257863   6.148   6.006  11.471  2.2843  0.8715  0.1719
12150TIP3   OH257864   4.678   6.575   0.911  0.0046  0.6089  0.1050
12150TIP3    H157865   4.735   6.573   0.834 -0.0350  1.1634  0.0574
12150TIP3    H257866   4.718   6.641   0.968  1.3329 -1.3600  1.5704
12151TIP3   OH257867   5.006   0.714  16.291  0.5393  0.0636  0.2223
12151TIP3    H157868   5.063   0.767  16.235  0.8550 -0.2242  0.2727
12151TIP3    H257869   5.027   0.742  16.380  1.4713 -0.8975  0.3151
12152TIP3   OH257870   2.796   1.643   4.601 -0.5994 -0.3841  0.5859
12152TIP3    H157871   2.816   1.560   4.644 -0.1316  0.5816  2.3286
12152TIP3    H257872   2.844   1.638   4.518 -1.5959 -2.3397  0.0646
12153TIP3   OH257873   0.088   4.906  16.889  0.3014  0.0292  0.2364
12153TIP3    H157874   0.105   4.818  16.856  2.3138  0.0885  0.9469
12153TIP3    H257875   0.125   4.964  16.821 -0.0983  0.2922  0.2435
12154TIP3   OH257876   5.716   6.121  11.900  0.4208 -0.1179  0.0589
12154TIP3    H157877   5.628   6.151  11.922 -0.3054  0.3036 -2.9853
12154TIP3    H257878   5.774   6.181  11.946 -0.9237  1.4932 -0.2599
12155TIP3   OH257879   6.109   6.798   2.320  0.1599 -0.4374  0.6019
12155TIP3    H157880   6.195   6.757   2.335 -0.4140 -1.1962  1.9931
12155TIP3    H257881   6.084   6.769   2.233  0.9601 -0.8640  0.4985
12156TIP3   OH257882   5.116   3.861   2.838 -0.3893 -0.3610  0.1603
12156TIP3    H157883   5.203   3.899   2.844 -0.2957 -0.7212  1.3357
12156TIP3    H257884   5.119   3.808   2.758 -0.0339  0.8158 -0.6357
12157TIP3   OH257885   0.357   1.797   1.360 -0.5003  0.4317  0.3007
12157TIP3    H157886   0.452   1.809   1.358 -0.4657  0.3260  1.0993
12157TIP3    H257887   0.321   1.886   1.365 -0.3765  0.4348  1.7103
12158TIP3   OH257888   4.500   4.978   3.206 -0.0684  0.4269  0.5774
12158TIP3    H157889   4.546   4.906   3.162 -1.4269 -0.7904  1.0621
12158TIP3    H257890   4.563   5.050   3.206  0.5308  0.0328 -2.0498
12159TIP3   OH257891   4.842   4.576  16.789  0.5730 -0.2952  0.7569
12159TIP3    H157892   4.932   4.596  16.815  0.9623  0.2650 -0.8898
12159TIP3    H257893   4.831   4.622  16.706 -0.2115 -2.7673 -0.6088
12160TIP3   OH257894   3.607   4.624  15.607  0.5757 -0.2779  0.4173
12160TIP3    H157895   3.602   4.710  15.648 -1.9718 -0.6107  0.9409
12160TIP3    H257896   3.636   4.641  15.517 -3.4089  1.6642 -0.7168
12161TIP3   OH257897   5.522   2.274   1.591 -0.1430 -0.4856  0.3469
12161TIP3    H157898   5.470   2.193   1.591 -1.8866  0.5403  2.0118
12161TIP3    H257899   5.495   2.319   1.671  0.1457  2.1277 -0.9328
12162TIP3   OH257900   3.470   3.941   3.731  0.6287 -0.1066 -0.3225
12162TIP3    H157901   3.473   3.885   3.653  2.9159  0.2232 -0.5459
12162TIP3    H257902   3.446   4.027   3.698  0.2556 -0.2617 -0.4592
12163TIP3   OH257903   0.042   4.066  15.597 -0.0141 -0.5535 -0.3710
12163TIP3    H157904   0.043   4.091  15.505  1.1791  0.3634 -0.1337
12163TIP3    H257905  -0.034   4.009  15.606  0.1497 -1.0800 -2.0295
12164TIP3   OH257906   3.240   5.540  14.818  0.0084 -0.0523  0.5256
12164TIP3    H157907   3.233   5.445  14.816  0.5579 -0.0875 -0.4617
12164TIP3    H257908   3.265   5.560  14.909  0.5318 -0.9016  0.5802
12165TIP3   OH257909   5.576   5.141   4.118 -0.6064 -0.9182 -0.3452
12165TIP3    H157910   5.566   5.068   4.057  0.1277 -2.4373  1.2644
12165TIP3    H257911   5.530   5.113   4.197  1.3767 -0.5467  1.0287
12166TIP3   OH257912   6.551   6.362  16.211 -0.2024 -0.0082 -0.1644
12166TIP3    H157913   6.580   6.398  16.294 -0.4932 -2.1725  0.9282
12166TIP3    H257914   6.631   6.330  16.169  0.1476  2.2969 -1.4224
12167TIP3   OH257915   1.430   0.200  16.657 -0.7300  0.3933 -0.1899
12167TIP3    H157916   1.444   0.294  16.649 -0.2177  0.4339  0.9597
12167TIP3    H257917   1.516   0.164  16.679 -1.1361 -0.2012  0.4630
12168TIP3   OH257918   6.652   1.543   6.380 -0.0541 -0.0325  0.2597
12168TIP3    H157919   6.698   1.459   6.375  0.0976  0.1169 -2.1566
12168TIP3    H257920   6.719   1.606   6.406  0.6085 -0.1997 -0.9483
12169TIP3   OH257921   1.186   0.081   3.171 -0.3481 -0.1676  0.0223
12169TIP3    H157922   1.150   0.105   3.256 -1.3389 -0.1220 -0.3924
12169TIP3    H257923   1.279   0.103   3.177 -0.5304  0.4183  0.8783
12170TIP3   OH257924   1.476   1.812   2.633  0.5213 -0.5105 -0.0500
12170TIP3    H157925   1.471   1.720   2.608  3.5546 -1.0332  0.8880
12170TIP3    H257926   1.396   1.827   2.684  1.1713 -3.3968  2.0355
12171TIP3   OH257927   2.037   0.145  15.410 -0.1063  0.8146  0.3985
12171TIP3    H157928   1.975   0.218  15.412 -0.2187  0.7062  0.9381
12171TIP3    H257929   2.060   0.130  15.502  1.1814  1.2395  0.1669
12172TIP3   OH257930   5.970   4.644   0.818 -0.5041 -0.4946 -0.0747
12172TIP3    H157931   5.971   4.558   0.860 -1.0974  1.0429  3.4670
12172TIP3    H257932   6.015   4.702   0.881 -0.7205  1.9314 -1.9905
12173TIP3   OH257933   0.975   3.395  11.056  0.0520  0.3417 -0.0964
12173TIP3    H157934   1.017   3.313  11.030  0.8388  0.5190  0.5712
12173TIP3    H257935   1.048   3.455  11.074 -0.5040  1.2142 -0.6232
12174TIP3   OH257936   6.141   5.082   1.201  0.2292 -0.5744  0.2911
12174TIP3    H157937   6.167   4.990   1.210 -0.1584 -0.7414 -0.2642
12174TIP3    H257938   6.100   5.104   1.284  1.7859 -0.4137  1.0671
12175TIP3   OH257939   2.175   6.184  11.570  0.6959 -0.2729  0.6299
12175TIP3    H157940   2.135   6.156  11.487  0.3795  2.1900 -0.1362
12175TIP3    H257941   2.218   6.106  11.603  0.8121 -1.3684 -1.8582
12176TIP3   OH257942   0.218   4.547   6.396  0.4941 -0.0649 -0.2764
12176TIP3    H157943   0.231   4.640   6.412  0.4177  0.0772 -0.9940
12176TIP3    H257944   0.127   4.531   6.421 -0.0426  0.4441 -1.7792
12177TIP3   OH257945   2.970   6.792   1.220  0.2026  0.4348  0.2786
12177TIP3    H157946   2.893   6.748   1.186 -0.4788  1.3751  0.5627
12177TIP3    H257947   2.959   6.883   1.194  0.9192  0.6921  0.8331
12178TIP3   OH257948   3.987   4.210  13.884 -0.2580  0.2318 -0.1303
12178TIP3    H157949   3.939   4.261  13.949 -0.0669 -0.7480  0.8082
12178TIP3    H257950   4.070   4.255  13.874 -0.2052  0.2714  0.4708
12179TIP3   OH257951   0.640   6.680  16.226  0.2152 -0.5089  0.4573
12179TIP3    H157952   0.655   6.597  16.270  1.2797  0.0777  1.2699
12179TIP3    H257953   0.643   6.745  16.296 -0.2674  0.2448 -0.2057
12180TIP3   OH257954   5.125   5.287   4.445  0.4032  0.1020  0.5174
12180TIP3    H157955   5.047   5.239   4.471 -0.8112  1.1566 -1.0120
12180TIP3    H257956   5.189   5.219   4.424  0.0838 -0.7690  2.2165
12181TIP3   OH257957   5.479   0.995  15.326  0.4537 -0.2296 -0.3371
12181TIP3    H157958   5.498   1.008  15.419 -1.0911  1.1005 -0.1577
12181TIP3    H257959   5.439   0.908  15.322 -1.1860  0.4232  0.5795
12182TIP3   OH257960   5.604   1.263  12.702 -0.3285 -0.3776  0.1168
12182TIP3    H157961   5.515   1.234  12.720 -0.2571 -0.2219  0.7190
12182TIP3    H257962   5.598   1.301  12.614 -0.7544 -0.7814 -0.0344
12183TIP3   OH257963   4.067   3.422   5.181  0.1325  0.0846 -0.1702
12183TIP3    H157964   4.162   3.436   5.176 -0.1189  1.6168 -2.4071
12183TIP3    H257965   4.058   3.335   5.219  2.7219 -2.3604 -4.2716
12184TIP3   OH257966   6.657   6.706  12.334  0.1218  0.1285 -0.2139
12184TIP3    H157967   6.739   6.666  12.365  0.8808  0.8599 -1.1937
12184TIP3    H257968   6.631   6.765  12.405  1.2266  0.9410 -0.4405
12185TIP3   OH257969   5.825   5.296   3.203  0.7070 -0.1708 -0.1746
12185TIP3    H157970   5.883   5.265   3.273 -0.2265 -1.1454  0.1864
12185TIP3    H257971   5.860   5.382   3.179  1.4504 -0.1294  1.0065
12186TIP3   OH257972   5.570   5.211  12.949  0.2335 -0.1301  0.2871
12186TIP3    H157973   5.496   5.241  12.895  1.2737 -0.6359 -1.4968
12186TIP3    H257974   5.529   5.168  13.024 -1.3220 -1.4577 -1.2516
12187TIP3   OH257975   5.513   0.993  10.851 -0.4059 -0.1845  0.3478
12187TIP3    H157976   5.485   1.065  10.908  1.2180 -1.0369  2.3977
12187TIP3    H257977   5.548   1.036  10.773 -2.6047  1.0461 -0.0228
12188TIP3   OH257978   0.626   4.553   3.800  0.2278 -0.0761 -0.4055
12188TIP3    H157979   0.681   4.498   3.856  0.0740 -0.5497 -0.7171
12188TIP3    H257980   0.641   4.642   3.833 -0.9939 -0.4786  1.3517
12189TIP3   OH257981   5.173   5.557   6.733  0.0541 -0.2902  0.0842
12189TIP3    H157982   5.232   5.631   6.748 -1.2502  1.3640 -2.3034
12189TIP3    H257983   5.092   5.582   6.777  0.5758 -1.9525  2.1904
12190TIP3   OH257984   2.757   0.666  16.389  0.6463 -0.1447 -0.1172
12190TIP3    H157985   2.667   0.637  16.374 -0.6629  2.2808  2.2417
12190TIP3    H257986   2.787   0.695  16.302 -0.9564 -0.6487 -0.8874
12191TIP3   OH257987   5.383   5.885   5.169  0.1121 -0.3086  0.0482
12191TIP3    H157988   5.309   5.836   5.132  0.5311 -0.8981 -0.0132
12191TIP3    H257989   5.445   5.893   5.096  0.1546  0.0979  0.1280
12192TIP3   OH257990   0.316   2.602  14.327 -0.6156 -0.1940 -0.0331
12192TIP3    H157991   0.335   2.539  14.257 -0.4011  0.0458 -0.1912
12192TIP3    H257992   0.335   2.687  14.289  1.4804 -0.1670  0.9338
12193TIP3   OH257993   6.714   5.524   2.312 -0.0265  0.1833 -0.2821
12193TIP3    H157994   6.713   5.435   2.276 -0.4682  0.0903 -0.0442
12193TIP3    H257995   6.807   5.544   2.323  0.0651 -1.0141  1.5471
12194TIP3   OH257996   2.128   4.050  14.882  0.3166  0.5053 -0.3733
12194TIP3    H157997   2.090   3.973  14.840  0.8018  0.3403 -0.5104
12194TIP3    H257998   2.094   4.047  14.971  2.1909 -1.1979  0.3619
12195TIP3   OH257999   4.857   1.442   5.048  0.6086 -0.0951 -0.1790
12195TIP3    H158000   4.775   1.393   5.054 -0.0121  0.9880  0.5176
12195TIP3    H258001   4.900   1.408   4.969 -0.4958 -0.6893 -0.5378
12196TIP3   OH258002   6.101   2.350   4.512  0.2917  0.0745 -0.0420
12196TIP3    H158003   6.059   2.389   4.588 -1.3168  2.1592 -1.8695
12196TIP3    H258004   6.029   2.312   4.462  0.9111  1.0671 -1.7796
12197TIP3   OH258005   4.106   4.491   3.546  0.3105 -0.5974 -0.1539
12197TIP3    H158006   4.195   4.507   3.515  0.3805 -0.3412  0.1693
12197TIP3    H258007   4.086   4.403   3.516  0.7086 -0.6925 -0.1497
12198TIP3   OH258008   6.291   2.485  12.957 -0.3463 -0.2020 -0.5585
12198TIP3    H158009   6.305   2.521  12.870  0.0521 -1.9160 -1.2536
12198TIP3    H258010   6.233   2.547  13.001 -1.9410 -0.1461 -2.6234
12199TIP3   OH258011   2.915   2.083  12.930 -0.2904 -0.7366 -0.7352
12199TIP3    H158012   2.862   2.101  13.008 -0.1763 -0.8759 -0.6261
12199TIP3    H258013   3.003   2.065  12.964 -0.9292 -4.1619 -0.5823
12200TIP3   OH258014   0.766   5.034   1.292 -0.3940 -0.1549  0.1468
12200TIP3    H158015   0.783   5.010   1.383  1.9757 -0.7813 -0.3855
12200TIP3    H258016   0.823   4.976   1.241 -1.2535  0.5542 -1.7201
12201TIP3   OH258017   0.027   2.749  13.587  0.5760  0.0852  0.1391
12201TIP3    H158018  -0.031   2.678  13.559  1.0016 -0.1141 -0.2444
12201TIP3    H258019  -0.005   2.826  13.541  1.6051 -0.3390 -1.3767
12202TIP3   OH258020   0.713   1.216  15.265 -0.1500 -0.1059  0.6759
12202TIP3    H158021   0.643   1.182  15.208  1.1390  0.2720 -1.2161
12202TIP3    H258022   0.692   1.309  15.276  0.2856  0.1176 -0.2898
12203TIP3   OH258023   5.188   2.588   1.278 -0.1977  0.6233 -0.0307
12203TIP3    H158024   5.226   2.545   1.354  1.0423  0.6226 -0.6293
12203TIP3    H258025   5.131   2.656   1.315 -0.7733 -0.3243  0.8919
12204TIP3   OH258026   3.918   1.002   2.186  0.3662  0.0237  1.1892
12204TIP3    H158027   3.926   1.052   2.105  0.8808 -0.2942  1.0392
12204TIP3    H258028   3.855   0.933   2.166  1.4286 -0.8128  0.6679
12205TIP3   OH258029   4.555   2.279  11.872  0.0492  0.0876  0.0312
12205TIP3    H158030   4.581   2.193  11.839 -0.5278  0.3258 -1.1280
12205TIP3    H258031   4.637   2.323  11.894  0.3767 -0.5627  0.1197
12206TIP3   OH258032   6.682   3.017  16.190  0.0577 -0.1028 -0.4883
12206TIP3    H158033   6.701   3.089  16.130  0.0887  0.5490  0.2816
12206TIP3    H258034   6.592   3.032  16.217  0.1568 -0.1839 -0.1046
12207TIP3   OH258035   1.584   3.185   0.767  0.4094 -0.1188  0.1262
12207TIP3    H158036   1.570   3.090   0.761  0.2804 -0.3595  2.9518
12207TIP3    H258037   1.496   3.222   0.773  0.4494  0.2382 -1.2096
12208TIP3   OH258038   2.200   3.688   1.477  0.1180  0.1358  0.0027
12208TIP3    H158039   2.281   3.663   1.520 -0.1210  0.5618  0.7130
12208TIP3    H258040   2.215   3.778   1.447 -0.3659  0.5060  0.8481
12209TIP3   OH258041   5.864   1.536  11.235 -0.1016 -0.2757 -0.3311
12209TIP3    H158042   5.956   1.556  11.217 -0.3796  0.1771 -1.3107
12209TIP3    H258043   5.819   1.553  11.152 -1.3717  1.4151  0.6305
12210TIP3   OH258044   1.432   2.179   1.591 -0.1443  0.2868  0.5866
12210TIP3    H158045   1.489   2.208   1.662 -0.8291  0.9310  0.8862
12210TIP3    H258046   1.347   2.163   1.632 -0.5060  0.5085 -0.0525
12211TIP3   OH258047   1.169   3.855   5.168  0.0009 -0.4835 -0.0084
12211TIP3    H158048   1.160   3.806   5.087  0.9585 -0.3935 -0.1858
12211TIP3    H258049   1.159   3.947   5.142 -3.2615 -0.5577  0.5358
12212TIP3   OH258050   2.602   0.322  12.250  0.5768  0.1469 -0.4952
12212TIP3    H158051   2.637   0.372  12.176 -0.1514  2.9311  0.8837
12212TIP3    H258052   2.513   0.298  12.222  0.7481  0.0943 -0.9984
12213TIP3   OH258053   0.666   2.720   2.552  0.0177 -0.2854  1.1360
12213TIP3    H158054   0.751   2.728   2.510  0.0033  0.4941  1.2426
12213TIP3    H258055   0.685   2.684   2.639  0.2220 -0.2495  1.1062
12214TIP3   OH258056   2.183   4.532  11.328  0.3682 -0.3864 -0.5477
12214TIP3    H158057   2.200   4.461  11.389  1.1694  0.3542  0.1029
12214TIP3    H258058   2.229   4.607  11.364 -0.6707  0.5443 -1.0870
12215TIP3   OH258059   4.497   2.587  11.155  0.0121 -0.2117  0.0890
12215TIP3    H158060   4.449   2.504  11.155  0.2310 -0.3533 -0.9275
12215TIP3    H258061   4.476   2.627  11.240 -2.3333 -0.0001 -0.5207
12216TIP3   OH258062   6.144   6.556   0.066 -0.1823  0.2537 -0.0556
12216TIP3    H158063   6.177   6.467   0.063 -0.9468 -0.0421 -0.0123
12216TIP3    H258064   6.212   6.606   0.112  0.1077 -0.3711  0.2015
12217TIP3   OH258065   5.628   1.510   5.001 -0.4359  0.7372  0.0541
12217TIP3    H158066   5.720   1.496   4.976 -0.2971  0.0168  0.9157
12217TIP3    H258067   5.579   1.445   4.950 -0.2005 -0.4405  1.2701
12218TIP3   OH258068   2.364   4.716  16.240 -0.3638  0.5300 -0.8818
12218TIP3    H158069   2.349   4.810  16.252 -1.6273  0.0464  2.3452
12218TIP3    H258070   2.459   4.705  16.252 -0.4738  1.2024  0.8170
12219TIP3   OH258071   4.077   1.344  11.846  0.1346  0.2997 -0.2973
12219TIP3    H158072   4.027   1.414  11.805 -1.2953 -0.0511  0.7396
12219TIP3    H258073   4.166   1.377  11.851 -0.0456  1.0883 -1.9123
12220TIP3   OH258074   4.841   1.854   6.073 -0.8074 -0.3141  0.3700
12220TIP3    H158075   4.805   1.929   6.026  1.7189  1.0480  0.4918
12220TIP3    H258076   4.934   1.872   6.082  0.1883 -3.9761 -0.5986
12221TIP3   OH258077   0.781   2.004   3.306 -0.6098 -0.3215 -0.1153
12221TIP3    H158078   0.716   2.055   3.354  0.8758  0.8370  0.7712
12221TIP3    H258079   0.738   1.984   3.223 -1.2086  2.7359 -0.6875
12222TIP3   OH258080   3.644   0.422  16.990 -0.7184 -0.2148  0.3650
12222TIP3    H158081   3.587   0.485  17.034 -1.0463  1.2285 -1.9689
12222TIP3    H258082   3.594   0.395  16.913  1.2028  0.0608 -1.0413
12223TIP3   OH258083   0.312   0.559   3.047  0.2238 -0.8593 -0.6145
12223TIP3    H158084   0.403   0.528   3.046  1.2541  1.7021  1.4681
12223TIP3    H258085   0.310   0.626   2.979  0.0963 -0.4187 -0.1767
12224TIP3   OH258086   4.371   3.692   6.221  0.1387  0.2329 -0.3867
12224TIP3    H158087   4.302   3.682   6.287  0.8875 -0.7977  0.2761
12224TIP3    H258088   4.446   3.727   6.269  1.1518 -1.8478 -0.3208
12225TIP3   OH258089   6.032   2.979  13.637 -0.1865  0.1030  0.1261
12225TIP3    H158090   6.061   2.932  13.559 -0.3150  1.3167 -0.6685
12225TIP3    H258091   6.111   2.985  13.692 -0.3701 -1.8052  0.6703
12226TIP3   OH258092   5.989   0.592  11.452  0.1129  0.0347  0.0173
12226TIP3    H158093   5.918   0.537  11.419 -0.5476  1.8796 -1.9170
12226TIP3    H258094   5.967   0.608  11.543 -1.9927  0.4902 -0.5208
12227TIP3   OH258095   2.282   0.736  16.315  0.0386  0.0232  0.3220
12227TIP3    H158096   2.280   0.829  16.336  0.4895  0.6251 -2.0021
12227TIP3    H258097   2.375   0.716  16.305 -0.0175 -0.8481  1.3139
12228TIP3   OH258098   4.393   6.772   1.304 -0.2202  0.3367 -1.0204
12228TIP3    H158099   4.391   6.779   1.208 -0.4650 -0.9390 -1.1256
12228TIP3    H258100   4.306   6.739   1.327 -0.5986  1.7718 -0.2282
12229TIP3   OH258101   4.808   0.937   4.213  0.3686  0.0446  0.4299
12229TIP3    H158102   4.856   0.887   4.147 -0.2826  0.4149 -0.3477
12229TIP3    H258103   4.840   0.903   4.297 -0.6873 -2.3433 -0.0411
12230TIP3   OH258104   5.779   2.796   5.369 -0.3595  0.6155 -0.4527
12230TIP3    H158105   5.781   2.891   5.356 -0.2143  0.7436  0.4414
12230TIP3    H258106   5.689   2.772   5.348 -0.0438  0.7253 -2.0687
12231TIP3   OH258107   3.078   5.160   4.491  0.2804  0.1588 -0.3746
12231TIP3    H158108   3.110   5.214   4.420 -0.9474 -2.6253 -3.3073
12231TIP3    H258109   3.152   5.105   4.516  1.0221  1.8466  1.3893
12232TIP3   OH258110   3.738   6.129  13.072 -0.3728 -0.1944  0.3090
12232TIP3    H158111   3.831   6.112  13.062 -0.1262 -0.1332  2.0518
12232TIP3    H258112   3.700   6.109  12.987  1.5777  2.3932 -1.3001
12233TIP3   OH258113   1.637   3.287   2.604 -0.1876 -0.3823  0.3650
12233TIP3    H158114   1.553   3.283   2.650  0.1181  1.2638  1.1124
12233TIP3    H258115   1.701   3.253   2.667 -0.1505 -0.7558  0.1307
12234TIP3   OH258116   3.281   1.141  14.192  0.2495 -0.3890 -0.2024
12234TIP3    H158117   3.341   1.079  14.149  0.2609 -0.7555  0.3297
12234TIP3    H258118   3.236   1.185  14.119  2.0488  0.7977 -0.6591
12235TIP3   OH258119   5.626   5.961   2.811 -0.4707  0.4008  0.1632
12235TIP3    H158120   5.699   5.900   2.817 -1.8629 -1.3309  0.5609
12235TIP3    H258121   5.553   5.915   2.854 -1.7099  2.1743  0.0800
12236TIP3   OH258122   2.821   2.248   5.015 -0.0795 -0.0260  0.3796
12236TIP3    H158123   2.841   2.324   4.960 -0.7328 -0.4137 -0.4209
12236TIP3    H258124   2.763   2.194   4.961 -1.4101 -0.0404  1.7341
12237TIP3   OH258125   0.686   3.474   1.641  0.0778  0.0557  0.3597
12237TIP3    H158126   0.683   3.563   1.677  0.1512 -0.1345  0.8491
12237TIP3    H258127   0.746   3.427   1.700  0.3080 -0.2282 -0.0994
12238TIP3   OH258128   5.685   2.598   1.903  0.1308  0.0434 -0.6522
12238TIP3    H158129   5.754   2.638   1.955  0.8537  0.8236 -2.1333
12238TIP3    H258130   5.731   2.556   1.830 -0.8235 -1.2260 -0.5605
12239TIP3   OH258131   6.062   0.246   4.750  0.3746  0.4926  0.0474
12239TIP3    H158132   6.048   0.174   4.811 -0.8118 -0.0302 -0.8007
12239TIP3    H258133   5.974   0.278   4.729  0.8127  1.3480 -0.5784
12240TIP3   OH258134   6.474   4.307  13.978 -0.1233  0.1120  0.3316
12240TIP3    H158135   6.481   4.383  14.036 -1.0851  0.3737  0.1147
12240TIP3    H258136   6.397   4.259  14.008 -0.3644  0.0014 -0.4257
12241TIP3   OH258137   2.836   2.660  17.231  0.4502  0.0571 -0.0154
12241TIP3    H158138   2.926   2.663  17.263  0.5534 -0.1587 -0.2743
12241TIP3    H258139   2.828   2.735  17.172  0.9605 -0.8314 -1.2515
12242TIP3   OH258140   1.620   0.639  14.347  0.1566  0.0378 -1.0766
12242TIP3    H158141   1.587   0.723  14.315  0.6108  1.5238  2.0202
12242TIP3    H258142   1.697   0.662  14.400 -0.1388 -2.2211  0.4597
12243TIP3   OH258143   2.297   4.388   6.456  0.0816 -1.0393 -0.1698
12243TIP3    H158144   2.308   4.302   6.416  1.6674 -0.9668  0.0651
12243TIP3    H258145   2.352   4.385   6.534  0.2938  0.2509 -0.2546
12244TIP3   OH258146   3.834   6.465  14.458  0.3600  0.2655 -0.4138
12244TIP3    H158147   3.924   6.478  14.428  0.6190  1.8645  0.9011
12244TIP3    H258148   3.788   6.433  14.381  1.9917 -0.4088 -1.1759
12245TIP3   OH258149   3.881   3.781   3.236  0.7940  0.2581 -0.1091
12245TIP3    H158150   3.903   3.836   3.310  2.9927 -0.0493 -0.4657
12245TIP3    H258151   3.922   3.823   3.161 -0.7692  0.1698 -1.0675
12246TIP3   OH258152   2.437   6.682   1.678  0.1500  0.3309 -0.4400
12246TIP3    H158153   2.386   6.603   1.659  0.8642 -0.4273  0.6445
12246TIP3    H258154   2.429   6.735   1.599 -1.7301 -0.0527 -0.5650
12247TIP3   OH258155   2.565   3.147   6.807  0.0104 -0.0779  0.3143
12247TIP3    H158156   2.564   3.208   6.880  1.5757  1.2829 -0.7461
12247TIP3    H258157   2.530   3.196   6.733  0.3744 -0.7719 -0.3398
12248TIP3   OH258158   4.825   0.844  16.884  0.0438 -0.0733  0.1389
12248TIP3    H158159   4.874   0.926  16.885 -0.6918  0.4023 -0.9181
12248TIP3    H258160   4.777   0.844  16.967  2.2102 -0.8277  1.4707
12249TIP3   OH258161   0.623   2.705   1.130  0.1157  0.0619  0.8182
12249TIP3    H158162   0.621   2.628   1.187 -0.1774  0.6379  1.6221
12249TIP3    H258163   0.575   2.679   1.052  0.7726 -0.8448  0.7035
12250TIP3   OH258164   1.644   5.150  11.976  0.1024  0.2666  0.2455
12250TIP3    H158165   1.603   5.094  12.042 -0.9385  0.8354  0.1015
12250TIP3    H258166   1.678   5.089  11.911  2.0288 -0.3717  1.7342
12251TIP3   OH258167   3.748   1.501  11.881  0.1762  0.1533 -0.3683
12251TIP3    H158168   3.729   1.463  11.967  1.0395 -3.1102 -1.4892
12251TIP3    H258169   3.667   1.488  11.831  0.2446  0.4702 -0.5652
12252TIP3   OH258170   4.756   0.757  17.173 -0.1629  0.2033 -0.0164
12252TIP3    H158171   4.754   0.764  17.268  0.9433  2.1385 -0.0977
12252TIP3    H258172   4.664   0.748  17.147 -0.4262 -1.0600  1.2457
12253TIP3   OH258173   3.033   6.790   1.750 -0.0566 -0.1664  0.0604
12253TIP3    H158174   3.115   6.740   1.746 -0.0580 -0.1238 -0.5735
12253TIP3    H258175   2.966   6.728   1.722 -0.1838 -0.0690  0.1502
12254TIP3   OH258176   4.522   2.109  15.893 -0.4212 -0.3445  0.2404
12254TIP3    H158177   4.557   2.094  15.981 -0.1677 -3.4120 -0.2817
12254TIP3    H258178   4.436   2.067  15.894 -0.3938 -0.4715 -0.9643
12255TIP3   OH258179   2.349   6.100   0.908 -0.1710  0.0258  0.1409
12255TIP3    H158180   2.271   6.046   0.923 -0.1886  0.2578  0.9510
12255TIP3    H258181   2.421   6.051   0.947 -0.2601  0.7714  1.3157
12256TIP3   OH258182   0.041   0.561  14.670  0.0209 -0.4612 -0.2490
12256TIP3    H158183  -0.024   0.512  14.720 -0.3880  0.2672 -0.0567
12256TIP3    H258184   0.049   0.644  14.717  1.7947 -0.8988  0.2980
12257TIP3   OH258185   6.424   2.461   1.193 -0.2114 -0.5449  0.6512
12257TIP3    H158186   6.514   2.440   1.171 -1.0338 -3.8093 -0.1204
12257TIP3    H258187   6.400   2.531   1.132  1.1028 -1.2936 -0.7915
12258TIP3   OH258188   6.263   5.587   1.490 -0.0848  0.0676 -0.2997
12258TIP3    H158189   6.357   5.566   1.484 -0.1964 -0.6365  0.2873
12258TIP3    H258190   6.259   5.682   1.484  0.5854  0.0482 -1.3849
12259TIP3   OH258191   2.875   6.172   3.492  0.1829  0.9187 -0.0923
12259TIP3    H158192   2.897   6.230   3.566 -0.8745  0.1896  0.8238
12259TIP3    H258193   2.903   6.085   3.521  1.5361  0.8967 -1.3653
12260TIP3   OH258194   1.288   4.977  14.320  0.5672  0.0850  0.3211
12260TIP3    H158195   1.354   4.977  14.251 -0.7859 -0.6220 -1.0435
12260TIP3    H258196   1.243   4.893  14.309 -2.7363  1.8410 -1.0609
12261TIP3   OH258197   5.282   1.423  11.414  0.4686  0.4556 -0.1851
12261TIP3    H158198   5.240   1.450  11.332 -1.8873 -2.2364 -0.0472
12261TIP3    H258199   5.239   1.476  11.481 -0.7586 -0.3049 -0.3345
12262TIP3   OH258200   4.542   0.330   0.474 -0.3741 -0.5020  0.1413
12262TIP3    H158201   4.614   0.294   0.525 -0.2684 -1.4289 -0.6284
12262TIP3    H258202   4.539   0.276   0.395 -1.2332  0.1972 -0.3287
12263TIP3   OH258203   6.410   4.503  11.835 -0.2092 -0.8280  0.0729
12263TIP3    H158204   6.444   4.427  11.787 -0.4220  0.0349 -1.5241
12263TIP3    H258205   6.438   4.489  11.925  1.7167 -1.6900 -0.5963
12264TIP3   OH258206   2.246   1.555  13.234 -0.1661  0.6804 -0.4328
12264TIP3    H158207   2.312   1.490  13.259 -0.7871  0.5011  0.8522
12264TIP3    H258208   2.260   1.571  13.141 -0.4899 -1.8785 -0.9745
12265TIP3   OH258209   4.924   4.253  16.548 -0.2074 -0.2834 -0.1676
12265TIP3    H158210   4.935   4.238  16.642  0.3745  2.1972  0.2205
12265TIP3    H258211   4.970   4.179  16.507 -0.8928 -1.6871  1.4507
12266TIP3   OH258212   3.748   4.963  13.574  0.1572  0.5798  0.2832
12266TIP3    H158213   3.715   4.875  13.593 -0.0686  0.4505 -0.6808
12266TIP3    H258214   3.840   4.949  13.551 -0.2481  0.4043 -1.3041
12267TIP3   OH258215   4.129   6.238   1.954 -0.0270  0.5702  0.2711
12267TIP3    H158216   4.147   6.170   2.019 -2.4588 -1.1749 -0.7451
12267TIP3    H258217   4.125   6.191   1.871 -2.9864  1.6623 -0.3090
12268TIP3   OH258218   6.738   2.659   5.444 -0.1326 -0.3322  0.3211
12268TIP3    H158219   6.674   2.723   5.412 -2.5948 -2.3340  0.8849
12268TIP3    H258220   6.784   2.630   5.366 -0.8373  0.1947 -0.3094
12269TIP3   OH258221   3.701   0.066   4.264 -0.2819 -0.0396  0.2282
12269TIP3    H158222   3.728  -0.008   4.319 -1.6220 -0.5744  0.2100
12269TIP3    H258223   3.677   0.135   4.326 -2.4297 -0.8663  0.4153
12270TIP3   OH258224   1.356   0.438  15.254 -0.5265  0.3837  0.3647
12270TIP3    H158225   1.409   0.403  15.326  1.5275  1.8220 -0.3316
12270TIP3    H258226   1.313   0.515  15.292 -1.1446 -0.0588  0.5849
12271TIP3   OH258227   0.037   1.739   1.748 -0.5945 -0.8333 -0.0064
12271TIP3    H158228   0.015   1.660   1.699  0.1024 -0.3457 -1.1504
12271TIP3    H258229   0.131   1.750   1.736 -1.1001  2.0124 -2.8571
12272TIP3   OH258230   1.568   0.486  14.802  0.7243 -0.4650  0.1047
12272TIP3    H158231   1.530   0.493  14.889  0.8228 -1.1696  0.2125
12272TIP3    H258232   1.657   0.519  14.812  0.2395  0.9895 -0.1026
12273TIP3   OH258233   2.181   5.954  13.001  0.7169  0.1744  0.3735
12273TIP3    H158234   2.229   6.027  12.961 -0.8690  1.4366  0.6649
12273TIP3    H258235   2.113   5.932  12.937  1.6413 -1.6237 -0.0604
12274TIP3   OH258236   1.186   3.519  15.853 -0.5645 -0.3666 -0.0158
12274TIP3    H158237   1.233   3.577  15.794  0.7152  0.4111  1.6961
12274TIP3    H258238   1.194   3.432  15.813  0.3538  0.1110 -0.9118
12275TIP3   OH258239   3.921   4.827   4.203 -0.1035 -0.2339  0.5603
12275TIP3    H158240   3.880   4.882   4.136 -1.0781 -2.3513 -0.7026
12275TIP3    H258241   3.931   4.884   4.279 -0.7530  1.7370 -0.7588
12276TIP3   OH258242   5.985   5.231   4.419  0.0614  0.1768 -0.2266
12276TIP3    H158243   6.035   5.311   4.435  0.9922 -0.7881  2.2189
12276TIP3    H258244   5.894   5.259   4.417  0.3952  1.3374  0.1896
12277TIP3   OH258245   3.648   1.116   1.966 -0.7735  0.1249  0.3732
12277TIP3    H158246   3.572   1.078   2.010 -0.5641  1.1531  1.6734
12277TIP3    H258247   3.669   1.195   2.016  0.9205  0.0738 -0.1707
12278TIP3   OH258248   4.169   0.817   0.354 -0.0075  0.3464 -0.5675
12278TIP3    H158249   4.117   0.745   0.320 -1.0241  0.2445  1.0848
12278TIP3    H258250   4.237   0.775   0.406  0.1720  0.5483 -0.6363
12279TIP3   OH258251   3.143   1.757  14.581 -0.4451  0.2155  0.7567
12279TIP3    H158252   3.160   1.673  14.624 -2.3726  0.1043  1.4337
12279TIP3    H258253   3.047   1.760  14.572 -0.3703  2.0209  0.0784
12280TIP3   OH258254   5.229   0.837   1.494  0.0727 -0.2711 -0.3400
12280TIP3    H158255   5.317   0.822   1.460  1.5322  1.7954  2.1564
12280TIP3    H258256   5.178   0.866   1.418  2.8986  3.2349 -1.1552
12281TIP3   OH258257   2.289   4.556   5.043  0.4544  0.2008 -0.1062
12281TIP3    H158258   2.353   4.503   4.995 -0.1080  1.5529 -2.4415
12281TIP3    H258259   2.240   4.492   5.095  1.9874 -1.1447 -0.2264
12282TIP3   OH258260   3.327   4.017   3.324 -0.2660 -0.1979  0.0284
12282TIP3    H158261   3.303   4.042   3.234 -1.0216 -0.3038  0.1943
12282TIP3    H258262   3.364   3.929   3.315  0.9749  0.3349 -0.3525
12283TIP3   OH258263   6.123   2.877  15.755  0.0427 -0.5257  0.3173
12283TIP3    H158264   6.122   2.865  15.850  1.7975 -1.2985  0.2791
12283TIP3    H258265   6.065   2.810  15.721 -1.8151  0.7176  0.8841
12284TIP3   OH258266   1.080   0.672  16.145 -0.1672  0.0589 -0.2918
12284TIP3    H158267   0.996   0.701  16.109 -0.7851 -0.5299  0.6130
12284TIP3    H258268   1.055   0.614  16.218  1.0205 -0.9289 -0.6465
12285TIP3   OH258269   4.623   3.721   1.245 -0.3746 -0.1538  0.7001
12285TIP3    H158270   4.698   3.662   1.237  0.1880  0.5433  0.7306
12285TIP3    H258271   4.573   3.687   1.319 -0.9639 -1.5660 -0.3010
12286TIP3   OH258272   3.761   5.846   2.356  0.0867  0.1458  0.3266
12286TIP3    H158273   3.775   5.921   2.414  1.7192  0.1573 -0.0285
12286TIP3    H258274   3.828   5.855   2.288  0.3109 -1.6298  0.2690
12287TIP3   OH258275   4.916   5.674   2.273 -0.0168 -0.7845 -0.1686
12287TIP3    H158276   4.965   5.757   2.272 -0.4201 -0.4838  1.6188
12287TIP3    H258277   4.979   5.610   2.305  0.3759 -1.2514 -1.8193
12288TIP3   OH258278   6.562   6.116  13.002 -0.1912 -0.2810 -0.7400
12288TIP3    H158279   6.560   6.032  12.955 -0.7213 -0.4053 -0.4987
12288TIP3    H258280   6.643   6.158  12.972  0.9476 -1.5855  0.3685
12289TIP3   OH258281   6.172   2.063   4.362 -0.5876 -0.2766  0.0034
12289TIP3    H158282   6.141   2.044   4.451 -0.3280 -1.8521 -0.2161
12289TIP3    H258283   6.187   1.977   4.323 -2.3423  0.3159 -2.1613
12290TIP3   OH258284   0.385   2.826  14.711  0.6926 -0.1956 -0.4035
12290TIP3    H158285   0.431   2.875  14.643  1.0996  0.4223  0.3110
12290TIP3    H258286   0.321   2.887  14.747  0.4278 -0.5413 -0.2783
12291TIP3   OH258287   2.760   5.223  14.581 -0.7612 -0.4641 -0.0847
12291TIP3    H158288   2.832   5.284  14.595 -1.6723  0.3578  1.3487
12291TIP3    H258289   2.686   5.263  14.626 -1.5102 -2.4279  0.5390
12292TIP3   OH258290   5.468   5.026   2.797  0.1154 -0.6094  0.4351
12292TIP3    H158291   5.431   5.110   2.768 -0.9178 -0.3530  2.3272
12292TIP3    H258292   5.424   4.960   2.744 -1.6989 -0.1587  1.2992
12293TIP3   OH258293   6.057   1.949  14.989 -0.1131 -0.1982 -0.6615
12293TIP3    H158294   6.015   1.870  15.022 -0.7359  0.6624  0.7208
12293TIP3    H258295   6.121   1.973  15.057  0.2730  0.3198 -1.1961
12294TIP3   OH258296   0.445   1.574  12.005 -0.5816 -0.0449  0.0952
12294TIP3    H158297   0.489   1.500  12.047 -0.9021 -0.9488 -1.1215
12294TIP3    H258298   0.353   1.548  12.001 -0.6516  0.2897 -0.5890
12295TIP3   OH258299   5.462   1.833  13.892 -0.0955  0.5270 -0.3316
12295TIP3    H158300   5.467   1.916  13.940 -0.3131 -0.7219  2.0025
12295TIP3    H258301   5.516   1.773  13.943 -1.5258 -1.2698 -0.8504
12296TIP3   OH258302   1.052   1.635   5.598  0.3083 -0.3623  0.1469
12296TIP3    H158303   0.975   1.581   5.579  0.8157 -0.7563 -0.8216
12296TIP3    H258304   1.024   1.690   5.672 -0.4270 -1.4793  0.7276
12297TIP3   OH258305   3.862   4.087  13.209 -0.4340  0.0929 -0.2929
12297TIP3    H158306   3.804   4.041  13.148  0.1394 -0.3173 -0.5407
12297TIP3    H258307   3.806   4.108  13.284 -0.9287 -0.2009 -0.5697
12298TIP3   OH258308   1.249   1.587  12.009  0.4405  1.0270 -0.0767
12298TIP3    H158309   1.274   1.547  12.093  2.3079 -2.4701 -2.0841
12298TIP3    H258310   1.322   1.645  11.988  1.0742  0.2059 -0.2301
12299TIP3   OH258311   4.166   3.191  16.574 -0.6885  0.0408 -0.4566
12299TIP3    H158312   4.234   3.132  16.606 -1.2063 -0.1276  0.3850
12299TIP3    H258313   4.086   3.161  16.618 -1.1719  0.6733 -0.8800
12300TIP3   OH258314   3.045   0.865   0.692 -0.4916  0.0778  0.0574
12300TIP3    H158315   3.111   0.891   0.628  0.0726  0.6991  0.8610
12300TIP3    H258316   3.007   0.948   0.722  0.1034 -0.1045  1.3918
12301TIP3   OH258317   3.637   6.547   1.490 -0.0432 -0.8591  0.7746
12301TIP3    H158318   3.590   6.536   1.407  0.2516  0.5041  0.4065
12301TIP3    H258319   3.729   6.556   1.465 -0.2220  2.6517  0.8881
12302TIP3   OH258320   3.258   3.360   2.789 -0.2689  0.3680 -0.3716
12302TIP3    H158321   3.314   3.322   2.722 -1.2970 -0.7780 -0.6039
12302TIP3    H258322   3.269   3.455   2.778  1.0762  0.1819 -0.8499
12303TIP3   OH258323   4.999   3.915   5.106  0.8347 -0.0398  0.6022
12303TIP3    H158324   4.910   3.920   5.143 -0.2318 -0.3362 -1.7115
12303TIP3    H258325   5.048   3.983   5.153 -1.0664  1.2344  0.8701
12304TIP3   OH258326   0.833   0.355  15.328 -0.2535 -0.1890 -0.1156
12304TIP3    H158327   0.852   0.352  15.422 -0.4527  0.7442 -0.0429
12304TIP3    H258328   0.857   0.267  15.297  2.2234  0.2338  0.3393
12305TIP3   OH258329   6.710   2.438   4.204  0.5112  0.5456 -0.7277
12305TIP3    H158330   6.671   2.351   4.197  1.9130 -0.4106  1.8221
12305TIP3    H258331   6.642   2.492   4.242 -0.0163  0.2832 -1.2850
12306TIP3   OH258332   0.151   2.863   1.780  0.7144 -0.5074 -0.8172
12306TIP3    H158333   0.180   2.947   1.745  2.2231 -0.0555  1.2934
12306TIP3    H258334   0.216   2.842   1.848 -1.4309 -1.7471  0.9986
12307TIP3   OH258335   6.110   4.656  14.651  0.5145 -0.3414 -0.1934
12307TIP3    H158336   6.094   4.629  14.561  0.7075 -2.2886  0.3133
12307TIP3    H258337   6.050   4.603  14.704 -0.8028  1.9248  0.7706
12308TIP3   OH258338   2.337   0.667   0.295  0.3108  0.0791 -0.5439
12308TIP3    H158339   2.342   0.686   0.202  1.5872 -1.0692 -0.7436
12308TIP3    H258340   2.327   0.753   0.337 -2.6772  0.4461 -1.8178
12309TIP3   OH258341   5.977   3.085   0.201 -0.0890 -0.1429 -0.2714
12309TIP3    H158342   6.006   3.084   0.292 -0.9163 -0.3158 -0.0049
12309TIP3    H258343   5.979   3.177   0.176  1.0514 -0.1804 -0.3883
12310TIP3   OH258344   3.883   2.242   0.091 -0.2619 -0.0713  0.4607
12310TIP3    H158345   3.957   2.292   0.058 -0.4016  0.6701  1.2492
12310TIP3    H258346   3.868   2.174   0.024  1.4167 -0.5406  0.5191
12311TIP3   OH258347   1.591   5.810   3.925  0.1280 -0.6257  0.0084
12311TIP3    H158348   1.561   5.787   4.013  1.3019 -1.0157  0.3303
12311TIP3    H258349   1.684   5.829   3.936  0.0361  0.4699 -0.9593
12312TIP3   OH258350   5.457   3.725   0.637  0.3136  0.2066  0.0486
12312TIP3    H158351   5.425   3.659   0.699 -1.6181 -0.0750 -1.1671
12312TIP3    H258352   5.535   3.685   0.599  0.7727 -0.1715  1.3165
12313TIP3   OH258353   3.754   1.984  12.781  0.0866 -0.2196  1.1963
12313TIP3    H158354   3.834   1.931  12.782 -0.0609 -0.4487  1.0495
12313TIP3    H258355   3.776   2.062  12.832 -0.1259 -1.0366  2.5920
12314TIP3   OH258356   1.853   5.935   5.261 -0.1115  0.4096  0.0601
12314TIP3    H158357   1.848   5.851   5.216  1.6289  1.8959 -3.2170
12314TIP3    H258358   1.762   5.964   5.267 -0.6646 -1.2668  0.5078
12315TIP3   OH258359   5.395   4.623  14.489 -0.3170  0.1079 -0.3517
12315TIP3    H158360   5.378   4.643  14.581  0.2067 -1.7585  0.2003
12315TIP3    H258361   5.308   4.621  14.449 -0.5447  0.9793  0.0871
12316TIP3   OH258362   5.131   4.544  14.452 -0.3729  0.2769  0.0132
12316TIP3    H158363   5.140   4.504  14.366 -1.6130  1.0008 -0.4924
12316TIP3    H258364   5.156   4.475  14.514 -0.1597 -0.4814 -0.8938
12317TIP3   OH258365   3.690   1.227  10.759 -0.1851 -0.0343  0.3472
12317TIP3    H158366   3.746   1.286  10.810  1.1274 -1.9095  1.2102
12317TIP3    H258367   3.708   1.250  10.668  2.1646 -0.6384  0.5893
12318TIP3   OH258368   0.518   0.915  11.148  0.2026 -0.1723 -0.0804
12318TIP3    H158369   0.486   0.894  11.236 -1.1027  0.3891 -0.3923
12318TIP3    H258370   0.470   0.857  11.090  1.8368 -1.2969 -0.3755
12319TIP3   OH258371   2.679   1.656  15.580 -0.1071  0.1560 -0.1067
12319TIP3    H158372   2.595   1.615  15.561 -0.0851 -0.7636  1.5594
12319TIP3    H258373   2.708   1.692  15.497 -1.6991 -0.3434 -0.9125
12320TIP3   OH258374   3.334   2.863   3.762 -0.4015 -0.1289  0.1129
12320TIP3    H158375   3.296   2.950   3.768 -0.6615 -0.2576  0.3391
12320TIP3    H258376   3.413   2.868   3.816  1.7102  1.0777 -2.8335
12321TIP3   OH258377   4.285   6.198  16.139 -0.3118 -0.2355  0.1069
12321TIP3    H158378   4.197   6.178  16.106 -0.7587  0.7524  0.6605
12321TIP3    H258379   4.322   6.257  16.074  0.6324 -2.0139 -1.0241
12322TIP3   OH258380   6.708   5.771  12.482 -0.0481  0.0825 -0.2511
12322TIP3    H158381   6.634   5.792  12.426 -1.2611  1.1870  1.6318
12322TIP3    H258382   6.677   5.699  12.537  1.2768 -1.3041 -1.2182
12323TIP3   OH258383   3.481   2.529   1.800  0.3149 -0.4416  0.2588
12323TIP3    H158384   3.559   2.489   1.839 -0.1214  0.4239  2.1520
12323TIP3    H258385   3.516   2.593   1.738  1.0245 -2.4347 -1.5176
12324TIP3   OH258386   6.057   4.310   0.065  0.3692  0.0571 -0.3954
12324TIP3    H158387   6.103   4.230   0.087  0.6485  0.2722 -0.1820
12324TIP3    H258388   6.123   4.379   0.072 -0.0848  0.4318  0.3978
12325TIP3   OH258389   1.953   0.978  11.975  0.5246 -0.2492  0.5386
12325TIP3    H158390   1.970   0.940  11.889  0.2820 -2.2540  1.3339
12325TIP3    H258391   1.868   1.021  11.966  0.4717 -0.5038 -0.1980
12326TIP3   OH258392   0.959   4.865   3.522 -0.4164 -0.5638 -0.2652
12326TIP3    H158393   0.899   4.791   3.524  0.2092 -1.1074  2.3381
12326TIP3    H258394   1.001   4.861   3.436 -3.1940 -0.8411 -1.7048
12327TIP3   OH258395   0.872   4.649   4.717  0.5729 -0.1010 -0.5930
12327TIP3    H158396   0.891   4.738   4.685  0.4391 -0.5156 -1.8939
12327TIP3    H258397   0.926   4.592   4.662 -0.4129 -0.9288 -0.7382
12328TIP3   OH258398   3.007   0.396   0.296 -0.4354  0.1336 -0.0140
12328TIP3    H158399   2.979   0.376   0.207  0.7743 -0.6539 -0.2350
12328TIP3    H258400   2.982   0.487   0.309 -1.2145  0.0615 -0.9208
12329TIP3   OH258401   5.151   6.105  13.685  0.0201  0.1570 -0.4153
12329TIP3    H158402   5.227   6.138  13.732 -0.4479  0.7527 -0.0653
12329TIP3    H258403   5.122   6.029  13.736 -0.2543  0.5693  0.0530
12330TIP3   OH258404   4.591   4.573  15.491 -0.7463 -0.0749  0.5384
12330TIP3    H158405   4.538   4.640  15.534 -2.3617  0.2671 -1.8109
12330TIP3    H258406   4.631   4.617  15.416  0.5512 -1.0620  0.6049
12331TIP3   OH258407   0.026   0.365  13.889  0.0230 -0.0523 -0.0360
12331TIP3    H158408   0.033   0.411  13.973 -1.4651 -0.7058  0.4790
12331TIP3    H258409   0.109   0.319  13.879  0.7551  1.1149  0.3997
12332TIP3   OH258410   2.436   4.466   4.773  1.0619 -0.2804 -0.1507
12332TIP3    H158411   2.454   4.445   4.682  1.7084  0.6450 -0.2533
12332TIP3    H258412   2.497   4.537   4.794 -0.0773  0.5209  0.5603
12333TIP3   OH258413   0.161   5.583  15.796 -0.6863 -0.0723 -0.9171
12333TIP3    H158414   0.217   5.505  15.793  2.1113  1.7723 -0.2422
12333TIP3    H258415   0.143   5.595  15.889  0.8545  1.3029 -0.7529
12334TIP3   OH258416   2.055   5.044   2.123  0.5066  0.1964  0.2386
12334TIP3    H158417   2.020   5.024   2.210 -0.0824 -1.9826 -0.4541
12334TIP3    H258418   2.013   4.981   2.065  3.4505 -0.7093 -1.0800
12335TIP3   OH258419   6.399   4.056  13.352 -0.8550  0.4273 -1.0023
12335TIP3    H158420   6.395   4.125  13.285 -1.0079 -0.4861 -1.9594
12335TIP3    H258421   6.340   3.988  13.320  1.1758 -1.2620 -1.3848
12336TIP3   OH258422   4.231   5.026  16.209  0.0051 -0.2440 -0.0810
12336TIP3    H158423   4.275   5.075  16.140  1.4816  0.8379  1.5508
12336TIP3    H258424   4.159   4.982  16.164  1.1898 -0.0099 -2.3969
12337TIP3   OH258425   4.636   3.109  13.713  0.2125 -0.2506  0.3471
12337TIP3    H158426   4.725   3.139  13.693  0.7758 -1.9940  0.0658
12337TIP3    H258427   4.635   3.017  13.686 -1.9291 -0.0606 -0.3996
12338TIP3   OH258428   5.790   4.876  16.634  0.1309 -0.6624 -0.2635
12338TIP3    H158429   5.863   4.937  16.621 -1.1319  0.7230 -1.1394
12338TIP3    H258430   5.797   4.814  16.562 -0.7562  0.7655 -1.6534
12339TIP3   OH258431   3.621   1.023  15.470 -0.2325 -0.1378 -0.3261
12339TIP3    H158432   3.543   1.041  15.418 -0.1403 -2.4006 -1.3891
12339TIP3    H258433   3.694   1.045  15.412  0.0164  2.3396  0.7958
12340TIP3   OH258434   5.434   1.943  16.314 -0.4295  1.0066 -0.1032
12340TIP3    H158435   5.392   1.952  16.399 -3.2773  0.1934 -1.3208
12340TIP3    H258436   5.465   1.853  16.311  0.1746  1.1978  0.2609
12341TIP3   OH258437   1.946   0.474   3.578 -0.0264 -0.5029 -0.6447
12341TIP3    H158438   1.973   0.534   3.647  0.9488 -1.4817 -0.1433
12341TIP3    H258439   2.017   0.411   3.571 -0.5406 -0.9924 -1.8915
12342TIP3   OH258440   5.360   6.108  14.746  0.3389 -0.0731 -0.2399
12342TIP3    H158441   5.282   6.101  14.691  1.1075  1.4822 -1.6381
12342TIP3    H258442   5.337   6.063  14.827 -0.1425 -4.3318 -2.4906
12343TIP3   OH258443   2.499   2.678  15.745 -0.2679 -0.3988  0.4617
12343TIP3    H158444   2.584   2.651  15.710 -0.7111 -0.5565 -0.5115
12343TIP3    H258445   2.481   2.615  15.815  0.8517  0.2145  1.3449
12344TIP3   OH258446   1.475   6.753  17.057 -0.4011  0.4864 -0.0092
12344TIP3    H158447   1.515   6.785  17.138  1.2311  0.5118 -0.7803
12344TIP3    H258448   1.407   6.817  17.037 -0.1132  1.0652  0.7871
12345TIP3   OH258449   4.796   1.963   4.865 -0.1105 -0.2339  0.2505
12345TIP3    H158450   4.842   2.006   4.938 -1.0952  0.7540  0.3168
12345TIP3    H258451   4.769   1.879   4.901  0.9125 -0.4752  0.4754
12346TIP3   OH258452   6.194   0.447   1.017 -0.3454  0.4269  0.4576
12346TIP3    H158453   6.286   0.446   1.042 -0.2634  0.9622  0.1828
12346TIP3    H258454   6.188   0.390   0.940 -0.0029  1.4236 -0.3308
12347TIP3   OH258455   3.682   5.403  16.184  0.1490 -0.0969  0.4563
12347TIP3    H158456   3.587   5.413  16.188  0.0244 -1.4360  1.4720
12347TIP3    H258457   3.701   5.388  16.091 -0.7355 -0.6747  0.3638
12348TIP3   OH258458   3.540   4.409  15.775  0.1988  0.2336 -0.3711
12348TIP3    H158459   3.555   4.486  15.719  1.6621 -1.0452 -1.8541
12348TIP3    H258460   3.563   4.334  15.719 -0.6550 -1.2671  1.1959
12349TIP3   OH258461   1.763   4.339  10.339 -0.7260 -0.0739  0.4626
12349TIP3    H158462   1.843   4.302  10.374 -0.7084  1.7467  2.6198
12349TIP3    H258463   1.707   4.352  10.416 -1.2159  2.9847 -0.2403
12350TIP3   OH258464   1.402   4.884  16.881 -0.0793 -0.2590 -0.5700
12350TIP3    H158465   1.444   4.825  16.819 -2.6736  0.6249 -3.4341
12350TIP3    H258466   1.311   4.853  16.885 -0.6422  1.4130  0.6207
12351TIP3   OH258467   5.518   4.830  12.638 -0.1627  0.8850  0.1925
12351TIP3    H158468   5.548   4.740  12.625 -0.1660  0.6455  1.6718
12351TIP3    H258469   5.590   4.873  12.684 -1.1679  0.8802  1.8776
12352TIP3   OH258470   2.615   3.590  11.470 -0.4057  0.2572  0.0626
12352TIP3    H158471   2.632   3.645  11.394  0.4199 -0.3121 -0.1806
12352TIP3    H258472   2.699   3.550  11.490 -0.1317  1.8496  2.4768
12353TIP3   OH258473   5.269   0.208  15.643 -0.2034  0.5101 -0.0047
12353TIP3    H158474   5.284   0.115  15.657  0.9039  0.4955 -1.1103
12353TIP3    H258475   5.181   0.224  15.676 -0.7572 -1.1204 -0.6155
12354TIP3   OH258476   6.099   3.792  16.395 -0.3641 -0.5533 -0.3680
12354TIP3    H158477   6.161   3.729  16.359 -2.2600 -2.2748 -0.8161
12354TIP3    H258478   6.079   3.851  16.321  0.5327 -0.1338 -0.2827
12355TIP3   OH258479   2.741   6.138  17.125  0.0650 -0.1949 -0.0901
12355TIP3    H158480   2.804   6.125  17.197  0.6971  2.9026  0.0479
12355TIP3    H258481   2.793   6.123  17.046  0.5681  0.7030  0.0540
12356TIP3   OH258482   6.725   3.465   6.966 -0.3095 -0.0444 -0.1787
12356TIP3    H158483   6.646   3.412   6.979 -0.5654  0.6169  1.1032
12356TIP3    H258484   6.701   3.525   6.896 -1.8591  1.7750  1.7892
12357TIP3   OH258485   6.725   3.556  10.816  0.2787  0.5563 -0.2330
12357TIP3    H158486   6.684   3.597  10.892  1.9640  0.2883  0.8566
12357TIP3    H258487   6.778   3.626  10.777  0.7323  0.2459 -0.1769
12358TIP3   OH258488   5.248   4.529  16.178 -0.6915  0.3156 -0.3941
12358TIP3    H158489   5.333   4.489  16.191 -0.8212 -0.7517 -2.4248
12358TIP3    H258490   5.185   4.466  16.214 -0.6984  0.6042  0.1125
12359TIP3   OH258491   6.630   4.129   4.280  0.0137 -0.6557  0.3626
12359TIP3    H158492   6.617   4.050   4.332 -1.4203  1.2193  3.1034
12359TIP3    H258493   6.706   4.171   4.320 -0.7257  0.5297  0.5494
12360TIP3   OH258494   2.496   1.790   3.105 -0.1235  0.0473  0.6378
12360TIP3    H158495   2.428   1.844   3.144  1.1152  1.8654  0.3978
12360TIP3    H258496   2.530   1.842   3.032  0.9289 -1.1690  0.2190
12361TIP3   OH258497   1.039   2.994  13.853 -0.3774  0.4124  0.0940
12361TIP3    H158498   0.994   3.062  13.803 -1.3600  0.0494  0.4407
12361TIP3    H258499   1.006   2.912  13.816 -0.8975  0.1374  1.1103
12362TIP3   OH258500   3.794   6.511   2.822  0.2333 -0.5811 -0.3794
12362TIP3    H158501   3.819   6.464   2.902  0.4450  0.5380  0.2370
12362TIP3    H258502   3.710   6.473   2.797  0.3286 -1.1849  0.1838
12363TIP3   OH258503   6.071   1.490  12.958  0.0760  0.1497 -0.6296
12363TIP3    H158504   6.135   1.419  12.945 -0.3587 -0.0743 -1.6324
12363TIP3    H258505   6.021   1.464  13.036  2.5178  1.3372  1.4976
12364TIP3   OH258506   1.790   6.088   5.520  0.1016 -0.1364  0.2200
12364TIP3    H158507   1.861   6.062   5.579  0.8367  0.0537 -0.5629
12364TIP3    H258508   1.750   6.163   5.564 -0.3613 -0.9346  1.2215
12365TIP3   OH258509   0.624   5.130  16.363  0.4754 -0.2762 -0.6557
12365TIP3    H158510   0.558   5.117  16.295  2.2380 -1.5075 -2.2135
12365TIP3    H258511   0.680   5.053  16.357  0.6892 -0.4680  2.2724
12366TIP3   OH258512   6.136   5.156   5.445 -0.3045  0.0629 -0.0343
12366TIP3    H158513   6.230   5.169   5.458 -0.6470  1.2590  1.4850
12366TIP3    H258514   6.106   5.234   5.399 -0.4901 -0.5202 -0.9180
12367TIP3   OH258515   0.962   6.710   4.392 -0.3341  0.5809 -0.0196
12367TIP3    H158516   0.911   6.780   4.351 -0.2927  0.7702  0.2510
12367TIP3    H258517   1.053   6.733   4.376 -0.2641  1.4690  1.4825
12368TIP3   OH258518   2.075   3.019  14.921  0.4545 -0.0271 -0.6029
12368TIP3    H158519   2.151   2.973  14.884  0.0993 -0.2493 -1.0580
12368TIP3    H258520   2.111   3.065  14.997  1.0064 -0.2990 -0.6879
12369TIP3   OH258521   4.739   3.372  11.503 -0.4853  0.3387 -0.2305
12369TIP3    H158522   4.738   3.380  11.598 -2.0551 -0.3742 -0.1562
12369TIP3    H258523   4.825   3.404  11.477  0.2994 -0.2792  1.5002
12370TIP3   OH258524   5.210   0.148  12.339  0.8879  0.1040 -0.2636
12370TIP3    H158525   5.131   0.177  12.385  1.2655 -0.0256  0.4759
12370TIP3    H258526   5.243   0.227  12.295  0.5403  0.2313 -0.2965
12371TIP3   OH258527   1.549   1.253  14.986 -0.2366  0.0989  0.0644
12371TIP3    H158528   1.610   1.231  14.916  1.3388  0.4870  1.2584
12371TIP3    H258529   1.570   1.343  15.009 -1.8733  0.5408 -0.0793
12372TIP3   OH258530   4.302   5.146  15.061 -0.1562 -0.4779 -0.5062
12372TIP3    H158531   4.336   5.132  15.149  0.6376  0.6400 -0.6082
12372TIP3    H258532   4.339   5.231  15.034  0.4110 -1.2347 -2.2768
12373TIP3   OH258533   2.088   1.254  12.023 -0.4796 -0.4621  0.9408
12373TIP3    H158534   2.057   1.192  12.090 -3.6349 -2.1960 -1.7866
12373TIP3    H258535   2.142   1.201  11.964  0.3127  0.4443  0.8359
12374TIP3   OH258536   5.864   3.166  14.431 -0.8597 -0.0686 -0.4552
12374TIP3    H158537   5.915   3.246  14.417  1.0731 -0.8944  1.2624
12374TIP3    H258538   5.912   3.098  14.385  0.1087 -1.0010  1.8005
12375TIP3   OH258539   5.136   2.249   1.441 -0.2788  0.6273  0.3546
12375TIP3    H158540   5.072   2.270   1.374  0.5373  0.4443 -0.5005
12375TIP3    H258541   5.103   2.170   1.484 -0.1891  0.0260 -0.6668
12376TIP3   OH258542   0.600   4.892   5.259 -0.1459  0.8589 -0.1097
12376TIP3    H158543   0.574   4.962   5.320 -0.6668  0.6341 -0.0656
12376TIP3    H258544   0.517   4.850   5.236  0.1069  0.6325 -0.5956
12377TIP3   OH258545   1.269   6.568   0.717 -0.1186 -0.7079  0.9058
12377TIP3    H158546   1.291   6.521   0.637  0.8595 -1.7578  1.7514
12377TIP3    H258547   1.203   6.513   0.760  0.1403 -0.6986  1.3203
12378TIP3   OH258548   0.015   4.558  13.131  0.7483  0.1209  0.6112
12378TIP3    H158549   0.096   4.587  13.088  1.0955 -0.3837  0.9184
12378TIP3    H258550  -0.046   4.543  13.059  1.2183 -0.3860  0.3071
12379TIP3   OH258551   0.878   3.038   0.563  0.1565 -0.6119  0.2563
12379TIP3    H158552   0.824   3.116   0.550 -1.1652 -1.5298  0.0820
12379TIP3    H258553   0.873   2.991   0.480  0.6315 -1.0685  0.4800
12380TIP3   OH258554   1.888   6.347  17.093  0.2039 -0.0623  0.2796
12380TIP3    H158555   1.886   6.285  17.020  0.6278  0.9938 -0.6564
12380TIP3    H258556   1.803   6.337  17.135 -1.1807  1.2195 -2.0112
12381TIP3   OH258557   2.316   5.932  11.844 -0.4368  0.3018 -0.7067
12381TIP3    H158558   2.368   5.987  11.902 -0.8283 -1.9919  2.0362
12381TIP3    H258559   2.377   5.905  11.775  1.1617  0.2221  0.6697
12382TIP3   OH258560   0.713   3.069  16.451 -0.9086 -0.6977  0.7502
12382TIP3    H158561   0.718   3.030  16.364  0.9338 -1.3112  1.0966
12382TIP3    H258562   0.732   2.996  16.511 -3.1744 -0.5442  1.7737
12383TIP3   OH258563   0.897   3.962   0.073 -0.0495 -0.3636  0.0882
12383TIP3    H158564   0.903   3.903  -0.002 -0.2417  0.7819 -0.8551
12383TIP3    H258565   0.962   4.030   0.055 -0.5255  0.2551  0.6677
12384TIP3   OH258566   2.564   0.244  12.823  0.0905  0.0975 -0.1437
12384TIP3    H158567   2.655   0.243  12.792 -0.1476 -1.2588 -0.8747
12384TIP3    H258568   2.521   0.174  12.774 -0.7151 -1.0674  2.0701
12385TIP3   OH258569   3.389   3.975  15.889  0.0397 -0.8495 -0.6281
12385TIP3    H158570   3.310   3.989  15.837 -1.6778 -1.6014  1.6271
12385TIP3    H258571   3.381   4.036  15.962  1.0164 -1.6433  0.1786
12386TIP3   OH258572   3.227   0.216  13.920  0.2476 -0.0009 -0.3900
12386TIP3    H158573   3.151   0.254  13.877  1.5059  1.4081 -1.4779
12386TIP3    H258574   3.242   0.270  13.997  0.7805  0.4072 -0.7745
12387TIP3   OH258575   6.471   5.741  17.158  0.4204 -0.2232 -0.3659
12387TIP3    H158576   6.454   5.816  17.101  0.5142  0.9298  1.0577
12387TIP3    H258577   6.395   5.684  17.147 -0.5811  1.0122 -0.0661
12388TIP3   OH258578   2.619   1.049   5.266 -0.6610 -0.3870  1.5361
12388TIP3    H158579   2.583   1.002   5.342 -0.8659 -0.4428  1.4056
12388TIP3    H258580   2.578   1.007   5.190 -0.0241 -0.7178  1.3628
12389TIP3   OH258581   6.416   5.244  16.903  0.0148 -0.7862 -0.1936
12389TIP3    H158582   6.449   5.156  16.883 -0.4616 -1.3420  1.2991
12389TIP3    H258583   6.486   5.303  16.876  0.1463 -1.5690 -1.6769
12390TIP3   OH258584   1.239   5.740   5.095 -0.1350  0.3145 -0.0994
12390TIP3    H158585   1.148   5.711   5.090 -0.1458  0.2777  0.2267
12390TIP3    H258586   1.289   5.659   5.109 -0.4691  0.6313  4.2996
12391TIP3   OH258587   1.814   6.374  15.098 -0.1714  0.0412 -1.0990
12391TIP3    H158588   1.901   6.384  15.136 -0.8470 -0.5681  0.7728
12391TIP3    H258589   1.795   6.280  15.108 -1.6112  0.4091 -0.0222
12392TIP3   OH258590   1.333   4.749  10.902 -0.3396  0.2423 -0.5296
12392TIP3    H158591   1.268   4.743  10.973 -0.8775  0.9134 -0.9536
12392TIP3    H258592   1.296   4.814  10.842  1.1232  1.2509 -0.3776
12393TIP3   OH258593   1.604   3.740   4.199  0.4247 -0.7851 -0.1123
12393TIP3    H158594   1.610   3.651   4.235 -1.5825 -0.6771  0.6003
12393TIP3    H258595   1.563   3.791   4.269  0.2292  0.3807 -1.0514
12394TIP3   OH258596   4.500   1.974   1.570  0.2628 -0.0623  0.2837
12394TIP3    H158597   4.570   1.923   1.610 -0.4157 -0.8193  0.5432
12394TIP3    H258598   4.510   1.959   1.476  0.6390  0.0848  0.3009
12395TIP3   OH258599   1.887   0.019   0.430  0.5151 -0.0070 -0.2890
12395TIP3    H158600   1.981   0.006   0.445  0.2412 -1.5154  0.2829
12395TIP3    H258601   1.870  -0.026   0.347  0.3158  0.3483 -0.4399
12396TIP3   OH258602   5.523   6.245  12.500 -0.0825 -0.5147 -0.4516
12396TIP3    H158603   5.457   6.221  12.565  2.7335 -0.0637  2.8356
12396TIP3    H258604   5.545   6.336  12.520  2.0467 -0.8764 -0.8548
12397TIP3   OH258605   0.484   6.095  14.387  0.0276  1.1526 -0.2199
12397TIP3    H158606   0.392   6.080  14.404  0.0111  0.5913 -0.7660
12397TIP3    H258607   0.501   6.184  14.420 -0.5370  0.9998  0.4877
12398TIP3   OH258608   6.127   0.820  11.371  0.1166  0.1954 -0.1841
12398TIP3    H158609   6.074   0.756  11.417  0.6328  0.0895  0.2699
12398TIP3    H258610   6.088   0.905  11.393 -1.5960 -0.0092 -2.0982
12399TIP3   OH258611   4.094   3.399   1.975 -0.2469  0.1442  0.0092
12399TIP3    H158612   4.018   3.378   2.029 -0.4185  2.1602  0.6326
12399TIP3    H258613   4.160   3.333   2.000 -0.8589  0.0580  1.5108
12400TIP3   OH258614   6.016   6.216  13.249  0.2156  0.5164  0.4034
12400TIP3    H158615   6.053   6.153  13.310 -1.6830 -0.5100  0.5646
12400TIP3    H258616   6.034   6.180  13.162 -0.9352 -0.3183  0.4978
12401TIP3   OH258617   2.711   3.914  12.363  0.7079 -0.0555 -0.1399
12401TIP3    H158618   2.688   3.977  12.432  0.3327  0.8782 -1.0816
12401TIP3    H258619   2.763   3.965  12.301 -1.1242 -0.1583 -1.8376
12402TIP3   OH258620   1.402   1.369   3.365 -0.3735  0.1524 -0.7897
12402TIP3    H158621   1.473   1.306   3.357 -1.5379 -1.2649 -0.3417
12402TIP3    H258622   1.324   1.321   3.339 -1.6776  0.6158  1.8659
12403TIP3   OH258623   1.274   6.219   0.917 -0.5312  0.3402 -0.4166
12403TIP3    H158624   1.322   6.143   0.948 -1.1728  0.3982  0.7515
12403TIP3    H258625   1.342   6.286   0.902  0.2759 -0.9509 -3.2093
12404TIP3   OH258626   0.137   4.465   1.438 -0.2904  0.4249  0.4989
12404TIP3    H158627   0.048   4.461   1.401  0.0382 -0.9760 -0.2097
12404TIP3    H258628   0.125   4.444   1.531 -0.6681 -0.0836  0.3414
12405TIP3   OH258629   4.332   0.311  12.288  0.0947 -0.4797 -0.1993
12405TIP3    H158630   4.304   0.399  12.315  1.8506 -0.0259  0.2831
12405TIP3    H258631   4.262   0.253  12.320 -1.0764  0.7186 -0.4826
12406TIP3   OH258632   0.636   5.831  11.427 -0.3732  0.3885 -0.8473
12406TIP3    H158633   0.705   5.892  11.401  1.2672  0.0845  2.3922
12406TIP3    H258634   0.608   5.861  11.513 -1.1318 -2.0813 -0.1483
12407TIP3   OH258635   2.220   3.900  17.190  0.1133 -0.3678  0.2710
12407TIP3    H158636   2.268   3.846  17.252  0.1013  1.8831  2.3921
12407TIP3    H258637   2.228   3.989  17.224 -0.4027  0.9360 -2.6908
12408TIP3   OH258638   3.026   4.330  11.193 -0.6903  0.6200 -0.3067
12408TIP3    H158639   2.977   4.407  11.166 -1.8756  0.9298  2.4365
12408TIP3    H258640   2.967   4.256  11.175 -0.8707  0.6740  0.0668
12409TIP3   OH258641   6.216   5.559   3.862 -0.0387 -0.5950  0.3558
12409TIP3    H158642   6.222   5.468   3.890 -1.5442 -0.8349 -0.0122
12409TIP3    H258643   6.251   5.560   3.773  2.0542 -0.3662  1.1298
12410TIP3   OH258644   5.967   1.791   0.928 -1.0035  0.2370  0.1541
12410TIP3    H158645   6.004   1.871   0.966 -1.4592 -0.3437  1.8770
12410TIP3    H258646   5.896   1.822   0.871  0.1537  1.1587 -0.8578
12411TIP3   OH258647   4.415   1.823   4.588 -0.4512 -1.0316 -0.6747
12411TIP3    H158648   4.340   1.777   4.626  0.5710 -2.9439 -0.8807
12411TIP3    H258649   4.376   1.891   4.534 -2.0929 -2.5693 -1.5174
12412TIP3   OH258650   5.743   3.412   0.299 -0.0757  0.2655 -0.0139
12412TIP3    H158651   5.775   3.397   0.388  0.6253 -0.5898 -0.3960
12412TIP3    H258652   5.796   3.485   0.267 -1.2427  1.4821  0.7087
12413TIP3   OH258653   3.309   0.816   6.712  0.0081 -0.4288 -0.3090
12413TIP3    H158654   3.290   0.750   6.778  1.9122 -0.2604  0.4716
12413TIP3    H258655   3.223   0.846   6.683 -0.8877 -1.1956  1.4010
12414TIP3   OH258656   5.444   0.121  11.783  0.3478  0.2214  0.1170
12414TIP3    H158657   5.386   0.197  11.786 -0.6968 -0.5733  1.4404
12414TIP3    H258658   5.386   0.046  11.798  1.5819 -0.6843  0.5410
12415TIP3   OH258659   2.794   0.868   6.207  0.0312  0.6495  0.4324
12415TIP3    H158660   2.805   0.785   6.161  2.5276  1.3750 -0.4653
12415TIP3    H258661   2.811   0.847   6.298 -0.2646  0.0288  0.3522
12416TIP3   OH258662   3.354   0.584   4.559 -0.0450 -0.0220 -0.1619
12416TIP3    H158663   3.271   0.565   4.602 -0.6808  0.5937 -1.0791
12416TIP3    H258664   3.337   0.661   4.505  0.5317 -1.1015 -2.0088
12417TIP3   OH258665   4.554   4.962  15.137 -0.4753  0.5493  0.3687
12417TIP3    H158666   4.632   4.973  15.191 -0.3101  0.3082  0.1857
12417TIP3    H258667   4.578   5.002  15.053  0.0850 -1.0425 -0.2635
12418TIP3   OH258668   3.213   3.877   3.807 -0.2919  0.3480 -0.3043
12418TIP3    H158669   3.177   3.861   3.720 -0.8834 -1.1592  0.1925
12418TIP3    H258670   3.306   3.895   3.792 -0.3631 -0.0071 -1.2233
12419TIP3   OH258671   1.758   2.356  10.561 -0.4246  0.1965  0.0351
12419TIP3    H158672   1.802   2.419  10.618 -0.0858  0.3060 -0.3437
12419TIP3    H258673   1.770   2.391  10.473  1.1132 -1.1561 -0.3565
12420TIP3   OH258674   5.844   2.380  11.180 -0.5000  0.0681  0.5291
12420TIP3    H158675   5.802   2.299  11.151  0.2278  0.1480 -0.8208
12420TIP3    H258676   5.816   2.446  11.116 -1.3329  0.9857  1.7742
12421TIP3   OH258677   1.172   2.603   6.087  0.1520  0.0621  0.2050
12421TIP3    H158678   1.212   2.532   6.138  0.3022  0.3407  0.4807
12421TIP3    H258679   1.153   2.564   6.002  0.9351 -0.1062  0.0919
12422TIP3   OH258680   0.407   4.986   1.343 -0.1107  0.2234 -0.0052
12422TIP3    H158681   0.468   4.916   1.320  0.6324  0.3631  1.4020
12422TIP3    H258682   0.327   4.941   1.371  0.5064 -0.1024  1.2874
12423TIP3   OH258683   5.240   2.936   5.219  0.1505 -0.7636  0.5543
12423TIP3    H158684   5.216   3.028   5.231  2.4044 -0.3627  2.9081
12423TIP3    H258685   5.228   2.920   5.126 -0.3727  1.9115  0.0844
12424TIP3   OH258686   4.608   1.828  12.914 -0.8883  0.2365  0.2238
12424TIP3    H158687   4.642   1.887  12.981  1.1294  0.0979 -0.6080
12424TIP3    H258688   4.579   1.751  12.961 -0.1239  0.4114  0.9912
12425TIP3   OH258689   5.898   5.577   3.228  0.1202 -0.0619 -0.2043
12425TIP3    H158690   5.820   5.573   3.284  0.4469 -0.0662  0.2606
12425TIP3    H258691   5.908   5.670   3.208  0.7361  0.1105  0.8190
12426TIP3   OH258692   6.356   3.207   5.835 -0.3888  0.1276 -0.1359
12426TIP3    H158693   6.393   3.196   5.923 -0.7331  0.7395  0.0898
12426TIP3    H258694   6.262   3.197   5.847 -0.2938 -1.9743 -0.8033
12427TIP3   OH258695   5.775   3.368   4.326  0.4245 -0.0362  0.6852
12427TIP3    H158696   5.733   3.324   4.252 -0.7512  2.1504 -0.0393
12427TIP3    H258697   5.774   3.303   4.396 -1.1438 -1.1995 -0.3455
12428TIP3   OH258698   6.048   6.275   3.959 -0.1416 -0.0507 -0.0823
12428TIP3    H158699   6.093   6.196   3.931 -2.6310 -1.6345  0.1014
12428TIP3    H258700   6.083   6.344   3.903 -0.3712 -1.9315 -2.7122
12429TIP3   OH258701   1.049   2.352   2.931  0.9340  0.4628  0.4319
12429TIP3    H158702   1.061   2.436   2.975 -0.2863  1.8524 -1.6946
12429TIP3    H258703   1.054   2.373   2.837  0.9417 -1.9121 -0.1750
12430TIP3   OH258704   2.009   3.561  13.401 -0.2514  0.0103 -0.2151
12430TIP3    H158705   2.046   3.634  13.450  1.2763 -1.5971  1.1541
12430TIP3    H258706   1.943   3.524  13.460 -0.0539 -0.5283 -0.3276
12431TIP3   OH258707   4.249   3.465  17.165 -0.0847  0.0355  0.3342
12431TIP3    H158708   4.202   3.450  17.247  0.1288  0.0442  0.4566
12431TIP3    H258709   4.199   3.534  17.121  0.4724  0.8771  0.9913
12432TIP3   OH258710   4.194   2.312   2.523 -0.1095 -0.5038 -0.0160
12432TIP3    H158711   4.287   2.333   2.515 -0.3884  1.5688  1.4727
12432TIP3    H258712   4.193   2.221   2.554  1.4827 -0.1713  1.1474
12433TIP3   OH258713   0.452   3.841  16.055  0.4037  0.2816  0.2130
12433TIP3    H158714   0.370   3.886  16.075  0.2172 -0.4921  1.2782
12433TIP3    H258715   0.516   3.911  16.047  0.0535  0.7799  1.5133
12434TIP3   OH258716   0.334   0.146  15.884 -0.7292  0.3221  0.0503
12434TIP3    H158717   0.299   0.220  15.933 -0.1292  1.2039 -0.8084
12434TIP3    H258718   0.276   0.073  15.906  0.2913  0.3041  3.0913
12435TIP3   OH258719   2.592   0.620   4.888  0.5044  0.5472  0.8317
12435TIP3    H158720   2.605   0.613   4.794  1.0434 -1.3390  1.0040
12435TIP3    H258721   2.502   0.592   4.903  0.5489  0.4485  0.9167
12436TIP3   OH258722   0.941   3.979  12.544  0.2596 -0.4179  0.2404
12436TIP3    H158723   1.025   3.993  12.500  1.3871 -0.6198  2.1932
12436TIP3    H258724   0.954   4.016  12.631 -1.2678 -1.5229  0.9798
12437TIP3   OH258725   6.278   3.511   2.601 -0.3980  0.3217  0.0581
12437TIP3    H158726   6.264   3.570   2.527  0.2036  0.3303 -0.0540
12437TIP3    H258727   6.314   3.566   2.670  1.6378 -0.1626 -0.5545
12438TIP3   OH258728   1.939   3.440   5.601 -0.5710 -0.1568 -0.0777
12438TIP3    H158729   2.001   3.512   5.614  0.1888 -0.9520  0.8175
12438TIP3    H258730   1.991   3.361   5.613 -0.9382 -0.9438 -3.0263
12439TIP3   OH258731   2.228   2.348  16.382  0.1419  0.1046 -0.0097
12439TIP3    H158732   2.258   2.319  16.295  0.5961  1.5725 -0.3715
12439TIP3    H258733   2.266   2.436  16.392 -0.6655  0.3243  1.2917
12440TIP3   OH258734   6.546   0.984   1.846  1.0409 -0.5270  0.2677
12440TIP3    H158735   6.549   0.910   1.785  1.1480  0.1055 -0.5091
12440TIP3    H258736   6.478   0.960   1.909  0.2444 -0.7776 -0.6575
12441TIP3   OH258737   4.088   6.223  16.845  0.1119  0.4874  0.6366
12441TIP3    H158738   4.063   6.135  16.876 -1.2624  1.0584  1.2534
12441TIP3    H258739   4.130   6.264  16.920  2.4314 -0.2181 -0.1873
12442TIP3   OH258740   0.573   5.233   1.967 -0.5606 -0.7175  0.0174
12442TIP3    H158741   0.638   5.176   2.008  2.8715  2.7021 -0.0376
12442TIP3    H258742   0.546   5.292   2.038  1.3351  1.8482 -1.2471
12443TIP3   OH258743   0.120   6.042   4.255 -0.1212 -0.3000  0.1384
12443TIP3    H158744   0.148   5.989   4.181 -0.6878 -1.0609  0.4593
12443TIP3    H258745   0.202   6.063   4.302  0.5981  2.3438 -2.0307
12444TIP3   OH258746   1.488   2.398  14.835  0.2717 -0.4736  0.3623
12444TIP3    H158747   1.539   2.478  14.848  0.3741 -0.3860 -0.5382
12444TIP3    H258748   1.554   2.330  14.820  0.1576 -0.5744  0.3195
12445TIP3   OH258749   1.009   3.038   4.736 -0.8411 -0.0921  0.7114
12445TIP3    H158750   1.004   2.943   4.737 -0.2980 -0.1311  0.4210
12445TIP3    H258751   0.935   3.066   4.683  0.2798 -0.4727 -1.1446
12446TIP3   OH258752   4.082   2.780  11.771  0.4615 -0.2242 -0.5119
12446TIP3    H158753   4.017   2.841  11.807 -0.6778 -1.5172 -0.3299
12446TIP3    H258754   4.123   2.829  11.700  0.9976  1.4877  0.8739
12447TIP3   OH258755   5.911   0.248   5.679  0.6293 -0.0995  0.0912
12447TIP3    H158756   5.969   0.308   5.725 -0.7021  0.8837  0.5534
12447TIP3    H258757   5.967   0.175   5.655  1.7251  0.1040  1.8316
12448TIP3   OH258758   5.157   2.296   3.337  0.3801 -0.1611  0.0216
12448TIP3    H158759   5.190   2.221   3.388 -2.6128 -0.2474  2.0677
12448TIP3    H258760   5.173   2.371   3.394 -0.4397  0.1527 -0.1567
12449TIP3   OH258761   1.089   2.176   4.407 -0.5484  0.3046 -0.2851
12449TIP3    H158762   1.150   2.158   4.335 -0.2741  0.4890 -0.1021
12449TIP3    H258763   1.143   2.220   4.473 -1.1173  1.4141 -0.5443
12450TIP3   OH258764   5.174   4.044   4.414  0.0162  0.0891  0.3238
12450TIP3    H158765   5.108   4.060   4.346  1.1284 -0.5402 -0.9348
12450TIP3    H258766   5.158   4.113   4.479 -2.3380 -0.4677  0.4278
12451TIP3   OH258767   5.621   0.213  14.837 -0.0869  0.1245 -0.4382
12451TIP3    H158768   5.692   0.152  14.857 -0.6073  0.0854  1.5160
12451TIP3    H258769   5.637   0.288  14.895 -2.8240 -0.8458  1.8145
12452TIP3   OH258770   0.784   4.379   3.918 -0.8046  0.5908 -0.1983
12452TIP3    H158771   0.775   4.329   4.000  1.9799 -0.6469 -0.5176
12452TIP3    H258772   0.762   4.316   3.849  1.6609 -0.0156 -0.5462
12453TIP3   OH258773   1.510   3.364  13.454 -0.1991 -0.4481 -1.0689
12453TIP3    H158774   1.487   3.344  13.545  0.8130  1.9544 -0.1752
12453TIP3    H258775   1.430   3.348  13.404 -1.8226  1.2487  0.7997
12454TIP3   OH258776   1.999   1.214  14.746  0.2148  0.2365  0.1511
12454TIP3    H158777   2.061   1.222  14.673 -1.4897 -2.6228 -1.8157
12454TIP3    H258778   2.051   1.179  14.818  1.0675 -1.6192 -1.2808
12455TIP3   OH258779   1.942   2.859   1.719  0.1075  0.3857  0.0974
12455TIP3    H158780   1.901   2.848   1.634 -0.3457  1.0258  0.2247
12455TIP3    H258781   1.929   2.951   1.740 -2.2625 -0.3078  2.1037
12456TIP3   OH258782   6.229   3.698  11.664  0.0554 -0.1767 -0.4057
12456TIP3    H158783   6.138   3.670  11.673 -0.4547  1.1931 -1.0085
12456TIP3    H258784   6.239   3.766  11.731  0.7611 -0.5869 -0.0847
12457TIP3   OH258785   4.867   0.073   4.266  0.0441  0.7187 -0.0687
12457TIP3    H158786   4.866  -0.020   4.290 -2.5627  0.5692 -0.4478
12457TIP3    H258787   4.884   0.072   4.172  3.4571  0.9156  0.4264
12458TIP3   OH258788   0.026   6.206  16.156  0.0967  0.0518  0.3423
12458TIP3    H158789   0.068   6.155  16.225 -1.1442 -1.1684  0.2475
12458TIP3    H258790   0.013   6.144  16.084 -1.7297  0.3768  0.3402
12459TIP3   OH258791   0.303   3.727   0.491  0.0992 -0.4533  0.1263
12459TIP3    H158792   0.360   3.715   0.415 -0.3360  0.5697 -0.3962
12459TIP3    H258793   0.315   3.649   0.544  0.8904 -0.8991 -0.6929
12460TIP3   OH258794   4.673   4.809  11.851 -0.3184 -0.0772  0.0057
12460TIP3    H158795   4.742   4.867  11.820  0.5959 -1.7698 -1.2701
12460TIP3    H258796   4.719   4.734  11.888 -1.4635 -0.8037  0.0156
12461TIP3   OH258797   2.031   2.979   2.856 -0.2968 -0.0605  0.6768
12461TIP3    H158798   2.117   3.008   2.884 -0.9298  0.9576  1.6503
12461TIP3    H258799   2.018   3.020   2.770  0.8019 -1.5066 -0.2252
12462TIP3   OH258800   5.638   0.794  15.120  0.3537 -0.7996 -0.0953
12462TIP3    H158801   5.567   0.853  15.146 -0.1099 -1.8063  0.9969
12462TIP3    H258802   5.630   0.787  15.025 -0.8564 -0.6895 -0.0165
12463TIP3   OH258803   2.314   4.305  12.759 -0.3056  0.3484 -0.3050
12463TIP3    H158804   2.289   4.397  12.751 -0.1266  0.5771  1.4272
12463TIP3    H258805   2.236   4.261  12.792  0.9059  0.7874  3.5671
12464TIP3   OH258806   6.547   1.862   1.807  0.1522  0.0861  0.4343
12464TIP3    H158807   6.510   1.850   1.894  1.2912 -1.9510  0.6889
12464TIP3    H258808   6.626   1.809   1.807 -0.5450 -1.1320 -2.2880
12465TIP3   OH258809   2.988   2.316   3.319 -1.5840 -0.0121 -0.7293
12465TIP3    H158810   3.003   2.391   3.262  0.2996 -0.3871 -0.7749
12465TIP3    H258811   3.075   2.280   3.336 -2.2860 -1.1608  0.6933
12466TIP3   OH258812   6.503   2.465  16.395 -0.2096  0.3538 -0.3241
12466TIP3    H158813   6.535   2.554  16.382  1.8769 -0.2955  0.1220
12466TIP3    H258814   6.415   2.477  16.431  0.4479  2.2528  0.7927
12467TIP3   OH258815   0.208   2.941   0.273  0.2203 -0.4257  0.2838
12467TIP3    H158816   0.277   2.922   0.209  0.8109  0.3850  0.6559
12467TIP3    H258817   0.144   2.871   0.262 -0.0860  0.1034 -1.7496
12468TIP3   OH258818   6.759   5.043   3.667 -0.2026  0.2637 -0.5666
12468TIP3    H158819   6.789   5.047   3.758  0.4615 -1.1315 -0.6976
12468TIP3    H258820   6.803   5.117   3.625  0.6673  0.0562 -0.0673
12469TIP3   OH258821   6.114   3.406  17.072  0.6832  0.3593 -0.2279
12469TIP3    H158822   6.127   3.312  17.062 -0.6920 -0.0226  1.1231
12469TIP3    H258823   6.199   3.441  17.097  1.2797 -0.4683 -1.0704
12470TIP3   OH258824   5.235   2.376   4.679  0.2180  0.5530 -0.0106
12470TIP3    H158825   5.268   2.306   4.622  1.6703  1.3012 -0.1517
12470TIP3    H258826   5.141   2.380   4.660  0.7006  1.0643 -2.7468
12471TIP3   OH258827   5.137   0.728  16.531  0.4715 -0.1447 -0.0495
12471TIP3    H158828   5.173   0.811  16.565 -2.5073  1.3183 -0.1935
12471TIP3    H258829   5.109   0.681  16.610 -0.8432  0.5071 -0.1051
12472TIP3   OH258830   2.592   4.135  14.879 -0.1950 -0.0093  0.0425
12472TIP3    H158831   2.674   4.182  14.895 -0.0655 -0.5486  1.0218
12472TIP3    H258832   2.592   4.120  14.785  0.8836 -0.0905  0.0358
12473TIP3   OH258833   5.976   0.746  15.797  0.2504 -0.3778 -0.5176
12473TIP3    H158834   6.005   0.664  15.758  2.7669  0.0583  0.2771
12473TIP3    H258835   5.966   0.805  15.722 -2.2007 -1.4763 -1.1691
12474TIP3   OH258836   2.446   2.226  10.628 -0.4452  0.1174 -0.1183
12474TIP3    H158837   2.502   2.291  10.670 -0.3589  0.9721 -1.4729
12474TIP3    H258838   2.405   2.179  10.700  1.8982 -0.4621  0.9276
12475TIP3   OH258839   1.201   3.836  15.552 -0.1344  0.3495  0.1961
12475TIP3    H158840   1.217   3.888  15.473  0.6777  0.5618  0.4985
12475TIP3    H258841   1.143   3.890  15.605 -1.2960 -0.1067 -0.5720
12476TIP3   OH258842   5.142   6.197   1.287  0.2476 -0.2841 -0.1007
12476TIP3    H158843   5.182   6.281   1.263  0.3965 -0.2037  0.4295
12476TIP3    H258844   5.052   6.220   1.311  0.3980 -0.2287  0.4016
12477TIP3   OH258845   2.698   5.987  13.796  0.3586  0.2015 -0.2233
12477TIP3    H158846   2.714   5.953  13.884 -1.6049 -0.8715 -0.2092
12477TIP3    H258847   2.741   5.924  13.738 -0.1904 -0.3231 -0.0755
12478TIP3   OH258848   1.537   4.590  10.833  0.1686  0.3654 -0.4604
12478TIP3    H158849   1.479   4.642  10.889 -0.8729 -0.6048 -0.5943
12478TIP3    H258850   1.566   4.518  10.890 -1.3894 -0.9780 -1.2775
12479TIP3   OH258851   5.309   3.009  15.069 -0.2356 -0.1371 -0.5322
12479TIP3    H158852   5.272   3.063  14.999  0.7842  0.2351 -0.8047
12479TIP3    H258853   5.365   2.946  15.024 -0.1958 -0.4139 -0.1039
12480TIP3   OH258854   0.428   5.837   0.273  0.0275  0.3178  0.2534
12480TIP3    H158855   0.423   5.764   0.212 -1.9773  1.3123 -0.8908
12480TIP3    H258856   0.340   5.843   0.310  0.5111  1.3452  1.3004
12481TIP3   OH258857   0.519   2.118   0.847  0.4042  0.6468 -0.2589
12481TIP3    H158858   0.512   2.102   0.753 -1.7764  0.5420 -0.1248
12481TIP3    H258859   0.498   2.034   0.887 -3.8120  1.7522  0.3274
12482TIP3   OH258860   6.625   4.409  14.521 -0.4788 -0.7970 -0.1535
12482TIP3    H158861   6.682   4.408  14.598 -1.1768 -1.2957  0.3768
12482TIP3    H258862   6.661   4.478  14.465 -0.4017  0.0977  0.9614
12483TIP3   OH258863   0.542   4.874   4.476 -0.5248  0.6304 -0.1195
12483TIP3    H158864   0.593   4.870   4.557 -0.3540  0.4059 -0.2355
12483TIP3    H258865   0.550   4.786   4.439 -0.3518  0.8160 -0.5301
12484TIP3   OH258866   4.792   5.720  14.924 -0.0308  0.2060  0.0702
12484TIP3    H158867   4.881   5.696  14.949 -0.9376 -2.4275  1.1138
12484TIP3    H258868   4.803   5.777  14.847  2.5115 -0.1446  0.0852
12485TIP3   OH258869   5.452   2.426  10.638 -0.8904  0.5909 -0.8240
12485TIP3    H158870   5.393   2.359  10.603 -0.6307  1.2515 -2.6560
12485TIP3    H258871   5.425   2.507  10.594 -0.3790  1.4449  0.3828
12486TIP3   OH258872   5.285   2.886   1.439  0.8920  0.1952  0.0986
12486TIP3    H158873   5.273   2.894   1.534 -0.9805  0.1042 -0.0914
12486TIP3    H258874   5.218   2.824   1.412  0.0905  1.7154 -1.5617
12487TIP3   OH258875   4.461   6.646   0.416  0.0673 -0.4048 -0.3252
12487TIP3    H158876   4.415   6.623   0.496 -2.4466  1.5215 -1.0771
12487TIP3    H258877   4.549   6.671   0.444 -0.9701  0.9501  1.9597
12488TIP3   OH258878   1.787   2.794  12.953 -0.4494 -0.1052  0.2652
12488TIP3    H158879   1.808   2.862  12.889 -0.0004  0.2060  0.7293
12488TIP3    H258880   1.872   2.767  12.988 -0.6921 -0.1762  0.8157
12489TIP3   OH258881   4.885   2.473   0.931  0.2478  0.0598 -0.8766
12489TIP3    H158882   4.981   2.476   0.934  0.2156  2.3489  1.5375
12489TIP3    H258883   4.859   2.565   0.917 -1.6010 -0.3219 -0.2001
12490TIP3   OH258884   5.634   2.640   4.787  0.3808 -0.5744 -0.4223
12490TIP3    H158885   5.545   2.673   4.802 -0.4635 -2.1687 -1.6200
12490TIP3    H258886   5.641   2.562   4.842  1.3690  0.0193  0.3166
12491TIP3   OH258887   6.128   5.892  12.030  0.3799 -0.0030  0.0860
12491TIP3    H158888   6.123   5.920  11.938 -1.3161 -2.4240 -0.6688
12491TIP3    H258889   6.139   5.974  12.079  0.2932  1.4806 -2.1901
12492TIP3   OH258890   4.764   1.521   3.126  0.0265  0.2139 -0.1490
12492TIP3    H158891   4.783   1.469   3.048  1.0193 -3.5943  2.3056
12492TIP3    H258892   4.669   1.531   3.126 -0.0119  0.0372 -1.6694
12493TIP3   OH258893   6.786   5.649   5.024 -0.1288  0.1482  0.0486
12493TIP3    H158894   6.780   5.657   5.119 -0.0793  1.0319 -0.0099
12493TIP3    H258895   6.871   5.690   5.003  1.1160 -2.3434 -0.1432
12494TIP3   OH258896   4.302   3.608  12.398 -0.7851 -0.3623  0.0843
12494TIP3    H158897   4.327   3.549  12.469 -1.4541  0.8300  1.3589
12494TIP3    H258898   4.218   3.645  12.426  0.6345  2.8951  0.4659
12495TIP3   OH258899   4.059   5.972   2.631  0.4452 -0.2956  0.3988
12495TIP3    H158900   4.109   6.049   2.604 -0.2239  0.4917  1.3441
12495TIP3    H258901   3.970   5.990   2.601  0.4660 -1.1456 -0.2113
12496TIP3   OH258902   2.522   0.670   1.106 -0.3892 -0.3083  0.2464
12496TIP3    H158903   2.457   0.665   1.036 -0.1162  0.5085 -0.0742
12496TIP3    H258904   2.477   0.713   1.179 -0.0394  0.8333 -0.1931
12497TIP3   OH258905   6.452   2.179   1.286  0.1602  0.1375 -0.3285
12497TIP3    H158906   6.444   2.237   1.362  1.3065  1.5905 -1.2691
12497TIP3    H258907   6.362   2.153   1.267 -0.4168  1.6819  0.1064
12498TIP3   OH258908   5.140   4.838   4.432 -0.3242  0.5847  0.3279
12498TIP3    H158909   5.114   4.844   4.524  1.2955  0.4367  0.8356
12498TIP3    H258910   5.088   4.766   4.397 -0.0272 -0.2350  1.4947
12499TIP3   OH258911   2.180   1.078  10.430 -0.5193 -0.1599  0.0360
12499TIP3    H158912   2.119   1.122  10.372 -1.6661  0.0116  1.3040
12499TIP3    H258913   2.178   0.986  10.402 -1.2674 -0.1316 -0.0374
12500TIP3   OH258914   6.798   2.241   2.449  0.0958  0.1991  0.0441
12500TIP3    H158915   6.705   2.253   2.428 -0.0226 -0.2232  0.3082
12500TIP3    H258916   6.843   2.250   2.366 -0.2267 -0.0496 -0.1602
12501TIP3   OH258917   3.769   6.765  12.774  0.0748  0.5386  0.9167
12501TIP3    H158918   3.703   6.832  12.791 -0.1743  1.0579 -1.6582
12501TIP3    H258919   3.853   6.812  12.774  0.1136  0.4703  1.0844
12502TIP3   OH258920   0.281   3.196  16.135 -0.0736 -0.7860  0.2219
12502TIP3    H158921   0.210   3.187  16.198 -0.7369 -0.4387 -0.4576
12502TIP3    H258922   0.357   3.155  16.177 -0.8652 -1.8544  0.6416
12503TIP3   OH258923   5.188   1.957   3.284 -0.5924 -0.7900  0.4181
12503TIP3    H158924   5.200   1.996   3.371 -1.9403 -0.1515  0.3451
12503TIP3    H258925   5.101   1.987   3.256  0.4724  0.4572 -1.8717
12504TIP3   OH258926   6.782   4.151  16.521 -0.3947  0.4776 -0.3451
12504TIP3    H158927   6.799   4.100  16.600  2.5280 -0.6963 -1.5877
12504TIP3    H258928   6.852   4.216  16.518 -0.9952  1.1143 -1.5143
12505TIP3   OH258929   0.839   0.518   4.892  0.3087 -0.2184  0.5046
12505TIP3    H158930   0.754   0.491   4.857  0.8428 -0.0676 -0.9628
12505TIP3    H258931   0.817   0.577   4.964 -0.8278 -0.8308  0.6890
12506TIP3   OH258932   4.455   4.684   3.907  0.0143 -0.0872 -0.2161
12506TIP3    H158933   4.537   4.641   3.884  0.7314  0.1487  1.7166
12506TIP3    H258934   4.469   4.717   3.996 -2.5620 -1.0513  0.6429
12507TIP3   OH258935   5.569   5.990   1.052 -0.1500 -0.1568 -0.1553
12507TIP3    H158936   5.578   5.897   1.072  0.5238 -0.6032 -2.3419
12507TIP3    H258937   5.503   5.995   0.984 -1.2599  1.1504  0.9598
12508TIP3   OH258938   5.230   0.448  13.212 -0.1171  0.3212  0.3920
12508TIP3    H158939   5.304   0.437  13.152  2.0403 -0.8139  3.0836
12508TIP3    H258940   5.239   0.537  13.245 -0.7111  0.5926 -0.1390
12509TIP3   OH258941   5.113   0.520   4.000  0.1192 -0.1526  0.0227
12509TIP3    H158942   5.039   0.490   4.054 -0.1693  0.5888  0.0457
12509TIP3    H258943   5.088   0.496   3.910  1.1465 -2.5132  0.2888
12510TIP3   OH258944   2.538   3.760  12.176  0.6012  0.3919 -0.1516
12510TIP3    H158945   2.582   3.775  12.093  1.6242  0.7396  0.4429
12510TIP3    H258946   2.581   3.819  12.238  0.0404 -0.0496  0.6835
12511TIP3   OH258947   3.349   2.604  11.970  0.6331  0.1528  0.1817
12511TIP3    H158948   3.439   2.574  11.984  0.6496  0.3665  0.5349
12511TIP3    H258949   3.318   2.630  12.057  0.6991  1.3752 -0.1406
12512TIP3   OH258950   0.457   5.422   5.987 -0.0383  0.1585 -0.1999
12512TIP3    H158951   0.532   5.368   5.962 -0.8569 -0.9470 -0.3407
12512TIP3    H258952   0.479   5.455   6.074 -0.7041 -2.7988  1.2197
12513TIP3   OH258953   1.092   0.666   3.834  0.1826  0.0924 -0.3388
12513TIP3    H158954   1.094   0.751   3.878  1.1829  0.4220 -1.0067
12513TIP3    H258955   0.998   0.649   3.821 -0.2065 -0.2025  2.2060
12514TIP3   OH258956   2.178   3.964   1.445 -0.0410 -0.1511  0.3293
12514TIP3    H158957   2.108   3.949   1.381  0.1819 -1.7516  0.4108
12514TIP3    H258958   2.132   3.985   1.526 -0.3551  0.7973 -0.0858
12515TIP3   OH258959   4.339   0.095  14.552 -0.1647  0.4514 -0.3798
12515TIP3    H158960   4.329   0.168  14.613 -0.5023 -0.4353  0.6628
12515TIP3    H258961   4.300   0.126  14.470  2.4056  2.5336 -0.9268
12516TIP3   OH258962   5.836   6.568  16.295  0.1856  0.1835 -0.1973
12516TIP3    H158963   5.879   6.631  16.354 -1.2348  0.5515  0.4883
12516TIP3    H258964   5.787   6.622  16.233 -1.4706 -0.2032  0.7192
12517TIP3   OH258965   5.243   6.129   3.192  0.0780  0.1726  0.2338
12517TIP3    H158966   5.156   6.125   3.152  1.3087  0.4227 -2.7716
12517TIP3    H258967   5.262   6.222   3.201 -0.1026  0.1180  1.2803
12518TIP3   OH258968   4.858   6.413  14.529  0.0313  0.1338  0.2151
12518TIP3    H158969   4.797   6.480  14.559  0.7744  0.8839  0.1107
12518TIP3    H258970   4.862   6.426  14.434  0.0649 -0.1632  0.1749
12519TIP3   OH258971   2.301   1.392  16.807 -0.0181 -0.2830  0.1343
12519TIP3    H158972   2.365   1.323  16.793  1.1679  0.6928  0.5749
12519TIP3    H258973   2.246   1.390  16.729  1.5133 -0.1235 -0.9804
12520TIP3   OH258974   4.739   5.871   5.773 -0.3812 -0.1641  0.1040
12520TIP3    H158975   4.717   5.808   5.704  1.4518 -0.1707 -0.5263
12520TIP3    H258976   4.670   5.937   5.767  0.4306  0.5772 -2.7244
12521TIP3   OH258977   0.425   0.494  11.901 -0.1400 -0.1291  0.2686
12521TIP3    H158978   0.356   0.512  11.838 -0.2703 -0.4217  0.3263
12521TIP3    H258979   0.415   0.401  11.923  1.4770 -0.7144 -1.2098
12522TIP3   OH258980   0.851   0.444   6.349  0.1771 -0.5271  0.5219
12522TIP3    H158981   0.943   0.441   6.376  0.2271 -3.1245  0.3166
12522TIP3    H258982   0.806   0.488   6.421  1.6937  1.8706  0.0907
12523TIP3   OH258983   5.665   3.179  13.700  0.1345 -0.2769 -0.1110
12523TIP3    H158984   5.671   3.119  13.774  0.5657  1.4664  1.3438
12523TIP3    H258985   5.592   3.237  13.722 -0.1740 -0.1394 -1.3922
12524TIP3   OH258986   1.315   6.290   3.839  0.6956 -0.6586 -0.9945
12524TIP3    H158987   1.352   6.310   3.752 -2.1139  1.1101 -1.9023
12524TIP3    H258988   1.235   6.242   3.820 -0.7551  1.0343  0.4942
12525TIP3   OH258989   1.112   2.589  16.036  0.6463 -0.2123 -0.1250
12525TIP3    H158990   1.202   2.563  16.016  0.2662 -0.4368 -1.7453
12525TIP3    H258991   1.115   2.685  16.040  0.6348 -0.0645 -2.2779
12526TIP3   OH258992   3.722   0.452  15.649  0.0514 -0.4893 -0.2476
12526TIP3    H158993   3.785   0.384  15.670 -0.9496 -1.8044 -1.3939
12526TIP3    H258994   3.758   0.531  15.690  1.8507 -1.4266  0.0616
12527TIP3   OH258995   0.941   1.906   3.504  0.3466  0.2539 -0.0000
12527TIP3    H158996   0.991   1.988   3.499 -1.4763  1.3517 -2.3997
12527TIP3    H258997   0.884   1.908   3.428 -0.5655 -2.7948  0.4585
12528TIP3   OH258998   0.989   0.393  16.224  0.1073 -0.3154  0.2605
12528TIP3    H158999   0.993   0.391  16.128 -0.5226  1.9103  0.1232
12528TIP3    H259000   0.899   0.419  16.244  1.0017  2.3214  1.2820
12529TIP3   OH259001   3.430   3.624   1.510  0.1309 -0.2218 -0.3728
12529TIP3    H159002   3.511   3.601   1.555  0.0913 -0.2504 -0.3163
12529TIP3    H259003   3.448   3.709   1.469  0.4580 -0.6084 -1.0333
12530TIP3   OH259004   4.578   2.471   1.833 -0.4852  0.1433 -0.5125
12530TIP3    H159005   4.639   2.496   1.763 -0.3956  0.3734 -0.3528
12530TIP3    H259006   4.580   2.376   1.833  1.5105  0.1415  0.9112
12531TIP3   OH259007   5.398   1.813   3.721  0.0116 -0.4048 -0.0965
12531TIP3    H159008   5.431   1.786   3.807  1.7897  0.5071 -0.4595
12531TIP3    H259009   5.409   1.908   3.720  0.7903 -0.4840 -1.6328
12532TIP3   OH259010   3.742   1.247   0.840  0.3412  0.1533  0.1063
12532TIP3    H159011   3.709   1.318   0.896 -3.2161  0.0307 -1.5755
12532TIP3    H259012   3.756   1.289   0.755  0.0642 -0.7747 -0.4060
12533TIP3   OH259013   4.466   0.135   3.045  0.6452  0.4448 -0.1059
12533TIP3    H159014   4.383   0.127   3.092  2.4152 -1.0669  3.0498
12533TIP3    H259015   4.459   0.071   2.974  0.1267 -1.8370  1.8892
12534TIP3   OH259016   6.280   2.785  12.462 -0.2973 -0.2422 -0.0340
12534TIP3    H159017   6.348   2.732  12.420 -1.2816 -0.8548 -0.8899
12534TIP3    H259018   6.316   2.874  12.461  0.5487 -0.5726 -0.3435
12535TIP3   OH259019   5.062   3.017   3.590  0.1947 -1.0924  0.2093
12535TIP3    H159020   5.078   2.929   3.556  0.8941  0.0253 -2.6837
12535TIP3    H259021   5.062   3.007   3.685  0.9813 -4.0707 -0.0139
12536TIP3   OH259022   0.830   1.434   0.326  0.0899 -0.0580  0.0071
12536TIP3    H159023   0.850   1.419   0.234 -1.2347  0.5025 -0.3893
12536TIP3    H259024   0.888   1.374   0.373  1.0759 -0.0563 -1.1647
12537TIP3   OH259025   3.783   5.456   4.509  0.6891  0.4817  0.3057
12537TIP3    H159026   3.738   5.427   4.431 -0.1474  2.2233  0.0922
12537TIP3    H259027   3.856   5.395   4.519  0.3286 -0.2620 -1.3462
12538TIP3   OH259028   0.510   4.235   6.506  0.2282 -0.1274 -0.2135
12538TIP3    H159029   0.440   4.247   6.441  0.0826 -1.5908 -0.3710
12538TIP3    H259030   0.506   4.313   6.561 -0.6337  0.4408 -1.0592
12539TIP3   OH259031   2.366   0.997   2.787  0.2090  0.1773 -0.4371
12539TIP3    H159032   2.455   0.968   2.772  0.6255 -0.0861  2.1104
12539TIP3    H259033   2.316   0.916   2.802  0.2471  0.4318  1.2742
12540TIP3   OH259034   3.552   6.764  15.093  0.3783 -0.5515 -0.2314
12540TIP3    H159035   3.481   6.730  15.147  0.9665 -0.5478  0.5657
12540TIP3    H259036   3.520   6.849  15.061 -2.0260 -2.5950 -4.0661
12541TIP3   OH259037   2.767   2.560   4.436  0.2048  0.5068 -0.2810
12541TIP3    H159038   2.747   2.492   4.499  0.2600  0.0257 -0.7749
12541TIP3    H259039   2.775   2.640   4.488  0.3987  0.0916  0.3337
12542TIP3   OH259040   0.091   0.151  11.247  0.0280 -0.3950 -0.1107
12542TIP3    H159041   0.068   0.071  11.199 -0.4617  0.4792 -1.4092
12542TIP3    H259042   0.056   0.222  11.192  0.9564  0.7325  0.7115
12543TIP3   OH259043   5.899   1.711   5.228  0.3071  0.1731 -0.7536
12543TIP3    H159044   5.994   1.700   5.218  0.3005  1.0469 -2.0253
12543TIP3    H259045   5.866   1.623   5.243  1.4383 -0.0127  0.9093
12544TIP3   OH259046   3.574   1.636  16.484 -0.1885  0.8552 -0.1781
12544TIP3    H159047   3.643   1.569  16.490 -0.2157  0.8165 -0.3037
12544TIP3    H259048   3.536   1.639  16.572  1.0328  2.0034  0.3456
12545TIP3   OH259049   3.859   4.843  12.197 -0.6192  0.3076  0.9571
12545TIP3    H159050   3.938   4.789  12.198  0.0979  1.3291  1.3910
12545TIP3    H259051   3.850   4.874  12.287 -1.5351  0.1660  0.9155
12546TIP3   OH259052   5.669   2.215  12.538 -0.0756 -0.0634  0.1436
12546TIP3    H159053   5.649   2.292  12.590 -0.0490 -0.3718  0.6224
12546TIP3    H259054   5.644   2.238  12.449  0.3144  0.6423  0.2138
12547TIP3   OH259055   6.228   6.206   4.371 -0.6475  0.3404 -0.2523
12547TIP3    H159056   6.157   6.266   4.350 -0.8085  0.1023 -0.3852
12547TIP3    H259057   6.190   6.144   4.434 -0.7663 -0.2213 -0.8626
12548TIP3   OH259058   0.668   6.100   0.436 -0.2079  0.2374 -0.0885
12548TIP3    H159059   0.724   6.095   0.358 -0.1452  0.7777 -0.0834
12548TIP3    H259060   0.729   6.093   0.509 -0.1617  0.6526 -0.0844
12549TIP3   OH259061   6.616   4.224  15.676  0.6202 -0.6404  0.4969
12549TIP3    H159062   6.703   4.212  15.637  0.3832 -1.6337  0.2246
12549TIP3    H259063   6.576   4.137  15.671 -0.3502 -0.2201  0.7225
12550TIP3   OH259064   5.316   6.317   0.609 -0.8223 -0.3614  0.4645
12550TIP3    H159065   5.385   6.302   0.544  0.4647 -0.8000  1.8737
12550TIP3    H259066   5.334   6.404   0.643  0.2514 -1.1875  2.1668
12551TIP3   OH259067   0.764   0.832  11.223 -0.1207  0.2989 -0.0176
12551TIP3    H159068   0.822   0.908  11.233  0.2045  0.3162 -1.7648
12551TIP3    H259069   0.682   0.869  11.190  0.0698 -0.1108 -0.9635
12552TIP3   OH259070   4.823   2.142   5.123  0.3503  0.3673  0.7795
12552TIP3    H159071   4.826   2.237   5.108  0.2181  0.3587  0.6931
12552TIP3    H259072   4.886   2.127   5.193  1.0130  0.4059  0.2099
12553TIP3   OH259073   0.442   0.709  16.213 -0.5308 -0.5290 -0.1668
12553TIP3    H159074   0.466   0.692  16.304 -0.0327  0.5351 -0.0820
12553TIP3    H259075   0.480   0.795  16.194  0.1264 -1.1140 -1.6472
12554TIP3   OH259076   2.505   2.612   2.553  0.0819  0.0422  0.0270
12554TIP3    H159077   2.414   2.591   2.534  0.5167 -2.9098  0.6606
12554TIP3    H259078   2.502   2.682   2.618 -1.6857  0.5622 -0.5776
12555TIP3   OH259079   4.172   2.283  10.248 -0.3248 -0.0196  0.2497
12555TIP3    H159080   4.082   2.267  10.274 -0.3110  0.5782  0.6893
12555TIP3    H259081   4.196   2.364  10.294  0.8902 -0.9399  1.3284
12556TIP3   OH259082   1.327   2.714   5.818  0.2569  0.6152  0.5826
12556TIP3    H159083   1.277   2.633   5.827  1.2325  0.0371  1.0356
12556TIP3    H259084   1.379   2.718   5.899  0.9157  1.1948  0.1374
12557TIP3   OH259085   5.194   1.654  14.780 -0.4403  0.1419  0.1512
12557TIP3    H159086   5.269   1.632  14.724 -0.1625 -0.1937  0.6585
12557TIP3    H259087   5.166   1.571  14.818 -0.2375  0.4576  1.0065
12558TIP3   OH259088   3.995   2.202   4.015  0.1982 -0.0432 -0.0992
12558TIP3    H159089   4.001   2.253   3.935  0.5760 -1.1423 -0.7991
12558TIP3    H259090   4.072   2.145   4.013  0.6177  0.4204  1.4251
12559TIP3   OH259091   4.794   0.335  15.815 -0.0886 -0.0927  0.5453
12559TIP3    H159092   4.808   0.324  15.909  1.4859 -1.8618  0.1639
12559TIP3    H259093   4.716   0.390  15.808  0.5180  1.1689  2.8706
12560TIP3   OH259094   2.207   3.185   3.989 -0.2360  0.1168 -0.0311
12560TIP3    H159095   2.278   3.165   4.050  1.1198  0.6508 -1.3583
12560TIP3    H259096   2.149   3.110   3.994 -0.3883  0.3173  2.1760
12561TIP3   OH259097   5.825   5.024  14.933 -0.0779 -1.2527  0.0365
12561TIP3    H159098   5.750   5.077  14.905 -0.1868 -1.3189  0.2024
12561TIP3    H259099   5.853   4.978  14.853 -0.1264 -1.1203 -0.0563
12562TIP3   OH259100   0.792   5.749  16.549 -0.0171  0.0475  0.4337
12562TIP3    H159101   0.845   5.672  16.570 -0.8489 -0.9871 -1.0749
12562TIP3    H259102   0.856   5.820  16.539  0.7961 -0.5036  1.5014
12563TIP3   OH259103   0.649   6.378   0.782 -0.0566  0.7614 -0.3215
12563TIP3    H159104   0.598   6.400   0.860 -1.2066 -0.7881 -0.5936
12563TIP3    H259105   0.662   6.462   0.738  0.0194  1.5663  1.1693
12564TIP3   OH259106   4.953   0.406   2.079 -0.3711  0.3761  0.2525
12564TIP3    H159107   4.979   0.374   1.993  1.2776 -1.0165  1.2108
12564TIP3    H259108   5.035   0.417   2.127 -1.1957  1.8807  1.4256
12565TIP3   OH259109   3.252   2.233   4.195  0.6000 -0.1690 -0.1896
12565TIP3    H159110   3.235   2.327   4.197  0.3333 -0.1677 -1.4350
12565TIP3    H259111   3.284   2.212   4.283 -0.6543  0.8302  0.5464
12566TIP3   OH259112   0.471   2.013   6.411 -0.2518  0.1493  0.3359
12566TIP3    H159113   0.414   2.074   6.365  0.0017 -0.7249 -1.1922
12566TIP3    H259114   0.553   2.061   6.423  0.6730 -0.4446 -2.6694
12567TIP3   OH259115   5.000   2.266   0.778 -0.0711 -0.0784 -0.4944
12567TIP3    H159116   4.948   2.330   0.827  1.0590  0.6186 -0.1443
12567TIP3    H259117   5.087   2.272   0.817  0.0431 -1.9023 -0.4237
12568TIP3   OH259118   3.392   0.500   3.943 -0.0928  0.2198 -0.2993
12568TIP3    H159119   3.366   0.538   3.859  0.6963 -0.9034 -1.0849
12568TIP3    H259120   3.392   0.405   3.928 -3.5115 -0.3156  2.0360
12569TIP3   OH259121   3.627   4.417   1.010  0.1186  0.2728  0.3688
12569TIP3    H159122   3.712   4.376   1.022 -0.6072 -1.3055  0.4380
12569TIP3    H259123   3.616   4.423   0.915 -0.6129 -1.6431  0.2949
12570TIP3   OH259124   6.644   0.631   5.352  0.2925 -0.6383  0.0868
12570TIP3    H159125   6.712   0.572   5.386  0.0748 -0.5644  0.6548
12570TIP3    H259126   6.651   0.709   5.406 -1.4024 -1.2955  1.3424
12571TIP3   OH259127   4.061   1.719  16.357 -0.0632  0.4423  0.4521
12571TIP3    H159128   4.076   1.631  16.393 -0.5637  0.3196  0.3735
12571TIP3    H259129   3.987   1.707  16.296 -0.8185  1.1094  1.2155
12572TIP3   OH259130   1.728   3.759  16.884  0.1053  0.6099 -0.0508
12572TIP3    H159131   1.709   3.740  16.792 -1.1653  1.7804 -0.0633
12572TIP3    H259132   1.750   3.674  16.922 -0.4934 -0.0718 -1.1745
12573TIP3   OH259133   1.942   1.709  15.311  0.1186  0.5698  0.2580
12573TIP3    H159134   1.943   1.653  15.389  1.5140  0.7707  0.4116
12573TIP3    H259135   1.989   1.788  15.338 -1.1647  1.5145 -0.1832
12574TIP3   OH259136   4.047   0.591   0.237 -0.3429 -0.0124  0.0249
12574TIP3    H159137   4.133   0.555   0.213 -0.0634  0.6854 -0.0357
12574TIP3    H259138   4.018   0.536   0.310  0.5559  0.2932  0.6351
12575TIP3   OH259139   6.754   4.772   0.134  0.5849 -0.1564 -0.0142
12575TIP3    H159140   6.767   4.858   0.095  0.3767 -0.1249 -0.0162
12575TIP3    H259141   6.832   4.758   0.188  0.8570 -0.1897 -0.4155
12576TIP3   OH259142   6.121   4.670   3.454  0.0219 -0.6067  0.2948
12576TIP3    H159143   6.087   4.610   3.387 -0.6351 -0.4273  0.4626
12576TIP3    H259144   6.094   4.631   3.537  1.5845 -1.2910  0.5085
12577TIP3   OH259145   0.227   0.205  15.354  0.7659  0.2115  0.0320
12577TIP3    H159146   0.203   0.261  15.428 -0.4105 -0.0569 -0.1317
12577TIP3    H259147   0.243   0.267  15.283  1.1548  0.4289  0.3013
12578TIP3   OH259148   4.434   6.222   1.977  0.4526  0.1783 -0.4113
12578TIP3    H159149   4.493   6.189   1.909 -2.8109 -1.6092 -2.6299
12578TIP3    H259150   4.361   6.260   1.928 -1.6438 -0.3633  2.1293
12579TIP3   OH259151   3.505   5.303  11.892 -0.0425  0.5751 -0.0493
12579TIP3    H159152   3.518   5.284  11.985  0.5054 -0.2516 -0.2858
12579TIP3    H259153   3.465   5.390  11.890  1.3191  1.2415  0.8952
12580TIP3   OH259154   5.022   3.744   2.587 -0.2293 -0.0647  0.5258
12580TIP3    H159155   5.013   3.656   2.624  1.6690 -0.1392  0.8685
12580TIP3    H259156   5.099   3.739   2.530 -0.7692  1.0958 -0.3616
12581TIP3   OH259157   2.093   3.669   0.457 -0.1060  0.5988 -0.1623
12581TIP3    H159158   2.036   3.602   0.421 -0.8609  0.1352  1.7434
12581TIP3    H259159   2.182   3.638   0.438 -0.4096 -1.4502  1.4102
12582TIP3   OH259160   3.874   1.218  12.938  0.7554 -0.1875 -0.3865
12582TIP3    H159161   3.957   1.256  12.967  0.0608  0.5646  0.6760
12582TIP3    H259162   3.834   1.182  13.017  0.6354 -1.7026 -1.0990
12583TIP3   OH259163   5.744   0.603  13.862  0.1372  0.2423 -0.5376
12583TIP3    H159164   5.649   0.601  13.855  0.0567 -0.2708  0.4916
12583TIP3    H259165   5.773   0.646  13.782 -0.8540 -1.1745 -1.7275
12584TIP3   OH259166   2.147   3.052  13.136  0.5482  0.1565 -0.4839
12584TIP3    H159167   2.164   3.064  13.043  0.0601  1.4693 -0.4223
12584TIP3    H259168   2.051   3.052  13.143  0.5626 -1.1969 -0.1246
12585TIP3   OH259169   3.288   5.630   0.717  0.1144 -0.5472  0.1634
12585TIP3    H159170   3.322   5.699   0.660 -2.3400 -0.3370 -1.1626
12585TIP3    H259171   3.284   5.670   0.803  0.3229  0.3938 -0.2501
12586TIP3   OH259172   6.334   3.175   2.555  0.0745  0.1033  0.6206
12586TIP3    H159173   6.283   3.220   2.488 -2.1084 -1.0567  1.3736
12586TIP3    H259174   6.399   3.124   2.506 -0.3834  0.5643 -0.5030
12587TIP3   OH259175   1.274   3.447   4.693 -0.6332 -0.2794 -0.2404
12587TIP3    H159176   1.232   3.522   4.651 -0.7939 -0.3770 -0.2550
12587TIP3    H259177   1.248   3.453   4.785  1.3867  1.1136  0.3065
12588TIP3   OH259178   2.398   3.700   0.416 -0.3880  0.5662 -0.2872
12588TIP3    H159179   2.421   3.780   0.464 -0.6880  0.2226  0.4362
12588TIP3    H259180   2.435   3.629   0.469 -0.1218  0.2187 -0.9262
12589TIP3   OH259181   5.344   1.110   4.176  0.0937 -0.0677  0.0834
12589TIP3    H159182   5.266   1.142   4.220  1.9552  2.6919  1.7061
12589TIP3    H259183   5.398   1.188   4.163  2.2073 -1.6989 -1.8013
12590TIP3   OH259184   5.861   5.502  12.876 -0.8897 -0.4354 -0.2916
12590TIP3    H159185   5.771   5.533  12.881 -0.3787  1.0351  0.6603
12590TIP3    H259186   5.860   5.415  12.916 -1.7153 -0.0203  0.6079
12591TIP3   OH259187   3.917   3.309  16.291 -0.1674  0.3248  0.2606
12591TIP3    H159188   3.913   3.300  16.196  0.2529 -1.4302  0.3648
12591TIP3    H259189   3.896   3.400  16.308 -0.9058  0.5077 -1.4710
12592TIP3   OH259190   4.430   0.179  13.786 -0.2729  0.6845 -0.3645
12592TIP3    H159191   4.524   0.191  13.800 -0.2240 -0.7867  0.8344
12592TIP3    H259192   4.410   0.232  13.708  1.3521  1.7374 -0.1136
12593TIP3   OH259193   6.497   1.072  12.318  0.5452 -0.5828 -0.1574
12593TIP3    H159194   6.553   1.085  12.241  1.7217  1.5293  0.9579
12593TIP3    H259195   6.444   1.151  12.323 -0.3388 -1.1994  0.5685
12594TIP3   OH259196   0.374   5.481  17.092  0.0467 -0.3839 -0.1231
12594TIP3    H159197   0.298   5.452  17.041 -1.8404  1.1913  1.6163
12594TIP3    H259198   0.416   5.400  17.121  0.0547 -1.2985 -2.4757
12595TIP3   OH259199   0.034   3.283  14.103 -0.1147  0.0325  0.1056
12595TIP3    H159200   0.114   3.326  14.134  0.9878 -2.1258  0.4060
12595TIP3    H259201  -0.015   3.354  14.060  1.0931  1.7962  1.4641
12596TIP3   OH259202   0.114   1.912   1.184  0.3517 -0.3976  0.4302
12596TIP3    H159203   0.024   1.907   1.219  0.0804  0.5472 -0.0999
12596TIP3    H259204   0.103   1.939   1.093  1.1329 -1.3939  0.0233
12597TIP3   OH259205   6.502   6.639   0.648  0.0095  0.4458  0.3826
12597TIP3    H159206   6.595   6.641   0.672 -0.0708 -0.9070  0.8888
12597TIP3    H259207   6.496   6.569   0.583 -0.9549 -0.9015  1.8494
12598TIP3   OH259208   1.461   0.342   4.206 -0.2970  0.9655 -0.4338
12598TIP3    H159209   1.467   0.305   4.118 -0.1408  0.7986 -0.3549
12598TIP3    H259210   1.368   0.362   4.218 -0.9170 -1.9251  0.5075
12599TIP3   OH259211   1.993   1.518   2.806 -0.4322  0.1599 -0.4727
12599TIP3    H159212   2.062   1.512   2.739  1.7624  1.3973  1.5404
12599TIP3    H259213   1.977   1.612   2.815  0.2008  0.1239  1.4990
12600TIP3   OH259214   4.389   0.595   3.453  1.0642  0.1604  0.8841
12600TIP3    H159215   4.437   0.621   3.532  1.7060 -2.8718  1.6019
12600TIP3    H259216   4.299   0.581   3.483  0.9467  0.5385  0.7158
12601TIP3   OH259217   4.311   5.745   4.021 -0.3654 -0.2117  0.1235
12601TIP3    H159218   4.303   5.835   4.051  0.7353 -0.9597  2.9514
12601TIP3    H259219   4.246   5.697   4.072  0.1741 -1.2690 -0.1583
12602TIP3   OH259220   6.433   0.861   2.518  0.1427 -0.2398 -1.0010
12602TIP3    H159221   6.459   0.807   2.592  1.9229  1.9822  0.1436
12602TIP3    H259222   6.496   0.840   2.450  0.0178 -0.5384 -1.0259
12603TIP3   OH259223   0.016   5.837  11.454  0.5649 -0.1373  0.4943
12603TIP3    H159224  -0.032   5.774  11.399  1.2995 -0.5501  0.3111
12603TIP3    H259225   0.108   5.814  11.441  0.8107  0.6023  0.8933
12604TIP3   OH259226   3.719   2.402   1.836  0.1237  0.8792 -0.0096
12604TIP3    H159227   3.788   2.343   1.806 -0.1553  0.5723 -0.0398
12604TIP3    H259228   3.740   2.419   1.928  0.6938  1.4247 -0.2306
12605TIP3   OH259229   5.817   2.468  12.980  0.1425  0.2696 -0.4334
12605TIP3    H159230   5.794   2.398  13.041  2.3816  0.3916  0.6345
12605TIP3    H259231   5.891   2.433  12.930 -0.2856  0.9826 -1.6186
12606TIP3   OH259232   4.661   5.322   4.112  0.4064 -0.2318 -0.2290
12606TIP3    H159233   4.676   5.271   4.033  1.5485  0.1498 -0.2795
12606TIP3    H259234   4.679   5.261   4.184  1.6332  0.0425 -0.2877
12607TIP3   OH259235   6.067   4.224   0.746  0.3431 -0.3666  0.4493
12607TIP3    H159236   6.026   4.241   0.661  1.4315  0.1219 -0.0055
12607TIP3    H259237   6.037   4.137   0.771 -2.8958  0.8407  1.3130
12608TIP3   OH259238   4.617   3.384  12.298  0.5751  0.2579 -0.0978
12608TIP3    H159239   4.684   3.341  12.351  0.7649 -0.2081 -0.7005
12608TIP3    H259240   4.565   3.433  12.361  0.5679 -0.5766  0.5653
12609TIP3   OH259241   6.562   6.693   3.350 -0.6044 -0.0139  0.0359
12609TIP3    H159242   6.576   6.779   3.311 -0.8746 -0.9496 -2.2748
12609TIP3    H259243   6.467   6.689   3.364 -0.5420  0.2076  0.5500
12610TIP3   OH259244   5.013   6.517   0.064  0.1653  0.6009 -0.1225
12610TIP3    H159245   5.044   6.441   0.016  0.0653 -1.1898  2.4328
12610TIP3    H259246   4.929   6.539   0.024  0.4043 -0.3387 -1.1787
12611TIP3   OH259247   1.780   6.101  11.502 -0.1741 -0.0889  0.2736
12611TIP3    H159248   1.718   6.029  11.513  0.3356 -1.0908 -2.6188
12611TIP3    H259249   1.825   6.106  11.586 -2.2911 -1.1219  1.5489
12612TIP3   OH259250   1.569   4.501   5.340 -0.7748 -0.6976 -0.1861
12612TIP3    H159251   1.570   4.570   5.406 -0.2463 -1.0710  0.2041
12612TIP3    H259252   1.528   4.542   5.263 -0.1403  0.1669 -0.0806
12613TIP3   OH259253   3.971   5.020  13.205  0.6568  0.2270  0.2964
12613TIP3    H159254   3.933   4.932  13.204 -0.0002  0.5064 -0.1080
12613TIP3    H259255   3.962   5.051  13.115 -0.7992  1.3975  0.8036
12614TIP3   OH259256   1.806   6.723   3.163  0.7103 -0.5243  0.2811
12614TIP3    H159257   1.759   6.646   3.130 -1.8780  2.1867 -3.1239
12614TIP3    H259258   1.741   6.770   3.215  2.1388 -0.3836  2.0058
12615TIP3   OH259259   3.147   1.422  12.438  0.2815 -0.0114  0.2979
12615TIP3    H159260   3.131   1.495  12.498  0.8638 -1.1939  1.9531
12615TIP3    H259261   3.239   1.432  12.412 -0.2386  1.0948 -1.3108
12616TIP3   OH259262   1.218   3.642   4.028  0.7196  0.1789 -0.5580
12616TIP3    H159263   1.158   3.655   3.954 -0.5879  0.7560  0.5634
12616TIP3    H259264   1.305   3.656   3.991  0.1825 -0.5296 -2.2008
12617TIP3   OH259265   4.512   0.772   4.625 -0.2284  0.2816 -0.6741
12617TIP3    H159266   4.532   0.866   4.622 -1.2250  0.5149 -3.6398
12617TIP3    H259267   4.417   0.768   4.624 -0.2308 -0.8044  0.8175
12618TIP3   OH259268   1.545   6.162   5.980 -0.2687 -0.3890  0.1286
12618TIP3    H159269   1.575   6.253   5.985  0.9704 -0.8039  0.6203
12618TIP3    H259270   1.623   6.112   5.957 -1.0039 -1.3066 -0.4465
12619TIP3   OH259271   5.538   3.240  14.087  0.2109  0.3202  0.0047
12619TIP3    H159272   5.608   3.249  14.022  2.1571 -2.3335  1.4952
12619TIP3    H259273   5.507   3.150  14.076 -2.2585  1.0824  0.1644
12620TIP3   OH259274   5.314   0.535  14.737  0.1935 -0.2784 -0.4420
12620TIP3    H159275   5.298   0.499  14.824  1.3693  1.0196  0.3696
12620TIP3    H259276   5.403   0.506  14.715  0.8084  1.3011 -0.1633
12621TIP3   OH259277   4.461   4.060   2.528 -0.1571 -0.3594  0.3630
12621TIP3    H159278   4.481   4.028   2.616 -0.6908 -2.5592 -0.2588
12621TIP3    H259279   4.414   3.988   2.486  0.0526  0.6370 -1.7187
12622TIP3   OH259280   1.570   3.910  15.513 -0.0627  0.2583  0.1820
12622TIP3    H159281   1.572   3.815  15.526 -2.0749 -0.1656 -1.9301
12622TIP3    H259282   1.529   3.922  15.427 -1.5970  3.0713  1.1577
12623TIP3   OH259283   5.628   4.661   0.883  0.1151 -0.2954 -0.0092
12623TIP3    H159284   5.663   4.585   0.930  2.0361  1.0396  0.8730
12623TIP3    H259285   5.565   4.624   0.821 -0.1373 -2.4357  1.4086
12624TIP3   OH259286   1.895   4.948   5.539 -0.4640  0.0109  0.3846
12624TIP3    H159287   1.853   5.013   5.482 -0.4497 -0.2718  0.0524
12624TIP3    H259288   1.966   4.912   5.487  2.3759  2.8083  2.0051
12625TIP3   OH259289   0.665   3.521  15.058  0.2710  0.2317  0.1589
12625TIP3    H159290   0.692   3.515  15.149  3.0596  0.2308 -0.5926
12625TIP3    H259291   0.704   3.444  15.016  1.0918  1.4706 -1.4727
12626TIP3   OH259292   0.122   2.878  15.510 -0.6051  0.0945 -0.3917
12626TIP3    H159293   0.038   2.892  15.554 -1.1148 -1.1195 -0.9228
12626TIP3    H259294   0.180   2.846  15.579 -0.6598  0.6836 -0.0738
12627TIP3   OH259295   0.111   2.855  14.079 -0.4004  0.3877  0.1123
12627TIP3    H159296   0.070   2.896  14.004 -0.9309 -0.1281  0.1105
12627TIP3    H259297   0.038   2.836  14.139 -0.3598 -1.5607 -0.3754
12628TIP3   OH259298   3.658   2.574  13.959 -0.2602  0.2980 -0.0648
12628TIP3    H159299   3.744   2.570  13.916 -1.0684  0.6724 -1.8066
12628TIP3    H259300   3.619   2.655  13.927 -0.9526  0.5694  1.3779
12629TIP3   OH259301   4.209   2.882   2.841 -0.2168  0.6382  0.8388
12629TIP3    H159302   4.200   2.943   2.768  3.6686 -0.1435 -0.5136
12629TIP3    H259303   4.286   2.912   2.888  1.2953 -2.5779  0.6538
12630TIP3   OH259304   2.050   4.951   0.010  0.6363  0.3690  0.0535
12630TIP3    H159305   2.087   4.954  -0.078  0.7380  0.9617  0.1138
12630TIP3    H259306   2.075   5.035   0.049 -1.2050  1.0134 -0.0777
12631TIP3   OH259307   2.770   6.192   3.003 -0.0134 -0.6457 -0.2597
12631TIP3    H159308   2.864   6.174   2.993  0.5366  0.6946  1.9455
12631TIP3    H259309   2.760   6.222   3.093 -2.1297  1.8303 -1.1873
12632TIP3   OH259310   5.532   5.893   0.100  0.0302 -0.3189 -0.2717
12632TIP3    H159311   5.443   5.901   0.135 -0.2678  0.9236 -1.2481
12632TIP3    H259312   5.558   5.803   0.120 -1.5894 -0.8208 -0.3219
12633TIP3   OH259313   0.553   5.141  14.010  0.5380  0.2733  0.1548
12633TIP3    H159314   0.604   5.061  14.016 -0.4316 -0.4107 -0.4628
12633TIP3    H259315   0.512   5.138  13.923 -0.7385  0.6671  0.7142
12634TIP3   OH259316   0.848   1.311   6.291 -0.1075 -0.3132  1.0998
12634TIP3    H159317   0.783   1.274   6.351 -0.7801 -0.2697  0.4209
12634TIP3    H259318   0.857   1.246   6.222 -0.7121  0.4130  0.3088
12635TIP3   OH259319   0.970   1.270  15.007  0.0764  0.1911  0.0087
12635TIP3    H159320   0.880   1.243  14.993  0.5705 -0.9115 -1.1924
12635TIP3    H259321   0.979   1.274  15.103 -1.1660  0.0822  0.1454
12636TIP3   OH259322   1.839   3.038   3.374  0.1262 -0.2951 -0.0024
12636TIP3    H159323   1.781   3.048   3.449 -0.3658  0.7609 -0.4983
12636TIP3    H259324   1.790   2.983   3.313  0.4121 -0.9260  0.3369
12637TIP3   OH259325   1.424   5.204   1.474 -0.6986 -0.6185  0.0574
12637TIP3    H159326   1.441   5.182   1.565 -0.6806 -0.1675  0.1656
12637TIP3    H259327   1.329   5.212   1.469 -0.7004 -0.6550  0.0341
12638TIP3   OH259328   2.577   4.953   5.113  0.4926  0.7073  0.0222
12638TIP3    H159329   2.547   4.931   5.201  0.8494  1.6827  0.3969
12638TIP3    H259330   2.630   4.877   5.086 -2.2293 -1.0909 -0.6767
12639TIP3   OH259331   4.838   3.428   0.463 -0.7921  0.0721 -0.2365
12639TIP3    H159332   4.898   3.406   0.534 -1.4156 -0.5808  0.1051
12639TIP3    H259333   4.799   3.511   0.489 -0.5151  0.1757 -0.1474
12640TIP3   OH259334   2.260   2.839  14.656  0.4990  0.7395  0.3685
12640TIP3    H159335   2.305   2.851  14.740  2.5308 -2.5039 -0.0611
12640TIP3    H259336   2.330   2.839  14.591 -0.5785 -0.3285 -0.8579
12641TIP3   OH259337   4.416   3.437  15.202  0.1189 -0.0565 -0.0909
12641TIP3    H159338   4.397   3.483  15.284  0.1819  2.8603 -1.5586
12641TIP3    H259339   4.329   3.416  15.166  0.0954 -1.8461  0.9097
12642TIP3   OH259340   4.649   4.733   5.086 -0.7780 -0.5842  0.4787
12642TIP3    H159341   4.725   4.738   5.144 -0.5642 -0.7106  0.2080
12642TIP3    H259342   4.657   4.649   5.042  0.1302  0.3096 -1.1897
12643TIP3   OH259343   5.323   6.350   2.973  0.5033  0.2319  0.4734
12643TIP3    H159344   5.397   6.374   2.919  1.2727  0.1457  1.4614
12643TIP3    H259345   5.259   6.420   2.959  0.8045  0.3562 -0.3074
12644TIP3   OH259346   6.404   5.136   1.005  0.3100 -0.2352  0.0571
12644TIP3    H159347   6.310   5.126   1.020 -0.1596  0.8689 -1.8328
12644TIP3    H259348   6.426   5.066   0.944  0.7871 -0.6416  0.6860
12645TIP3   OH259349   2.749   2.974   2.366  0.3981 -0.0857  0.2604
12645TIP3    H159350   2.787   3.055   2.401  1.8223  0.2836 -1.9317
12645TIP3    H259351   2.822   2.913   2.363  0.0030 -0.5266 -0.7348
12646TIP3   OH259352   4.727   0.421  11.549 -0.9879 -0.5514 -0.0567
12646TIP3    H159353   4.632   0.407  11.556 -1.3497 -0.2678 -3.1591
12646TIP3    H259354   4.736   0.516  11.536 -0.4275 -0.7318 -1.0883
12647TIP3   OH259355   2.009   1.694   3.139 -0.6623  0.4073  0.3950
12647TIP3    H159356   1.991   1.600   3.150  0.5522  0.0547 -0.4979
12647TIP3    H259357   2.037   1.703   3.048 -2.0927  1.8766  0.0417
12648TIP3   OH259358   6.769   5.562   0.250  0.3382 -0.3479 -0.0260
12648TIP3    H159359   6.756   5.560   0.155  2.2015 -0.9393 -0.3111
12648TIP3    H259360   6.860   5.533   0.263  0.0200 -0.6394  1.9645
12649TIP3   OH259361   2.394   5.899  13.798 -0.5240 -0.3256 -0.2982
12649TIP3    H159362   2.319   5.928  13.850  0.3602  0.5933  0.4882
12649TIP3    H259363   2.355   5.870  13.715 -1.7245  0.3857 -0.0057
12650TIP3   OH259364   0.123   3.915  12.728  0.6314 -0.1348  0.0877
12650TIP3    H159365   0.133   3.940  12.819 -2.8190 -1.7128  1.0575
12650TIP3    H259366   0.106   3.997  12.682 -0.1618  0.4344  1.3535
12651TIP3   OH259367   6.182   5.656  14.282  0.1642  0.6070  0.4478
12651TIP3    H159368   6.179   5.698  14.196  0.6336 -0.3960 -0.0805
12651TIP3    H259369   6.271   5.672  14.313  0.6659 -0.7938 -0.1930
12652TIP3   OH259370   2.069   1.366  14.289 -0.1978  0.3566 -0.6891
12652TIP3    H159371   2.124   1.288  14.284  0.1784  0.4193  1.6610
12652TIP3    H259372   1.992   1.344  14.237 -0.4346 -1.8776  0.5080
12653TIP3   OH259373   4.712   5.376   6.472  0.0298 -0.3812 -0.5933
12653TIP3    H159374   4.729   5.466   6.446 -1.6404 -0.3978 -1.9185
12653TIP3    H259375   4.616   5.370   6.476  0.1197 -1.5410  1.6034
12654TIP3   OH259376   5.870   2.663   4.562  0.0376 -0.0814  0.2669
12654TIP3    H159377   5.807   2.619   4.505 -0.4923  0.6305  0.2831
12654TIP3    H259378   5.926   2.712   4.502 -0.0515  0.0733  0.3088
12655TIP3   OH259379   0.256   3.416   1.428  0.9005  0.2787 -0.1027
12655TIP3    H159380   0.277   3.509   1.439 -1.8145  1.3083 -2.2918
12655TIP3    H259381   0.314   3.386   1.358  2.8302 -0.1909  1.6038
12656TIP3   OH259382   2.196   1.646  14.956  0.7988  0.5611 -0.1061
12656TIP3    H159383   2.210   1.630  14.862 -1.1250  0.2442 -0.3671
12656TIP3    H259384   2.192   1.741  14.964  2.2882  0.6452 -0.1113
12657TIP3   OH259385   4.755   5.706   4.724  0.2200  0.3431  0.5739
12657TIP3    H159386   4.745   5.794   4.690  0.2285  0.1052 -0.0563
12657TIP3    H259387   4.747   5.716   4.819  1.0506  1.1285  0.5738
12658TIP3   OH259388   1.747   1.131   3.440 -0.6706 -0.1892  0.3958
12658TIP3    H159389   1.685   1.118   3.368  1.1827 -0.4826 -1.2075
12658TIP3    H259390   1.802   1.204   3.412  0.5380 -0.7752  1.1712
12659TIP3   OH259391   2.803   4.223  11.583 -0.0456  0.0417 -0.1164
12659TIP3    H159392   2.795   4.128  11.591 -1.1811  0.2055  0.9683
12659TIP3    H259393   2.783   4.257  11.670  1.9271  1.2111 -0.0660
12660TIP3   OH259394   0.677   6.534  14.550  0.3353 -0.0923  0.1371
12660TIP3    H159395   0.719   6.455  14.584 -0.8638  0.1023  2.2403
12660TIP3    H259396   0.641   6.578  14.628  0.1910  2.0690 -1.0652
12661TIP3   OH259397   4.708   4.911  16.309 -0.3242  0.1517  0.1575
12661TIP3    H159398   4.781   4.966  16.336  0.8315 -0.9800 -0.5238
12661TIP3    H259399   4.654   4.901  16.387  0.1750  1.1194  0.6324
12662TIP3   OH259400   0.065   0.960   1.752 -0.2194  0.0550 -0.1896
12662TIP3    H159401   0.014   0.978   1.831 -1.4403  0.1260 -0.9788
12662TIP3    H259402   0.031   1.020   1.686  0.5289 -0.2573 -0.8857
12663TIP3   OH259403   1.833   5.686   3.790 -0.2591 -0.7674 -0.3700
12663TIP3    H159404   1.850   5.604   3.742 -1.7606 -1.8831  0.8829
12663TIP3    H259405   1.759   5.725   3.745  0.9786  0.3810 -1.4764
12664TIP3   OH259406   5.017   4.811   2.924  0.0469  0.3865 -0.1534
12664TIP3    H159407   5.078   4.829   2.995  1.1570 -0.2167 -0.9403
12664TIP3    H259408   5.006   4.716   2.924  1.6442  0.1340 -2.0231
12665TIP3   OH259409   1.699   6.350  14.348 -0.5283 -0.3709  0.0976
12665TIP3    H159410   1.605   6.351  14.331 -0.4193 -1.3861 -0.7153
12665TIP3    H259411   1.730   6.272  14.302  0.9225  0.6773 -0.7710
12666TIP3   OH259412   6.082   1.460  16.798 -0.0615 -0.4993 -0.4434
12666TIP3    H159413   6.126   1.478  16.882  0.0645 -1.5264 -0.2851
12666TIP3    H259414   6.153   1.448  16.735 -0.1240 -1.2034 -0.3854
12667TIP3   OH259415   3.787   2.880   5.528  0.2334  0.5350 -0.1460
12667TIP3    H159416   3.863   2.920   5.570  0.4732 -0.6289  0.5850
12667TIP3    H259417   3.732   2.954   5.502  0.4446  1.3456  1.5639
12668TIP3   OH259418   4.351   1.558   2.974 -0.3465  0.2440  0.1026
12668TIP3    H159419   4.430   1.508   2.989  1.5230  2.3278 -1.9803
12668TIP3    H259420   4.353   1.628   3.040 -0.5111  0.2661  0.0866
12669TIP3   OH259421   0.981   2.437  14.762  0.6476  0.1594  0.1785
12669TIP3    H159422   1.072   2.430  14.733 -0.1054 -1.4673 -2.1652
12669TIP3    H259423   0.953   2.524  14.734  1.4965  0.7459  1.0914
12670TIP3   OH259424   4.658   4.878   1.803  0.1993 -0.5900  0.2790
12670TIP3    H159425   4.664   4.784   1.788 -0.0398 -0.5283 -0.2228
12670TIP3    H259426   4.613   4.912   1.726  1.1111  0.0580  0.0088
12671TIP3   OH259427   5.874   2.593  10.791  0.4657  0.1101 -0.0021
12671TIP3    H159428   5.944   2.621  10.733 -1.1630  2.5846 -0.9659
12671TIP3    H259429   5.794   2.621  10.747 -0.9967 -0.4038  2.1479
12672TIP3   OH259430   5.655   4.388   0.989  0.3702  0.4601 -0.2626
12672TIP3    H159431   5.601   4.317   1.025  0.3335  0.8117  0.4026
12672TIP3    H259432   5.744   4.365   1.015  0.3695  0.6015 -0.1312
12673TIP3   OH259433   3.777   6.679   5.736 -0.0352 -0.3179  0.0960
12673TIP3    H159434   3.744   6.613   5.674  0.9431 -0.2584 -0.5092
12673TIP3    H259435   3.803   6.753   5.681 -0.7724  0.4416  0.7380
12674TIP3   OH259436   6.629   5.217   4.470  0.1188  0.7338 -0.4352
12674TIP3    H159437   6.717   5.245   4.497  0.0452  0.3271  0.2589
12674TIP3    H259438   6.600   5.284   4.408  1.4825  0.1343 -1.7803
12675TIP3   OH259439   4.494   2.737  14.302 -0.5774  0.6135 -0.2371
12675TIP3    H159440   4.530   2.749  14.213 -0.4350  2.6404  0.0579
12675TIP3    H259441   4.461   2.823  14.326  0.4424  0.4091  2.1479
12676TIP3   OH259442   6.120   5.967   2.135 -0.3443 -0.1738 -0.2325
12676TIP3    H159443   6.070   5.917   2.071  0.2799  0.0960 -0.9360
12676TIP3    H259444   6.210   5.934   2.127  0.4344  2.0823 -1.8310
12677TIP3   OH259445   0.126   2.415   4.040 -0.1247 -0.3808  0.2074
12677TIP3    H159446   0.140   2.370   4.123 -1.4775  0.3199  0.8489
12677TIP3    H259447   0.031   2.412   4.027  0.1001 -1.1949 -1.7436
12678TIP3   OH259448   0.766   2.955   3.240 -0.0494 -0.0771  0.0574
12678TIP3    H159449   0.740   2.949   3.332  0.3009 -0.7272  0.1192
12678TIP3    H259450   0.791   2.866   3.216 -0.7381 -0.0385 -0.8562
12679TIP3   OH259451   6.172   0.193  12.810  1.0216  0.6350 -0.0352
12679TIP3    H159452   6.239   0.248  12.851  1.0904 -0.0726  0.8434
12679TIP3    H259453   6.215   0.108  12.797 -0.1195 -0.3887  2.1402
12680TIP3   OH259454   0.000   4.662  11.170  0.0015  0.0959  0.1131
12680TIP3    H159455   0.012   4.690  11.079  1.3922  2.8482  1.0551
12680TIP3    H259456  -0.090   4.685  11.191 -0.3734 -0.6877 -0.5595
12681TIP3   OH259457   2.183   2.864  16.916  0.1317 -0.3571  0.4394
12681TIP3    H159458   2.147   2.897  16.998  0.0368  0.5633  0.0494
12681TIP3    H259459   2.238   2.936  16.884  1.2086 -1.2030  0.3318
12682TIP3   OH259460   5.293   4.471   1.188  0.0636 -0.1320 -0.2319
12682TIP3    H159461   5.277   4.435   1.100 -1.6270 -0.3771  0.1320
12682TIP3    H259462   5.289   4.566   1.176  3.2537  0.0105 -0.9697
12683TIP3   OH259463   5.211   6.132   2.155 -0.5879 -0.5728  0.4104
12683TIP3    H159464   5.284   6.073   2.172 -0.6999 -1.0141 -0.5578
12683TIP3    H259465   5.175   6.102   2.071 -0.6687  0.8607 -0.0932
12684TIP3   OH259466   1.391   3.093  12.485 -0.3565  0.6619  0.4212
12684TIP3    H159467   1.431   3.060  12.404 -0.3354  0.8096  0.3702
12684TIP3    H259468   1.446   3.059  12.555 -0.5774  0.2407  0.3945
12685TIP3   OH259469   0.727   0.906  12.281 -0.1730  0.3032  0.2809
12685TIP3    H159470   0.683   0.870  12.357 -1.4237  0.2975 -0.4218
12685TIP3    H259471   0.786   0.836  12.252 -1.4437 -0.6241 -0.1501
12686TIP3   OH259472   0.960   2.065  15.916  0.4218  0.3808 -0.5655
12686TIP3    H159473   1.038   2.011  15.929 -0.3182 -0.5639  0.1363
12686TIP3    H259474   0.919   2.030  15.836 -1.0890 -1.4867  0.9099
12687TIP3   OH259475   4.219   6.534   0.053  0.4994 -0.3651 -0.1022
12687TIP3    H159476   4.268   6.472   0.107  1.9516  1.1255  0.3493
12687TIP3    H259477   4.211   6.612   0.107 -0.6520  0.1296 -0.9408
12688TIP3   OH259478   2.089   2.142  13.027  0.7239  0.4513  0.2646
12688TIP3    H159479   2.031   2.163  12.954 -0.3453  4.3755  1.9884
12688TIP3    H259480   2.177   2.153  12.991  0.5249 -2.9289 -1.6637
12689TIP3   OH259481   5.687   2.332   0.350 -0.2966 -0.1351  0.1363
12689TIP3    H159482   5.666   2.239   0.346 -0.2920 -0.1510  0.4078
12689TIP3    H259483   5.628   2.373   0.287 -2.4093  0.0317  2.0725
12690TIP3   OH259484   3.154   0.572   5.273  0.1969  0.2808 -0.7968
12690TIP3    H159485   3.115   0.494   5.312  0.4806  0.4583 -0.1606
12690TIP3    H259486   3.246   0.550   5.260  0.6343  1.0078  0.7706
12691TIP3   OH259487   0.859   2.896  15.387 -0.3347  0.2325 -0.0902
12691TIP3    H159488   0.782   2.883  15.442 -0.1313 -1.2070 -0.1172
12691TIP3    H259489   0.838   2.851  15.305  0.8939 -1.0526  0.2513
12692TIP3   OH259490   3.322   3.246   4.055 -0.1864  0.1768  0.1163
12692TIP3    H159491   3.240   3.263   4.010 -0.4365 -0.6606  0.2488
12692TIP3    H259492   3.370   3.329   4.049 -1.6314  1.1505  1.3189
12693TIP3   OH259493   2.001   4.957   2.969 -0.5756  0.7596  0.7837
12693TIP3    H159494   2.014   4.870   3.008 -1.8223 -0.3196 -1.0530
12693TIP3    H259495   1.944   4.941   2.894 -0.4390  3.1241  0.1078
12694TIP3   OH259496   6.181   4.771   1.304  0.0061  0.3998  0.4600
12694TIP3    H159497   6.182   4.676   1.293  0.1649  0.4124  0.3611
12694TIP3    H259498   6.146   4.785   1.392  0.7835  0.2170  0.8099
12695TIP3   OH259499   3.730   0.879   4.202  0.6102  0.5035 -0.0958
12695TIP3    H159500   3.813   0.923   4.186  0.0713  1.2862 -0.8003
12695TIP3    H259501   3.663   0.945   4.182 -0.1802 -0.0764  0.5677
12696TIP3   OH259502   1.305   5.473  14.978  0.1901 -0.3400 -0.0379
12696TIP3    H159503   1.331   5.501  14.890  0.0735  0.2341  0.1095
12696TIP3    H259504   1.314   5.551  15.032 -0.5869 -0.4677  0.2836
12697TIP3   OH259505   5.483   4.823  15.604  0.2865 -0.1124 -0.2420
12697TIP3    H159506   5.558   4.783  15.559  1.1618 -0.1309  1.1506
12697TIP3    H259507   5.409   4.766  15.583  0.9299 -0.8319 -0.6181
12698TIP3   OH259508   2.219   5.469  11.962  0.9493 -0.3175 -0.8031
12698TIP3    H159509   2.162   5.398  11.992  0.7744  0.0279 -0.2868
12698TIP3    H259510   2.191   5.545  12.014  1.1062  0.1357 -1.3701
12699TIP3   OH259511   6.339   1.314  15.047  0.6606 -0.2066  0.6745
12699TIP3    H159512   6.418   1.355  15.080  0.1665  0.5705  0.9109
12699TIP3    H259513   6.284   1.302  15.125  0.3301 -0.2641  0.4360
12700TIP3   OH259514   1.850   4.445  16.152  0.2125 -0.3592  0.2088
12700TIP3    H159515   1.863   4.358  16.191  0.7010 -0.4815 -0.2124
12700TIP3    H259516   1.896   4.441  16.068  0.0701  0.2425  0.0952
12701TIP3   OH259517   6.205   5.026   5.196  0.6562  0.6295 -0.3817
12701TIP3    H159518   6.213   5.118   5.169 -0.6111  0.9464  0.2148
12701TIP3    H259519   6.190   5.030   5.290 -3.0148  0.1118 -0.7753
12702TIP3   OH259520   6.477   6.255  15.811 -0.0130  0.1768 -0.2386
12702TIP3    H159521   6.424   6.250  15.890  0.4694  0.9576  0.1421
12702TIP3    H259522   6.507   6.346  15.808 -0.7051  0.3870 -1.7641
12703TIP3   OH259523   3.368   5.514   0.457  0.1814 -0.3993  0.2363
12703TIP3    H159524   3.446   5.459   0.468  1.3126  0.8736 -1.0022
12703TIP3    H259525   3.360   5.561   0.540  0.5329 -0.8112  0.5076
12704TIP3   OH259526   4.480   2.953   2.539 -0.0567 -0.1377  0.0209
12704TIP3    H159527   4.485   3.033   2.487  0.2565 -0.3973 -0.3591
12704TIP3    H259528   4.489   2.982   2.630 -0.6771  0.3242 -0.0662
12705TIP3   OH259529   4.330   6.534  14.159  0.0522 -0.0839 -0.9004
12705TIP3    H159530   4.424   6.547  14.164  0.0161 -0.1312  0.0572
12705TIP3    H259531   4.298   6.555  14.247 -0.9512  0.9086 -1.4816
12706TIP3   OH259532   6.431   1.153   5.568 -0.3282  0.7234 -0.1865
12706TIP3    H159533   6.451   1.186   5.656 -1.1003  1.2490 -0.1930
12706TIP3    H259534   6.486   1.076   5.558 -0.4903  0.4469  0.8998
12707TIP3   OH259535   1.554   4.289   4.622  0.0317  0.4670  0.8248
12707TIP3    H159536   1.546   4.199   4.590  1.5379  0.4168  0.5024
12707TIP3    H259537   1.619   4.284   4.692  0.2901  1.3385  0.6640
12708TIP3   OH259538   2.808   6.431  15.784  0.0046 -0.7762 -0.2271
12708TIP3    H159539   2.852   6.350  15.758 -1.0242 -1.0275 -1.2417
12708TIP3    H259540   2.739   6.404  15.844  1.1235 -0.3898  1.2935
12709TIP3   OH259541   0.356   5.930  11.870  0.5007 -0.0375  0.1067
12709TIP3    H159542   0.299   5.995  11.910 -1.4260  0.0602 -2.5138
12709TIP3    H259543   0.395   5.975  11.795  2.0979 -0.8646  0.3815
12710TIP3   OH259544   5.322   3.267  13.446 -0.4110 -0.3571  0.0896
12710TIP3    H159545   5.309   3.290  13.354 -1.5980  5.0833  1.2304
12710TIP3    H259546   5.237   3.235  13.475  0.0328 -2.3302 -0.6288
12711TIP3   OH259547   5.264   5.336  15.278  0.1690  0.1049  0.2126
12711TIP3    H159548   5.247   5.283  15.356  1.4699 -1.2954 -0.4326
12711TIP3    H259549   5.177   5.352  15.241 -0.3261 -0.6954  0.9907
12712TIP3   OH259550   3.068   4.885   6.356 -0.1179  0.0997 -0.1845
12712TIP3    H159551   3.134   4.848   6.415 -0.0656  3.4323  2.0979
12712TIP3    H259552   3.114   4.955   6.309 -1.1487 -0.0099 -1.4238
12713TIP3   OH259553   3.408   6.591  11.782  0.2113 -0.7446 -0.1695
12713TIP3    H159554   3.390   6.573  11.875 -2.0740 -0.3826 -0.4817
12713TIP3    H259555   3.358   6.670  11.763 -0.1357 -1.3556 -1.9366
12714TIP3   OH259556   3.192   3.791  13.874 -0.0096 -0.0502  0.4248
12714TIP3    H159557   3.105   3.758  13.850 -0.6175  0.4741  1.8228
12714TIP3    H259558   3.176   3.875  13.917  0.9978 -0.7872  2.3866
12715TIP3   OH259559   1.315   1.568   6.120  0.3235 -0.1769 -0.3884
12715TIP3    H159560   1.324   1.658   6.152  0.6469 -0.1381 -0.5870
12715TIP3    H259561   1.377   1.562   6.048 -1.2335  0.1017 -1.8108
12716TIP3   OH259562   1.699   4.472  16.649 -0.0384  0.2103  0.1972
12716TIP3    H159563   1.741   4.487  16.564  1.1744 -0.6201  0.6396
12716TIP3    H259564   1.769   4.442  16.706 -0.6321  1.7180  1.7923
12717TIP3   OH259565   5.560   2.748  10.878  0.0301  0.0589  0.1226
12717TIP3    H159566   5.520   2.669  10.913 -1.3277 -0.0605 -1.5372
12717TIP3    H259567   5.608   2.787  10.951  0.2468 -1.9732  1.1139
12718TIP3   OH259568   5.167   1.800  13.817  0.4185  0.8551 -0.1890
12718TIP3    H159569   5.260   1.793  13.838  0.4276 -2.0454 -0.6812
12718TIP3    H259570   5.163   1.787  13.722 -0.4953  0.7530 -0.1411
12719TIP3   OH259571   4.432   2.386  15.899  0.0817 -0.3867  0.4276
12719TIP3    H159572   4.478   2.302  15.902 -0.0265 -0.4153  1.7455
12719TIP3    H259573   4.340   2.364  15.908 -0.0296 -0.1910 -0.2208
12720TIP3   OH259574   6.619   3.913  11.602  0.1542 -0.1491  0.6102
12720TIP3    H159575   6.580   3.888  11.686  2.4624 -0.4479  1.6748
12720TIP3    H259576   6.593   4.004  11.589 -0.1595 -0.0709  1.7120
12721TIP3   OH259577   4.754   3.839  16.242 -0.2974  0.3020 -0.2163
12721TIP3    H159578   4.816   3.846  16.315 -0.6422 -0.0386  0.1082
12721TIP3    H259579   4.752   3.746  16.221 -0.0064  0.4299 -0.8347
12722TIP3   OH259580   4.049   0.627  15.443 -0.3283  0.0567 -0.0617
12722TIP3    H159581   4.100   0.554  15.410 -0.0377  0.0015  0.4885
12722TIP3    H259582   4.089   0.704  15.403 -1.2114 -0.1288 -1.3729
12723TIP3   OH259583   5.451   1.809  12.719  0.2506  0.2053 -0.2385
12723TIP3    H159584   5.365   1.791  12.682  0.6241 -0.3694 -0.8702
12723TIP3    H259585   5.462   1.744  12.789  0.7982 -0.7795 -1.2098
12724TIP3   OH259586   6.143   3.669  15.015  1.1494  0.0135  0.0254
12724TIP3    H159587   6.064   3.669  15.069  0.8661 -0.4100 -0.3793
12724TIP3    H259588   6.201   3.732  15.057 -0.1296  1.7813 -0.7254
12725TIP3   OH259589   0.739   2.097   4.787  0.4940 -0.2390 -0.1953
12725TIP3    H159590   0.701   2.185   4.787  1.7199  0.3300  0.8211
12725TIP3    H259591   0.712   2.060   4.872 -0.1390 -0.9275 -0.6780
12726TIP3   OH259592   4.125   1.463   3.122  0.0798 -0.2513  0.2328
12726TIP3    H159593   4.189   1.404   3.162 -0.2205 -1.1136 -0.5158
12726TIP3    H259594   4.177   1.523   3.069  0.4899  0.9232  1.8714
12727TIP3   OH259595   2.146   0.709  14.027 -0.4808 -0.4867 -0.1120
12727TIP3    H159596   2.204   0.635  14.045 -0.0365 -0.0911  0.1280
12727TIP3    H259597   2.093   0.718  14.106 -0.3756 -0.4054 -0.0510
12728TIP3   OH259598   6.554   5.290  13.907 -0.1678 -0.1259 -0.0884
12728TIP3    H159599   6.559   5.211  13.854 -0.4111 -0.2946  0.1424
12728TIP3    H259600   6.635   5.337  13.887 -0.2339 -0.2142 -0.5695
12729TIP3   OH259601   0.125   0.579   3.263 -0.0169 -0.2117 -0.4487
12729TIP3    H159602   0.186   0.569   3.190  0.5999 -1.6530  0.2284
12729TIP3    H259603   0.144   0.666   3.298  0.6230 -0.0554 -1.1542
12730TIP3   OH259604   2.811   0.178   1.819  0.4316 -0.2372 -0.5138
12730TIP3    H159605   2.748   0.109   1.796  0.2091 -0.0414 -0.4956
12730TIP3    H259606   2.893   0.149   1.779 -0.0833  0.3809 -2.1068
12731TIP3   OH259607   4.888   1.984  14.765 -0.1352 -0.0557  0.0341
12731TIP3    H159608   4.815   2.044  14.780 -0.1060 -0.2484  0.9507
12731TIP3    H259609   4.953   2.006  14.831  0.1081 -0.7289  0.0323
12732TIP3   OH259610   0.688   5.720   5.683 -0.0493 -0.1442  0.2740
12732TIP3    H159611   0.593   5.715   5.695 -0.1615  0.6186 -0.2491
12732TIP3    H259612   0.710   5.810   5.706  0.7082 -0.5881  1.3858
12733TIP3   OH259613   4.240   3.074  11.889  0.1528 -0.0786 -0.7864
12733TIP3    H159614   4.297   3.083  11.813  0.1902  1.4594 -0.6087
12733TIP3    H259615   4.184   3.151  11.887 -0.7730 -0.7008 -0.0011
12734TIP3   OH259616   6.304   3.694   0.719 -0.1575  0.4671 -0.1172
12734TIP3    H159617   6.337   3.784   0.718  0.3069  0.3025  0.0091
12734TIP3    H259618   6.369   3.645   0.769 -1.6663  0.5121  1.9779
12735TIP3   OH259619   2.733   1.191  16.763  0.2575 -0.0352  0.1307
12735TIP3    H159620   2.780   1.274  16.770 -0.0947  0.1198  0.7254
12735TIP3    H259621   2.754   1.144  16.844  0.6820 -0.6508 -0.3320
12736TIP3   OH259622   1.215   2.796   0.897  0.1523  0.1171 -0.3567
12736TIP3    H159623   1.120   2.805   0.889  0.0736 -0.6462 -0.4288
12736TIP3    H259624   1.251   2.864   0.841 -0.3544  0.3820 -0.3665
12737TIP3   OH259625   6.705   3.428  12.150 -0.4605 -0.4298  0.2488
12737TIP3    H159626   6.777   3.476  12.111  0.7047 -3.3591 -1.5657
12737TIP3    H259627   6.729   3.418  12.242  1.6337 -1.5285 -0.3606
12738TIP3   OH259628   4.586   4.825   0.109 -0.5128 -0.1254 -0.4088
12738TIP3    H159629   4.620   4.912   0.130  0.2658 -0.6223  0.5158
12738TIP3    H259630   4.508   4.842   0.056 -0.4636  1.1358 -0.1281
12739TIP3   OH259631   6.303   5.166  16.629 -0.2810 -0.1933  0.2154
12739TIP3    H159632   6.300   5.251  16.673 -0.8359 -0.6897  1.1820
12739TIP3    H259633   6.347   5.183  16.546  1.3512  0.6773  1.2048
12740TIP3   OH259634   0.035   2.642  13.871  0.1688 -0.0738 -0.3766
12740TIP3    H159635   0.121   2.661  13.908  0.8464 -2.9490 -0.2784
12740TIP3    H259636   0.042   2.663  13.778  1.7449 -2.2875 -0.8267
12741TIP3   OH259637   6.386   5.040  12.460 -0.3760  0.0671  0.0847
12741TIP3    H159638   6.386   4.948  12.484 -0.4825 -0.2996 -1.2248
12741TIP3    H259639   6.311   5.050  12.401  0.4737  0.6394 -0.9563
12742TIP3   OH259640   5.652   2.694  15.986  0.2863  0.1422  0.0886
12742TIP3    H159641   5.569   2.685  16.032  0.3406 -1.1999 -0.0447
12742TIP3    H259642   5.626   2.719  15.897  0.0244 -0.2405  0.0543
12743TIP3   OH259643   6.577   3.518   4.032 -0.1493  0.3883 -0.1893
12743TIP3    H159644   6.533   3.544   3.951 -2.2194  3.6023  1.7629
12743TIP3    H259645   6.507   3.488   4.089  1.1799 -1.1434  0.7169
12744TIP3   OH259646   4.416   4.309   3.792  0.0892 -0.0741  0.4082
12744TIP3    H159647   4.474   4.379   3.761  0.4899 -0.5486  0.0596
12744TIP3    H259648   4.354   4.353   3.850  0.4822  0.5305  0.3830
12745TIP3   OH259649   0.787   1.975   5.921 -0.9374 -0.2243  0.1171
12745TIP3    H159650   0.768   1.917   5.995 -0.1731 -0.6616 -0.0212
12745TIP3    H259651   0.882   1.983   5.921 -1.0413  1.5796  0.5422
12746TIP3   OH259652   0.385   5.121  15.812 -0.1347  0.2381  0.2818
12746TIP3    H159653   0.374   5.204  15.765 -1.3059 -0.3744 -0.5703
12746TIP3    H259654   0.324   5.127  15.886  0.8284  0.6948  1.0820
12747TIP3   OH259655   1.255   4.648   4.407  0.5456 -0.5965  0.4921
12747TIP3    H159656   1.236   4.585   4.478 -1.6938 -2.3418 -1.4747
12747TIP3    H259657   1.349   4.641   4.393  0.7072 -1.7600  1.8983
12748TIP3   OH259658   5.676   1.394   1.377  0.0272  0.1242 -0.1114
12748TIP3    H159659   5.675   1.415   1.284  3.1965  2.4443  0.2169
12748TIP3    H259660   5.643   1.473   1.420  2.5692  0.7777  0.8068
12749TIP3   OH259661   3.976   5.078  12.910  0.0184  0.5352  0.5736
12749TIP3    H159662   4.037   5.151  12.910  0.5536  0.0998  1.4838
12749TIP3    H259663   4.012   5.016  12.847 -1.7973  2.1009 -2.2478
12750TIP3   OH259664   3.383   2.963   2.831  0.5625 -0.7619  0.1438
12750TIP3    H159665   3.324   2.925   2.766 -1.3926  1.9325  0.1728
12750TIP3    H259666   3.442   3.019   2.780  1.4852 -1.4683  0.3913
12751TIP3   OH259667   5.733   6.776  17.039 -0.0228  0.8287  0.2319
12751TIP3    H159668   5.791   6.825  17.097  1.5676 -0.7991  0.1292
12751TIP3    H259669   5.714   6.695  17.087  0.9864 -0.3683 -1.2844
12752TIP3   OH259670   3.199   4.279   0.390 -0.0998 -0.0536  0.1695
12752TIP3    H159671   3.123   4.333   0.414  0.1143 -0.6387  2.4241
12752TIP3    H259672   3.226   4.312   0.304 -2.4618  0.6351 -0.3826
12753TIP3   OH259673   1.761   2.547  16.068  0.4512 -0.9205  0.2513
12753TIP3    H159674   1.753   2.573  16.160 -0.6397 -0.1048 -0.0503
12753TIP3    H259675   1.848   2.509  16.061  0.3684 -1.4431  1.7330
12754TIP3   OH259676   2.971   1.146  13.850 -0.2099 -0.0264  0.6437
12754TIP3    H159677   3.055   1.185  13.825 -0.6762  0.2433 -0.5706
12754TIP3    H259678   2.909   1.218  13.847 -0.6888 -0.4404  0.4467
12755TIP3   OH259679   1.964   1.996  12.505 -0.3219 -0.4219 -0.0218
12755TIP3    H159680   2.042   2.037  12.543 -1.0668  0.0364  1.0604
12755TIP3    H259681   1.906   2.070  12.483 -0.1396 -0.7073 -1.5775
12756TIP3   OH259682   4.788   4.373  12.437  1.0071  0.0575  0.2448
12756TIP3    H159683   4.756   4.318  12.509 -0.1295 -0.4500 -0.6263
12756TIP3    H259684   4.793   4.314  12.362  0.4391  0.9705 -0.5335
12757TIP3   OH259685   5.737   6.112   4.689 -0.2777 -0.2840  0.0462
12757TIP3    H159686   5.713   6.035   4.636 -0.7972 -0.2349  0.2004
12757TIP3    H259687   5.734   6.185   4.627 -0.8211 -0.2359  0.1268
12758TIP3   OH259688   6.395   4.944  11.998  0.2522 -0.1394 -0.4796
12758TIP3    H159689   6.358   4.905  11.918  1.6048  0.6771 -1.5473
12758TIP3    H259690   6.379   5.038  11.988  0.3773 -0.0342  0.2617
12759TIP3   OH259691   0.947   5.363   6.088 -0.6254  0.3042  0.2594
12759TIP3    H159692   0.950   5.453   6.119  2.5434  0.7678 -0.9792
12759TIP3    H259693   0.959   5.310   6.167  1.2931  1.1882  0.6241
12760TIP3   OH259694   6.742   0.474  13.238 -0.2727  0.4964  0.1401
12760TIP3    H159695   6.738   0.381  13.218 -0.7850  0.3661  0.8014
12760TIP3    H259696   6.683   0.515  13.174  0.2337  0.4168 -0.3851
12761TIP3   OH259697   1.849   0.557  16.475  0.0903 -0.1372 -0.4039
12761TIP3    H159698   1.824   0.629  16.417 -1.2012  0.0471  0.3431
12761TIP3    H259699   1.942   0.569  16.489  0.0855  0.8133 -1.0843
12762TIP3   OH259700   6.661   5.625   0.979  0.1944 -0.1671 -0.0869
12762TIP3    H159701   6.567   5.609   0.978  0.1437  0.1328 -1.0817
12762TIP3    H259702   6.669   5.719   0.961  0.6728 -0.0698  0.5797
12763TIP3   OH259703   3.302   3.170  16.261 -0.2375 -0.3415 -0.6220
12763TIP3    H159704   3.311   3.135  16.172 -1.3983  0.3642 -1.0349
12763TIP3    H259705   3.214   3.209  16.263  0.7275  1.9428  0.0269
12764TIP3   OH259706   4.195   0.135  12.426 -0.3870  0.6167 -0.5218
12764TIP3    H159707   4.150   0.087  12.357 -0.3512 -1.0730  0.5523
12764TIP3    H259708   4.280   0.091  12.435 -1.1188 -0.5171  1.8421
12765TIP3   OH259709   5.482   2.394  12.336 -0.4843 -0.3403 -0.1228
12765TIP3    H159710   5.470   2.398  12.431  0.4295  0.0240 -0.0114
12765TIP3    H259711   5.516   2.480  12.312 -1.6534 -0.0885 -0.9323
12766TIP3   OH259712   6.290   5.277   3.314 -0.2338 -0.9272 -0.7253
12766TIP3    H159713   6.315   5.216   3.245  2.5887  0.4326 -1.0247
12766TIP3    H259714   6.348   5.256   3.387 -0.9345 -0.2021  0.0609
12767TIP3   OH259715   6.143   0.151   5.009 -0.2736 -0.5073  0.1937
12767TIP3    H159716   6.228   0.153   5.054 -0.2873  0.1322  0.1956
12767TIP3    H259717   6.103   0.235   5.029 -0.3075 -0.2281 -0.9557
12768TIP3   OH259718   0.698   0.778  10.368 -0.5960  0.6749  0.2798
12768TIP3    H159719   0.644   0.850  10.334  1.4328  2.5568  0.7740
12768TIP3    H259720   0.774   0.822  10.407  0.6822 -1.7683  0.7318
12769TIP3   OH259721   5.499   1.318   5.395 -0.7254 -0.1175  0.6928
12769TIP3    H159722   5.539   1.267   5.465  2.5587  0.3518 -0.6706
12769TIP3    H259723   5.413   1.277   5.382  0.1172 -2.6637  2.3626
12770TIP3   OH259724   0.402   2.507  15.109 -0.2086 -0.2213  0.1287
12770TIP3    H159725   0.396   2.601  15.127 -4.2724  0.1097 -1.9676
12770TIP3    H259726   0.483   2.480  15.153  0.8155  4.0713  1.3730
12771TIP3   OH259727   2.287   5.603   2.412  0.2369 -0.4080  0.0010
12771TIP3    H159728   2.203   5.611   2.456  0.0265  1.0503 -0.6210
12771TIP3    H259729   2.352   5.602   2.483 -0.1754  0.5657  0.3999
12772TIP3   OH259730   2.325   3.151  11.910 -0.4297 -0.0178  0.2554
12772TIP3    H159731   2.381   3.200  11.970 -1.2096 -1.3722  2.1901
12772TIP3    H259732   2.320   3.206  11.831  4.0965 -0.1212 -0.3612
12773TIP3   OH259733   4.603   1.598   4.507  0.1638 -0.4533 -0.6174
12773TIP3    H159734   4.666   1.658   4.466  2.7450  0.4242  3.9758
12773TIP3    H259735   4.639   1.511   4.490  0.2411 -0.2622 -1.5030
12774TIP3   OH259736   3.838   6.601   0.809 -1.1584 -0.2809 -0.5240
12774TIP3    H159737   3.782   6.679   0.817 -0.3452  0.4149 -1.3396
12774TIP3    H259738   3.784   6.539   0.760 -2.1945 -0.6376  1.0025
12775TIP3   OH259739   1.679   4.647  11.719 -0.1755 -0.2782 -0.1582
12775TIP3    H159740   1.664   4.559  11.755 -0.3756 -1.0441 -1.9766
12775TIP3    H259741   1.734   4.632  11.642 -0.9341  1.0799 -1.0083
12776TIP3   OH259742   6.435   2.631  17.069  0.2432  0.1015  0.5428
12776TIP3    H159743   6.527   2.651  17.054 -0.0030  0.8592 -0.0080
12776TIP3    H259744   6.387   2.702  17.025 -0.6496 -1.3131 -0.8904
12777TIP3   OH259745   0.843   6.134  13.212  0.3040 -0.0848 -0.4216
12777TIP3    H159746   0.904   6.100  13.147 -1.3234 -1.9545 -1.0853
12777TIP3    H259747   0.784   6.191  13.162  0.6210  0.5494 -0.0747
12778TIP3   OH259748   0.166   0.503  16.927  0.3824  0.7473 -0.2356
12778TIP3    H159749   0.109   0.575  16.900  0.0525  0.6438  0.1851
12778TIP3    H259750   0.117   0.423  16.905 -0.9882  0.6260  2.8578
12779TIP3   OH259751   1.422   1.663   4.969  0.0387  0.0516 -0.0699
12779TIP3    H159752   1.458   1.600   5.032  0.3328  0.0536 -0.2328
12779TIP3    H259753   1.394   1.610   4.895  0.6893  0.1460 -0.3939
12780TIP3   OH259754   2.831   1.496  11.848 -0.1816 -0.3141  0.1196
12780TIP3    H159755   2.914   1.531  11.816 -0.4481 -0.6005 -0.9430
12780TIP3    H259756   2.834   1.507  11.943  0.3983  1.1236 -0.0496
12781TIP3   OH259757   6.211   6.507   3.863 -0.3489  0.0369 -0.0899
12781TIP3    H159758   6.293   6.538   3.903 -1.0708  0.3436  1.2186
12781TIP3    H259759   6.182   6.581   3.809 -0.8275  0.7607  1.1204
12782TIP3   OH259760   0.969   1.227  17.099  0.5254 -0.8462 -0.4244
12782TIP3    H159761   0.980   1.138  17.133  0.0602 -0.7592 -0.0350
12782TIP3    H259762   0.875   1.244  17.109  0.6451 -0.2422 -0.3207
12783TIP3   OH259763   4.927   5.476   5.017  0.4759  0.0541  0.4292
12783TIP3    H159764   4.965   5.468   5.105  2.0259 -1.7011 -0.3334
12783TIP3    H259765   4.989   5.531   4.969  0.5954 -0.4781 -0.0416
12784TIP3   OH259766   5.329   4.508  16.471  0.1217  0.8039 -0.0571
12784TIP3    H159767   5.238   4.531  16.455  0.1350  0.3641 -0.8360
12784TIP3    H259768   5.362   4.480  16.385  0.6464 -0.1858  0.4492
12785TIP3   OH259769   6.727   3.778  13.937  0.1482  0.0471 -0.0920
12785TIP3    H159770   6.774   3.818  13.863  1.1694  0.7320  0.8934
12785TIP3    H259771   6.650   3.738  13.897  0.1287  1.2970 -1.3946
12786TIP3   OH259772   3.612   0.285   6.332  0.3317 -0.0092 -0.4007
12786TIP3    H159773   3.532   0.235   6.316  0.1619  0.3172 -0.5968
12786TIP3    H259774   3.656   0.239   6.403 -0.6139  0.4802  0.5335
12787TIP3   OH259775   2.443   0.393  13.310 -0.4490 -0.2956 -0.1455
12787TIP3    H159776   2.354   0.426  13.299 -0.2946  0.9066  1.7457
12787TIP3    H259777   2.432   0.298  13.319 -1.4675 -0.2229 -0.5012
12788TIP3   OH259778   3.675   3.930   3.926  0.3756  0.2332 -0.0595
12788TIP3    H159779   3.615   3.889   3.863  2.2813  0.0162 -1.8327
12788TIP3    H259780   3.669   4.024   3.906 -1.2050  0.5231  1.5021
12789TIP3   OH259781   3.544   1.033   5.660 -0.5229  0.5735  0.2797
12789TIP3    H159782   3.625   1.043   5.609 -0.5826 -1.8984 -0.4564
12789TIP3    H259783   3.542   1.110   5.717  0.8715  2.1570 -1.6434
12790TIP3   OH259784   6.718   4.068  11.974 -0.0333  0.0802 -0.3025
12790TIP3    H159785   6.812   4.052  11.978 -0.0249  0.2423  0.3158
12790TIP3    H259786   6.682   4.019  12.048 -0.3657  0.4533 -0.2127
12791TIP3   OH259787   1.215   2.964   5.775  0.1310 -0.2791  0.5446
12791TIP3    H159788   1.142   2.964   5.838  0.2029 -2.9315  0.7449
12791TIP3    H259789   1.258   2.880   5.789  1.5279  0.0240 -1.5395
12792TIP3   OH259790   6.445   4.374  12.089  0.2458 -0.4582 -0.4917
12792TIP3    H159791   6.434   4.349  12.181 -0.6342 -2.0884 -0.9864
12792TIP3    H259792   6.532   4.341  12.065 -0.0003 -1.0817 -0.5411
12793TIP3   OH259793   0.900   2.143   1.253  0.0572 -0.1060 -0.6057
12793TIP3    H159794   0.815   2.130   1.212  0.2456  0.3031 -1.1435
12793TIP3    H259795   0.950   2.194   1.189  0.2888  0.7362  0.2310
12794TIP3   OH259796   3.573   0.136   3.021 -0.2548 -0.3902  0.3487
12794TIP3    H159797   3.648   0.077   3.011  0.7585  1.2121 -3.6612
12794TIP3    H259798   3.608   0.223   3.000 -3.0989  0.4639 -1.4494
12795TIP3   OH259799   2.885   1.735   3.044  0.8147 -0.5394  0.4441
12795TIP3    H159800   2.881   1.829   3.032  1.1470 -0.6546 -0.6477
12795TIP3    H259801   2.926   1.702   2.964  1.1604 -1.5622  1.0264
12796TIP3   OH259802   3.924   4.537  11.600 -0.0778  0.1676 -0.4686
12796TIP3    H159803   4.003   4.483  11.612 -2.2044 -3.4880 -1.3080
12796TIP3    H259804   3.910   4.538  11.505  0.1727  2.8539 -0.5490
12797TIP3   OH259805   5.500   0.416   4.131  0.3406  0.2591 -0.0902
12797TIP3    H159806   5.429   0.476   4.154  1.0715  1.5705 -1.1234
12797TIP3    H259807   5.475   0.381   4.045  1.6591  1.9584 -1.2187
12798TIP3   OH259808   0.281   3.894   3.860 -0.4597 -0.0394 -0.3414
12798TIP3    H159809   0.290   3.816   3.806 -0.4066 -0.3764  0.1523
12798TIP3    H259810   0.290   3.967   3.798 -1.1345 -0.4199 -0.9002
12799TIP3   OH259811   1.565   4.180  16.810  0.1914  0.5159 -0.3318
12799TIP3    H159812   1.495   4.239  16.838 -0.3607  0.0281 -0.6509
12799TIP3    H259813   1.522   4.095  16.800  0.9566  0.0746  0.0402
12800TIP3   OH259814   3.733   4.765  16.776 -0.4852  0.3728  0.0474
12800TIP3    H159815   3.725   4.705  16.850 -0.7249 -0.2162 -0.4465
12800TIP3    H259816   3.773   4.843  16.813  1.6996 -0.7963  0.3551
12801TIP3   OH259817   5.849   2.018   4.139 -0.5413  0.6495  0.4183
12801TIP3    H159818   5.860   1.932   4.181  0.3496 -0.2284 -1.4765
12801TIP3    H259819   5.803   2.071   4.203 -2.0319 -1.5635  1.2668
12802TIP3   OH259820   0.087   6.762  11.024 -0.0253 -0.1644  0.1089
12802TIP3    H159821   0.020   6.785  10.960  0.1103  0.4203  0.1721
12802TIP3    H259822   0.145   6.702  10.978  0.3025  0.5729 -0.4503
12803TIP3   OH259823   6.678   3.316   3.541  0.6188  0.1887 -0.3765
12803TIP3    H159824   6.643   3.378   3.478 -1.5103  0.0314  0.5709
12803TIP3    H259825   6.730   3.369   3.601 -0.8231  1.0448  0.1671
12804TIP3   OH259826   0.517   1.995   5.041  0.5856  0.1533 -0.6117
12804TIP3    H159827   0.453   1.929   5.067  2.8721 -1.7356  0.6132
12804TIP3    H259828   0.502   2.068   5.101  0.8226 -1.0782  1.0103
12805TIP3   OH259829   5.056   3.140   5.128 -0.6384 -0.6774 -0.5559
12805TIP3    H159830   5.005   3.213   5.095  0.7967 -0.5041 -2.5302
12805TIP3    H259831   5.086   3.169   5.215 -0.7849  0.7339 -0.9568
12806TIP3   OH259832   5.239   6.442   1.191  0.1888 -0.6757  0.0726
12806TIP3    H159833   5.321   6.417   1.234  1.1724  0.9347 -0.7635
12806TIP3    H259834   5.204   6.512   1.246  0.6427  0.3077 -0.8716
12807TIP3   OH259835   4.988   1.313  15.257 -0.0285  0.0652 -0.0351
12807TIP3    H159836   4.965   1.224  15.228 -2.6458 -0.5433  3.2408
12807TIP3    H259837   5.083   1.312  15.263  0.0234 -2.7172  0.2951
12808TIP3   OH259838   4.288   5.206  16.014 -0.2123 -0.0636  0.1006
12808TIP3    H159839   4.291   5.249  15.928 -0.4148  0.6226  0.4268
12808TIP3    H259840   4.199   5.223  16.045 -0.2941 -0.7374  0.2295
12809TIP3   OH259841   3.584   3.766   2.870 -0.3613  0.0988  0.4123
12809TIP3    H159842   3.603   3.677   2.898  1.2317  0.3696  0.3391
12809TIP3    H259843   3.671   3.803   2.851 -1.1528  0.7886 -2.2256
12810TIP3   OH259844   2.206   4.593   1.619 -1.2526  0.4441 -0.1809
12810TIP3    H159845   2.273   4.633   1.673 -1.1853 -1.1431  0.9715
12810TIP3    H259846   2.242   4.594   1.530  0.3754 -0.5418  0.4445
12811TIP3   OH259847   4.267   3.914   1.532 -0.0671  0.3007  0.1654
12811TIP3    H159848   4.300   3.938   1.446  0.3953  2.3205  0.8537
12811TIP3    H259849   4.225   3.829   1.519  2.8107 -1.0432 -1.3746
12812TIP3   OH259850   0.193   3.376  15.880  0.2517  0.4600 -0.0965
12812TIP3    H159851   0.210   3.310  15.948  1.4202 -0.1483 -0.9325
12812TIP3    H259852   0.230   3.337  15.801 -0.2266  1.5767 -0.8837
12813TIP3   OH259853   4.542   0.994   2.181 -0.4271  0.2242  0.0084
12813TIP3    H159854   4.462   1.019   2.136  0.1163  0.7343 -0.6975
12813TIP3    H259855   4.516   0.987   2.273 -1.0470  1.4803 -0.0430
12814TIP3   OH259856   4.160   6.696   4.719  0.2770  0.1343  0.2966
12814TIP3    H159857   4.240   6.718   4.671  0.3281 -1.1443 -0.2421
12814TIP3    H259858   4.182   6.617   4.767 -0.9776 -0.9054 -0.7467
12815TIP3   OH259859   4.030   3.624  12.471  0.2910 -0.2168  0.1684
12815TIP3    H159860   4.028   3.531  12.446 -0.0048 -0.0595 -0.4084
12815TIP3    H259861   3.939   3.643  12.495  0.0944  0.2220 -0.8581
12816TIP3   OH259862   2.191   1.285  17.037  0.0515  0.1507  0.1825
12816TIP3    H159863   2.131   1.343  17.084 -0.8117 -0.7566  0.2162
12816TIP3    H259864   2.205   1.329  16.953 -1.1372  0.0866 -0.0622
12817TIP3   OH259865   4.232   5.204  11.819  0.1305  0.9444 -0.0790
12817TIP3    H159866   4.289   5.138  11.780 -0.4651  0.3079  0.1018
12817TIP3    H259867   4.239   5.279  11.761  0.1513  0.4174 -0.7728
12818TIP3   OH259868   2.868   5.780   5.295  0.3109  0.1857  0.3032
12818TIP3    H159869   2.843   5.707   5.350 -0.7015  1.0022  0.9574
12818TIP3    H259870   2.829   5.857   5.337 -0.2693  0.8729 -1.3820
12819TIP3   OH259871   0.262   5.756  10.744 -0.1637  0.4983  0.1479
12819TIP3    H159872   0.271   5.851  10.731 -1.6501  0.9215  1.7370
12819TIP3    H259873   0.205   5.727  10.673  1.0155  0.5943 -0.8758
12820TIP3   OH259874   0.033   0.911  17.219  0.0084  0.1769 -0.6336
12820TIP3    H159875   0.081   0.943  17.142  0.4864  0.8412 -0.0766
12820TIP3    H259876   0.082   0.945  17.294 -0.5364 -0.3287 -0.0300
12821TIP3   OH259877   5.930   6.802   5.054  0.2713 -0.1364  0.0522
12821TIP3    H159878   5.965   6.725   5.009  1.4432  0.0130  0.6471
12821TIP3    H259879   6.005   6.863   5.059  0.3474 -0.3166  2.5311
12822TIP3   OH259880   5.338   3.367   0.562 -0.7599  0.0818 -0.0638
12822TIP3    H159881   5.392   3.396   0.489 -1.4778  1.1091 -0.2138
12822TIP3    H259882   5.396   3.313   0.616 -0.5749 -1.9718 -2.1255
12823TIP3   OH259883   0.569   0.852   1.803  0.1176  0.2538 -0.3778
12823TIP3    H159884   0.602   0.808   1.881  1.4643  0.2599 -0.9133
12823TIP3    H259885   0.500   0.795   1.770 -0.6786  0.4015  0.9620
12824TIP3   OH259886   6.385   5.561  13.432  0.2890 -0.2887  0.0819
12824TIP3    H159887   6.468   5.591  13.396  1.1026 -4.0168 -1.6459
12824TIP3    H259888   6.409   5.499  13.501 -0.9790 -1.7482 -0.7250
12825TIP3   OH259889   1.569   1.418  14.745 -0.3141  0.2801  0.3279
12825TIP3    H159890   1.556   1.464  14.662  1.5672  0.6412  0.1767
12825TIP3    H259891   1.498   1.449  14.801 -0.6665  1.2891 -0.6280
12826TIP3   OH259892   3.097   5.378   2.532 -0.5751 -0.1399  0.6005
12826TIP3    H159893   3.153   5.451   2.504 -0.6624 -0.2399  0.1429
12826TIP3    H259894   3.010   5.417   2.541  0.0242  0.6806  4.1498
12827TIP3   OH259895   4.184   4.844  11.671  0.0523  0.1502 -0.1322
12827TIP3    H159896   4.121   4.852  11.743 -1.1628  2.6310 -1.3597
12827TIP3    H259897   4.202   4.750  11.666 -2.2237 -0.4617  1.3779
12828TIP3   OH259898   4.681   4.602  13.055 -0.5875 -0.0527  0.0703
12828TIP3    H159899   4.653   4.682  13.010  0.2451  0.3029  0.1722
12828TIP3    H259900   4.763   4.626  13.097 -0.4858 -0.8822  0.3537
12829TIP3   OH259901   6.541   6.709   5.913 -0.3028 -0.2029  0.2494
12829TIP3    H159902   6.514   6.646   5.979 -0.2413 -0.0665  0.4053
12829TIP3    H259903   6.624   6.744   5.945 -0.2292 -0.1979  0.0583
12830TIP3   OH259904   0.168   2.495   0.789  0.8362  0.2417  0.0254
12830TIP3    H159905   0.188   2.434   0.859 -0.8190 -0.7177 -0.2832
12830TIP3    H259906   0.210   2.457   0.711  0.7283  0.0782  0.0472
12831TIP3   OH259907   4.714   0.368   3.453  0.4038  0.2208  0.3457
12831TIP3    H159908   4.772   0.385   3.378  0.4530  0.1982  0.3788
12831TIP3    H259909   4.771   0.371   3.529  0.2859  0.6431  0.4210
12832TIP3   OH259910   1.230   4.562   5.062 -0.8830 -0.2888  0.0328
12832TIP3    H159911   1.276   4.639   5.097 -1.5232  0.1631 -0.0919
12832TIP3    H259912   1.300   4.501   5.039 -0.1291  1.2988 -2.4034
12833TIP3   OH259913   3.354   1.396  14.259  0.0015 -0.1806 -0.2370
12833TIP3    H159914   3.288   1.455  14.297  1.3432 -1.0053  3.8574
12833TIP3    H259915   3.304   1.318  14.233 -1.2736  1.2414 -2.3792
12834TIP3   OH259916   1.541   2.912  11.142 -0.4387  0.7543  0.5328
12834TIP3    H159917   1.589   2.845  11.095  0.3668  0.7478  1.3360
12834TIP3    H259918   1.530   2.983  11.079 -0.3620  0.3087  0.0084
12835TIP3   OH259919   0.400   4.349   0.013 -0.0935 -0.4480  0.3296
12835TIP3    H159920   0.356   4.293   0.078  0.9778 -1.0147  0.5749
12835TIP3    H259921   0.446   4.414   0.066 -1.5708  0.9002  0.0438
12836TIP3   OH259922   4.410   4.107  12.184 -0.1181  0.0041  0.1144
12836TIP3    H159923   4.377   4.050  12.254 -1.4590  1.0462  0.3823
12836TIP3    H259924   4.348   4.181  12.182  0.3492  0.3991 -1.6408
12837TIP3   OH259925   3.222   5.530   5.308 -0.0187  0.1961 -0.0440
12837TIP3    H159926   3.165   5.481   5.367 -0.6238 -0.6728 -1.3164
12837TIP3    H259927   3.165   5.592   5.264  0.4351  0.8691  0.2956
12838TIP3   OH259928   2.988   5.894   2.396  0.1160 -0.3880 -0.4823
12838TIP3    H159929   2.920   5.849   2.446  0.8137  0.1749  1.0240
12838TIP3    H259930   3.005   5.974   2.445  0.9232  0.1253 -1.5717
12839TIP3   OH259931   6.256   0.797   1.640 -0.7339 -0.0790  0.4528
12839TIP3    H159932   6.324   0.848   1.684 -0.3345 -0.4950  0.3247
12839TIP3    H259933   6.298   0.767   1.559 -1.1697 -0.0823  0.2290
12840TIP3   OH259934   1.292   5.374   4.662  0.3018 -0.2810  0.0686
12840TIP3    H159935   1.254   5.302   4.611  0.0023 -0.3841  0.4312
12840TIP3    H259936   1.380   5.386   4.626 -0.1216  0.0512 -0.8715
12841TIP3   OH259937   0.944   4.072  10.935  1.2138  0.0425  0.1052
12841TIP3    H159938   0.876   4.123  10.892 -1.0459 -2.1536  0.8006
12841TIP3    H259939   0.961   3.998  10.876  1.7191 -0.3581  0.7231
12842TIP3   OH259940   3.047   1.361   0.756 -0.3512  0.5370  0.0250
12842TIP3    H159941   3.137   1.380   0.729 -0.2747 -0.7934 -0.7622
12842TIP3    H259942   3.018   1.291   0.697 -1.0565 -0.7322  1.7530
12843TIP3   OH259943   1.683   0.835   3.807  0.6107  0.2005 -0.0511
12843TIP3    H159944   1.656   0.922   3.837  2.7924  0.8241  0.2551
12843TIP3    H259945   1.727   0.851   3.724  3.6167 -0.1038  1.3323
12844TIP3   OH259946   5.333   3.233   2.655 -0.6576  0.4050 -0.3192
12844TIP3    H159947   5.350   3.164   2.591 -0.7027  0.2937 -0.2128
12844TIP3    H259948   5.291   3.303   2.605 -2.7605 -0.5657 -0.0081
12845TIP3   OH259949   5.745   4.291   6.325  0.0093 -0.3463 -0.7801
12845TIP3    H159950   5.782   4.321   6.408 -1.6499 -1.6543  0.4942
12845TIP3    H259951   5.734   4.371   6.273  1.6867  0.4107 -0.0420
12846TIP3   OH259952   6.684   0.799   1.260  0.2066 -0.3582 -0.0608
12846TIP3    H159953   6.690   0.886   1.220  0.5001 -1.0853 -1.6717
12846TIP3    H259954   6.695   0.738   1.187 -1.3034 -1.7647  0.8179
12847TIP3   OH259955   6.353   3.470  11.700 -0.3130 -0.0020 -0.1439
12847TIP3    H159956   6.293   3.544  11.710 -1.2220 -0.8478  0.9151
12847TIP3    H259957   6.440   3.509  11.715 -0.6752  1.0402 -0.6549
12848TIP3   OH259958   4.393   5.241   5.683  0.5979 -0.3338  0.0142
12848TIP3    H159959   4.410   5.175   5.616  1.2748 -0.3617  0.2109
12848TIP3    H259960   4.398   5.194   5.766  0.8846 -0.0801  0.1452
12849TIP3   OH259961   0.053   5.665   5.309 -0.3107  0.3107  0.0579
12849TIP3    H159962   0.012   5.675   5.395 -1.5205  1.3223 -0.6113
12849TIP3    H259963   0.062   5.570   5.298  1.2465  0.1725  1.8948
12850TIP3   OH259964   3.622   6.600  13.921 -0.0845  0.3188  0.6302
12850TIP3    H159965   3.607   6.516  13.878 -0.0907  0.1746  0.9105
12850TIP3    H259966   3.615   6.665  13.851  1.7788 -0.0602  0.0420
12851TIP3   OH259967   5.179   1.580  16.347  0.3621  0.1495 -0.2522
12851TIP3    H159968   5.177   1.500  16.294 -0.5403  0.1931 -0.2952
12851TIP3    H259969   5.268   1.613  16.336  0.1681  0.2369 -1.8724
12852TIP3   OH259970   5.510   6.764  15.450 -0.2570 -1.2768  0.0950
12852TIP3    H159971   5.563   6.843  15.456 -0.0608 -1.3597 -0.4516
12852TIP3    H259972   5.537   6.724  15.367 -2.1288 -0.6254 -0.8869
12853TIP3   OH259973   5.683   5.138   1.468  1.1843  0.6621  0.8560
12853TIP3    H159974   5.618   5.151   1.538 -0.4204 -0.0805 -0.4126
12853TIP3    H259975   5.712   5.047   1.480 -0.8615 -0.2844 -0.7613
12854TIP3   OH259976   6.575   6.364   1.566 -0.1211 -0.4943  0.2790
12854TIP3    H159977   6.486   6.328   1.565 -0.4685  0.3072 -1.4170
12854TIP3    H259978   6.596   6.373   1.659 -2.6446  1.2716  0.7619
12855TIP3   OH259979   1.151   3.452  11.337 -0.5601 -0.3931 -0.0481
12855TIP3    H159980   1.162   3.509  11.261  0.8263  0.0304  0.4430
12855TIP3    H259981   1.204   3.375  11.317 -0.3931 -0.3911  0.3854
12856TIP3   OH259982   5.980   2.184  14.595  0.4987  0.1689  0.0206
12856TIP3    H159983   6.058   2.228  14.628  0.2575 -0.4813  1.5429
12856TIP3    H259984   5.929   2.164  14.673 -1.8892  1.7932 -1.0053
12857TIP3   OH259985   1.809   0.464   2.167 -0.1065  0.3129 -0.1329
12857TIP3    H159986   1.838   0.449   2.077  0.0114 -0.6029  0.0502
12857TIP3    H259987   1.816   0.378   2.209 -0.2482  0.7151  0.7265
12858TIP3   OH259988   0.388   3.468   0.502 -0.9073 -0.0810  0.0969
12858TIP3    H159989   0.473   3.426   0.518 -1.2944 -0.7518  0.4195
12858TIP3    H259990   0.335   3.400   0.461 -1.1065  0.5140 -0.6601
12859TIP3   OH259991   1.244   4.240   4.900 -0.1600  0.5277 -0.0298
12859TIP3    H159992   1.211   4.228   4.990  0.7690 -0.3249  0.2197
12859TIP3    H259993   1.236   4.153   4.860 -0.4608  0.8781 -0.7455
12860TIP3   OH259994   0.779   5.671  14.792  0.2215 -0.0275  0.1359
12860TIP3    H159995   0.712   5.603  14.781 -0.6253  0.6671  0.8279
12860TIP3    H259996   0.811   5.687  14.703  0.2230 -1.1030 -0.0768
12861TIP3   OH259997   4.905   2.416  14.848  0.0202  0.5451 -0.2123
12861TIP3    H159998   4.975   2.358  14.876 -0.6120 -0.1704 -0.0819
12861TIP3    H259999   4.928   2.440  14.758 -0.1356 -0.5791 -0.5638
12862TIP3   OH260000   3.730   6.508  12.327 -0.3016 -0.1731  0.0710
12862TIP3    H160001   3.659   6.473  12.273 -0.9111  0.5026  0.4087
12862TIP3    H260002   3.692   6.586  12.367  1.0841  1.0173 -0.8440
12863TIP3   OH260003   0.837   0.959  13.579  0.1869  0.0036 -0.3942
12863TIP3    H160004   0.848   0.906  13.500  0.5184  0.5335 -0.7068
12863TIP3    H260005   0.878   1.043  13.558  0.9476 -0.1028  0.6142
12864TIP3   OH260006   2.372   3.079  13.884  0.4015 -0.4734  0.7383
12864TIP3    H160007   2.414   3.006  13.929  0.3096 -0.1362  1.3769
12864TIP3    H260008   2.346   3.139  13.954  1.3974  0.6665  0.1696
12865TIP3   OH260009   1.806   0.744   0.757  0.1455 -0.3328  0.0009
12865TIP3    H160010   1.756   0.713   0.682 -1.5167 -0.5649  1.1605
12865TIP3    H260011   1.825   0.665   0.808 -0.5010  0.0476  0.8469
12866TIP3   OH260012   2.270   0.024  11.590 -0.2127  0.4453 -0.0968
12866TIP3    H160013   2.288   0.106  11.543  2.2534 -0.2753 -0.5457
12866TIP3    H260014   2.356  -0.007  11.618 -1.1613 -1.6176  0.7372
12867TIP3   OH260015   4.328   2.899   3.101 -0.0385 -0.2936 -0.3145
12867TIP3    H160016   4.378   2.908   3.182 -0.7924 -1.3934  0.2853
12867TIP3    H260017   4.335   2.806   3.079  2.1862  0.3439 -2.8510
12868TIP3   OH260018   0.579   4.589   4.610 -0.2624  0.0720  0.3493
12868TIP3    H160019   0.641   4.534   4.562  0.4230  1.1749 -0.0551
12868TIP3    H260020   0.626   4.616   4.689 -0.2152  0.9023  0.0473
12869TIP3   OH260021   1.836   3.958  15.585  0.3151  0.5280  0.1148
12869TIP3    H160022   1.837   3.899  15.660 -1.1900  0.4171  0.0869
12869TIP3    H260023   1.745   3.956  15.555  0.9257  0.3737 -1.8684
12870TIP3   OH260024   0.778   0.771  16.771  0.1940  0.4502  0.3112
12870TIP3    H160025   0.781   0.822  16.852  0.1886 -0.1664  0.7087
12870TIP3    H260026   0.693   0.725  16.775 -0.7101  1.9102 -0.9814
12871TIP3   OH260027   0.973   4.293   0.233 -0.1021  0.0242 -0.6295
12871TIP3    H160028   1.010   4.249   0.157  1.3302  1.6000 -0.9127
12871TIP3    H260029   1.048   4.334   0.276 -0.8812 -0.7530  1.6275
12872TIP3   OH260030   5.196   4.190  14.346  0.4670 -0.0187 -0.0433
12872TIP3    H160031   5.272   4.133  14.337  1.4918  1.1560  0.7974
12872TIP3    H260032   5.159   4.167  14.431  1.3794  1.0951  0.6850
12873TIP3   OH260033   2.701   5.820  12.435  0.1598 -0.1231 -0.1822
12873TIP3    H160034   2.673   5.774  12.356 -1.1902  0.0083  0.2097
12873TIP3    H260035   2.751   5.754  12.484  0.3557 -0.4259 -0.7829
12874TIP3   OH260036   0.432   1.441   5.502  0.2663 -0.5553  0.1987
12874TIP3    H160037   0.426   1.432   5.597 -1.1873 -1.7764  0.0288
12874TIP3    H260038   0.520   1.411   5.480  0.4879 -0.6096  1.1060
12875TIP3   OH260039   5.011   3.537  12.025  0.1742 -0.2940 -0.3027
12875TIP3    H160040   5.013   3.480  12.102 -0.6422 -1.4611 -1.1078
12875TIP3    H260041   4.978   3.620  12.058 -0.7571 -0.9579  0.5224
12876TIP3   OH260042   2.348   0.947   5.293  0.1581 -0.2974  0.0441
12876TIP3    H160043   2.273   0.964   5.236 -0.4440 -1.5903  0.4042
12876TIP3    H260044   2.385   0.864   5.261  0.8355 -0.1731  0.4786
12877TIP3   OH260045   6.508   1.482   2.744  0.2377 -0.1784 -0.5191
12877TIP3    H160046   6.569   1.554   2.762  0.1846 -0.1850 -0.3061
12877TIP3    H260047   6.466   1.506   2.661 -0.8907  0.7946  0.2954
12878TIP3   OH260048   3.610   4.654  17.021 -0.3409  0.1874  0.9123
12878TIP3    H160049   3.623   4.656  17.116 -1.1425 -0.0492  1.0333
12878TIP3    H260050   3.575   4.741  16.999  0.3887  0.4471  0.7404
12879TIP3   OH260051   0.641   0.616  15.685 -0.1312 -0.8308  0.0095
12879TIP3    H160052   0.615   0.537  15.638 -0.0111 -0.7584 -0.1770
12879TIP3    H260053   0.644   0.589  15.777  0.6842 -1.2522 -0.1274
12880TIP3   OH260054   4.167   0.507   3.152  0.2191  0.8133 -0.4599
12880TIP3    H160055   4.218   0.454   3.090 -2.1806  1.1617 -2.8822
12880TIP3    H260056   4.112   0.443   3.198 -0.0671  0.8376 -0.7674
12881TIP3   OH260057   6.022   5.967   1.704  0.0751 -0.0046 -0.2708
12881TIP3    H160058   6.089   5.901   1.690 -1.6903 -1.5509 -1.9872
12881TIP3    H260059   5.959   5.925   1.763  0.0018  0.9836  0.3884
12882TIP3   OH260060   2.051   3.398   2.949  0.0864 -0.3051  0.0862
12882TIP3    H160061   1.998   3.477   2.964  0.0608 -0.4329  0.7021
12882TIP3    H260062   2.040   3.379   2.856 -0.1757  0.2267  0.0024
12883TIP3   OH260063   4.828   2.004   5.699  0.5355  0.0339  0.2104
12883TIP3    H160064   4.834   1.992   5.604 -2.1271  0.8333 -0.1441
12883TIP3    H260065   4.906   1.961   5.733  1.6279 -0.1955 -2.3329
12884TIP3   OH260066   1.972   3.849  14.812 -0.2286  0.2129 -0.3240
12884TIP3    H160067   1.879   3.845  14.835 -0.4171  0.6516 -0.9855
12884TIP3    H260068   1.995   3.759  14.790 -0.0570 -0.2235  1.4684
12885TIP3   OH260069   1.315   3.398  10.969 -0.2638 -0.4964 -0.3792
12885TIP3    H160070   1.332   3.373  11.060 -1.9301  1.6055  0.5977
12885TIP3    H260071   1.247   3.337  10.940 -2.1898  0.9001  0.9907
12886TIP3   OH260072   2.987   3.634  11.177 -0.5290 -0.2918 -0.0353
12886TIP3    H160073   2.963   3.559  11.122  0.8266  0.2256 -1.3886
12886TIP3    H260074   2.916   3.696  11.164 -1.0210 -0.8148  0.0864
12887TIP3   OH260075   1.440   3.833  15.929 -0.7933 -0.4064 -0.0760
12887TIP3    H160076   1.348   3.833  15.955 -0.6812 -2.2423  0.4632
12887TIP3    H260077   1.441   3.787  15.845 -0.4235  0.1755 -0.4028
12888TIP3   OH260078   4.362   4.167  12.960  0.3512  0.2426  0.5804
12888TIP3    H160079   4.439   4.223  12.947  3.0820 -3.0145  1.4395
12888TIP3    H260080   4.337   4.183  13.051  1.9544 -0.7679  1.2445
12889TIP3   OH260081   6.049   4.347  11.907  0.0470 -0.4245 -0.0264
12889TIP3    H160082   6.117   4.397  11.953  0.0719  2.4965 -2.8726
12889TIP3    H260083   5.969   4.396  11.924 -0.0274  0.4309 -2.5036
12890TIP3   OH260084   2.713   5.185   5.738 -0.1116  0.3139  0.0119
12890TIP3    H160085   2.674   5.160   5.654 -0.5938  0.7350  0.1046
12890TIP3    H260086   2.765   5.109   5.764  0.8898  0.5737 -1.1723
12891TIP3   OH260087   3.954   1.821  13.239  0.0233  0.1394  0.3601
12891TIP3    H160088   3.865   1.827  13.274  0.1121 -1.0032  0.8203
12891TIP3    H260089   3.960   1.732  13.206  0.4363  0.7446 -1.2720
12892TIP3   OH260090   2.522   4.541  13.596  0.5135 -0.5888 -0.2190
12892TIP3    H160091   2.451   4.490  13.635  0.0818  0.5537  0.5309
12892TIP3    H260092   2.510   4.529  13.501  0.4706 -1.9157 -0.0646
12893TIP3   OH260093   4.115   0.832  12.985 -0.1404 -0.1144 -0.5016
12893TIP3    H160094   4.159   0.762  13.035 -0.4282 -0.2999 -0.5072
12893TIP3    H260095   4.097   0.900  13.050  0.0012 -0.1098 -0.4650
12894TIP3   OH260096   5.676   2.172   2.693  0.3362  0.4827  0.5648
12894TIP3    H160097   5.738   2.245   2.695  0.1868  0.6335  0.0200
12894TIP3    H260098   5.613   2.192   2.761  0.8927  0.3235  1.1325
12895TIP3   OH260099   3.482   2.940   0.002  0.8274  0.0008 -0.2804
12895TIP3    H160100   3.512   2.853  -0.023 -2.0370 -0.9761 -0.6724
12895TIP3    H260101   3.388   2.931   0.011  0.3503  3.2319 -0.8890
12896TIP3   OH260102   1.693   6.551   5.227  0.7388 -0.0619  0.0717
12896TIP3    H160103   1.709   6.645   5.234  2.1659 -0.1084 -1.8634
12896TIP3    H260104   1.598   6.543   5.228  0.4406  1.7412 -2.5855
12897TIP3   OH260105   6.000   0.384  13.259 -0.2907 -0.1650  0.0094
12897TIP3    H160106   6.054   0.305  13.268  0.3312  0.1481 -0.7805
12897TIP3    H260107   5.963   0.398  13.346  0.6298 -0.6049  0.4938
12898TIP3   OH260108   4.763   4.211  15.356 -0.0910  0.5157 -0.7228
12898TIP3    H160109   4.846   4.235  15.315  0.2173  0.7126 -0.0016
12898TIP3    H260110   4.784   4.201  15.449 -0.7170 -0.2076 -0.6538
12899TIP3   OH260111   2.551   5.883   2.214 -0.2608  0.6824 -0.1232
12899TIP3    H160112   2.602   5.902   2.135  0.5853  0.8832  0.4618
12899TIP3    H260113   2.541   5.968   2.257 -2.1034  0.8431 -0.8103
12900TIP3   OH260114   4.270   1.709   0.032 -0.3065 -0.3602 -0.6135
12900TIP3    H160115   4.273   1.741  -0.058 -0.4467 -0.3746 -0.6236
12900TIP3    H260116   4.177   1.693   0.049 -0.2928 -0.2447 -0.4267
12901TIP3   OH260117   4.234   0.794   3.984 -0.8631  0.1163  0.4313
12901TIP3    H160118   4.188   0.784   3.901 -0.7522 -0.2010  0.4089
12901TIP3    H260119   4.304   0.730   3.980 -2.1105 -1.4035  1.6437
12902TIP3   OH260120   2.201   4.360   3.810  0.0869 -0.3423  0.0034
12902TIP3    H160121   2.165   4.271   3.815  1.5132 -0.9725 -0.3163
12902TIP3    H260122   2.128   4.417   3.833 -0.6204 -1.6446  1.1498
12903TIP3   OH260123   5.727   4.381   5.593  0.3183  0.2055 -0.2259
12903TIP3    H160124   5.649   4.377   5.648  0.7530 -0.6661  0.3514
12903TIP3    H260125   5.743   4.289   5.568 -0.0523  0.6032 -2.0639
12904TIP3   OH260126   0.303   3.081   1.686  0.1561  0.2876 -0.0938
12904TIP3    H160127   0.360   3.044   1.753  1.1059  2.1152  0.1703
12904TIP3    H260128   0.343   3.055   1.603  0.8169  0.6906  0.0888
12905TIP3   OH260129   2.627   6.535  16.284  0.7396 -0.0481  0.5855
12905TIP3    H160130   2.603   6.443  16.272 -0.7800  0.3251  0.4495
12905TIP3    H260131   2.636   6.569  16.195 -0.2947  0.2874  0.5895
12906TIP3   OH260132   1.405   2.545  14.405 -0.1399  0.7224  0.3647
12906TIP3    H160133   1.418   2.605  14.478  0.1813 -0.9591  1.7620
12906TIP3    H260134   1.474   2.479  14.416 -1.1852 -0.5462 -0.4005
12907TIP3   OH260135   6.659   2.842   0.663 -0.1454  0.9913  0.1686
12907TIP3    H160136   6.751   2.853   0.687  0.1013  0.7289 -0.6201
12907TIP3    H260137   6.650   2.892   0.582  0.1851 -1.7708 -1.7001
12908TIP3   OH260138   6.740   0.481   5.971  0.3830  0.4424  0.5624
12908TIP3    H160139   6.761   0.421   6.042 -2.2439 -1.1654  0.1329
12908TIP3    H260140   6.753   0.429   5.892  0.9661  1.4488 -0.0176
12909TIP3   OH260141   1.185   6.077   4.099 -0.5360 -0.1354 -0.5920
12909TIP3    H160142   1.186   6.055   4.192  0.8586 -3.9060 -1.3187
12909TIP3    H260143   1.096   6.056   4.070 -0.8548  0.6709 -0.2278
12910TIP3   OH260144   0.592   4.379   0.849 -0.0046  0.1996 -0.0941
12910TIP3    H160145   0.672   4.428   0.830 -0.3088  0.8176  0.2067
12910TIP3    H260146   0.622   4.290   0.866  0.6108  0.4113 -0.0551
12911TIP3   OH260147   3.755   6.375   0.667 -0.2919  0.1051  0.5148
12911TIP3    H160148   3.839   6.378   0.622 -0.2023 -1.2625  0.5523
12911TIP3    H260149   3.761   6.299   0.724 -0.1405  2.1594  3.4380
12912TIP3   OH260150   2.367   2.952  10.495  0.2089 -0.0914 -0.0365
12912TIP3    H160151   2.281   2.916  10.515 -0.7142  0.6240 -2.3811
12912TIP3    H260152   2.380   3.022  10.559 -1.1399  0.0625  0.0814
12913TIP3   OH260153   0.759   6.233  11.566  0.0424  0.0494  0.1451
12913TIP3    H160154   0.747   6.328  11.557 -0.8799 -0.0328  0.3465
12913TIP3    H260155   0.810   6.222  11.646  2.6726  0.4882 -1.3785
12914TIP3   OH260156   3.364   4.784  10.294 -0.0500  0.3916  0.1037
12914TIP3    H160157   3.295   4.719  10.310  0.2201 -0.6516 -2.4863
12914TIP3    H260158   3.439   4.752  10.345 -0.2541 -0.7766 -0.2926
12915TIP3   OH260159   4.607   1.442  13.178 -0.0623  0.2749  0.1985
12915TIP3    H160160   4.575   1.367  13.229  1.5948 -0.5261  0.1365
12915TIP3    H260161   4.542   1.511  13.193 -1.8049 -1.2592 -0.0032
12916TIP3   OH260162   0.165   5.286   4.944  0.4057  0.5729  0.0165
12916TIP3    H160163   0.207   5.327   5.020  1.1860 -2.3675  1.3019
12916TIP3    H260164   0.074   5.315   4.948  0.0459 -0.6760  3.0208
12917TIP3   OH260165   5.052   6.179   2.730 -0.6311 -0.4703 -0.2093
12917TIP3    H160166   4.966   6.180   2.688 -0.4392  0.7363 -0.6368
12917TIP3    H260167   5.034   6.162   2.823 -1.5518  1.7127  0.0705
12918TIP3   OH260168   4.941   2.916   5.040 -0.3073  0.2380  0.1111
12918TIP3    H160169   4.962   2.996   5.088  0.2104  2.5727 -3.5604
12918TIP3    H260170   5.025   2.888   5.002 -0.8008 -0.9893 -0.1335
12919TIP3   OH260171   1.606   5.730  10.668  0.4937 -0.1223 -0.3590
12919TIP3    H160172   1.684   5.675  10.665  1.0342  0.5817  0.6655
12919TIP3    H260173   1.539   5.674  10.709  0.6553 -0.4517 -0.5337
12920TIP3   OH260174   2.713   0.467  10.812  0.1684 -0.3513 -0.1390
12920TIP3    H160175   2.719   0.375  10.835 -0.7786 -0.6507 -0.9993
12920TIP3    H260176   2.620   0.482  10.796  0.0478  1.1848  1.6315
12921TIP3   OH260177   5.980   3.164  12.883 -0.1030  0.8861 -0.6486
12921TIP3    H160178   6.020   3.188  12.799  0.6418  3.6428  0.3758
12921TIP3    H260179   6.050   3.118  12.930  0.0482  0.8504 -0.9036
12922TIP3   OH260180   3.622   3.812   3.169 -0.1897 -0.0187 -0.2037
12922TIP3    H160181   3.612   3.857   3.085 -1.1579 -1.0232 -0.6492
12922TIP3    H260182   3.709   3.838   3.200  0.3692  0.0199 -1.7376
12923TIP3   OH260183   1.679   1.961  12.729  0.4756 -0.4314 -0.1574
12923TIP3    H160184   1.658   1.902  12.802  1.2441  0.4943  0.8571
12923TIP3    H260185   1.773   1.980  12.740  0.2892  0.8223 -0.5522
12924TIP3   OH260186   2.270   4.939   0.817 -0.0467 -0.1900 -0.2520
12924TIP3    H160187   2.212   4.881   0.769 -1.9664  0.9931  0.5408
12924TIP3    H260188   2.326   4.979   0.750 -0.4455 -1.0122 -1.0805
12925TIP3   OH260189   1.230   6.751   4.339  0.2348  0.7749  0.3323
12925TIP3    H160190   1.304   6.784   4.390  0.4684  0.9385 -0.1146
12925TIP3    H260191   1.264   6.740   4.251 -0.0373  0.0403  0.3070
12926TIP3   OH260192   0.596   4.400  12.946 -0.6295  0.4637 -0.1872
12926TIP3    H160193   0.634   4.321  12.984  0.0511  1.9450  2.4381
12926TIP3    H260194   0.507   4.376  12.923 -0.9737 -0.6798  2.0922
12927TIP3   OH260195   4.219   0.381  14.081 -0.1281 -0.0743  0.0226
12927TIP3    H160196   4.211   0.454  14.143  0.4973 -0.0746  0.1091
12927TIP3    H260197   4.310   0.384  14.052 -0.4303 -0.0092 -0.9788
12928TIP3   OH260198   0.445   5.020  12.239  0.4200  0.1078 -0.0747
12928TIP3    H160199   0.533   5.012  12.275  0.0438  0.1869  0.8830
12928TIP3    H260200   0.446   5.104  12.192  0.9008  0.0329 -0.1944
12929TIP3   OH260201   4.786   0.833   2.240 -0.5366 -0.3590 -0.0507
12929TIP3    H160202   4.701   0.848   2.199 -0.3606 -1.7980 -1.0189
12929TIP3    H260203   4.812   0.745   2.210  0.8760 -0.3159  0.9438
12930TIP3   OH260204   2.983   0.009   0.300 -0.1256 -0.2990 -0.1769
12930TIP3    H160205   2.928   0.035   0.374  0.8842  0.1280  0.4359
12930TIP3    H260206   3.032   0.088   0.278  1.4514 -1.0957  0.3509
12931TIP3   OH260207   2.407   2.863  15.161  0.3194 -0.1366 -0.1003
12931TIP3    H160208   2.381   2.942  15.208  0.6112 -0.4622  0.6284
12931TIP3    H260209   2.472   2.822  15.218 -1.5756 -2.1730  0.7670
12932TIP3   OH260210   1.305   0.057   0.985 -0.4158 -0.4674 -0.3710
12932TIP3    H160211   1.249   0.004   0.928  2.0908 -0.6680 -2.8326
12932TIP3    H260212   1.243   0.102   1.043 -3.2708  0.3040 -3.6659
12933TIP3   OH260213   2.281   0.535   3.125 -0.1962 -0.5219 -0.3078
12933TIP3    H160214   2.213   0.537   3.058 -1.9754  0.3064  1.4198
12933TIP3    H260215   2.319   0.623   3.123 -0.0550 -0.5841 -0.4033
12934TIP3   OH260216   2.703   0.875  14.802  0.1394  0.2487 -0.9841
12934TIP3    H160217   2.610   0.871  14.781  0.0142  1.3892 -0.6985
12934TIP3    H260218   2.741   0.800  14.756 -0.9395 -0.3247 -0.9600
12935TIP3   OH260219   3.266   5.228  16.272  0.2709  0.4551  0.1111
12935TIP3    H160220   3.207   5.251  16.344  0.4298 -1.4080  0.8811
12935TIP3    H260221   3.279   5.134  16.280  1.2081  0.3810 -1.6911
12936TIP3   OH260222   0.846   6.692  12.779  0.2136  0.3199  0.5687
12936TIP3    H160223   0.928   6.705  12.826  0.5920  0.9400 -0.2528
12936TIP3    H260224   0.808   6.779  12.772  0.5685  0.3747 -0.9928
12937TIP3   OH260225   4.999   6.504   1.620  0.1081  0.1077  0.2879
12937TIP3    H160226   4.986   6.594   1.590 -1.2313 -0.1927 -0.1273
12937TIP3    H260227   4.945   6.496   1.698 -0.6857 -0.6358 -0.3119
12938TIP3   OH260228   1.947   1.632  16.379 -0.1816  0.1311  0.0364
12938TIP3    H160229   2.003   1.602  16.307  0.0099 -0.1341  0.2969
12938TIP3    H260230   1.994   1.706  16.417  0.2580 -0.4291  0.5998
12939TIP3   OH260231   3.912   2.936  13.524  0.0007  0.4615 -0.7038
12939TIP3    H160232   3.865   2.869  13.474  1.1968 -0.1398 -1.0692
12939TIP3    H260233   3.936   3.002  13.459 -0.3576  0.7797 -0.5158
12940TIP3   OH260234   5.830   1.995  16.985  0.0359  0.0887  0.0592
12940TIP3    H160235   5.738   2.006  17.009  0.1668 -0.2406  0.7401
12940TIP3    H260236   5.840   2.045  16.904 -0.5520  0.7750  0.3992
12941TIP3   OH260237   1.005   6.760  15.619  0.1923  0.6726 -0.0720
12941TIP3    H160238   0.958   6.830  15.574 -0.5113  1.1494  1.3426
12941TIP3    H260239   0.981   6.680  15.571 -0.0841  1.2193 -0.8688
12942TIP3   OH260240   1.799   6.350   4.989  0.3932  0.6457 -0.1354
12942TIP3    H160241   1.863   6.304   4.935  1.2206  1.7929 -0.1859
12942TIP3    H260242   1.718   6.344   4.940  0.4041 -0.9405 -0.0132
12943TIP3   OH260243   0.251   0.141   4.260 -0.3475  0.0090  0.7743
12943TIP3    H160244   0.276   0.114   4.171  1.0638 -1.9346  1.6889
12943TIP3    H260245   0.195   0.218   4.247 -0.7773 -0.6471 -1.8270
12944TIP3   OH260246   1.720   3.349  15.012  0.0540 -0.0932 -0.7714
12944TIP3    H160247   1.682   3.334  14.926  0.2448  0.6269 -0.9784
12944TIP3    H260248   1.707   3.265  15.058 -1.6363  0.0705 -0.8863
12945TIP3   OH260249   3.580   3.825  12.834  0.2893  0.1383 -0.2533
12945TIP3    H160250   3.486   3.841  12.846 -0.1003 -1.4165 -1.0121
12945TIP3    H260251   3.591   3.818  12.739  1.0541 -0.3928 -0.1282
12946TIP3   OH260252   3.436   4.068   4.235 -0.4837 -0.3321  0.9392
12946TIP3    H160253   3.394   4.032   4.157 -1.4166  0.5386  1.0164
12946TIP3    H260254   3.457   3.992   4.288 -0.6766 -0.8777  0.2479
12947TIP3   OH260255   3.117   2.992   4.997 -0.0531 -0.0818 -0.3429
12947TIP3    H160256   3.154   3.081   5.006  1.3381 -0.7998  1.8073
12947TIP3    H260257   3.193   2.938   4.975 -0.0871 -1.3102  2.2699
12948TIP3   OH260258   1.813   0.981  11.449  0.1816 -0.1196 -0.0038
12948TIP3    H160259   1.796   1.069  11.415 -0.0378  0.7468  2.2098
12948TIP3    H260260   1.815   0.925  11.371  0.3714  1.8357 -1.4652
12949TIP3   OH260261   1.642   1.286   4.139  0.2351 -0.1529  0.4282
12949TIP3    H160262   1.660   1.255   4.228  0.4389  1.2719  0.9057
12949TIP3    H260263   1.715   1.344   4.118 -0.7182  0.9608  0.0553
12950TIP3   OH260264   1.468   5.047   4.868 -0.4195 -0.5789  0.1624
12950TIP3    H160265   1.428   5.097   4.939  0.7813 -1.1202  1.2488
12950TIP3    H260266   1.393   5.016   4.816 -1.2565  0.8907  0.4304
12951TIP3   OH260267   5.685   0.345  17.249 -0.3884 -0.0738  0.3226
12951TIP3    H160268   5.664   0.252  17.258 -0.8063 -0.0289 -0.1720
12951TIP3    H260269   5.685   0.378  17.339  0.3547 -0.6767  0.5513
12952TIP3   OH260270   3.058   5.419   4.902  0.6734  0.3305  0.1219
12952TIP3    H160271   2.996   5.399   4.832  0.6637  1.4852 -0.2181
12952TIP3    H260272   3.007   5.467   4.966  1.0740  0.7840  0.1098
12953TIP3   OH260273   6.284   2.945  16.608 -0.6699  0.0717 -0.1787
12953TIP3    H160274   6.301   2.855  16.580  0.1572  0.3397 -0.5873
12953TIP3    H260275   6.328   2.999  16.541  1.5069  0.7384  1.6725
12954TIP3   OH260276   1.235   6.024  14.746  0.1520  0.0315  0.2581
12954TIP3    H160277   1.273   5.947  14.703 -0.5715 -0.0209 -0.3205
12954TIP3    H260278   1.229   6.089  14.676 -0.9671 -0.0222  0.2940
12955TIP3   OH260279   0.154   0.116  11.951  0.6438 -0.1265  0.0261
12955TIP3    H160280   0.153   0.045  11.886  1.8119  0.6187 -0.8471
12955TIP3    H260281   0.084   0.093  12.012  0.7065 -1.8050 -0.4704
12956TIP3   OH260282   5.091   5.891   2.937  0.0316 -0.0569  0.5182
12956TIP3    H160283   5.098   5.836   3.015 -1.3552 -0.0250  0.6840
12956TIP3    H260284   5.118   5.978   2.966  3.2449 -0.7487  0.0233
12957TIP3   OH260285   1.522   2.259  11.538  0.3171 -0.3339  0.2586
12957TIP3    H160286   1.542   2.352  11.525 -0.3329 -0.3984 -1.5387
12957TIP3    H260287   1.458   2.258  11.609  0.6665  0.5454  0.6005
12958TIP3   OH260288   3.697   4.011  13.018  0.4333  0.6118  0.1018
12958TIP3    H160289   3.615   4.036  13.061  0.4792  0.0410  0.5331
12958TIP3    H260290   3.670   3.962  12.941  0.3368  2.0926 -0.8569
12959TIP3   OH260291   2.007   4.531  15.103  0.4959  0.3701  0.1234
12959TIP3    H160292   2.025   4.457  15.044  0.3007 -1.3809  2.1139
12959TIP3    H260293   2.046   4.505  15.186 -0.7514  1.9252  1.2655
12960TIP3   OH260294   3.032   3.766  14.979  0.3930 -0.1722 -0.3725
12960TIP3    H160295   3.013   3.828  14.909  1.1098  0.6757  0.1685
12960TIP3    H260296   2.950   3.758  15.026  0.6842  1.6418  0.5285
12961TIP3   OH260297   6.320   2.005   1.742  0.0479  0.5204  0.1774
12961TIP3    H160298   6.298   2.063   1.815 -0.1803 -1.0899  1.4479
12961TIP3    H260299   6.412   1.984   1.754  0.2897  1.0665 -0.6253
12962TIP3   OH260300   4.123   6.011  13.559 -0.5814 -0.9180  0.3137
12962TIP3    H160301   4.040   6.051  13.536  0.1288 -0.0872 -0.9694
12962TIP3    H260302   4.121   5.925  13.515 -0.8753 -1.0272  0.5389
12963TIP3   OH260303   0.899   5.648  15.414 -0.3484  0.0118 -0.1754
12963TIP3    H160304   0.825   5.611  15.366  0.7389 -0.2052 -1.7651
12963TIP3    H260305   0.860   5.689  15.491 -2.1939  0.4641 -1.2998
12964TIP3   OH260306   4.534   3.539   5.387 -0.0906 -0.4540 -0.2077
12964TIP3    H160307   4.620   3.525   5.427  0.3865 -0.9426 -1.3501
12964TIP3    H260308   4.485   3.591   5.451  1.8430  1.9231 -0.5307
12965TIP3   OH260309   0.812   0.679   2.485  0.1741  0.1792  0.3176
12965TIP3    H160310   0.813   0.716   2.397  0.7979 -0.1514  0.1817
12965TIP3    H260311   0.819   0.755   2.543  0.6690  0.3300  0.0613
12966TIP3   OH260312   3.026   4.821   2.524  0.1319  0.5345  0.1710
12966TIP3    H160313   2.941   4.846   2.489  0.8870 -0.7445 -2.9235
12966TIP3    H260314   3.009   4.744   2.578 -0.8208  1.2336  0.9064
12967TIP3   OH260315   6.250   5.568  17.113 -0.0050 -0.7631 -0.2883
12967TIP3    H160316   6.221   5.489  17.067 -0.7427 -0.2393 -0.7392
12967TIP3    H260317   6.232   5.549  17.205 -2.4647 -0.2335 -0.5818
12968TIP3   OH260318   0.642   3.716  14.847 -0.1925  0.4188  0.5728
12968TIP3    H160319   0.676   3.790  14.897 -0.1446  0.4977  0.4261
12968TIP3    H260320   0.620   3.650  14.912 -0.6254  0.7208  0.7332
12969TIP3   OH260321   1.411   5.584   3.078  0.7255  0.3050  0.1182
12969TIP3    H160322   1.365   5.501   3.088  0.0809  0.4857 -1.2368
12969TIP3    H260323   1.497   5.560   3.043 -0.0657  0.3077 -1.9067
12970TIP3   OH260324   4.289   1.042   3.658 -0.0248  0.0210  0.2602
12970TIP3    H160325   4.306   0.993   3.577 -1.0781  2.0378 -1.2730
12970TIP3    H260326   4.196   1.027   3.676  0.1485 -0.2137  0.9642
12971TIP3   OH260327   6.167   1.266  15.278  0.8344  0.4817  0.4277
12971TIP3    H160328   6.229   1.262  15.351  0.9030  2.5040  0.5280
12971TIP3    H260329   6.082   1.248  15.318  1.0619 -0.0439  0.6940
12972TIP3   OH260330   2.363   5.602   3.753  0.7600 -0.5013  0.1126
12972TIP3    H160331   2.339   5.613   3.661  1.6747  0.4042 -0.0404
12972TIP3    H260332   2.282   5.575   3.796 -0.1970  1.1251 -0.5986
12973TIP3   OH260333   0.584   1.045   1.165 -0.1699  0.3252 -0.6281
12973TIP3    H160334   0.523   1.075   1.098 -0.7359  0.0733 -0.2351
12973TIP3    H260335   0.616   0.961   1.133 -2.2658 -0.9883  0.4854
12974TIP3   OH260336   3.811   5.740   1.119 -0.4093 -0.1490 -0.1829
12974TIP3    H160337   3.721   5.734   1.086 -0.8795 -1.5591  1.2287
12974TIP3    H260338   3.863   5.764   1.043 -2.1234  2.0638 -0.7925
12975TIP3   OH260339   4.001   0.054  11.226  0.2540  0.3627  0.1931
12975TIP3    H160340   3.956   0.134  11.199 -0.7231 -0.7554 -1.7631
12975TIP3    H260341   3.996  -0.003  11.149  0.6688 -1.6810  1.5964
12976TIP3   OH260342   1.119   4.284   3.456  0.2256  0.3332  0.5335
12976TIP3    H160343   1.082   4.304   3.542 -1.8818 -0.0578 -0.2323
12976TIP3    H260344   1.099   4.192   3.442 -1.7175  0.9630 -1.3665
12977TIP3   OH260345   5.593   3.164   0.663 -0.3609  0.3090 -0.4595
12977TIP3    H160346   5.684   3.190   0.672 -0.7160  1.5121 -0.0766
12977TIP3    H260347   5.558   3.169   0.751 -1.0017  0.6895 -0.7274
12978TIP3   OH260348   0.487   1.093   6.162  0.1745 -0.5142 -0.0637
12978TIP3    H160349   0.395   1.100   6.135 -0.7725 -2.2316  2.3583
12978TIP3    H260350   0.537   1.122   6.086 -2.3257 -1.5504 -2.2512
12979TIP3   OH260351   3.537   3.441   5.961 -0.3428  0.0000  0.0253
12979TIP3    H160352   3.493   3.517   5.921 -1.5903 -0.9970 -0.5713
12979TIP3    H260353   3.548   3.379   5.889  0.2705 -0.5612  0.5926
12980TIP3   OH260354   0.467   2.385  16.096 -0.1138  0.0756 -0.0350
12980TIP3    H160355   0.385   2.432  16.112 -0.0723  0.1467 -0.0297
12980TIP3    H260356   0.514   2.441  16.034  1.3296  1.6573  2.3082
12981TIP3   OH260357   0.551   6.415  10.699 -0.3349  0.3565  0.4983
12981TIP3    H160358   0.615   6.388  10.765 -0.2720  1.3774  0.8631
12981TIP3    H260359   0.547   6.341  10.639  2.7363  0.9949 -0.6994
12982TIP3   OH260360   3.556   1.694   5.410 -0.2370  0.0452 -0.2410
12982TIP3    H160361   3.548   1.607   5.449  0.9494  0.2837  0.5707
12982TIP3    H260362   3.465   1.721   5.394 -0.6238 -1.4893 -0.8987
12983TIP3   OH260363   6.095   5.662  10.696  0.2420  0.7628 -0.0745
12983TIP3    H160364   6.010   5.676  10.737  0.0914  1.2984 -0.5472
12983TIP3    H260365   6.085   5.579  10.649  0.9788 -0.8028  2.3505
12984TIP3   OH260366   1.281   1.138  13.636  0.1003  0.0058  0.4111
12984TIP3    H160367   1.374   1.154  13.652  0.0460 -0.8982  1.7882
12984TIP3    H260368   1.251   1.092  13.714 -1.6521  0.8241  0.2688
12985TIP3   OH260369   5.310   1.358   5.184 -0.2601  0.0232  1.1204
12985TIP3    H160370   5.220   1.376   5.212 -1.0623  0.0098 -1.2392
12985TIP3    H260371   5.350   1.445   5.176  0.3090 -0.0005  3.0914
12986TIP3   OH260372   5.974   3.240   2.748 -0.1831  0.1751  0.1116
12986TIP3    H160373   5.970   3.273   2.659  0.5446  0.5669  0.2211
12986TIP3    H260374   5.986   3.318   2.803 -3.1518  0.2670  0.8183
12987TIP3   OH260375   0.184   4.395  14.758  0.3415 -0.4222 -0.0423
12987TIP3    H160376   0.093   4.384  14.787  0.5526 -1.3637  0.2940
12987TIP3    H260377   0.176   4.436  14.672 -0.5655 -2.8214 -1.2113
12988TIP3   OH260378   3.768   3.699   3.733  0.2876  0.2720 -0.9953
12988TIP3    H160379   3.777   3.748   3.815 -0.4386 -1.4711  0.1733
12988TIP3    H260380   3.842   3.638   3.734 -1.0759 -1.4440 -0.3835
12989TIP3   OH260381   4.922   6.343   6.573 -0.4704 -0.4119 -0.1379
12989TIP3    H160382   4.829   6.360   6.556 -1.1721 -2.4109  1.2881
12989TIP3    H260383   4.953   6.421   6.619 -1.8811 -0.3686  0.7925
12990TIP3   OH260384   5.102   6.770  14.472 -0.2294 -0.5635 -0.2256
12990TIP3    H160385   5.142   6.760  14.559  1.0718  0.7184 -0.6428
12990TIP3    H260386   5.088   6.680  14.442 -0.0481 -1.0285  1.0188
12991TIP3   OH260387   1.435   5.262   3.367  0.2399 -0.1366  0.0259
12991TIP3    H160388   1.398   5.341   3.406 -0.1145 -0.5491  0.5356
12991TIP3    H260389   1.509   5.240   3.424  0.6894  0.1357 -0.4370
12992TIP3   OH260390   0.209   2.996   5.360  0.0343 -0.2374 -0.2896
12992TIP3    H160391   0.247   2.941   5.291  2.4973  0.9612  0.0057
12992TIP3    H260392   0.270   3.069   5.369 -1.7603  1.1816  1.1578
12993TIP3   OH260393   6.351   0.464  15.575  0.4486 -0.2861 -0.4938
12993TIP3    H160394   6.440   0.497  15.573  0.9790 -1.6626 -1.9950
12993TIP3    H260395   6.333   0.438  15.484 -1.3604 -0.3322 -0.1621
12994TIP3   OH260396   1.031   2.998  14.291  0.7010 -0.4536  0.0019
12994TIP3    H160397   0.960   3.041  14.338  2.6103  0.0556  2.6438
12994TIP3    H260398   1.000   2.908  14.278 -0.2833 -0.3546  1.4562
12995TIP3   OH260399   1.418   0.857   2.953  1.0648 -0.5965 -0.7507
12995TIP3    H160400   1.511   0.861   2.930  0.8352  0.7866 -1.5592
12995TIP3    H260401   1.384   0.944   2.930 -0.4940 -1.1816 -0.7653
12996TIP3   OH260402   2.371   5.301  14.886  0.4297 -0.0610 -0.4670
12996TIP3    H160403   2.447   5.246  14.862  1.0688  0.4180  0.4139
12996TIP3    H260404   2.299   5.263  14.837  1.1545 -0.8022 -1.0018
12997TIP3   OH260405   0.093   1.595   3.052 -0.2029  0.2499 -0.3172
12997TIP3    H160406   0.101   1.515   3.105  3.8433  1.2305  0.9473
12997TIP3    H260407   0.050   1.658   3.111  1.3534  0.4080  0.7162
12998TIP3   OH260408   0.339   2.258   1.633 -0.3065  0.0177  0.4308
12998TIP3    H160409   0.292   2.205   1.698  1.7717 -1.2374  0.9867
12998TIP3    H260410   0.319   2.348   1.658 -2.4473 -0.4376  0.5796
12999TIP3   OH260411   5.752   4.107  16.044  0.7853  0.4610  0.7577
12999TIP3    H160412   5.838   4.080  16.011  0.4250 -2.1961  1.7569
12999TIP3    H260413   5.689   4.069  15.983  0.2703 -0.2582  1.6955
13000TIP3   OH260414   3.902   0.196  15.640 -0.6633 -0.3808 -0.1692
13000TIP3    H160415   3.836   0.150  15.693 -0.8615  0.5207  0.3841
13000TIP3    H260416   3.852   0.230  15.565 -0.7135 -0.1938 -0.0504
13001TIP3   OH260417   4.419   1.049  17.162  0.0170 -0.1362  0.2857
13001TIP3    H160418   4.479   1.036  17.089 -1.6491 -0.8908 -1.0132
13001TIP3    H260419   4.446   1.133  17.201  1.7352 -0.3508 -0.3623
13002TIP3   OH260420   1.585   1.581   2.232 -0.2028 -0.8403  0.5466
13002TIP3    H160421   1.607   1.674   2.237 -1.3623 -0.5838  1.0450
13002TIP3    H260422   1.518   1.576   2.165 -0.5212 -1.2441  0.8958
13003TIP3   OH260423   6.218   6.376  15.121 -0.6015  0.3241 -0.2217
13003TIP3    H160424   6.251   6.287  15.132 -0.6430  0.3809  0.3784
13003TIP3    H260425   6.295   6.432  15.130 -0.7246  0.4060  0.3751
13004TIP3   OH260426   4.622   3.638  12.603 -0.6838 -0.4454 -0.8147
13004TIP3    H160427   4.657   3.556  12.637  3.2430  1.3581  0.1050
13004TIP3    H260428   4.556   3.665  12.667 -2.2485 -2.9086 -1.2880
13005TIP3   OH260429   2.549   1.465   0.975 -0.0634 -0.6219  0.1168
13005TIP3    H160430   2.581   1.377   0.995  1.2694  0.0759  1.2003
13005TIP3    H260431   2.596   1.489   0.895 -0.1133 -0.7257  0.0549
13006TIP3   OH260432   4.667   6.021   6.284 -0.0858  0.0450 -0.4308
13006TIP3    H160433   4.594   5.962   6.265  0.1146 -0.2332 -0.3498
13006TIP3    H260434   4.691   6.057   6.199 -1.2327  1.2422 -0.2873
13007TIP3   OH260435   6.175   6.568  16.148  0.2526 -0.1347 -0.4199
13007TIP3    H160436   6.173   6.494  16.208 -1.3591  0.0036 -0.2713
13007TIP3    H260437   6.096   6.558  16.095  0.9988  0.4379 -1.6900
13008TIP3   OH260438   3.925   4.238   3.672  0.1663 -0.1928 -0.3692
13008TIP3    H160439   3.960   4.267   3.588  0.0475 -0.8812 -0.6547
13008TIP3    H260440   3.931   4.143   3.670 -0.3241 -0.2408  0.1911
13009TIP3   OH260441   2.573   5.550  13.041 -0.7814  0.9090 -0.1993
13009TIP3    H160442   2.607   5.630  13.081  0.7031 -0.3971  1.3272
13009TIP3    H260443   2.482   5.570  13.020 -1.0494  2.3728  1.9968
13010TIP3   OH260444   0.849   6.057   5.132 -0.2919 -0.3948 -0.0820
13010TIP3    H160445   0.753   6.057   5.138 -0.5667  1.6513 -2.6338
13010TIP3    H260446   0.876   6.124   5.195 -0.4175 -1.3939  1.0886
13011TIP3   OH260447   5.525   2.271   5.390 -0.1234  0.2113  0.6384
13011TIP3    H160448   5.592   2.291   5.325  0.3327  0.5471  1.2017
13011TIP3    H260449   5.496   2.182   5.368 -0.8567  0.7686 -0.7627
13012TIP3   OH260450   1.266   0.055  13.333  0.0795 -0.5130 -0.0461
13012TIP3    H160451   1.173   0.072  13.322  0.3064  0.8003 -0.1118
13012TIP3    H260452   1.305   0.142  13.347  1.1633 -1.1257  0.9232
13013TIP3   OH260453   2.156   5.369  17.149  0.5079 -1.1471  0.2981
13013TIP3    H160454   2.234   5.408  17.189  1.0885 -2.3734  0.3951
13013TIP3    H260455   2.133   5.297  17.207 -0.8549 -0.6614  0.3905
13014TIP3   OH260456   0.347   0.957   3.895  0.4515 -0.3347  0.0714
13014TIP3    H160457   0.413   0.999   3.840 -1.7400  0.4717 -2.1307
13014TIP3    H260458   0.310   1.028   3.947 -0.6984 -0.1447 -0.9432
13015TIP3   OH260459   5.680   5.497  10.749  0.3222  0.3147  0.0485
13015TIP3    H160460   5.775   5.506  10.756  0.5235 -1.0855 -0.5382
13015TIP3    H260461   5.667   5.446  10.669 -0.9822  1.3150 -0.4093
13016TIP3   OH260462   2.162   4.772  11.965  0.0906 -0.1928  0.4203
13016TIP3    H160463   2.164   4.700  12.029  2.4446 -1.3118 -0.7613
13016TIP3    H260464   2.166   4.728  11.880 -2.8971  1.2556 -0.5898
13017TIP3   OH260465   5.026   2.519  14.638  0.0424 -0.0414 -0.0210
13017TIP3    H160466   5.066   2.445  14.592 -0.4275  0.2937 -0.9836
13017TIP3    H260467   5.101   2.566  14.676  0.5493  0.2807 -1.3595
13018TIP3   OH260468   6.281   3.434   1.895 -0.1018  0.1239  0.1329
13018TIP3    H160469   6.230   3.497   1.946  0.9180  1.6443 -0.6652
13018TIP3    H260470   6.215   3.383   1.847 -0.9486  0.6467  0.7253
13019TIP3   OH260471   6.562   3.458   6.054  0.1518  0.0325  0.1531
13019TIP3    H160472   6.471   3.458   6.085  0.0750 -1.4686 -0.0230
13019TIP3    H260473   6.577   3.370   6.021  1.5686  0.3669 -0.1827
13020TIP3   OH260474   3.962   6.076  14.337 -0.2894  0.1292 -0.4324
13020TIP3    H160475   3.980   5.982  14.343 -1.5808 -0.1387 -0.4993
13020TIP3    H260476   3.879   6.088  14.383 -0.6406  1.0853 -1.2767
13021TIP3   OH260477   2.002   0.088   3.353 -0.4300 -0.0711 -0.0898
13021TIP3    H160478   1.994   0.155   3.285  1.5590  0.2026 -0.1190
13021TIP3    H260479   1.914   0.080   3.389 -0.6335  3.1044  0.4093
13022TIP3   OH260480   3.970   1.848   5.294  0.5649 -0.0746  1.0206
13022TIP3    H160481   3.935   1.933   5.268 -0.3190 -0.5503  0.6119
13022TIP3    H260482   4.055   1.843   5.252  0.3119  0.3141  0.4559
13023TIP3   OH260483   0.138   4.893  11.269  0.4223 -0.2313 -0.1183
13023TIP3    H160484   0.181   4.934  11.195 -0.0091  3.5050  1.4753
13023TIP3    H260485   0.101   4.812  11.233  0.8858  0.9730 -3.7683
13024TIP3   OH260486   5.831   5.596   4.151 -0.6161 -0.1911 -0.1144
13024TIP3    H160487   5.788   5.681   4.146 -0.3930 -0.1161 -0.7361
13024TIP3    H260488   5.875   5.586   4.067 -0.2474 -0.7106  0.1391
13025TIP3   OH260489   4.692   6.290  13.749 -0.3665 -0.2147  0.4114
13025TIP3    H160490   4.691   6.374  13.703 -0.4784 -1.9414 -3.0400
13025TIP3    H260491   4.600   6.266  13.759 -0.3096 -0.9284 -0.6800
13026TIP3   OH260492   6.655   3.638   5.836 -0.3903  0.2356 -0.0175
13026TIP3    H160493   6.750   3.647   5.838 -0.3173 -0.5475  0.4449
13026TIP3    H260494   6.636   3.567   5.897 -1.3707  1.0979  0.7174
13027TIP3   OH260495   4.495   2.959   0.429  0.0649 -0.2981 -0.0663
13027TIP3    H160496   4.412   2.937   0.386 -0.5916  0.5274  0.7354
13027TIP3    H260497   4.523   2.878   0.469  0.2955 -0.8964 -1.3884
13028TIP3   OH260498   0.968   5.058   3.177 -0.1359  0.0459  0.0000
13028TIP3    H160499   0.917   5.109   3.239  0.3986 -0.4831  0.8940
13028TIP3    H260500   1.059   5.082   3.195  0.0160  0.0823 -0.7591
13029TIP3   OH260501   5.248   2.063   5.192 -0.2507  0.4838  0.1865
13029TIP3    H160502   5.293   2.111   5.122  1.6066  0.5559  1.3393
13029TIP3    H260503   5.156   2.082   5.179  0.2021  2.0128 -1.1370
13030TIP3   OH260504   1.566   3.373  14.792 -0.2335  0.0510 -0.5699
13030TIP3    H160505   1.559   3.366  14.697  1.0347 -1.4373 -0.5838
13030TIP3    H260506   1.503   3.441  14.816  0.1565  1.1874 -2.5735
13031TIP3   OH260507   4.430   2.704   4.198 -0.5824 -0.3183  0.0371
13031TIP3    H160508   4.351   2.757   4.192 -1.1989 -1.1422  0.5646
13031TIP3    H260509   4.403   2.628   4.251  0.6448 -0.4471  0.5043
13032TIP3   OH260510   1.226   0.885   6.487 -0.0743 -0.1444  0.6196
13032TIP3    H160511   1.263   0.797   6.494 -0.1477 -0.1874  0.4717
13032TIP3    H260512   1.295   0.943   6.518  0.4707 -0.1464 -0.5594
13033TIP3   OH260513   6.723   4.527   2.507  0.8033 -0.4575  0.5943
13033TIP3    H160514   6.690   4.558   2.591  1.2262  1.1866  0.1944
13033TIP3    H260515   6.814   4.503   2.523  1.1324  0.6409  0.4588
13034TIP3   OH260516   1.638   5.635  11.493 -0.4961 -0.5249 -0.1143
13034TIP3    H160517   1.557   5.676  11.462 -0.8400  0.2773  1.7303
13034TIP3    H260518   1.699   5.708  11.504 -0.2320 -0.8455  0.5893
13035TIP3   OH260519   3.169   1.996  10.692 -0.6141  0.4869 -0.1651
13035TIP3    H160520   3.079   2.026  10.683 -1.1929 -0.8787  0.7471
13035TIP3    H260521   3.182   1.988  10.787  0.2665  0.0646 -0.3063
13036TIP3   OH260522   6.259   0.897  17.098  0.2464 -0.2297  0.0913
13036TIP3    H160523   6.240   0.849  17.178 -0.6354 -0.2447 -0.1180
13036TIP3    H260524   6.179   0.891  17.046  1.0223 -0.7845 -1.0805
13037TIP3   OH260525   4.298   3.792  13.380 -0.2688 -0.2169  0.1753
13037TIP3    H160526   4.364   3.802  13.311  1.5993  0.2694  1.9090
13037TIP3    H260527   4.215   3.784  13.334  1.0256 -1.2040 -2.1453
13038TIP3   OH260528   4.099   4.359  10.224 -0.2686  0.1868 -0.3143
13038TIP3    H160529   4.179   4.405  10.199 -0.7389  1.1249 -0.1656
13038TIP3    H260530   4.076   4.396  10.310 -1.2060  0.4095 -0.6477
13039TIP3   OH260531   0.758   5.693   3.228 -0.3821 -0.2486  0.6243
13039TIP3    H160532   0.735   5.622   3.169 -0.7530 -0.9762  1.6070
13039TIP3    H260533   0.704   5.679   3.306  0.6680  0.1906  1.4759
13040TIP3   OH260534   6.158   5.264   0.142 -0.0139  0.0843  0.7623
13040TIP3    H160535   6.190   5.351   0.118 -1.0882  0.6801  1.3881
13040TIP3    H260536   6.108   5.235   0.066 -0.8939  0.6668  1.1064
13041TIP3   OH260537   0.324   3.292   4.839 -0.2958  0.6488  0.1259
13041TIP3    H160538   0.273   3.291   4.758 -0.8756  0.8446  0.4787
13041TIP3    H260539   0.398   3.350   4.821  0.2756 -0.3109 -0.6693
13042TIP3   OH260540   2.706   4.416  12.101 -0.4268 -0.3642 -0.1489
13042TIP3    H160541   2.617   4.451  12.110 -0.6395 -0.9434  0.0340
13042TIP3    H260542   2.763   4.490  12.121 -0.8666 -0.4882  1.7521
13043TIP3   OH260543   4.564   0.593   6.155  0.3581  0.1281 -0.1611
13043TIP3    H160544   4.562   0.682   6.191 -0.3240 -0.1619  0.5445
13043TIP3    H260545   4.580   0.537   6.230  0.6893 -0.3547 -0.5913
13044TIP3   OH260546   6.455   4.489  12.610  0.0474  0.4660  0.2012
13044TIP3    H160547   6.525   4.453  12.664 -1.2126  0.0125  1.6224
13044TIP3    H260548   6.453   4.582  12.633  0.4994  0.5855 -0.2262
13045TIP3   OH260549   3.065   5.305  13.727  0.3609 -0.0913 -0.2328
13045TIP3    H160550   3.094   5.303  13.636 -0.5130 -2.5015 -0.5256
13045TIP3    H260551   3.135   5.260  13.775 -0.1272 -0.6652 -0.0454
13046TIP3   OH260552   1.850   4.103   0.055  0.4335 -0.1400  0.0109
13046TIP3    H160553   1.848   4.197   0.039  0.2744 -0.2244 -0.4711
13046TIP3    H260554   1.838   4.063  -0.031 -1.2198 -0.5962  0.4205
13047TIP3   OH260555   3.531   1.546   2.138 -0.2030 -0.7238  0.2868
13047TIP3    H160556   3.593   1.485   2.176  0.8741  1.3268  2.0820
13047TIP3    H260557   3.454   1.541   2.196 -1.2551 -2.2789 -1.1527
13048TIP3   OH260558   5.385   3.384   3.118  0.2760 -0.0751 -0.2457
13048TIP3    H160559   5.366   3.463   3.067 -1.3515 -0.9845 -1.1044
13048TIP3    H260560   5.357   3.405   3.207  2.7356  1.3668  0.3046
13049TIP3   OH260561   6.754   6.315   4.910 -0.8299  0.1807  0.2135
13049TIP3    H160562   6.715   6.229   4.923  3.1329 -2.0131 -0.6771
13049TIP3    H260563   6.787   6.340   4.996 -2.3667  1.1218  0.5672
13050TIP3   OH260564   0.539   4.578   3.402  0.3559  0.0501  0.3624
13050TIP3    H160565   0.531   4.505   3.341  0.9107 -1.2879  1.8035
13050TIP3    H260566   0.454   4.622   3.398  0.7769  0.7389 -2.1853
13051TIP3   OH260567   3.835   1.594  11.214  0.1213 -0.0447 -0.1694
13051TIP3    H160568   3.890   1.526  11.175 -0.6080 -0.8097  0.0999
13051TIP3    H260569   3.897   1.658  11.250  0.8554 -1.1865  0.6645
13052TIP3   OH260570   2.041   0.346   0.196  0.3298  0.1399  0.2916
13052TIP3    H160571   2.110   0.280   0.199  0.2669 -0.0377 -1.4392
13052TIP3    H260572   1.968   0.307   0.244  0.7992 -0.4106  0.5682
13053TIP3   OH260573   6.107   5.865  14.454 -0.7037  0.2939  0.0722
13053TIP3    H160574   6.071   5.851  14.542 -0.3325 -1.4664 -0.0115
13053TIP3    H260575   6.123   5.777  14.421  1.1512  0.9627 -0.9570
13054TIP3   OH260576   0.023   3.810   3.945 -0.1087  0.2157  0.1812
13054TIP3    H160577  -0.049   3.872   3.930 -0.3738 -0.3594 -1.0181
13054TIP3    H260578   0.100   3.854   3.910 -0.2703 -0.0514 -0.5294
13055TIP3   OH260579   4.908   0.339  13.517 -0.2707 -0.0399  0.6249
13055TIP3    H160580   4.916   0.301  13.429 -0.6488  0.5138  0.3430
13055TIP3    H260581   4.988   0.390  13.529  0.0058 -0.5087  0.8022
13056TIP3   OH260582   6.098   2.753  13.858 -0.3178  0.7747  0.1611
13056TIP3    H160583   6.051   2.777  13.938 -1.8379  3.7598 -1.4797
13056TIP3    H260584   6.160   2.824  13.843  1.3609 -0.7063 -0.3438
13057TIP3   OH260585   6.077   4.142   4.789 -0.2707 -0.4282  0.0267
13057TIP3    H160586   6.128   4.073   4.747 -0.8882 -1.0183  0.2473
13057TIP3    H260587   6.063   4.112   4.878 -0.0875  0.2310  0.2877
13058TIP3   OH260588   4.287   3.182  13.990  0.1490 -0.6499  0.5882
13058TIP3    H160589   4.235   3.168  14.070 -1.8825 -0.5077 -0.6228
13058TIP3    H260590   4.235   3.246  13.940  3.2943  2.3947  0.8264
13059TIP3   OH260591   5.678   2.820  11.866 -0.1479  0.4272  0.4056
13059TIP3    H160592   5.603   2.767  11.892  0.8519 -0.4189  1.6454
13059TIP3    H260593   5.752   2.782  11.913  0.9566  1.6418 -0.2948
13060TIP3   OH260594   3.876   0.614  16.655 -0.0969 -0.3304  0.0801
13060TIP3    H160595   3.927   0.628  16.575 -1.1000 -0.3625 -0.5838
13060TIP3    H260596   3.938   0.575  16.716  0.2717 -1.9155 -1.2420
13061TIP3   OH260597   1.095   4.450  15.536 -0.2934 -0.6163  0.2178
13061TIP3    H160598   1.003   4.432  15.555 -0.7818  1.2694 -0.1810
13061TIP3    H260599   1.132   4.477  15.620 -0.7960  1.1811 -0.0922
13062TIP3   OH260600   3.541   5.960   4.616 -0.4706  0.0997  0.3437
13062TIP3    H160601   3.515   5.925   4.701 -3.3141  0.5530 -0.2430
13062TIP3    H260602   3.493   5.906   4.553 -1.9695  2.5100 -0.7286
13063TIP3   OH260603   6.415   1.203  16.078  0.1084  0.0842 -0.0954
13063TIP3    H160604   6.504   1.220  16.110 -0.2859  0.4194  0.8669
13063TIP3    H260605   6.411   1.107  16.069  0.7831  0.1143 -0.8425
13064TIP3   OH260606   6.381   5.845   2.079  0.4967  0.0039  0.2726
13064TIP3    H160607   6.345   5.774   2.025  0.0737  0.5104 -0.1246
13064TIP3    H260608   6.420   5.800   2.154 -0.5920 -0.5953  0.5014
13065TIP3   OH260609   2.362   1.997  11.618 -0.2139  0.1895  0.6048
13065TIP3    H160610   2.360   2.088  11.649 -0.4081  0.4199 -0.0517
13065TIP3    H260611   2.454   1.970  11.627  0.7410  1.7870 -2.8475
13066TIP3   OH260612   2.212   2.942  12.072 -0.4820 -0.2514  0.3214
13066TIP3    H160613   2.254   3.016  12.030 -0.1061 -0.2745  0.6448
13066TIP3    H260614   2.119   2.965  12.075 -0.4730 -0.1229 -0.2410
13067TIP3   OH260615   0.353   2.889  14.251  0.1201  0.1552  0.2335
13067TIP3    H160616   0.288   2.858  14.188  0.7194  0.4981 -0.5764
13067TIP3    H260617   0.363   2.982  14.232  1.0130  0.0611  0.1781
13068TIP3   OH260618   0.803   3.219   4.139 -0.1849  0.3790  0.5159
13068TIP3    H160619   0.868   3.259   4.081 -1.0724  2.6664  0.9804
13068TIP3    H260620   0.818   3.125   4.131  2.9945  0.7926  0.4153
13069TIP3   OH260621   2.620   3.098   0.123  0.5496  0.1290 -0.4370
13069TIP3    H160622   2.684   3.128   0.059  1.3043 -1.3071 -0.4003
13069TIP3    H260623   2.617   3.003   0.111  0.3090 -0.1139  1.2843
13070TIP3   OH260624   2.635   3.578  15.854  0.0668 -0.3592  0.3330
13070TIP3    H160625   2.592   3.645  15.801 -1.4794 -0.9947  0.7207
13070TIP3    H260626   2.696   3.627  15.909 -1.1304  0.7595  0.7159
13071TIP3   OH260627   6.226   3.437   4.767 -0.5571  0.4063 -0.2752
13071TIP3    H160628   6.133   3.459   4.763 -0.3381  1.2049 -2.5212
13071TIP3    H260629   6.257   3.448   4.677  1.5948 -0.4206  0.2977
13072TIP3   OH260630   0.892   4.864   5.263  0.6067 -0.0911 -0.3200
13072TIP3    H160631   0.903   4.791   5.202 -0.2959  0.2425 -0.9096
13072TIP3    H260632   0.798   4.866   5.282  0.8951 -0.3007  1.2497
13073TIP3   OH260633   1.141   2.477  14.020 -0.2505  0.8161 -0.3568
13073TIP3    H160634   1.106   2.390  14.040 -0.2182  0.5361 -1.4771
13073TIP3    H260635   1.134   2.525  14.103  1.6537 -0.8781  0.8917
13074TIP3   OH260636   5.521   0.396  10.768 -0.3378  0.8869 -0.3539
13074TIP3    H160637   5.465   0.414  10.692  0.8471  2.1077 -0.9689
13074TIP3    H260638   5.464   0.412  10.843 -1.2213  0.7276 -0.9739
13075TIP3   OH260639   6.467   2.271   5.695 -0.2083  0.3997 -0.0199
13075TIP3    H160640   6.501   2.184   5.712 -0.8668 -0.6233 -3.1266
13075TIP3    H260641   6.397   2.283   5.759 -0.4760 -1.6270  0.1381
13076TIP3   OH260642   4.345   0.215  16.259  0.0540 -0.0284  0.6822
13076TIP3    H160643   4.256   0.249  16.255 -0.5425 -1.6357 -0.6473
13076TIP3    H260644   4.369   0.221  16.352 -1.2513  0.8131  0.9900
13077TIP3   OH260645   5.682   4.831   0.363 -0.2087  0.3730 -0.1595
13077TIP3    H160646   5.693   4.808   0.456  0.5884 -0.8931 -0.5347
13077TIP3    H260647   5.741   4.771   0.317 -1.3185  0.3127 -1.5633
13078TIP3   OH260648   5.086   1.225  10.598  0.2660  0.1810  0.4352
13078TIP3    H160649   5.177   1.221  10.630  1.7099  0.0074 -3.2531
13078TIP3    H260650   5.055   1.135  10.606  1.8785 -0.6580 -1.8025
13079TIP3   OH260651   1.118   6.004   0.524  0.0898  0.8273  0.6127
13079TIP3    H160652   1.072   6.065   0.582  0.5174  0.1309  1.7249
13079TIP3    H260653   1.062   5.926   0.522  0.1564  0.7877  0.2182
13080TIP3   OH260654   4.612   5.279  15.567  0.0992 -0.0723 -0.0159
13080TIP3    H160655   4.560   5.219  15.620 -0.4250  0.8653  0.5541
13080TIP3    H260656   4.674   5.318  15.627  1.1729 -0.8210 -0.6022
13081TIP3   OH260657   2.517   4.878   5.375 -0.0074  0.5872 -0.1051
13081TIP3    H160658   2.525   4.836   5.460  2.3070 -1.9710 -1.4543
13081TIP3    H260659   2.432   4.849   5.342 -0.4604  0.7672  0.8744
13082TIP3   OH260660   0.786   1.508   2.446 -0.6980 -0.5910 -0.3930
13082TIP3    H160661   0.711   1.530   2.391 -0.0868  0.6517 -0.7522
13082TIP3    H260662   0.749   1.501   2.535 -1.0532  1.3228 -0.3439
13083TIP3   OH260663   6.139   3.311   0.533  0.7086  0.0268 -0.7186
13083TIP3    H160664   6.227   3.335   0.562  0.8869  0.2998 -1.4612
13083TIP3    H260665   6.095   3.395   0.518 -0.0365 -0.0907  0.6672
13084TIP3   OH260666   3.854   2.075  10.566 -0.2114  0.7076 -0.0205
13084TIP3    H160667   3.780   2.020  10.594 -0.2972  1.1766  0.7148
13084TIP3    H260668   3.931   2.027  10.596 -0.3250  1.7796  2.2707
13085TIP3   OH260669   1.128   4.500   3.212  0.1673 -1.1582  0.5035
13085TIP3    H160670   1.147   4.407   3.210 -0.5704 -1.3040 -0.6151
13085TIP3    H260671   1.104   4.522   3.122 -0.2273 -0.0158  0.8669
13086TIP3   OH260672   4.751   0.907  15.950  0.2224  0.0447 -0.2124
13086TIP3    H160673   4.689   0.979  15.963  0.7941  0.6615 -0.9007
13086TIP3    H260674   4.729   0.871  15.864 -0.3211 -0.8821  0.2878
13087TIP3   OH260675   3.255   4.172   2.819  0.2052 -0.3745  0.2616
13087TIP3    H160676   3.298   4.214   2.894  1.3003 -2.0023  0.6086
13087TIP3    H260677   3.301   4.089   2.809 -2.0251 -1.6413 -0.2035
13088TIP3   OH260678   6.297   4.013   5.934 -0.1897  0.3974  0.1395
13088TIP3    H160679   6.354   3.961   5.877 -1.3330 -2.2307  1.2403
13088TIP3    H260680   6.353   4.035   6.009  1.1311  3.3338 -1.5508
13089TIP3   OH260681   3.126   6.233  10.481  0.3236 -0.1148  0.3665
13089TIP3    H160682   3.176   6.314  10.479 -1.4186  1.0120 -0.4056
13089TIP3    H260683   3.037   6.260  10.506  0.1543 -2.0843  2.1856
13090TIP3   OH260684   1.020   5.736  15.850 -0.0345 -0.0469  0.0421
13090TIP3    H160685   0.979   5.649  15.849 -1.5423  0.6324 -0.2751
13090TIP3    H260686   1.059   5.744  15.763  0.2352 -0.4553  0.1207
13091TIP3   OH260687   5.284   1.499  10.397  0.3203  0.4377  0.2007
13091TIP3    H160688   5.268   1.590  10.421  0.0072  0.2685  0.6597
13091TIP3    H260689   5.379   1.490  10.397  0.3426  0.6319  0.6841
13092TIP3   OH260690   5.683   4.873   2.496  0.3149 -0.1799  0.1096
13092TIP3    H160691   5.737   4.809   2.542 -0.8063 -0.4387  1.1300
13092TIP3    H260692   5.603   4.879   2.549  0.5432  2.3721  0.2742
13093TIP3   OH260693   0.424   0.837   4.226  0.0212  0.1306 -0.0017
13093TIP3    H160694   0.336   0.872   4.224  0.0533  0.1773 -0.6805
13093TIP3    H260695   0.427   0.774   4.154  0.7086  0.5355 -0.3314
13094TIP3   OH260696   1.739   2.657  11.778  0.5797  0.2515  0.1773
13094TIP3    H160697   1.665   2.690  11.830  0.5111 -0.0431  0.2680
13094TIP3    H260698   1.815   2.665  11.837  0.2854 -1.3156  0.8113
13095TIP3   OH260699   3.586   5.790   6.058  0.3024  0.4654 -0.1456
13095TIP3    H160700   3.567   5.714   6.003 -1.5961  1.9929 -1.7508
13095TIP3    H260701   3.574   5.758   6.147  1.3635 -1.5603 -0.6720
13096TIP3   OH260702   5.945   2.445   2.944  0.3329 -0.2522 -0.0301
13096TIP3    H160703   5.875   2.383   2.966 -0.6249  0.0362 -2.0337
13096TIP3    H260704   5.976   2.416   2.858  3.1331 -0.7123  1.0451
13097TIP3   OH260705   3.112   3.551  13.677 -0.4900 -0.1750 -0.4174
13097TIP3    H160706   3.050   3.596  13.620 -0.2508 -1.7771 -2.0664
13097TIP3    H260707   3.183   3.524  13.618  1.2612  0.6156  1.1967
13098TIP3   OH260708   5.553   5.570   5.509  0.6822  0.7392 -0.4360
13098TIP3    H160709   5.489   5.586   5.578  0.6784 -1.7552  0.2491
13098TIP3    H260710   5.512   5.603   5.429 -1.9359 -1.4803 -0.1868
13099TIP3   OH260711   1.597   1.373  13.167  0.3719  0.1519 -0.0038
13099TIP3    H160712   1.681   1.387  13.213  0.2802 -1.0827  0.5814
13099TIP3    H260713   1.551   1.309  13.221 -0.3551 -0.2560 -1.0808
13100TIP3   OH260714   4.032   2.297  10.551  0.0160 -0.2767  0.1848
13100TIP3    H160715   4.112   2.254  10.582 -0.7332 -0.1980  2.4895
13100TIP3    H260716   3.963   2.232  10.564 -0.5415  0.2266 -0.1668
13101TIP3   OH260717   4.125   5.139  14.425  0.0569 -0.5502 -0.0703
13101TIP3    H160718   4.138   5.192  14.345  0.3742 -2.0217 -1.0289
13101TIP3    H260719   4.178   5.061  14.411 -0.1140 -0.9755  1.4795
13102TIP3   OH260720   0.715   6.763  15.545 -0.0398 -0.0163 -0.6063
13102TIP3    H160721   0.648   6.778  15.479 -0.0464  1.1990 -0.3361
13102TIP3    H260722   0.788   6.724  15.497 -0.3626  0.0633 -1.1666
13103TIP3   OH260723   2.400   1.737   2.638 -0.6778  0.4919 -0.0268
13103TIP3    H160724   2.361   1.825   2.635  0.1433  0.9771  1.9396
13103TIP3    H260725   2.482   1.749   2.684 -0.0898 -1.1907 -0.5641
13104TIP3   OH260726   2.420   4.259  15.374 -0.1634  0.1078 -0.2696
13104TIP3    H160727   2.398   4.344  15.335 -3.0928 -0.9216 -1.1175
13104TIP3    H260728   2.476   4.216  15.309  0.9265  1.1624 -0.0550
13105TIP3   OH260729   4.836   3.664   2.912 -0.1572 -0.1405  0.1330
13105TIP3    H160730   4.912   3.607   2.926  0.3146  0.4471  0.0106
13105TIP3    H260731   4.859   3.746   2.956 -0.6910  0.0749  0.0227
13106TIP3   OH260732   4.242   5.378   4.688 -0.2588  0.2369  0.1298
13106TIP3    H160733   4.337   5.380   4.692 -0.1535 -1.3086 -0.7389
13106TIP3    H260734   4.216   5.470   4.692  1.3569  0.8084 -1.3812
13107TIP3   OH260735   2.024   1.060   1.565 -0.0902  0.0847 -0.2115
13107TIP3    H160736   2.019   1.156   1.568 -0.6495  0.0251  1.1315
13107TIP3    H260737   2.052   1.034   1.653 -1.3219 -1.0609 -0.1311
13108TIP3   OH260738   0.671   4.359   2.331 -0.4473  0.1445  0.2185
13108TIP3    H160739   0.576   4.356   2.323 -0.6078  1.2827  1.4265
13108TIP3    H260740   0.695   4.269   2.356 -0.9796 -0.6124 -1.7991
13109TIP3   OH260741   0.633   6.267  14.706  0.0719 -0.0932  0.4716
13109TIP3    H160742   0.726   6.268  14.686  0.0670  0.2065  0.4594
13109TIP3    H260743   0.628   6.295  14.797 -0.0417  0.3962  0.3187
13110TIP3   OH260744   3.766   5.296   5.908 -0.3326  0.1930 -0.6183
13110TIP3    H160745   3.684   5.247   5.917 -0.8884  0.8311 -1.9074
13110TIP3    H260746   3.813   5.250   5.838 -0.2135  0.6472 -0.8361
13111TIP3   OH260747   2.662   6.034   4.179 -0.1680 -0.1641 -0.1826
13111TIP3    H160748   2.730   5.967   4.168  0.7302  0.1266  2.6878
13111TIP3    H260749   2.705   6.115   4.151  1.1115  0.1596  2.4023
13112TIP3   OH260750   6.583   0.648  11.115  0.0557  0.4861  0.2631
13112TIP3    H160751   6.505   0.700  11.095 -1.4317 -2.0079 -1.0538
13112TIP3    H260752   6.571   0.619  11.205 -0.3515  0.4623  0.2019
13113TIP3   OH260753   3.009   2.669  13.352 -0.0960 -0.4567  0.0890
13113TIP3    H160754   2.982   2.698  13.439  0.1385  1.2336 -0.3736
13113TIP3    H260755   2.934   2.619  13.320 -0.7051  0.0005  0.7555
13114TIP3   OH260756   0.317   4.756  13.635  0.0952  1.0045 -0.2232
13114TIP3    H160757   0.317   4.801  13.720  0.1326  1.2676 -0.3622
13114TIP3    H260758   0.225   4.750  13.611 -0.1519 -1.2804  0.9975
13115TIP3   OH260759   4.037   1.024  14.104 -0.3207 -0.3170 -0.2903
13115TIP3    H160760   4.000   1.071  14.178 -0.5363 -1.3169  0.2494
13115TIP3    H260761   3.964   1.011  14.044  0.2630  2.3886 -1.7512
13116TIP3   OH260762   1.475   5.441   0.378  0.1303 -0.1602 -0.2722
13116TIP3    H160763   1.484   5.418   0.286  1.3668 -0.0247 -0.2053
13116TIP3    H260764   1.518   5.370   0.425  0.0705  0.0899  0.1693
13117TIP3   OH260765   4.204   4.097   2.853  0.1098 -0.0253 -0.9189
13117TIP3    H160766   4.196   4.081   2.758 -0.8188  3.2150 -1.5213
13117TIP3    H260767   4.138   4.164   2.871 -0.7802 -1.6096  2.3881
13118TIP3   OH260768   5.398   0.747  12.344  0.0735  0.2754  0.2458
13118TIP3    H160769   5.435   0.830  12.317  1.5478 -0.2980  0.4084
13118TIP3    H260770   5.467   0.705  12.396 -0.8026 -0.8429  0.5670
13119TIP3   OH260771   6.062   4.266  11.036  0.1749  0.3207 -0.0096
13119TIP3    H160772   6.088   4.327  10.967 -0.0223  1.2441  0.7128
13119TIP3    H260773   6.144   4.224  11.063  0.0952 -0.9343 -1.6028
13120TIP3   OH260774   2.531   2.281   3.717  0.0094 -0.0208  0.3133
13120TIP3    H160775   2.600   2.232   3.673 -0.3569  0.3289 -0.6768
13120TIP3    H260776   2.452   2.263   3.665 -0.7696 -0.8015  1.6889
13121TIP3   OH260777   5.041   5.636   4.823 -0.1591  0.4948  0.1535
13121TIP3    H160778   5.051   5.545   4.794  0.2719  0.5855  0.0068
13121TIP3    H260779   5.002   5.680   4.748 -1.7569  0.1288  0.7486
13122TIP3   OH260780   0.539   5.276  15.328  0.6280  0.3255  0.1290
13122TIP3    H160781   0.539   5.230  15.412  0.6393 -0.8551 -0.4963
13122TIP3    H260782   0.451   5.313  15.321  0.6931  0.6145  0.7409
13123TIP3   OH260783   6.646   0.152   6.141  0.3809 -0.0361  0.0356
13123TIP3    H160784   6.706   0.087   6.104  0.3435  1.2639 -2.5261
13123TIP3    H260785   6.694   0.234   6.137 -1.3710  0.9964 -1.8457
13124TIP3   OH260786   3.102   6.094   4.185  0.3949  0.1009  0.5299
13124TIP3    H160787   3.191   6.067   4.164  0.0608 -0.9223  0.3233
13124TIP3    H260788   3.079   6.157   4.117  0.2708 -1.1510 -0.6327
13125TIP3   OH260789   4.827   3.249   1.181 -0.3183  0.6683 -0.0013
13125TIP3    H160790   4.817   3.156   1.202 -0.9297  0.8040  0.3334
13125TIP3    H260791   4.908   3.254   1.130 -0.7933 -0.1761 -0.8449
13126TIP3   OH260792   5.322   0.606   5.019  0.2883 -0.2260  0.0089
13126TIP3    H160793   5.325   0.641   5.108 -1.2205 -0.7652  0.2934
13126TIP3    H260794   5.274   0.523   5.028  0.3806 -0.4244 -1.2640
13127TIP3   OH260795   1.444   5.728  16.316 -0.0357  0.1068  0.0472
13127TIP3    H160796   1.435   5.750  16.409 -0.8842  1.7133 -0.3801
13127TIP3    H260797   1.426   5.634  16.312 -1.3849  0.2704  1.3350
13128TIP3   OH260798   6.811   6.300  10.973 -0.1615 -0.1110 -0.1528
13128TIP3    H160799   6.826   6.392  10.950 -0.5522 -0.0717 -0.2497
13128TIP3    H260800   6.895   6.270  11.007 -0.2892  0.5555  0.7937
13129TIP3   OH260801   2.141   3.392  16.174  0.9669  0.2537  0.3784
13129TIP3    H160802   2.166   3.300  16.172  2.1353  0.5378  0.8665
13129TIP3    H260803   2.209   3.436  16.123  0.2690  0.8206 -0.0803
13130TIP3   OH260804   3.486   1.850   6.404  0.2893 -0.5861  0.0271
13130TIP3    H160805   3.549   1.897   6.349 -0.3952 -2.4009 -2.4750
13130TIP3    H260806   3.407   1.843   6.350 -1.8693  0.8260  2.7105
13131TIP3   OH260807   4.601   4.534  14.372  0.0616  0.0280  0.1647
13131TIP3    H160808   4.535   4.465  14.363  0.5219 -0.2243 -1.8193
13131TIP3    H260809   4.631   4.527  14.462 -1.4359 -0.9360  0.6304
13132TIP3   OH260810   3.855   3.903  15.696  0.1408  0.4831  0.1992
13132TIP3    H160811   3.911   3.965  15.649  1.5584 -0.6418  0.3309
13132TIP3    H260812   3.794   3.870  15.629 -1.7797  3.1363  0.4489
13133TIP3   OH260813   3.569   5.885   2.668 -0.1915  0.1869  0.5084
13133TIP3    H160814   3.555   5.791   2.662  0.5334  0.1758 -1.4717
13133TIP3    H260815   3.483   5.923   2.649 -0.1788 -0.0701 -0.0880
13134TIP3   OH260816   0.800   2.862   0.300  0.3386 -0.1800  0.1607
13134TIP3    H160817   0.826   2.876   0.208  0.7466  0.2960  0.3444
13134TIP3    H260818   0.823   2.771   0.317  0.6609 -0.1479 -0.0849
13135TIP3   OH260819   5.730   2.969   5.017 -0.0642  0.6745 -0.1132
13135TIP3    H160820   5.702   2.992   5.106  0.9546 -0.4961  0.5262
13135TIP3    H260821   5.816   2.929   5.028 -0.4394 -0.6026 -1.4949
13136TIP3   OH260822   4.099   2.442   3.502 -0.3343 -0.0631  0.6748
13136TIP3    H160823   4.184   2.484   3.506  0.1138 -1.0190  1.7293
13136TIP3    H260824   4.103   2.388   3.423 -0.8208  1.5829 -0.5406
13137TIP3   OH260825   3.933   5.649  16.670  0.6548  0.3319 -0.3064
13137TIP3    H160826   3.888   5.586  16.614  1.9897  0.8306 -2.0150
13137TIP3    H260827   3.867   5.716  16.690 -0.9537 -1.7480  1.9777
13138TIP3   OH260828   0.301   5.543  12.094 -0.1822  0.6669 -0.3719
13138TIP3    H160829   0.316   5.599  12.018 -1.9442 -1.0857 -2.1323
13138TIP3    H260830   0.207   5.549  12.111 -0.3407 -1.3280 -0.3067
13139TIP3   OH260831   6.337   4.933  13.822 -0.0458  0.1974  0.6720
13139TIP3    H160832   6.388   4.996  13.873  1.5228 -1.2703  0.9988
13139TIP3    H260833   6.342   4.965  13.732  0.6570  0.5818  0.8440
13140TIP3   OH260834   0.227   3.343   2.462 -0.2097  0.9809  0.1690
13140TIP3    H160835   0.302   3.335   2.520 -1.1970  1.0540  1.5094
13140TIP3    H260836   0.174   3.265   2.480 -1.0055  1.4876  0.0929
13141TIP3   OH260837   0.866   0.040   2.273 -0.1813 -0.2503 -0.4256
13141TIP3    H160838   0.811   0.110   2.238 -1.2446 -0.3854  0.8915
13141TIP3    H260839   0.883  -0.018   2.198  2.0085  2.1434 -1.9265
13142TIP3   OH260840   0.969   0.014   0.135  0.2421  0.0602 -0.5605
13142TIP3    H160841   0.925   0.045   0.214 -0.1807  0.9657 -1.1363
13142TIP3    H260842   1.046  -0.034   0.167  0.2028  0.6217  0.3839
13143TIP3   OH260843   1.167   0.262   2.478  0.7029  0.3372  0.3830
13143TIP3    H160844   1.155   0.201   2.551  1.1381 -1.1323 -0.7273
13143TIP3    H260845   1.085   0.311   2.474  1.0359  1.1786  2.4672
13144TIP3   OH260846   5.618   2.714  15.688 -0.1121  0.0118 -0.3294
13144TIP3    H160847   5.604   2.620  15.674 -0.2457 -0.1110  0.5377
13144TIP3    H260848   5.643   2.748  15.603  1.3101 -1.0688 -0.3794
13145TIP3   OH260849   5.560   0.570  12.746  0.0994 -0.2199 -0.6432
13145TIP3    H160850   5.650   0.596  12.765 -0.1477  0.1373  0.0553
13145TIP3    H260851   5.560   0.551  12.652  0.6872  0.6804 -0.8350
13146TIP3   OH260852   2.330   3.133   5.005  0.0984 -0.1646 -0.0457
13146TIP3    H160853   2.409   3.090   5.036  0.6922 -0.2803 -1.6103
13146TIP3    H260854   2.282   3.063   4.959 -0.9747 -0.1242  0.9787
13147TIP3   OH260855   1.480   1.731  15.566 -0.3154  0.1131 -0.2505
13147TIP3    H160856   1.501   1.821  15.544 -0.3688  0.3337  0.5699
13147TIP3    H260857   1.566   1.688  15.574 -0.3068 -0.1113 -1.4179
13148TIP3   OH260858   1.293   4.416  11.522  0.3282 -0.3164  0.2066
13148TIP3    H160859   1.299   4.500  11.568 -0.7614  2.5066 -4.2457
13148TIP3    H260860   1.200   4.397  11.519  0.3235 -0.1182 -1.2623
13149TIP3   OH260861   6.096   1.851  15.271 -0.0990  0.4944 -0.3227
13149TIP3    H160862   6.153   1.786  15.230 -1.5039 -1.9169  1.3219
13149TIP3    H260863   6.008   1.817  15.260 -0.7900  1.5152  1.6396
13150TIP3   OH260864   1.580   2.748  16.714 -0.9868 -0.2100 -0.4611
13150TIP3    H160865   1.537   2.666  16.739 -1.7519  0.7797  1.7618
13150TIP3    H260866   1.649   2.722  16.653  0.5533 -2.8609  2.1892
13151TIP3   OH260867   1.572   1.805   5.536  0.8367  0.4180 -0.2331
13151TIP3    H160868   1.524   1.805   5.453  0.2324  1.6063  0.0809
13151TIP3    H260869   1.644   1.867   5.522 -0.3889  2.1554  0.6775
13152TIP3   OH260870   1.131   1.672   0.415 -0.5072 -0.5155  0.6271
13152TIP3    H160871   1.225   1.653   0.419 -0.2878  0.3531 -0.0630
13152TIP3    H260872   1.113   1.721   0.495 -0.2495 -0.1668  0.4717
13153TIP3   OH260873   4.173   0.345  15.836  0.3536 -0.0219 -0.0424
13153TIP3    H160874   4.125   0.273  15.875 -0.7555  0.6459 -0.1239
13153TIP3    H260875   4.258   0.345  15.880 -0.0397 -0.6937  0.7286
13154TIP3   OH260876   6.642   4.675  16.822  0.2880 -0.1102 -0.1723
13154TIP3    H160877   6.730   4.712  16.830  0.1133  0.0723  1.1200
13154TIP3    H260878   6.600   4.726  16.753  1.1142 -0.0581 -0.6548
13155TIP3   OH260879   5.553   2.566  11.235 -0.3309  0.1747  0.1910
13155TIP3    H160880   5.565   2.525  11.149  0.1723  1.5163 -0.3998
13155TIP3    H260881   5.622   2.632  11.241 -1.7277  1.6733  0.6603
13156TIP3   OH260882   1.122   2.271   1.687  0.1518 -0.1259  0.1652
13156TIP3    H160883   1.135   2.219   1.766 -0.6390  0.8757  0.9760
13156TIP3    H260884   1.061   2.219   1.635  0.8632 -0.9064  0.0756
13157TIP3   OH260885   0.174   6.601   2.920 -0.6656  0.1284  0.1885
13157TIP3    H160886   0.135   6.654   2.851  0.8810  1.0732 -0.0107
13157TIP3    H260887   0.204   6.521   2.875  0.4432  0.7910 -0.2905
13158TIP3   OH260888   2.587   3.418   3.489 -0.5313 -0.0753 -0.1379
13158TIP3    H160889   2.663   3.437   3.543 -0.6869  0.3625 -0.0645
13158TIP3    H260890   2.612   3.448   3.401 -0.5219 -0.1710 -0.1676
13159TIP3   OH260891   2.119   0.321  12.418 -0.3823  0.0628 -0.2596
13159TIP3    H160892   2.157   0.235  12.400 -0.3284  0.2118 -0.8706
13159TIP3    H260893   2.188   0.383  12.395 -0.1230  0.2541  0.9478
13160TIP3   OH260894   4.761   3.622   6.277 -0.4124  0.2262 -0.5745
13160TIP3    H160895   4.856   3.620   6.269 -0.3865 -0.9331 -0.0817
13160TIP3    H260896   4.738   3.538   6.316 -1.5411  0.9693  0.4430
13161TIP3   OH260897   2.908   5.924   4.115  0.1786  0.0348  0.2599
13161TIP3    H160898   2.980   5.976   4.150 -0.6244  2.3111 -1.2252
13161TIP3    H260899   2.932   5.909   4.023 -1.8819  2.3185 -0.7680
13162TIP3   OH260900   5.002   1.401  12.799  0.0282 -0.1337  0.2782
13162TIP3    H160901   4.967   1.463  12.863  2.3912  0.8110  0.7736
13162TIP3    H260902   4.974   1.315  12.831 -4.3330  0.5314 -1.0479
13163TIP3   OH260903   5.284   0.568   1.938  0.3670  0.1140  0.2664
13163TIP3    H160904   5.329   0.507   1.879 -2.3617 -0.1457 -1.7631
13163TIP3    H260905   5.322   0.653   1.919  0.6261 -0.2169 -0.7666
13164TIP3   OH260906   4.493   5.294   2.052 -0.3269  0.4935 -0.5613
13164TIP3    H160907   4.471   5.336   1.969  0.8207  0.6223 -0.8123
13164TIP3    H260908   4.574   5.246   2.034  1.0552  2.1168  0.9852
13165TIP3   OH260909   5.767   2.267   5.915 -0.5704 -0.0563  0.4062
13165TIP3    H160910   5.745   2.175   5.898 -0.6303 -0.0878  0.6540
13165TIP3    H260911   5.715   2.316   5.851  0.3157 -0.2531 -0.4993
13166TIP3   OH260912   0.070   0.612  14.395  0.0110 -0.5298  0.4128
13166TIP3    H160913  -0.002   0.672  14.375  1.1759  0.2618 -1.7263
13166TIP3    H260914   0.076   0.612  14.490 -0.3550  2.4120  0.5195
13167TIP3   OH260915   5.494   4.558  14.945  0.1244  0.5350  0.4640
13167TIP3    H160916   5.526   4.498  14.877 -2.0828  0.6849 -0.7855
13167TIP3    H260917   5.524   4.644  14.916  1.5231  0.3194  1.1728
13168TIP3   OH260918   5.367   1.086   2.581  0.0829 -0.1889 -0.3604
13168TIP3    H160919   5.318   1.146   2.638  0.3130 -0.1630 -0.1897
13168TIP3    H260920   5.365   1.128   2.495 -1.6015 -0.9693 -0.7424
13169TIP3   OH260921   0.420   1.870  17.025 -0.3003  0.3713  0.1350
13169TIP3    H160922   0.500   1.924  17.020  0.3841 -0.6080  0.1898
13169TIP3    H260923   0.443   1.789  16.979 -1.7665  0.6361 -1.1419
13170TIP3   OH260924   1.616   2.538  13.049  0.8997  0.0826 -0.0373
13170TIP3    H160925   1.607   2.624  13.090  1.3820 -0.0489  0.3448
13170TIP3    H260926   1.692   2.498  13.091  0.5241 -0.6391 -0.0310
13171TIP3   OH260927   3.075   6.094   2.577  0.2441  0.4896  0.0280
13171TIP3    H160928   3.045   6.040   2.650 -0.9561  0.0547 -0.7442
13171TIP3    H260929   3.089   6.181   2.615 -0.8569  0.3998  0.6955
13172TIP3   OH260930   5.977   3.516   1.729 -0.9052 -0.2655  0.0255
13172TIP3    H160931   6.067   3.546   1.717 -0.5529 -1.5379 -0.6943
13172TIP3    H260932   5.984   3.439   1.785 -1.2966 -1.6042 -1.6845
13173TIP3   OH260933   1.745   3.120  12.237 -0.8096  0.3377  0.1139
13173TIP3    H160934   1.772   3.029  12.247  0.3529  0.4986 -1.2740
13173TIP3    H260935   1.815   3.171  12.277 -0.7086  0.6638 -0.4665
13174TIP3   OH260936   1.455   0.585  11.867 -0.2826  0.4266  0.3335
13174TIP3    H160937   1.427   0.526  11.937  1.7201 -0.2428  0.6501
13174TIP3    H260938   1.490   0.661  11.913  1.7775 -0.3499  0.1874
13175TIP3   OH260939   3.268   5.872  16.144 -0.2336  0.0257  0.4875
13175TIP3    H160940   3.271   5.962  16.112 -0.3842 -0.3275 -0.5499
13175TIP3    H260941   3.245   5.881  16.236  0.2525  1.0720  0.5325
13176TIP3   OH260942   6.179   6.719   2.629 -0.6522  0.2248 -0.0432
13176TIP3    H160943   6.191   6.810   2.602 -0.7497  0.2375 -0.0431
13176TIP3    H260944   6.267   6.691   2.656 -0.8378  0.6868  1.1027
13177TIP3   OH260945   6.072   5.516  14.017  0.0297  0.2538  0.1742
13177TIP3    H160946   6.071   5.598  13.967 -0.7897 -0.6487 -1.3801
13177TIP3    H260947   6.016   5.533  14.093  1.5405  1.7557  1.0093
13178TIP3   OH260948   0.109   1.748   0.141  0.0740 -0.7159 -0.2384
13178TIP3    H160949   0.127   1.825   0.088  0.5970  0.6797  1.8427
13178TIP3    H260950   0.034   1.772   0.194 -0.0650 -1.8402  0.1021
13179TIP3   OH260951   5.035   4.823  17.123 -0.0189 -0.4057 -0.3006
13179TIP3    H160952   5.073   4.737  17.141 -1.0441 -0.7169  0.5454
13179TIP3    H260953   5.076   4.881  17.187 -0.4471 -0.6051  0.1686
13180TIP3   OH260954   6.690   1.532  12.575  0.2671 -0.0738 -0.0132
13180TIP3    H160955   6.680   1.437  12.583 -1.2186  0.0132 -0.5772
13180TIP3    H260956   6.643   1.554  12.494  0.2866  1.1843  0.3022
13181TIP3   OH260957   0.534   5.405  11.579  0.1924 -0.4565 -0.6597
13181TIP3    H160958   0.568   5.484  11.538 -0.7201  0.8477  0.9333
13181TIP3    H260959   0.609   5.367  11.625  0.8062 -0.9654 -2.0314
13182TIP3   OH260960   1.297   6.247  15.283 -0.3052  0.3528 -0.1607
13182TIP3    H160961   1.303   6.164  15.331  0.4146  0.8500  0.6363
13182TIP3    H260962   1.360   6.237  15.212  0.6736  0.6519  0.6388
13183TIP3   OH260963   1.156   3.278   2.853 -0.3396  0.1319 -0.6307
13183TIP3    H160964   1.195   3.334   2.920 -0.1676 -0.6298 -0.0881
13183TIP3    H260965   1.222   3.274   2.784 -1.0746  2.0898 -1.5450
13184TIP3   OH260966   2.045   6.788   2.006 -0.1025  0.7239  0.1261
13184TIP3    H160967   2.124   6.754   1.965  0.1618  0.2801  0.9816
13184TIP3    H260968   2.076   6.855   2.067 -0.3722  0.4232  0.5953
13185TIP3   OH260969   5.276   3.628   3.025 -0.2246  0.9936  0.0290
13185TIP3    H160970   5.288   3.617   2.931  1.9616 -3.5208  0.5676
13185TIP3    H260971   5.188   3.594   3.043  0.0769  0.0624 -0.2194
13186TIP3   OH260972   6.730   4.013   1.848 -0.3988 -0.6498  0.0712
13186TIP3    H160973   6.742   4.100   1.811 -0.0383 -0.1440  1.3519
13186TIP3    H260974   6.638   3.992   1.833 -0.9424  0.7124  1.3536
13187TIP3   OH260975   3.913   3.681  12.790 -0.0459 -0.1160  0.8023
13187TIP3    H160976   3.980   3.613  12.794 -0.2150 -0.2853  0.7722
13187TIP3    H260977   3.849   3.656  12.857 -0.9951 -0.9493 -0.3682
13188TIP3   OH260978   6.791   3.123  16.773 -1.0051  0.3262 -0.2258
13188TIP3    H160979   6.732   3.061  16.816  0.6144 -0.7128  0.6103
13188TIP3    H260980   6.875   3.078  16.771 -0.0577  2.0324 -0.7393
13189TIP3   OH260981   2.951   3.091   3.160  0.7701  0.2928  0.7467
13189TIP3    H160982   3.011   3.017   3.148  0.0246 -0.2627  0.3855
13189TIP3    H260983   2.883   3.077   3.094  0.4039  1.0807  0.9535
13190TIP3   OH260984   0.100   2.212  11.002 -0.0402  0.3280  0.1805
13190TIP3    H160985   0.164   2.144  10.979 -0.0466 -0.7270  2.9201
13190TIP3    H260986   0.151   2.277  11.050 -0.7458  0.1660  1.1752
13191TIP3   OH260987   1.264   1.275  12.340 -0.0996 -0.6349  0.3953
13191TIP3    H160988   1.198   1.305  12.402  0.2736 -1.0758  1.0079
13191TIP3    H260989   1.312   1.354  12.315 -0.8453 -0.3111 -0.0530
13192TIP3   OH260990   0.264   1.054  14.009 -0.0145  0.0798 -0.4355
13192TIP3    H160991   0.211   0.975  14.000  0.1600  0.0612 -1.4383
13192TIP3    H260992   0.203   1.126  13.999 -0.5186  0.1503  2.3877
13193TIP3   OH260993   4.059   2.862  15.395 -0.0617 -0.2926 -0.0951
13193TIP3    H160994   4.060   2.941  15.341 -2.3005  0.0234  0.2175
13193TIP3    H260995   4.001   2.802  15.349  0.6679 -1.3285  0.2921
13194TIP3   OH260996   3.511   4.070  11.120 -0.5683 -0.6621 -0.5441
13194TIP3    H160997   3.492   4.042  11.030  1.5386 -0.3443 -1.1380
13194TIP3    H260998   3.448   4.140  11.137 -1.8486 -1.5914 -1.2820
13195TIP3   OH260999   1.342   0.717   5.231 -0.1387 -0.5292 -0.7635
13195TIP3    H161000   1.382   0.646   5.281 -0.1242 -1.9620 -2.6894
13195TIP3    H261001   1.404   0.790   5.239 -1.0348  0.0486  2.8123
13196TIP3   OH261002   5.939   3.671   5.881  0.1058  0.4919  0.8394
13196TIP3    H161003   6.017   3.619   5.860 -0.8718 -0.8106  0.2687
13196TIP3    H261004   5.972   3.760   5.891  1.4999  0.1978 -0.6302
13197TIP3   OH261005   1.471   6.509  16.913 -0.2598 -0.1148  0.1952
13197TIP3    H161006   1.510   6.424  16.936 -0.3519 -0.2803 -0.2449
13197TIP3    H261007   1.487   6.564  16.989 -0.9355 -0.7755  0.8327
13198TIP3   OH261008   1.792   6.480  15.480  0.2087 -0.1657  0.3446
13198TIP3    H161009   1.720   6.543  15.472 -0.5762 -1.0855 -0.1252
13198TIP3    H261010   1.799   6.463  15.574 -1.0880 -1.0471  0.3080
13199TIP3   OH261011   1.102   5.335   3.438  0.4176  0.1616 -0.9031
13199TIP3    H161012   1.007   5.347   3.442  0.2651 -1.0901  1.6330
13199TIP3    H261013   1.136   5.398   3.501  0.9975 -1.0887  0.0769
13200TIP3   OH261014   1.622   2.932   2.440 -0.0809  0.8580 -0.3029
13200TIP3    H161015   1.657   2.914   2.527  0.1938  0.6673 -0.4539
13200TIP3    H261016   1.599   2.846   2.405 -1.3110  1.0132  0.0451
13201TIP3   OH261017   4.649   1.290   2.127 -0.2749  0.0135 -0.0658
13201TIP3    H161018   4.653   1.216   2.066  0.4473  0.8854 -1.1280
13201TIP3    H261019   4.560   1.288   2.162  0.2754 -2.4520  1.3773
13202TIP3   OH261020   1.773   0.169   0.627  0.1846 -0.1225  0.1418
13202TIP3    H161021   1.848   0.227   0.614  0.4691 -0.5768 -0.2831
13202TIP3    H261022   1.802   0.084   0.595 -0.4545 -0.3481  0.1380
13203TIP3   OH261023   3.356   6.095   1.432  0.3607  0.3570  0.1765
13203TIP3    H161024   3.311   6.120   1.351  1.2025  2.1841  0.2357
13203TIP3    H261025   3.449   6.104   1.412  0.5921  0.4988  1.2484
13204TIP3   OH261026   1.971   4.118   0.521 -0.1513 -0.1954  0.5373
13204TIP3    H161027   1.891   4.111   0.572  0.0833  1.3372  1.1900
13204TIP3    H261028   2.012   4.031   0.527 -0.0693 -0.0616  3.1112
13205TIP3   OH261029   0.789   3.282   5.055  0.8283 -0.0688  0.5048
13205TIP3    H161030   0.848   3.207   5.055  1.1842  0.2023 -0.2283
13205TIP3    H261031   0.749   3.281   5.142 -1.4637 -2.9163 -0.4037
13206TIP3   OH261032   1.635   2.052  13.057 -0.0831 -0.1828 -0.1115
13206TIP3    H161033   1.541   2.063  13.072  0.1844  1.5956  0.4997
13206TIP3    H261034   1.674   2.131  13.093  1.7787 -1.3963  0.6819
13207TIP3   OH261035   0.054   1.155   2.279  0.7846 -0.1251 -0.5191
13207TIP3    H161036  -0.014   1.177   2.216  0.7606 -0.8901 -0.7626
13207TIP3    H261037   0.113   1.095   2.233  1.2078 -0.0703 -0.0681
13208TIP3   OH261038   3.931   5.839   1.470 -0.0285  0.6427 -0.1235
13208TIP3    H161039   3.947   5.812   1.560 -1.7496 -0.6734 -0.1602
13208TIP3    H261040   4.013   5.820   1.425  0.1844 -0.7025  0.7475
13209TIP3   OH261041   1.711   0.409  11.159 -0.7403 -0.0249  0.3260
13209TIP3    H161042   1.754   0.330  11.126 -0.9173 -0.6237  1.4658
13209TIP3    H261043   1.744   0.480  11.103  0.7767 -0.6400  0.3947
13210TIP3   OH261044   3.266   3.769   0.031 -0.3214 -0.1623  0.7553
13210TIP3    H161045   3.241   3.818   0.109 -0.0348  0.1019  0.6820
13210TIP3    H261046   3.359   3.752   0.042 -0.0664  0.6711  0.0504
13211TIP3   OH261047   0.640   4.964  13.320 -0.4583  0.4886 -0.6095
13211TIP3    H161048   0.729   4.928  13.322 -0.7843 -0.2851  0.3166
13211TIP3    H261049   0.644   5.034  13.254  1.6419  2.5677  1.5104
13212TIP3   OH261050   1.879   1.368  11.917 -0.0768 -0.3054 -0.8879
13212TIP3    H161051   1.829   1.288  11.901 -2.8179  0.9145  0.8403
13212TIP3    H261052   1.956   1.339  11.966 -1.8783 -1.7720  1.2443
13213TIP3   OH261053   5.201   3.797   1.238  0.2109  0.1636  0.1332
13213TIP3    H161054   5.207   3.879   1.190  0.1885  0.1450  0.0989
13213TIP3    H261055   5.289   3.761   1.236  0.5304  0.8144  1.2529
13214TIP3   OH261056   5.940   1.406   0.291 -0.0643  0.1965 -0.2877
13214TIP3    H161057   5.876   1.336   0.275  0.3878 -0.4529  0.6575
13214TIP3    H261058   5.896   1.464   0.353  0.8793 -1.2156  1.8066
13215TIP3   OH261059   5.961   2.666   5.546 -0.3079 -0.3903  0.4008
13215TIP3    H161060   5.902   2.708   5.483 -0.7745  0.6828  1.5102
13215TIP3    H261061   6.029   2.626   5.492 -0.4527  0.8565 -0.7681
13216TIP3   OH261062   1.147   6.122  11.892  0.6047 -0.7333  0.5516
13216TIP3    H161063   1.070   6.065  11.885  1.0079 -1.1849 -0.3387
13216TIP3    H261064   1.211   6.069  11.942  0.7847 -0.8508  0.1973
13217TIP3   OH261065   0.920   1.644   0.830  0.2022  0.8108 -0.1488
13217TIP3    H161066   0.947   1.558   0.860 -0.1550  1.1339  1.1602
13217TIP3    H261067   0.825   1.646   0.844  0.3783  1.8652  1.0547
13218TIP3   OH261068   0.959   4.510  11.762 -0.4960 -0.1627 -0.4438
13218TIP3    H161069   1.039   4.547  11.724 -0.6031  0.7721  0.2345
13218TIP3    H261070   0.899   4.584  11.771 -1.5215 -0.8766 -1.0909
13219TIP3   OH261071   0.266   1.516  11.673 -0.4914  0.3290 -0.2182
13219TIP3    H161072   0.327   1.553  11.609  0.6918  0.4465  0.9382
13219TIP3    H261073   0.293   1.424  11.681  0.6081  0.7498  1.4456
13220TIP3   OH261074   2.877   3.007  13.692  0.6524 -0.3941  0.4101
13220TIP3    H161075   2.868   2.936  13.756 -3.0142 -0.2029  0.3212
13220TIP3    H261076   2.787   3.029  13.669  1.7824  1.1585 -3.0863
13221TIP3   OH261077   6.394   3.456  12.983  0.2735  0.7179 -0.0027
13221TIP3    H161078   6.411   3.362  12.981 -2.4038  0.1510 -0.3725
13221TIP3    H261079   6.418   3.483  13.072 -2.0270 -1.0585  1.2715
13222TIP3   OH261080   3.306   5.226   0.528 -0.2760 -0.0750 -0.3957
13222TIP3    H161081   3.243   5.273   0.473  0.1671  0.7697 -0.1836
13222TIP3    H261082   3.299   5.268   0.614  0.1117 -0.4103 -0.1975
13223TIP3   OH261083   0.729   2.305   0.419 -0.4027 -0.0367 -0.0641
13223TIP3    H161084   0.661   2.314   0.351  0.2923  0.2915 -0.7257
13223TIP3    H261085   0.782   2.231   0.389 -1.8607 -1.9438  1.6924
13224TIP3   OH261086   1.995   5.355   4.013  0.0107 -0.2944  0.1643
13224TIP3    H161087   2.030   5.439   3.982 -0.0961 -0.7339 -1.2218
13224TIP3    H261088   2.041   5.338   4.095  1.7906 -0.0112 -0.7324
13225TIP3   OH261089   5.075   4.805  12.186 -0.3298  0.4625 -0.5546
13225TIP3    H161090   5.056   4.895  12.211  0.4758  0.6760 -0.6729
13225TIP3    H261091   5.124   4.770  12.260 -3.1781 -0.8539  0.8556
13226TIP3   OH261092   2.269   1.139  14.186  0.4355  0.1216 -0.2539
13226TIP3    H161093   2.360   1.117  14.168  0.8906  1.2733  0.5172
13226TIP3    H261094   2.229   1.057  14.215  1.7320 -0.0107  1.2865
13227TIP3   OH261095   0.974   2.494  13.108 -0.5206 -0.2444 -0.2422
13227TIP3    H161096   1.000   2.551  13.181 -0.2839 -0.7657  0.0944
13227TIP3    H261097   0.996   2.544  13.029  1.8088 -0.7256  0.0092
13228TIP3   OH261098   5.529   1.193   5.123  0.0753  0.0997 -0.2889
13228TIP3    H161099   5.473   1.261   5.159 -0.7970 -1.8069  2.2838
13228TIP3    H261100   5.603   1.188   5.184  0.4739 -0.7774 -0.8239
13229TIP3   OH261101   5.409   2.963   2.374 -1.0883 -0.2397  0.1693
13229TIP3    H161102   5.390   2.952   2.467 -0.5596  1.0789  0.4583
13229TIP3    H261103   5.383   3.054   2.355  0.6364  0.1566 -0.4838
13230TIP3   OH261104   4.854   0.999  17.239 -0.5551 -0.5655 -0.0159
13230TIP3    H161105   4.949   1.003  17.240 -0.5476 -0.2712  1.5935
13230TIP3    H261106   4.833   0.910  17.209  0.2993 -1.3712  1.6554
13231TIP3   OH261107   0.468   0.797  15.900  0.1607  0.5102 -0.4694
13231TIP3    H161108   0.430   0.714  15.930  0.9399 -0.2858 -1.6004
13231TIP3    H261109   0.510   0.833  15.978 -0.4472  0.0075  0.1113
13232TIP3   OH261110   3.045   4.194   6.564  0.4932  0.5139  0.1893
13232TIP3    H161111   3.101   4.266   6.536 -1.1341  1.1410 -1.6991
13232TIP3    H261112   3.076   4.118   6.515  1.1162  0.3039  0.8881
13233TIP3   OH261113   5.215   0.123  13.754 -0.1953 -0.4100 -0.0884
13233TIP3    H161114   5.262   0.041  13.764  2.5267  1.0118 -0.2552
13233TIP3    H261115   5.248   0.179  13.825 -0.1673  1.2780 -1.3624
13234TIP3   OH261116   3.645   3.079  14.482 -0.4821  0.0508 -0.2515
13234TIP3    H161117   3.599   3.153  14.441 -0.3519  0.3175  0.0739
13234TIP3    H261118   3.685   3.117  14.561 -0.9168 -0.4963  0.2434
13235TIP3   OH261119   4.885   1.284  16.456  0.1116  0.2075 -0.5557
13235TIP3    H161120   4.826   1.311  16.526 -0.5702 -1.4594 -0.4492
13235TIP3    H261121   4.881   1.189  16.456  1.1391  0.1288 -1.9841
13236TIP3   OH261122   2.924   3.225  15.466 -0.8038 -0.1267  0.2914
13236TIP3    H161123   2.985   3.287  15.505 -0.3308 -0.8829  0.7894
13236TIP3    H261124   2.843   3.275  15.453 -0.2570  0.7409  0.1250
13237TIP3   OH261125   5.296   5.718   4.764 -0.1275 -0.2121 -0.9380
13237TIP3    H161126   5.343   5.637   4.746  0.8260  0.2217 -0.4902
13237TIP3    H261127   5.211   5.690   4.797  1.1637 -1.1370  1.9848
13238TIP3   OH261128   3.594   4.741  13.149  1.3357  0.1412 -0.0571
13238TIP3    H161129   3.646   4.795  13.208  0.9342 -0.1653  0.5888
13238TIP3    H261130   3.659   4.691  13.099  1.7072  1.2103 -0.6689
13239TIP3   OH261131   4.980   5.540  13.792  0.2394  0.0681 -0.3775
13239TIP3    H161132   5.016   5.505  13.711  2.3829  0.4471  0.3256
13239TIP3    H261133   4.911   5.600  13.765 -1.4534 -2.3086 -1.7324
13240TIP3   OH261134   5.185   0.379  10.960 -0.1972  0.2062  0.2907
13240TIP3    H161135   5.164   0.381  10.867 -0.9981  0.8887  0.4757
13240TIP3    H261136   5.253   0.446  10.970 -1.4663  1.5253  0.4876
13241TIP3   OH261137   4.910   6.491   1.329 -0.5277 -0.2591 -0.0228
13241TIP3    H161138   4.976   6.559   1.314  1.1224 -1.8159 -0.2483
13241TIP3    H261139   4.917   6.471   1.422 -1.9230  0.7379  0.3192
13242TIP3   OH261140   2.091   0.526   5.532 -0.0734  0.1251  0.7413
13242TIP3    H161141   2.089   0.483   5.447  1.7156 -1.0279  1.2251
13242TIP3    H261142   2.000   0.526   5.562 -0.7564  0.7002 -1.2035
13243TIP3   OH261143   4.579   1.852   5.337 -0.1519  0.1650  0.3123
13243TIP3    H161144   4.561   1.846   5.431  0.0553  0.5521  0.3791
13243TIP3    H261145   4.584   1.946   5.319 -1.4203  0.1378 -0.3270
13244TIP3   OH261146   4.822   3.929  13.816 -0.6574 -0.6873 -0.2197
13244TIP3    H161147   4.878   3.859  13.850 -1.2543 -1.0494  0.0466
13244TIP3    H261148   4.807   3.905  13.724  1.2680  0.4952 -0.8812
13245TIP3   OH261149   3.460   1.238   0.483  0.6928 -0.0163 -0.0175
13245TIP3    H161150   3.453   1.159   0.537  0.9469  1.0880  1.6855
13245TIP3    H261151   3.513   1.210   0.409  1.6682 -1.1983  1.0687
13246TIP3   OH261152   6.407   4.602   3.630 -0.5216 -0.0419  0.4242
13246TIP3    H161153   6.426   4.695   3.617 -0.9812  0.0325  0.2442
13246TIP3    H261154   6.459   4.577   3.705  1.5259 -0.2378 -0.9857
13247TIP3   OH261155   6.190   4.849   0.720 -0.4111  0.3183  0.5810
13247TIP3    H161156   6.172   4.922   0.779 -2.1583  0.7335 -0.3877
13247TIP3    H261157   6.215   4.892   0.637 -0.6786 -0.1966  0.2310
13248TIP3   OH261158   1.702   2.706  11.071  0.3050  0.3575 -0.0073
13248TIP3    H161159   1.645   2.636  11.040  0.3214  0.4223 -0.1859
13248TIP3    H261160   1.786   2.690  11.028 -0.1981  1.5303 -1.5038
13249TIP3   OH261161   4.318   2.989   4.301 -0.1474 -0.2300 -0.0211
13249TIP3    H161162   4.365   2.947   4.374 -0.9552  1.6170  1.6661
13249TIP3    H261163   4.228   2.958   4.310 -0.4816  0.8339  0.4790
13250TIP3   OH261164   2.857   4.303   4.380 -0.2731 -0.3019 -0.4860
13250TIP3    H161165   2.895   4.387   4.404 -2.6190  0.3360  1.3358
13250TIP3    H261166   2.930   4.241   4.391  0.8793  1.1443  0.4881
13251TIP3   OH261167   3.589   4.052  10.764  0.2489 -0.1737  0.4706
13251TIP3    H161168   3.522   4.066  10.697  0.4140 -1.5195 -0.0107
13251TIP3    H261169   3.554   3.983  10.820  0.0715  1.0019  1.8732
13252TIP3   OH261170   1.166   0.190   1.201 -0.2878 -0.1416  0.0348
13252TIP3    H161171   1.135   0.255   1.265 -1.7502 -0.9235  0.1582
13252TIP3    H261172   1.176   0.109   1.251 -0.3893 -0.4986 -0.5124
13253TIP3   OH261173   6.672   3.787   1.277 -0.3836 -0.6620  0.1983
13253TIP3    H161174   6.584   3.825   1.282 -0.2737  0.0278 -1.9648
13253TIP3    H261175   6.702   3.784   1.367 -3.1890 -2.3549  1.2166
13254TIP3   OH261176   6.343   4.222   3.840 -0.1463  0.7458  0.3939
13254TIP3    H161177   6.348   4.256   3.750 -0.5191  2.0376  0.8412
13254TIP3    H261178   6.426   4.247   3.880 -1.0524  2.7047  1.2193
13255TIP3   OH261179   5.340   0.870  12.062 -0.1256 -0.3312  0.5008
13255TIP3    H161180   5.370   0.795  12.009  0.2620  0.6864 -0.7840
13255TIP3    H261181   5.248   0.851  12.079 -0.1467 -0.9030 -0.1727
13256TIP3   OH261182   0.990   3.481  16.085 -0.1647  1.1184  0.1292
13256TIP3    H161183   0.997   3.397  16.131 -1.1646  1.9421  1.9194
13256TIP3    H261184   0.976   3.458  15.993  1.1611 -0.6270  0.3197
13257TIP3   OH261185   3.222   1.763   1.197  0.0209 -0.1067  0.4778
13257TIP3    H161186   3.146   1.798   1.243  0.3644  0.0883  0.8984
13257TIP3    H261187   3.189   1.741   1.110 -0.2024  1.2946  0.1858
13258TIP3   OH261188   0.144   5.090  16.676  0.0654 -0.1152 -0.3261
13258TIP3    H161189   0.196   5.079  16.597  2.0355  1.5625  0.6522
13258TIP3    H261190   0.159   5.181  16.702  1.4812 -1.2179  3.2811
13259TIP3   OH261191   6.633   0.859  16.592  0.5532 -0.1001 -0.0966
13259TIP3    H161192   6.599   0.798  16.657 -0.4250  0.6332  0.0979
13259TIP3    H261193   6.626   0.945  16.634  2.7518  0.0861 -0.0116
13260TIP3   OH261194   2.991   1.886  16.370  0.3546  0.4898 -0.3776
13260TIP3    H161195   2.956   1.975  16.377 -0.9258 -0.0955  1.5379
13260TIP3    H261196   2.933   1.842  16.307 -1.1121  0.1379  1.1486
13261TIP3   OH261197   0.184   1.821   3.309 -0.7834  0.3519 -0.0368
13261TIP3    H161198   0.221   1.798   3.394 -0.6302  0.1451 -0.1595
13261TIP3    H261199   0.258   1.819   3.249 -0.5672  2.1275  0.1202
13262TIP3   OH261200   6.491   0.745  12.969  0.1058  0.6413 -0.0282
13262TIP3    H161201   6.480   0.761  13.062 -0.4188  0.9102 -0.1304
13262TIP3    H261202   6.585   0.752  12.954  0.0713  1.8798  0.2505
13263TIP3   OH261203   0.083   2.740  15.012  0.7861 -0.5297  0.0964
13263TIP3    H161204  -0.006   2.732  15.045  0.4160  1.2927 -0.3582
13263TIP3    H261205   0.137   2.702  15.082 -0.2359 -0.2902  1.0506
13264TIP3   OH261206   1.328   4.525  16.623 -0.8020 -0.0754  0.1074
13264TIP3    H161207   1.239   4.500  16.598 -0.4892 -0.2693 -0.8302
13264TIP3    H261208   1.384   4.491  16.553  0.1229 -0.8150  1.1688
13265TIP3   OH261209   4.034   6.575   3.373  0.3513 -0.7067  0.4427
13265TIP3    H161210   3.998   6.501   3.422  1.2157  0.0420  2.3111
13265TIP3    H261211   3.973   6.589   3.301 -0.4386 -2.4979  0.7324
13266TIP3   OH261212   0.658   1.541   0.948  0.0345 -0.6415 -0.4425
13266TIP3    H161213   0.582   1.552   1.004  0.5098 -1.8329  0.4808
13266TIP3    H261214   0.641   1.458   0.902  1.8408 -2.2767  1.6300
13267TIP3   OH261215   1.567   3.780   0.339 -0.5247  0.9946 -0.1480
13267TIP3    H161216   1.599   3.794   0.250 -0.5752  0.3640 -0.2670
13267TIP3    H261217   1.503   3.709   0.331 -1.1240  1.4708  0.2667
13268TIP3   OH261218   1.965   3.530  16.347 -0.1436  0.0111 -0.6699
13268TIP3    H161219   1.995   3.517  16.437 -0.5108  0.2209 -0.5147
13268TIP3    H261220   2.033   3.488  16.293 -0.0291 -0.3028 -0.2909
13269TIP3   OH261221   5.545   1.134  10.597  0.3484 -0.2655 -0.2868
13269TIP3    H161222   5.636   1.133  10.568  0.0534 -1.8309 -1.2933
13269TIP3    H261223   5.495   1.113  10.518 -0.8738  0.3423  0.3025
13270TIP3   OH261224   3.817   2.539   3.496 -0.0943 -0.4507 -0.4981
13270TIP3    H161225   3.910   2.527   3.513 -0.4120 -2.0639  0.2058
13270TIP3    H261226   3.790   2.460   3.451 -1.6495 -1.2260  1.6280
13271TIP3   OH261227   6.378   5.254   4.727  0.0182 -0.1694 -0.6942
13271TIP3    H161228   6.468   5.234   4.753 -0.4125  0.0728  1.0578
13271TIP3    H261229   6.335   5.168   4.723  0.0300 -0.1869 -0.4220
13272TIP3   OH261230   0.963   5.385  13.332 -0.3725 -0.2811 -0.3801
13272TIP3    H161231   1.028   5.440  13.288 -1.1051 -0.2364 -1.4391
13272TIP3    H261232   0.976   5.403  13.425  1.0132 -0.1478 -0.5711
13273TIP3   OH261233   5.158   0.486   4.428 -0.7236 -0.4646 -0.2565
13273TIP3    H161234   5.086   0.438   4.469  0.2576 -0.2734  1.8489
13273TIP3    H261235   5.143   0.577   4.453 -1.0306 -0.0537 -1.8439
13274TIP3   OH261236   2.755   5.774  15.003 -0.3147  0.4220  0.2390
13274TIP3    H161237   2.850   5.783  14.995 -0.2334  1.9990  2.1357
13274TIP3    H261238   2.735   5.687  14.967  1.9072 -0.1950  0.3835
13275TIP3   OH261239   2.237   0.637  14.310  0.5158 -0.2474  0.1181
13275TIP3    H161240   2.161   0.588  14.343  0.0200  1.7653  2.2015
13275TIP3    H261241   2.292   0.651  14.386  0.1862  3.1117 -0.1010
13276TIP3   OH261242   3.193   6.443  15.189 -0.2169 -0.0504 -0.6737
13276TIP3    H161243   3.124   6.388  15.225  0.1424  0.5990  1.1450
13276TIP3    H261244   3.157   6.532  15.193  0.4054  0.2009 -0.5016
13277TIP3   OH261245   0.101   3.339  11.556  0.3899  0.3280 -0.3633
13277TIP3    H161246   0.036   3.323  11.488  0.0724  1.9730 -0.4875
13277TIP3    H261247   0.115   3.253  11.597 -1.7022 -0.1024 -0.4704
13278TIP3   OH261248   2.642   5.367   2.139 -0.1958  0.6002  0.6156
13278TIP3    H161249   2.564   5.417   2.161  0.4658  1.5804  0.8229
13278TIP3    H261250   2.714   5.430   2.150  0.6866 -0.4597  1.1021
13279TIP3   OH261251   5.946   1.035  11.220 -0.3137 -0.0449  0.0030
13279TIP3    H161252   5.926   1.122  11.187 -0.1202  0.5728  1.4578
13279TIP3    H261253   5.865   1.005  11.261 -0.8902 -1.2614 -1.8907
13280TIP3   OH261254   3.247   4.906  13.393  0.6755  0.1117  0.6452
13280TIP3    H161255   3.336   4.897  13.359 -0.4037 -0.6658 -2.2937
13280TIP3    H261256   3.230   4.824  13.439  1.0593 -0.2501  0.1446
13281TIP3   OH261257   2.903   6.309  13.136 -0.6584 -0.7860 -0.2674
13281TIP3    H161258   2.946   6.238  13.088 -0.1279 -0.7156  0.0958
13281TIP3    H261259   2.971   6.342  13.196 -0.8285  0.1786 -0.5933
13282TIP3   OH261260   1.686   0.653   4.850  0.0000  0.1045 -0.5504
13282TIP3    H161261   1.704   0.560   4.840 -0.4971 -0.2884  1.6140
13282TIP3    H261262   1.594   0.662   4.824 -1.2043 -0.8375  2.8474
13283TIP3   OH261263   5.293   3.944  12.899 -0.0836  0.1066  0.2159
13283TIP3    H161264   5.267   3.975  12.986  2.4381  3.1281  0.0954
13283TIP3    H261265   5.384   3.917  12.911  1.5621  3.8713 -1.9280
13284TIP3   OH261266   4.832   3.038  14.827 -0.0638  0.4439  0.0264
13284TIP3    H161267   4.806   3.092  14.901  0.8153 -0.0388  0.7023
13284TIP3    H261268   4.926   3.024  14.838 -0.0590 -0.2787 -0.7509
13285TIP3   OH261269   2.597   3.630   6.110  0.1153  0.0544 -0.2902
13285TIP3    H161270   2.653   3.629   6.187 -1.3672  0.4775  0.8473
13285TIP3    H261271   2.542   3.708   6.121 -2.0365 -1.3833 -0.3362
13286TIP3   OH261272   2.301   2.053   4.979  0.4046  0.7843 -0.1819
13286TIP3    H161273   2.293   2.102   4.897 -0.7349  2.1521  0.7056
13286TIP3    H261274   2.268   2.113   5.046 -0.4066 -0.9674  1.0464
13287TIP3   OH261275   3.519   3.447   2.170  0.4969  0.1379  0.1557
13287TIP3    H161276   3.537   3.540   2.188 -0.2781  0.5909 -1.2942
13287TIP3    H261277   3.439   3.448   2.118 -0.1460 -1.4321  1.0486
13288TIP3   OH261278   4.450   1.164  16.296 -0.2794 -0.2943  0.2906
13288TIP3    H161279   4.526   1.214  16.328 -0.3636 -0.5552  0.9247
13288TIP3    H261280   4.384   1.231  16.280 -0.3431 -0.1696  0.9967
13289TIP3   OH261281   2.111   6.103   2.089  0.0837  0.0516  1.0472
13289TIP3    H161282   2.078   6.189   2.063  0.6539 -0.0449 -0.1032
13289TIP3    H261283   2.175   6.122   2.158  2.0590  0.8597 -0.8685
13290TIP3   OH261284   4.984   0.850  13.317  0.5561  0.3341  0.3428
13290TIP3    H161285   5.065   0.870  13.271 -0.2752  1.6737 -0.6063
13290TIP3    H261286   5.011   0.797  13.392  2.2376  0.3688 -0.2118
13291TIP3   OH261287   6.687   5.529  14.983  0.3021  0.1249 -0.2956
13291TIP3    H161288   6.698   5.439  14.954  1.1635  0.6903 -1.8412
13291TIP3    H261289   6.769   5.549  15.030 -0.6434 -0.4438  1.7020
13292TIP3   OH261290   6.042   4.426   2.846  0.1885  0.5878 -0.5041
13292TIP3    H161291   6.125   4.390   2.817  1.3165  1.8978  0.9088
13292TIP3    H261292   6.021   4.495   2.783 -0.0015  0.0523 -1.0325
13293TIP3   OH261293   2.234   6.124  17.176 -0.7748 -0.1854  0.2915
13293TIP3    H161294   2.317   6.079  17.165 -0.2480  0.4224  1.5517
13293TIP3    H261295   2.189   6.075  17.245 -1.8663 -1.0216 -0.9547
13294TIP3   OH261296   2.214   1.669   3.363  0.1287 -0.1547 -0.1919
13294TIP3    H161297   2.195   1.712   3.280 -2.0565  0.9672  0.8009
13294TIP3    H261298   2.252   1.585   3.339  0.6498  0.6303 -2.2846
13295TIP3   OH261299   4.065   5.852   0.342 -0.4233 -0.3270 -0.2605
13295TIP3    H161300   4.092   5.869   0.252  1.7040 -2.5799 -0.1427
13295TIP3    H261301   3.982   5.806   0.334  1.0230 -2.9333 -1.3086
13296TIP3   OH261302   4.169   1.078  10.882  0.2449 -0.3217  0.0469
13296TIP3    H161303   4.080   1.049  10.900 -0.5259  0.9419 -1.5628
13296TIP3    H261304   4.210   1.084  10.968 -1.1421 -1.1092  0.7911
13297TIP3   OH261305   3.918   3.061   1.792 -0.1994 -0.0429  0.3872
13297TIP3    H161306   3.884   3.148   1.815  2.0400  1.5643 -1.7548
13297TIP3    H261307   3.854   3.026   1.731 -0.3521  0.8511  0.0082
13298TIP3   OH261308   0.063   4.720  16.224  0.0718  0.0888 -0.3142
13298TIP3    H161309   0.097   4.663  16.155  1.0349 -0.6726  0.7496
13298TIP3    H261310  -0.032   4.705  16.223  0.0775  0.0214 -1.3826
13299TIP3   OH261311   0.805   1.454  11.176 -0.2230  0.1212  0.2838
13299TIP3    H161312   0.761   1.426  11.096 -0.2879  0.5916  0.1512
13299TIP3    H261313   0.882   1.503  11.146 -2.2052  3.5790  0.4013
13300TIP3   OH261314   2.886   2.071  10.720 -0.3474 -0.0102 -0.1580
13300TIP3    H161315   2.811   2.096  10.666  0.8305 -0.9122 -2.3480
13300TIP3    H261316   2.879   1.976  10.727 -1.1136  0.1657  2.3760
13301TIP3   OH261317   1.875   3.557  13.133 -0.6647  0.3947  0.0917
13301TIP3    H161318   1.846   3.641  13.097 -1.9742 -0.3964 -0.7686
13301TIP3    H261319   1.898   3.577  13.224  1.0303  2.0835 -0.6471
13302TIP3   OH261320   3.531   1.154   2.294  0.1088 -0.2494 -0.4845
13302TIP3    H161321   3.470   1.223   2.319  1.5177  1.0687 -0.5782
13302TIP3    H261322   3.480   1.098   2.234 -1.2826  0.2471  0.1973
13303TIP3   OH261323   0.861   1.293   5.774 -0.4624 -0.3724 -0.0018
13303TIP3    H161324   0.835   1.355   5.843 -0.0821  0.0268 -0.2110
13303TIP3    H261325   0.847   1.341   5.692 -0.9247 -0.8491 -0.2091
13304TIP3   OH261326   5.671   6.506   5.529 -0.2042 -0.7286  0.0068
13304TIP3    H161327   5.659   6.440   5.460 -1.3313 -1.1318  0.5493
13304TIP3    H261328   5.748   6.556   5.502  0.3415 -1.9071 -0.7110
13305TIP3   OH261329   3.157   4.424   1.005 -0.9501 -0.1242 -0.2437
13305TIP3    H161330   3.202   4.340   1.002 -2.2205 -0.7996 -1.5881
13305TIP3    H261331   3.122   4.429   1.094 -3.0741 -2.2791 -0.8647
13306TIP3   OH261332   4.959   0.711  15.622  0.0253 -0.0878 -0.1252
13306TIP3    H161333   4.951   0.687  15.529 -0.0731  1.8475 -0.6550
13306TIP3    H261334   4.870   0.736  15.647  0.4112  1.4121 -0.1369
13307TIP3   OH261335   3.923   6.064  12.445 -0.0517  0.4289 -0.0616
13307TIP3    H161336   3.952   5.998  12.508 -2.3640 -1.8053 -1.1593
13307TIP3    H261337   3.967   6.038  12.363  0.4622  1.4205 -0.1198
13308TIP3   OH261338   2.733   4.045   1.602 -0.3971 -0.0220  0.3136
13308TIP3    H161339   2.698   3.956   1.607  1.5949 -0.9874 -1.1495
13308TIP3    H261340   2.690   4.084   1.526 -1.0808  0.1833  0.8008
13309TIP3   OH261341   5.866   6.090  16.249 -0.3923  0.4383  0.3876
13309TIP3    H161342   5.797   6.100  16.184  2.2465  3.1780 -2.3812
13309TIP3    H261343   5.821   6.067  16.330 -3.9623 -2.8870 -2.1928
13310TIP3   OH261344   1.583   1.961   3.069  0.2405 -0.7461  0.1313
13310TIP3    H161345   1.662   1.949   3.017  0.0098 -1.1676 -0.1279
13310TIP3    H261346   1.522   1.895   3.035  0.1109 -1.0722  0.9817
13311TIP3   OH261347   2.348   1.322   2.523 -0.3941  0.7348 -0.4596
13311TIP3    H161348   2.366   1.257   2.455 -0.0042  0.8242 -0.4400
13311TIP3    H261349   2.429   1.328   2.573 -0.5717  0.9174 -0.1924
13312TIP3   OH261350   1.973   6.655   5.633  0.0214  0.1554  0.0005
13312TIP3    H161351   2.008   6.623   5.716  1.0216 -0.5729 -0.6730
13312TIP3    H261352   1.883   6.624   5.632  0.2322 -0.4958  0.4772
13313TIP3   OH261353   0.695   0.541  11.757 -0.0149 -0.1730 -0.0955
13313TIP3    H161354   0.602   0.523  11.767 -0.2680  0.5912 -0.9450
13313TIP3    H261355   0.705   0.570  11.666  1.2384 -1.3058 -0.3592
13314TIP3   OH261356   1.355   0.684  14.489  0.0396  0.1548 -0.5472
13314TIP3    H161357   1.300   0.697  14.412  1.9844  3.5220 -1.5684
13314TIP3    H261358   1.437   0.648  14.454  0.5926  0.8160  0.0297
13315TIP3   OH261359   1.933   4.897  16.522  0.1704  0.4711  0.1901
13315TIP3    H161360   1.918   4.855  16.607 -0.2370 -0.8036 -0.5000
13315TIP3    H261361   1.848   4.897  16.479  0.8729 -1.3706 -1.3154
13316TIP3   OH261362   6.326   1.767  15.974 -0.2636 -0.1079 -0.1238
13316TIP3    H161363   6.384   1.804  16.041 -0.2355 -2.2622  1.1093
13316TIP3    H261364   6.366   1.684  15.951 -1.0435 -0.0479 -1.8306
13317TIP3   OH261365   2.806   5.535  13.462 -0.1522  0.0058  0.0816
13317TIP3    H161366   2.901   5.544  13.455 -0.1036 -1.2183 -1.4905
13317TIP3    H261367   2.791   5.441  13.464 -1.3384  0.1863  0.1846
13318TIP3   OH261368   2.592   1.160  14.195  0.5001 -0.1311 -0.1837
13318TIP3    H161369   2.600   1.066  14.209  1.9032 -0.1840 -1.1727
13318TIP3    H261370   2.626   1.174  14.107 -0.6891  1.1737 -0.4666
13319TIP3   OH261371   1.584   2.617   5.228 -0.4605  0.3638  0.2331
13319TIP3    H161372   1.654   2.683   5.224 -0.6036  0.4694 -1.0066
13319TIP3    H261373   1.609   2.552   5.162 -1.4992  0.3784 -0.1871
13320TIP3   OH261374   5.041   6.012  12.692  0.0360  0.5528  0.3689
13320TIP3    H161375   4.946   6.010  12.705  0.3065  0.8540  3.0004
13320TIP3    H261376   5.069   6.093  12.733  1.2614  1.6512 -2.4120
13321TIP3   OH261377   1.862   6.173  14.854 -0.4932  0.0752 -0.5424
13321TIP3    H161378   1.957   6.165  14.847 -0.5722 -0.7929 -0.7226
13321TIP3    H261379   1.842   6.142  14.942 -0.3951  2.5108  0.4162
13322TIP3   OH261380   0.908   2.881   0.034 -0.2992  0.4906  0.3432
13322TIP3    H161381   0.869   2.872  -0.053  0.3186 -0.9948  0.1878
13322TIP3    H261382   0.988   2.931   0.020 -0.8178  1.3213  0.2675
13323TIP3   OH261383   4.394   6.442  11.003 -0.7821  0.0746 -0.2423
13323TIP3    H161384   4.388   6.538  10.995  1.3675  0.1231 -2.5768
13323TIP3    H261385   4.316   6.410  10.958 -0.8712  0.7445 -0.5895
13324TIP3   OH261386   4.806   0.746   6.060 -0.1939  0.1958  0.7661
13324TIP3    H161387   4.730   0.792   6.095  0.3324 -0.2344  2.5582
13324TIP3    H261388   4.863   0.732   6.136  1.7492  0.6164 -0.5310
13325TIP3   OH261389   2.505   2.930   2.528  0.3366 -0.8021 -0.7102
13325TIP3    H161390   2.466   2.876   2.460 -0.0812  2.2135 -3.1161
13325TIP3    H261391   2.597   2.937   2.502  0.7375 -1.5717  0.4616
13326TIP3   OH261392   0.860   1.832  16.979  0.4833  0.5088 -0.4385
13326TIP3    H161393   0.851   1.822  17.073  2.9187  0.0831 -0.1934
13326TIP3    H261394   0.787   1.889  16.954 -0.7086 -0.0583  1.5353
13327TIP3   OH261395   6.590   2.180  12.280  0.5298  0.8097 -0.3655
13327TIP3    H161396   6.623   2.256  12.328 -0.8326  1.5032 -0.4692
13327TIP3    H261397   6.552   2.216  12.200 -0.9348  0.1498 -0.0009
13328TIP3   OH261398   5.637   3.439  11.596  0.1244  0.3895  0.3357
13328TIP3    H161399   5.589   3.396  11.667  1.5671 -0.4773  0.8434
13328TIP3    H261400   5.584   3.515  11.573 -2.1576 -1.2123 -0.0766
13329TIP3   OH261401   3.440   6.237  13.254  0.0997 -0.1861 -0.3216
13329TIP3    H161402   3.506   6.232  13.185  2.0909  5.5399  0.6558
13329TIP3    H261403   3.366   6.283  13.214 -1.4112 -2.2651 -0.0916
13330TIP3   OH261404   4.061   4.452   6.879 -0.3174 -0.0168  0.2970
13330TIP3    H161405   4.078   4.459   6.785 -1.6453  0.7439  0.0815
13330TIP3    H261406   4.072   4.541   6.912 -0.5920 -0.1377  0.7231
13331TIP3   OH261407   2.492   6.006  17.112 -0.0217 -0.0535 -0.5658
13331TIP3    H161408   2.565   6.067  17.100 -0.8363  0.9296 -0.6254
13331TIP3    H261409   2.525   5.923  17.077  1.7667 -0.1626  1.1720
13332TIP3   OH261410   4.573   3.808   3.169 -0.2984 -0.3411 -0.0306
13332TIP3    H161411   4.519   3.736   3.203  1.0638 -1.0656  0.6918
13332TIP3    H261412   4.569   3.875   3.238  0.1007 -0.6019  0.2544
13333TIP3   OH261413   5.505   2.528   3.675 -0.3273  0.6991  0.5178
13333TIP3    H161414   5.563   2.546   3.601 -0.9148  0.5827  0.0185
13333TIP3    H261415   5.433   2.590   3.664 -1.0838 -0.2120  0.2330
13334TIP3   OH261416   4.553   4.149   1.822 -0.2117  0.0043  0.1285
13334TIP3    H161417   4.507   4.070   1.796  1.8339 -1.6268  1.1939
13334TIP3    H261418   4.499   4.186   1.893 -1.1604 -0.4388 -0.3469
13335TIP3   OH261419   3.777   1.683  10.486 -0.1195 -0.2072 -0.1797
13335TIP3    H161420   3.870   1.694  10.504 -0.1372 -0.7357  0.2517
13335TIP3    H261421   3.733   1.729  10.558 -0.2081  1.0575 -1.0064
13336TIP3   OH261422   3.793   4.636  14.043  0.0996 -0.1773 -0.1900
13336TIP3    H161423   3.739   4.703  14.003  0.8011 -0.0203 -0.8981
13336TIP3    H261424   3.853   4.684  14.101 -0.3695 -0.3309  0.4309
13337TIP3   OH261425   3.666   1.852   5.606  0.6347 -0.1922 -0.4839
13337TIP3    H161426   3.659   1.802   5.525  1.2081 -0.1243 -0.5743
13337TIP3    H261427   3.758   1.848   5.630  0.6354  0.5533 -0.3232
13338TIP3   OH261428   3.374   1.815   2.384 -0.5007  0.2259  0.3644
13338TIP3    H161429   3.342   1.748   2.323 -1.1232 -1.5915  2.5349
13338TIP3    H261430   3.468   1.798   2.391 -0.6191 -0.3028  0.7373
13339TIP3   OH261431   1.449   3.267   6.221 -0.2178 -0.2056 -0.2106
13339TIP3    H161432   1.467   3.173   6.219 -2.3414 -0.6490 -0.6767
13339TIP3    H261433   1.446   3.288   6.315  0.6443 -0.4922 -0.1049
13340TIP3   OH261434   0.895   1.325  15.584 -0.2958  0.6651 -0.0931
13340TIP3    H161435   0.963   1.377  15.628  2.1123 -1.4152 -1.0901
13340TIP3    H261436   0.817   1.339  15.637  1.7453  0.4614  3.3231
13341TIP3   OH261437   1.864   3.572   4.694 -0.2611  0.3746 -0.0758
13341TIP3    H161438   1.836   3.528   4.774 -0.7486 -0.7431 -0.8294
13341TIP3    H261439   1.946   3.528   4.670 -1.6166 -1.4259 -1.7634
13342TIP3   OH261440   4.962   0.617   5.867  0.3236 -0.5750  0.0900
13342TIP3    H161441   4.911   0.651   5.794  1.3747 -1.5571 -1.1524
13342TIP3    H261442   4.905   0.626   5.943 -2.0347 -2.3612 -1.3559
13343TIP3   OH261443   1.486   5.150  14.552  0.5865 -0.6869  0.4016
13343TIP3    H161444   1.561   5.164  14.610  1.6241  0.5639 -1.1568
13343TIP3    H261445   1.435   5.081  14.596 -0.1626  1.9222  4.1543
13344TIP3   OH261446   1.280   5.391  14.165  0.0579 -0.8343  0.0598
13344TIP3    H161447   1.367   5.426  14.186 -0.0191 -1.0447  0.7391
13344TIP3    H261448   1.235   5.386  14.249 -0.5398 -0.9288 -0.2630
13345TIP3   OH261449   2.365   2.055   1.223 -0.0577 -0.1348  0.5234
13345TIP3    H161450   2.375   2.087   1.133  0.0748 -4.7759 -1.3914
13345TIP3    H261451   2.285   2.097   1.254  0.3522  2.3063 -1.3614
13346TIP3   OH261452   0.159   3.644  17.058 -0.3482  0.2368  0.1999
13346TIP3    H161453   0.196   3.669  16.973 -0.3444 -2.1686 -0.5936
13346TIP3    H261454   0.211   3.693  17.122 -0.7641  2.5883 -1.1603
13347TIP3   OH261455   0.227   1.626  14.570 -0.4643  0.6217  0.5205
13347TIP3    H161456   0.227   1.583  14.655  2.0069 -2.5032 -0.8483
13347TIP3    H261457   0.136   1.621  14.540 -0.8551 -0.7615  1.8456
13348TIP3   OH261458   1.129   5.468  15.333  0.0535  0.1654  0.0957
13348TIP3    H161459   1.054   5.524  15.313 -0.6744 -0.5740  0.7084
13348TIP3    H261460   1.106   5.424  15.414  1.4955  0.5230  0.7369
13349TIP3   OH261461   3.422   1.751  13.229 -0.1097 -0.9418 -0.1698
13349TIP3    H161462   3.390   1.679  13.283  1.2006 -0.7572  0.8926
13349TIP3    H261463   3.344   1.787  13.187 -0.8431 -2.6920 -0.3809
13350TIP3   OH261464   5.000   6.685  14.001  0.0308 -0.9936 -0.1660
13350TIP3    H161465   4.904   6.675  14.002  0.0428 -1.0813  0.3546
13350TIP3    H261466   5.017   6.763  14.054  0.3609 -2.0526  1.3311
13351TIP3   OH261467   2.590   3.755   5.188 -0.8009 -0.0619  0.7654
13351TIP3    H161468   2.525   3.798   5.133  0.2988  0.2760 -0.3193
13351TIP3    H261469   2.651   3.716   5.126 -0.3053 -0.9103  1.7568
13352TIP3   OH261470   1.844   0.484   3.303 -0.5768  0.2769  0.6038
13352TIP3    H161471   1.889   0.486   3.388 -0.0384  0.1042  0.3258
13352TIP3    H261472   1.905   0.438   3.245 -0.1927  1.8652 -0.2985
13353TIP3   OH261473   0.740   1.500   5.983 -0.1097  0.6373 -0.4454
13353TIP3    H161474   0.713   1.591   5.995 -0.7022  0.5299 -0.9426
13353TIP3    H261475   0.812   1.488   6.046 -0.2975  1.3246 -0.0906
13354TIP3   OH261476   2.481   4.259   1.168 -0.6975 -0.0149  0.0952
13354TIP3    H161477   2.539   4.333   1.187 -1.6537  0.7329  0.1369
13354TIP3    H261478   2.405   4.272   1.223 -0.0673 -2.1187  1.6274
13355TIP3   OH261479   4.927   3.171  12.779 -0.0490 -0.1600 -0.0456
13355TIP3    H161480   4.984   3.218  12.840  0.5815 -0.5083 -0.3531
13355TIP3    H261481   4.949   3.208  12.693 -1.3129  0.7109 -0.0195
13356TIP3   OH261482   2.273   1.134   3.340 -0.1686 -0.7812  0.6360
13356TIP3    H161483   2.259   1.046   3.375  1.8671 -1.0169  0.9759
13356TIP3    H261484   2.368   1.140   3.327 -0.0982  1.7715  1.6875
13357TIP3   OH261485   5.716   3.558   5.731  0.2380  0.0631 -0.4351
13357TIP3    H161486   5.791   3.599   5.774  1.2859  1.2363 -3.1165
13357TIP3    H261487   5.648   3.625   5.732  1.2829  1.3247 -3.0515
13358TIP3   OH261488   2.337   0.824   4.740  0.1608  1.1247 -0.5050
13358TIP3    H161489   2.363   0.737   4.770  2.6029  2.4582  1.6785
13358TIP3    H261490   2.309   0.870   4.819 -0.6526  2.4663 -1.5199
13359TIP3   OH261491   3.783   0.808   3.040  0.2013 -0.0211 -0.1572
13359TIP3    H161492   3.773   0.891   3.086 -0.4599 -0.9744  1.5285
13359TIP3    H261493   3.770   0.829   2.948  1.9198  2.0471  0.0020
13360TIP3   OH261494   0.371   4.863  12.471 -0.4696 -0.2722 -0.4777
13360TIP3    H161495   0.407   4.923  12.405 -0.4867 -1.0078 -1.1688
13360TIP3    H261496   0.278   4.856  12.448 -0.9714  1.1621  0.9447
13361TIP3   OH261497   3.430   1.924  14.268 -0.6303  0.4956 -0.1392
13361TIP3    H161498   3.492   1.990  14.239 -0.0008 -0.2100 -0.4420
13361TIP3    H261499   3.354   1.973  14.297  1.0007  1.5994  2.7275
13362TIP3   OH261500   5.005   1.364  11.507 -0.1249  0.1474 -0.2381
13362TIP3    H161501   5.096   1.367  11.479 -0.4029 -2.4627 -1.6747
13362TIP3    H261502   4.956   1.404  11.435 -0.1485  2.5942  1.0006
13363TIP3   OH261503   5.604   0.389   2.104 -0.4129  0.0342  0.0850
13363TIP3    H161504   5.640   0.314   2.151 -0.2756 -1.3160 -2.0465
13363TIP3    H261505   5.524   0.356   2.063  0.1968  0.7218 -1.7388
13364TIP3   OH261506   0.771   6.126   3.352  0.0772 -0.6037  0.1867
13364TIP3    H161507   0.738   6.216   3.349 -0.7334 -0.8808  0.7249
13364TIP3    H261508   0.795   6.107   3.261 -1.2223 -0.3888 -0.2185
13365TIP3   OH261509   3.180   0.123  16.287  0.1680 -0.3997 -0.3817
13365TIP3    H161510   3.122   0.200  16.284  2.0059  1.1010  0.4574
13365TIP3    H261511   3.197   0.102  16.195 -2.7938 -1.8348 -0.7166
13366TIP3   OH261512   2.853   4.585  15.166 -0.4184  1.0299 -0.1510
13366TIP3    H161513   2.942   4.550  15.163 -0.3011  1.4063 -1.5582
13366TIP3    H261514   2.830   4.582  15.259 -0.4613 -2.7628 -0.1169
13367TIP3   OH261515   2.668   0.918   4.472  0.2238 -0.1540  0.8160
13367TIP3    H161516   2.642   0.830   4.500 -3.6880  0.0610 -1.4092
13367TIP3    H261517   2.641   0.974   4.545  0.2366 -0.5618  1.1384
13368TIP3   OH261518   0.574   4.216  13.238 -0.1584 -0.5124 -0.1482
13368TIP3    H161519   0.653   4.212  13.184 -0.0525 -0.1098 -0.0326
13368TIP3    H261520   0.570   4.132  13.282  1.3659  0.1834  1.4547
13369TIP3   OH261521   3.286   5.454   5.778  0.5819  0.1005 -0.2583
13369TIP3    H161522   3.315   5.372   5.737 -0.2674 -0.0396 -0.6013
13369TIP3    H261523   3.193   5.440   5.795  0.8295  0.2772  1.4432
13370TIP3   OH261524   3.791   5.259  12.339 -0.6716 -0.5454  0.3482
13370TIP3    H161525   3.828   5.231  12.423  1.2030  0.0149 -0.2351
13370TIP3    H261526   3.697   5.265  12.355 -0.2946  0.4634  2.6996
13371TIP3   OH261527   0.663   5.327   5.578  0.5774 -0.0472  0.1944
13371TIP3    H161528   0.600   5.279   5.525  0.3029  0.0897  0.3892
13371TIP3    H261529   0.714   5.378   5.516  0.2036  0.1776  0.0635
13372TIP3   OH261530   6.420   4.425   4.250 -0.1830  0.1952 -0.0458
13372TIP3    H161531   6.457   4.360   4.310  1.4079  2.0184  1.0579
13372TIP3    H261532   6.493   4.482   4.229 -1.4479  1.4309 -1.2836
13373TIP3   OH261533   1.044   0.471   4.711  0.1669 -0.7519  0.2049
13373TIP3    H161534   1.106   0.542   4.726  0.0520 -0.7882  0.8570
13373TIP3    H261535   0.994   0.464   4.792  1.5241 -2.8823  0.9627
13374TIP3   OH261536   4.533   1.273   1.834  0.3844  0.0022  0.2267
13374TIP3    H161537   4.500   1.228   1.756 -0.3085  1.6750 -0.4875
13374TIP3    H261538   4.593   1.210   1.873  1.1920 -0.7007 -1.9582
13375TIP3   OH261539   0.270   4.373  16.216  0.2992  0.0252 -0.3812
13375TIP3    H161540   0.261   4.319  16.295 -0.2142  0.8944  0.1729
13375TIP3    H261541   0.279   4.462  16.249 -2.4544  0.7517 -1.2926
13376TIP3   OH261542   3.360   3.050   0.686  0.5364  0.5500  0.3480
13376TIP3    H161543   3.399   3.137   0.674  1.6231  0.4393  2.6067
13376TIP3    H261544   3.420   2.991   0.639  0.3121  0.9045 -0.3991
13377TIP3   OH261545   2.486   2.658  14.295 -0.3804  0.0066 -0.6798
13377TIP3    H161546   2.440   2.578  14.322  0.6171 -1.0044 -1.8750
13377TIP3    H261547   2.508   2.702  14.377  0.7686 -1.9364  0.1130
13378TIP3   OH261548   1.428   4.885   1.618 -0.1576  0.1367  0.0206
13378TIP3    H161549   1.346   4.919   1.582 -0.4010 -1.4176 -1.0056
13378TIP3    H261550   1.411   4.877   1.712 -1.9993 -2.1107 -0.4084
13379TIP3   OH261551   2.727   1.244   0.248 -0.3921  0.9476  0.3507
13379TIP3    H161552   2.669   1.231   0.172 -2.4799  0.2919  1.9467
13379TIP3    H261553   2.815   1.235   0.213 -1.2986  0.0005 -1.8844
13380TIP3   OH261554   4.088   1.996  16.487  0.6381 -0.5484 -0.4398
13380TIP3    H161555   4.003   2.037  16.501  0.7246  0.3888 -2.3136
13380TIP3    H261556   4.068   1.916  16.438  0.8097 -0.4944 -0.5971
13381TIP3   OH261557   2.743   3.799   2.795  0.0089  0.2248 -0.1387
13381TIP3    H161558   2.671   3.850   2.833 -1.4219 -1.9315  0.2052
13381TIP3    H261559   2.760   3.842   2.711 -1.2788  1.1296  0.0282
13382TIP3   OH261560   3.278   0.144   0.185 -0.3234 -0.0237  0.1970
13382TIP3    H161561   3.336   0.075   0.154 -1.1184 -0.7632  0.3273
13382TIP3    H261562   3.208   0.147   0.121 -0.8115 -0.0274  0.7211
13383TIP3   OH261563   2.884   5.549   5.107 -0.7636 -0.3830 -0.4978
13383TIP3    H161564   2.862   5.588   5.022 -0.0599 -0.9978 -0.9739
13383TIP3    H261565   2.907   5.624   5.162 -0.0856 -0.0494 -1.2015
13384TIP3   OH261566   5.056   4.391   0.577 -0.3403 -0.6022  0.4942
13384TIP3    H161567   5.005   4.448   0.520  0.0817 -1.3046 -0.6216
13384TIP3    H261568   5.047   4.304   0.539  1.6619 -0.7542  0.2518
13385TIP3   OH261569   6.799   4.230   5.379 -0.3529 -0.0312 -0.5792
13385TIP3    H161570   6.887   4.263   5.395 -0.7296  1.1702 -0.8510
13385TIP3    H261571   6.775   4.186   5.460  0.4701 -0.3163 -0.4849
13386TIP3   OH261572   6.445   3.382   0.606  0.3874 -0.6066 -0.1748
13386TIP3    H161573   6.521   3.324   0.601  0.0920 -1.0830  0.6918
13386TIP3    H261574   6.466   3.454   0.547  2.7808  0.7412  2.0943
13387TIP3   OH261575   1.100   0.383  10.770  0.3805  0.1574  0.0602
13387TIP3    H161576   1.048   0.307  10.746 -2.6481  1.3295  2.1993
13387TIP3    H261577   1.158   0.352  10.840  0.5778 -0.5953 -0.4363
13388TIP3   OH261578   0.385   0.279  12.520  0.5722  0.1106 -0.0746
13388TIP3    H161579   0.425   0.302  12.436  0.7432  0.8883  0.2084
13388TIP3    H261580   0.331   0.354  12.542 -0.7645 -0.7590 -0.2541
13389TIP3   OH261581   3.412   4.410   4.876  0.2095  0.9541 -0.3509
13389TIP3    H161582   3.381   4.370   4.958 -1.8072 -1.5483 -2.1858
13389TIP3    H261583   3.486   4.464   4.903 -0.6480  0.6214  3.1822
13390TIP3   OH261584   3.184   2.206  15.538  0.7297  0.2898 -0.4579
13390TIP3    H161585   3.249   2.170  15.599 -0.4895  0.0663  0.7662
13390TIP3    H261586   3.115   2.140  15.534 -0.8988  1.7972  0.7411
13391TIP3   OH261587   4.247   1.236   3.227 -0.0259  0.0399  0.1243
13391TIP3    H161588   4.282   1.161   3.179 -1.5831 -1.2670  0.9319
13391TIP3    H261589   4.178   1.199   3.282 -0.9368  2.0968  0.4541
13392TIP3   OH261590   2.939   5.510   4.612  0.5714 -0.0174  0.1870
13392TIP3    H161591   2.865   5.547   4.564 -0.4880 -0.6789  1.2151
13392TIP3    H261592   2.940   5.558   4.695  0.5042 -0.8419  0.6774
13393TIP3   OH261593   4.668   6.351   5.101  0.1255 -0.0977 -0.2150
13393TIP3    H161594   4.752   6.369   5.142  0.1446 -0.6724  0.0175
13393TIP3    H261595   4.668   6.256   5.088 -1.0239 -0.2944  0.9938
13394TIP3   OH261596   0.418   0.496  17.027 -0.2965 -0.8250 -0.1177
13394TIP3    H161597   0.441   0.412  17.065  1.7907 -0.7393 -1.0468
13394TIP3    H261598   0.332   0.482  16.988 -2.3774 -1.0542  3.9760
13395TIP3   OH261599   3.912   3.169   0.124 -0.1882  0.4954 -0.1166
13395TIP3    H161600   3.976   3.164   0.052  0.6617 -0.1468  0.6576
13395TIP3    H261601   3.875   3.081   0.128  1.3271 -0.1269  1.5806
13396TIP3   OH261602   3.198   4.431  14.396 -0.1664 -0.6616  0.0897
13396TIP3    H161603   3.216   4.472  14.312  0.8662 -1.2622 -0.0059
13396TIP3    H261604   3.155   4.499  14.448  1.5973  0.5987 -0.0211
13397TIP3   OH261605   2.569   0.386  16.633 -0.1365 -0.2518 -0.3046
13397TIP3    H161606   2.598   0.398  16.542  0.4806  0.0409 -0.0711
13397TIP3    H261607   2.647   0.355  16.679 -0.8162 -1.8578 -0.1600
13398TIP3   OH261608   5.432   5.706   2.595 -0.4938 -0.1221  0.6865
13398TIP3    H161609   5.390   5.675   2.676 -1.7579 -2.1404 -0.6349
13398TIP3    H261610   5.521   5.673   2.600 -0.7455 -0.7713  1.0115
13399TIP3   OH261611   4.106   6.052   2.258  0.0753 -0.0157 -0.1313
13399TIP3    H161612   4.194   6.058   2.295 -0.6728  1.3764  1.5812
13399TIP3    H261613   4.079   6.143   2.244 -0.5889 -0.4535 -1.9389
13400TIP3   OH261614   4.314   6.735  13.430 -0.5818 -0.2481 -0.2130
13400TIP3    H161615   4.395   6.699  13.394 -1.4407 -1.8689 -0.6227
13400TIP3    H261616   4.343   6.797  13.496  1.0010  0.4670 -1.5076
13401TIP3   OH261617   3.218   2.955  15.140 -0.1451 -0.0075 -0.0912
13401TIP3    H161618   3.237   2.901  15.063  3.7740 -0.0454  0.7054
13401TIP3    H261619   3.201   3.042  15.105 -2.0100 -0.7256 -1.1161
13402TIP3   OH261620   4.819   5.536  16.941 -0.3067 -0.0635  0.5671
13402TIP3    H161621   4.815   5.565  16.849 -0.8166 -0.0327  0.5958
13402TIP3    H261622   4.830   5.441  16.936 -2.0790 -0.2924  0.4558
13403TIP3   OH261623   0.898   4.776   2.249  0.5203 -0.2583 -0.1745
13403TIP3    H161624   0.859   4.694   2.279  0.9650 -0.0121  1.1661
13403TIP3    H261625   0.850   4.844   2.296  0.6175  0.2120 -0.7429
13404TIP3   OH261626   4.283   6.625   3.673 -0.1987  0.0798  0.0503
13404TIP3    H161627   4.344   6.576   3.617 -0.5573 -0.8285  0.4417
13404TIP3    H261628   4.264   6.705   3.623 -0.0581 -0.4454 -0.8575
13405TIP3   OH261629   3.690   6.644  11.698 -0.4964  0.7500  0.1225
13405TIP3    H161630   3.597   6.630  11.712 -0.1263 -0.5646  1.5180
13405TIP3    H261631   3.713   6.584  11.627 -0.3251 -0.5887  1.2602
13406TIP3   OH261632   4.231   5.355   1.944 -0.2845  0.0942  0.9058
13406TIP3    H161633   4.236   5.398   2.029 -1.3410  0.6126  0.7217
13406TIP3    H261634   4.265   5.421   1.883 -0.7968  0.2382  0.7692
13407TIP3   OH261635   2.839   0.624  14.668  0.1048 -0.3061  0.4472
13407TIP3    H161636   2.920   0.654  14.707 -0.9056  0.6597  1.9110
13407TIP3    H261637   2.820   0.540  14.710  1.1814 -1.4291 -1.1706
13408TIP3   OH261638   4.679   5.589   2.479  0.3392  0.1639 -0.5677
13408TIP3    H161639   4.721   5.516   2.433 -1.3558 -0.8861 -0.5273
13408TIP3    H261640   4.600   5.607   2.428 -0.0701  0.9254  0.3169
13409TIP3   OH261641   2.663   1.341   1.357 -0.2091 -0.0293  1.0214
13409TIP3    H161642   2.697   1.418   1.311 -0.4181 -0.3392  0.3252
13409TIP3    H261643   2.603   1.375   1.422 -0.8684  0.3664  0.2191
13410TIP3   OH261644   2.109   3.085  12.526 -0.7824 -0.0923  0.0178
13410TIP3    H161645   2.156   3.042  12.454  2.2763  2.1896  0.4953
13410TIP3    H261646   2.036   3.130  12.483 -0.7171 -1.1034 -1.2114
13411TIP3   OH261647   3.986   4.754  14.225 -0.1256 -0.0662  0.1879
13411TIP3    H161648   3.903   4.800  14.237 -0.4379 -0.7728  0.7834
13411TIP3    H261649   4.017   4.735  14.313  2.0774  2.5698  0.1537
13412TIP3   OH261650   5.800   2.459  15.432  0.5901  0.3855 -0.5547
13412TIP3    H161651   5.768   2.480  15.520  2.3283 -1.2334  0.5240
13412TIP3    H261652   5.775   2.368  15.419 -0.1197  0.7583 -2.0090
13413TIP3   OH261653   0.306   2.210  11.654  0.5326 -0.2693 -0.0400
13413TIP3    H161654   0.318   2.235  11.563 -1.2585 -0.1273 -0.2810
13413TIP3    H261655   0.258   2.283  11.693 -1.6506 -1.6767  0.1267
13414TIP3   OH261656   0.308   2.448   2.384 -0.0665 -0.3012 -0.0686
13414TIP3    H161657   0.377   2.480   2.442 -0.7738 -0.3503  0.8309
13414TIP3    H261658   0.339   2.363   2.353  0.8912  0.2983 -0.8061
13415TIP3   OH261659   0.762   1.713  13.376  0.1275  0.1423 -0.0246
13415TIP3    H161660   0.748   1.630  13.330  0.7593  0.1945 -0.3266
13415TIP3    H261661   0.798   1.771  13.309 -1.3947  1.0325 -0.1322
13416TIP3   OH261662   3.819   4.720   2.732 -0.2291 -0.6605  0.2377
13416TIP3    H161663   3.839   4.633   2.767 -2.0996 -0.8120  1.0584
13416TIP3    H261664   3.905   4.762   2.721  0.6120 -1.8380  1.8313
13417TIP3   OH261665   3.460   3.791   5.921 -0.0588 -0.4859 -0.5808
13417TIP3    H161666   3.394   3.748   5.976  0.2718 -0.4742 -0.1655
13417TIP3    H261667   3.500   3.856   5.979 -0.7829  0.6218 -1.3028
13418TIP3   OH261668   0.514   1.310   1.608  0.1688  0.1937  0.0996
13418TIP3    H161669   0.567   1.242   1.648  0.3703  1.2163  1.6900
13418TIP3    H261670   0.441   1.323   1.670 -1.2070 -0.2433 -1.3682
13419TIP3   OH261671   0.447   3.603   1.484  0.0573 -0.4065 -0.2793
13419TIP3    H161672   0.531   3.582   1.524  0.2459  0.7765 -0.0232
13419TIP3    H261673   0.467   3.616   1.391  0.2625  0.4344 -0.1206
13420TIP3   OH261674   6.696   3.607   1.786 -0.2486 -0.5512  0.4309
13420TIP3    H161675   6.785   3.578   1.764  0.2578 -0.2695  1.9801
13420TIP3    H261676   6.649   3.526   1.804 -0.8113 -0.8353 -1.9214
13421TIP3   OH261677   0.844   2.763  11.527 -0.1596 -0.3014 -0.5348
13421TIP3    H161678   0.755   2.730  11.510  0.1173 -2.2665  1.3405
13421TIP3    H261679   0.831   2.855  11.549 -1.3038  0.3418 -3.4086
13422TIP3   OH261680   1.716   1.386   3.792  0.0274  0.4703 -0.3984
13422TIP3    H161681   1.768   1.406   3.869  0.2560 -0.8817 -0.1792
13422TIP3    H261682   1.762   1.429   3.720  0.3997  0.8463  0.0628
13423TIP3   OH261683   4.872   3.110  17.211 -0.2594  0.4037 -0.0201
13423TIP3    H161684   4.955   3.155  17.229 -0.9831  1.2402  1.3373
13423TIP3    H261685   4.805   3.170  17.243 -1.2669 -1.7174  2.1170
13424TIP3   OH261686   4.915   2.021   4.515  0.0540 -0.3359  0.2103
13424TIP3    H161687   4.822   2.016   4.495 -0.1976  0.1933  1.2050
13424TIP3    H261688   4.945   1.930   4.516 -0.1990 -0.4574 -1.2039
13425TIP3   OH261689   4.317   2.441  13.189  0.0941 -0.0772  0.3076
13425TIP3    H161690   4.357   2.442  13.276 -1.6333  1.7257  1.1706
13425TIP3    H261691   4.276   2.355  13.183  0.1813 -0.2072  1.3165
13426TIP3   OH261692   5.370   5.843   3.694  0.1440 -0.3304  0.3660
13426TIP3    H161693   5.346   5.838   3.786  0.2746 -2.4016  0.3464
13426TIP3    H261694   5.419   5.762   3.677 -1.0710 -0.7128 -1.8178
13427TIP3   OH261695   0.202   6.599  16.500  0.1712 -0.0822 -0.6344
13427TIP3    H161696   0.133   6.533  16.507  0.3057 -0.1553  0.2087
13427TIP3    H261697   0.227   6.616  16.591  1.6298 -0.4416 -0.9557
13428TIP3   OH261698   3.831   3.506   7.015 -0.3169  0.0562 -0.0984
13428TIP3    H161699   3.893   3.450   6.969  0.5337  0.1745  0.8608
13428TIP3    H261700   3.886   3.570   7.061 -0.9191 -1.1813  2.5888
13429TIP3   OH261701   2.787   2.760   3.285  0.5497  0.4706 -0.2673
13429TIP3    H161702   2.774   2.786   3.377 -2.9939  1.0482 -0.7896
13429TIP3    H261703   2.756   2.670   3.282  0.1484  0.6350 -1.0053
13430TIP3   OH261704   0.960   0.108   4.817  0.2895 -0.1043  0.0199
13430TIP3    H161705   0.962   0.126   4.723  0.3269 -0.9255 -0.1469
13430TIP3    H261706   0.873   0.137   4.846 -0.2577 -1.1244 -0.5478
13431TIP3   OH261707   2.990   4.659   1.506  0.2344 -0.1959 -0.3735
13431TIP3    H161708   2.904   4.664   1.464  0.0679 -0.1915 -0.0347
13431TIP3    H261709   3.008   4.748   1.536  0.1636 -0.2839 -0.0648
13432TIP3   OH261710   5.331   0.726   5.291  0.4857  0.2442  0.5130
13432TIP3    H161711   5.407   0.719   5.348  1.0204 -1.9203 -0.3709
13432TIP3    H261712   5.344   0.808   5.244  1.3421  0.7796  1.6322
13433TIP3   OH261713   4.691   3.433  13.515  0.0215 -0.2783  0.4223
13433TIP3    H161714   4.638   3.459  13.590 -0.5810 -0.1525 -0.0447
13433TIP3    H261715   4.674   3.500  13.449  1.7478  0.5033  0.6943
13434TIP3   OH261716   0.297   0.216  13.977 -0.0859  0.0155  0.1306
13434TIP3    H161717   0.345   0.175  14.049 -0.0965  0.8733  0.6464
13434TIP3    H261718   0.352   0.290  13.951  0.2646 -0.6871 -1.2314
13435TIP3   OH261719   4.818   3.460  13.890  0.7506 -0.1968  0.3549
13435TIP3    H161720   4.786   3.531  13.833  0.8371 -0.3709  0.0918
13435TIP3    H261721   4.849   3.506  13.969 -1.7275 -0.1112  1.3847
13436TIP3   OH261722   5.049   1.195   2.477 -0.2694  0.1054 -0.5181
13436TIP3    H161723   4.988   1.124   2.456 -0.3469  0.0664 -0.1695
13436TIP3    H261724   5.028   1.265   2.415 -2.1853  0.9686  0.9836
13437TIP3   OH261725   3.709   0.644   1.691 -0.1629  0.0645 -0.1921
13437TIP3    H161726   3.736   0.724   1.735 -0.2706 -0.0363  0.0573
13437TIP3    H261727   3.726   0.661   1.598  0.0223  0.2931 -0.1179
13438TIP3   OH261728   5.541   0.642   5.453 -0.4488  0.5934 -0.2009
13438TIP3    H161729   5.498   0.561   5.481 -0.7212  1.2117  1.2552
13438TIP3    H261730   5.565   0.686   5.535  2.0371  0.7758 -0.9378
13439TIP3   OH261731   0.701   3.115   0.134  0.3118 -0.3554  0.6579
13439TIP3    H161732   0.761   3.052   0.094  1.2942 -0.6321  2.4494
13439TIP3    H261733   0.751   3.197   0.135 -0.6029  0.2575 -0.7844
13440TIP3   OH261734   3.384   5.172  16.936 -0.5292  0.6314  0.0167
13440TIP3    H161735   3.323   5.122  16.990  0.4527 -0.3587  0.2455
13440TIP3    H261736   3.455   5.196  16.995  0.3623 -0.1281 -0.7176
13441TIP3   OH261737   0.499   6.681  14.748  0.7758  0.1663  0.3758
13441TIP3    H161738   0.462   6.732  14.676  2.4072 -0.0024 -0.6396
13441TIP3    H261739   0.475   6.730  14.827  0.1799  1.1333 -0.3753
13442TIP3   OH261740   0.845   4.714  16.790  0.1152 -0.2289 -0.2620
13442TIP3    H161741   0.845   4.740  16.883 -1.1068  0.1208 -0.3359
13442TIP3    H261742   0.906   4.774  16.748 -0.1244  0.3136  0.1476
13443TIP3   OH261743   2.709   6.137  16.381  0.2609  0.0913 -0.1303
13443TIP3    H161744   2.674   6.212  16.429  0.8355  0.8812 -0.9221
13443TIP3    H261745   2.649   6.125  16.308 -0.8576 -1.3779  0.9492
13444TIP3   OH261746   1.172   0.317  14.378  0.6118 -0.5304 -0.5811
13444TIP3    H161747   1.174   0.361  14.462  0.0832 -1.2701 -0.1606
13444TIP3    H261748   1.255   0.269  14.373  0.6680 -0.4400 -0.5033
13445TIP3   OH261749   0.478   3.427   0.936  0.0002 -0.0316  0.0403
13445TIP3    H161750   0.405   3.384   0.891 -0.1268 -1.6532  1.6830
13445TIP3    H261751   0.525   3.473   0.866 -1.4137 -0.6431 -1.3797
13446TIP3   OH261752   1.573   0.501   5.072 -0.2634 -0.2784 -0.3119
13446TIP3    H161753   1.512   0.470   5.139  0.0904 -0.1061  0.0928
13446TIP3    H261754   1.527   0.573   5.028 -0.0533  0.3577  0.5016
13447TIP3   OH261755   3.312   6.787   2.386 -1.1176 -0.2923 -0.1266
13447TIP3    H161756   3.220   6.786   2.412 -0.8281 -0.4983  0.9314
13447TIP3    H261757   3.332   6.880   2.372 -1.5400 -0.2684 -0.5598
13448TIP3   OH261758   6.286   4.348   0.430 -0.5229  0.0072  0.1231
13448TIP3    H161759   6.304   4.358   0.524  1.8609  0.0161 -0.2795
13448TIP3    H261760   6.359   4.297   0.397 -0.5198  1.2695 -1.9915
13449TIP3   OH261761   6.628   2.226  16.424 -0.2713  0.5817  0.2484
13449TIP3    H161762   6.582   2.307  16.400 -0.1630  0.6380  0.2316
13449TIP3    H261763   6.558   2.167  16.453 -0.2808  0.9373  0.9793
13450TIP3   OH261764   4.144   3.675  15.755  0.1179  0.2955  0.1578
13450TIP3    H161765   4.077   3.719  15.808 -0.8684  0.7336 -1.3584
13450TIP3    H261766   4.108   3.588  15.740 -0.7613  0.9053 -1.6419
13451TIP3   OH261767   6.501   4.827  16.072  0.1961  0.5660 -0.0692
13451TIP3    H161768   6.570   4.791  16.015  0.2985  0.6598 -0.0036
13451TIP3    H261769   6.487   4.916  16.038  0.3324  0.6597  0.1193
13452TIP3   OH261770   6.451   4.124  14.794  0.7885 -0.3249 -0.4523
13452TIP3    H161771   6.383   4.191  14.784 -0.1066 -0.9060  1.3541
13452TIP3    H261772   6.463   4.088  14.706 -0.6399  0.3668 -0.9493
13453TIP3   OH261773   1.889   3.403   4.893 -0.0497 -0.1736 -0.4381
13453TIP3    H161774   1.840   3.355   4.960 -0.0926 -1.1207 -1.1316
13453TIP3    H261775   1.981   3.385   4.912 -0.0027  0.4828  0.0275
13454TIP3   OH261776   2.239   4.514  12.366 -0.0255 -0.4611 -0.4454
13454TIP3    H161777   2.312   4.575  12.362 -1.9349  1.9502 -1.3237
13454TIP3    H261778   2.255   4.453  12.293  0.7083  0.5172 -1.1292
13455TIP3   OH261779   3.717   5.146   2.320  0.0826  0.2836  0.2970
13455TIP3    H161780   3.763   5.223   2.286 -1.2070  1.1032  0.3857
13455TIP3    H261781   3.630   5.177   2.344 -0.0226 -0.9211  1.6004
13456TIP3   OH261782   1.519   3.948   1.655 -0.6517  0.1354 -0.3480
13456TIP3    H161783   1.489   3.857   1.657  1.7316 -0.7131  1.0674
13456TIP3    H261784   1.554   3.960   1.566 -1.1549 -0.2724 -0.6037
13457TIP3   OH261785   0.479   6.562  11.934 -0.3907 -0.6272 -0.5317
13457TIP3    H161786   0.469   6.657  11.938 -0.6327 -0.6420 -0.7759
13457TIP3    H261787   0.537   6.541  12.008 -1.0101 -0.3825  0.0416
13458TIP3   OH261788   5.745   0.567   2.284 -0.3797 -0.3235  0.2902
13458TIP3    H161789   5.692   0.487   2.281 -2.5781  0.9592  1.8054
13458TIP3    H261790   5.708   0.623   2.216  0.8153 -0.3619 -0.4180
13459TIP3   OH261791   4.358   5.030  14.327  0.3014 -0.6583  0.1753
13459TIP3    H161792   4.452   5.051  14.327  0.0464  0.5817  0.8933
13459TIP3    H261793   4.318   5.100  14.275 -0.3527 -0.5349  0.8378
13460TIP3   OH261794   3.338   5.652  15.447 -0.2887 -0.0597  0.0285
13460TIP3    H161795   3.318   5.738  15.485  0.5362  0.2482 -0.1999
13460TIP3    H261796   3.326   5.591  15.520 -1.1747  0.2078  0.1152
13461TIP3   OH261797   5.635   1.518  11.379 -0.0709 -0.2824 -0.7082
13461TIP3    H161798   5.712   1.519  11.322  1.1913  0.6075  0.9468
13461TIP3    H261799   5.565   1.557  11.326  1.3365  1.5363 -1.2945
13462TIP3   OH261800   2.577   0.091  14.756  0.2821  0.6948  0.2821
13462TIP3    H161801   2.668   0.088  14.787  0.1999  0.3396  0.4963
13462TIP3    H261802   2.575   0.166  14.697  0.7088  0.7239  0.2957
13463TIP3   OH261803   5.980   2.060  15.787  0.5534 -0.4987 -0.2057
13463TIP3    H161804   6.013   2.043  15.699 -1.2408 -1.0020 -0.8223
13463TIP3    H261805   6.005   1.983  15.838  0.6450 -0.6991 -0.5516
13464TIP3   OH261806   3.772   3.665   1.633  0.1308  0.7056  0.0714
13464TIP3    H161807   3.819   3.592   1.593  0.8171  1.3480 -0.3208
13464TIP3    H261808   3.705   3.623   1.687  0.4588 -0.2105 -0.2034
13465TIP3   OH261809   3.457   6.342  13.968  0.5711  0.2893 -0.0432
13465TIP3    H161810   3.464   6.422  14.020 -0.7926  1.4126 -1.4673
13465TIP3    H261811   3.363   6.333  13.951  0.8012 -1.0666 -0.7649
13466TIP3   OH261812   5.683   0.011  13.715  0.0137 -0.6483  0.1430
13466TIP3    H161813   5.654  -0.059  13.656  4.4088 -1.1173 -1.8544
13466TIP3    H261814   5.728  -0.034  13.786  0.8475  0.0536  0.0821
13467TIP3   OH261815   6.166   6.713  13.209  0.1990  0.7497 -0.2162
13467TIP3    H161816   6.169   6.807  13.225  1.2087  0.5677  0.8018
13467TIP3    H261817   6.110   6.678  13.278 -1.2733  0.7078 -1.3594
13468TIP3   OH261818   2.622   1.270  16.055 -0.1357 -0.1266 -0.0172
13468TIP3    H161819   2.547   1.251  15.999  1.2446  0.0979 -2.0727
13468TIP3    H261820   2.624   1.199  16.118 -0.4072 -1.7657 -1.7636
13469TIP3   OH261821   3.862   0.259   1.005 -0.4662 -0.4583 -0.2255
13469TIP3    H161822   3.957   0.269   1.005 -0.4606 -0.5193 -0.0800
13469TIP3    H261823   3.831   0.329   0.947 -0.3642 -0.1569  0.0809
13470TIP3   OH261824   1.453   0.427   2.454  0.5072  0.2258  0.2400
13470TIP3    H161825   1.422   0.495   2.514 -0.4387 -0.1675  0.2267
13470TIP3    H261826   1.544   0.414   2.477  0.9312  1.9903 -0.2207
13471TIP3   OH261827   4.296   6.381   0.511 -0.1987  0.2610  0.3513
13471TIP3    H161828   4.383   6.386   0.551  0.2620  1.1186 -0.7164
13471TIP3    H261829   4.306   6.426   0.427 -1.0920 -1.5929 -0.8152
13472TIP3   OH261830   6.214   3.676   3.880  0.1698 -0.6390 -0.0718
13472TIP3    H161831   6.275   3.749   3.868 -0.3883 -0.1322  0.1080
13472TIP3    H261832   6.141   3.697   3.822 -0.7584 -0.1850  1.2194
13473TIP3   OH261833   1.068   1.464   2.830 -0.6934 -0.0008 -0.4097
13473TIP3    H161834   0.997   1.401   2.844  0.0858 -0.7249  0.4396
13473TIP3    H261835   1.070   1.517   2.909 -0.2677 -0.0086 -0.4103
13474TIP3   OH261836   5.635   2.448   3.410  0.2406  0.4029  0.5850
13474TIP3    H161837   5.637   2.501   3.331  0.9408  1.9122  1.5601
13474TIP3    H261838   5.596   2.365   3.383 -0.1428  1.1176 -1.1756
13475TIP3   OH261839   6.213   6.784   0.805 -0.0130 -0.4749 -0.0938
13475TIP3    H161840   6.269   6.731   0.862 -0.6378 -1.5587 -0.4615
13475TIP3    H261841   6.126   6.779   0.845  0.2107  1.6669  0.7932
13476TIP3   OH261842   5.880   3.423  16.007  0.4129  0.2469 -0.8135
13476TIP3    H161843   5.793   3.426  16.048  1.3445 -0.8967  1.4117
13476TIP3    H261844   5.887   3.336  15.969  0.4290  0.5094 -1.4334
13477TIP3   OH261845   5.441   6.790  17.052 -0.1278  0.4446 -0.5994
13477TIP3    H161846   5.434   6.696  17.035  0.7259 -0.0034  1.2616
13477TIP3    H261847   5.534   6.810  17.038 -0.3602  1.0734 -1.2701
13478TIP3   OH261848   1.332   0.519  15.753  0.1563  0.3633 -0.3060
13478TIP3    H161849   1.340   0.560  15.839  2.6574  1.9968 -1.2076
13478TIP3    H261850   1.422   0.510  15.722 -0.6277 -1.0671 -2.3635
13479TIP3   OH261851   5.205   3.250  15.681  0.1454  0.8517 -0.0911
13479TIP3    H161852   5.137   3.227  15.745  1.3332  1.8060  1.5682
13479TIP3    H261853   5.255   3.169  15.670  0.6496  0.9741  1.1253
13480TIP3   OH261854   3.390   0.441   5.242 -0.0393  0.1845 -0.3979
13480TIP3    H161855   3.469   0.441   5.296  0.1109 -1.4851 -0.5455
13480TIP3    H261856   3.396   0.359   5.192 -2.4689 -0.6188  0.5057
13481TIP3   OH261857   6.396   3.064  11.496  0.4044  0.0565  0.0040
13481TIP3    H161858   6.405   3.104  11.410  0.6744 -0.4330 -0.1973
13481TIP3    H261859   6.433   2.977  11.486  1.0193  0.2176  0.7784
13482TIP3   OH261860   3.686   3.248   1.194  0.3465 -0.2886  0.3445
13482TIP3    H161861   3.747   3.222   1.125 -0.6967 -1.1539 -0.2868
13482TIP3    H261862   3.703   3.341   1.208  1.8773 -0.5372  0.2751
13483TIP3   OH261863   3.578   5.206  16.517  0.0562 -0.2805  0.2175
13483TIP3    H161864   3.550   5.296  16.499 -0.5404 -0.4185  0.4235
13483TIP3    H261865   3.541   5.155  16.446 -0.7198 -0.5513  0.8120
13484TIP3   OH261866   3.465   1.768  12.948 -0.0701 -0.1487 -0.4627
13484TIP3    H161867   3.504   1.697  12.897 -0.7336  0.5656 -2.0512
13484TIP3    H261868   3.460   1.734  13.037  0.2414 -1.8289 -1.0482
13485TIP3   OH261869   0.090   2.085  11.476 -0.3229 -0.4900 -0.5575
13485TIP3    H161870   0.031   2.148  11.434 -0.7698  0.7405  1.7582
13485TIP3    H261871   0.177   2.119  11.458 -0.4888 -0.1375 -0.7063
13486TIP3   OH261872   3.753   3.241   4.566  0.2260  0.6269  0.1731
13486TIP3    H161873   3.831   3.231   4.620 -0.2257  0.8681  0.8760
13486TIP3    H261874   3.781   3.296   4.493  0.8571  0.2372  0.1167
13487TIP3   OH261875   4.854   2.990   4.569 -0.3111 -0.0703 -0.2769
13487TIP3    H161876   4.784   2.935   4.533  0.4642 -0.7337 -0.7939
13487TIP3    H261877   4.840   2.986   4.664 -0.6022 -0.7146 -0.3368
13488TIP3   OH261878   0.392   0.749  14.821 -0.2005 -0.0564  0.2942
13488TIP3    H161879   0.355   0.729  14.906 -1.0201  1.5579  0.3554
13488TIP3    H261880   0.425   0.839  14.829 -2.4345  1.0851 -1.7023
13489TIP3   OH261881   1.583   0.333   1.097  0.7264 -0.7913 -0.0340
13489TIP3    H161882   1.517   0.377   1.042  0.7984 -0.2265  0.3163
13489TIP3    H261883   1.590   0.390   1.174  2.3187 -0.3263 -0.4965
13490TIP3   OH261884   4.019   6.007  11.961  0.3784  0.3968  0.2167
13490TIP3    H161885   3.925   6.025  11.965  0.6830  2.1302  0.1269
13490TIP3    H261886   4.057   6.060  12.032  1.4051  0.5444 -0.4222
13491TIP3   OH261887   2.475   1.460  16.439 -0.2472  0.6822  0.2995
13491TIP3    H161888   2.456   1.439  16.531  0.4759 -0.5939  0.1716
13491TIP3    H261889   2.558   1.417  16.421  1.0370  3.2007 -0.1765
13492TIP3   OH261890   2.959   3.331  13.064 -0.0872  0.2951  0.0931
13492TIP3    H161891   2.910   3.249  13.065 -0.3654  0.4483 -0.4148
13492TIP3    H261892   2.989   3.342  13.154 -0.0939 -0.3348  0.1751
13493TIP3   OH261893   4.080   1.856   0.406  0.4554 -0.4662 -0.2031
13493TIP3    H161894   4.008   1.905   0.447  0.6150 -0.0593 -0.3991
13493TIP3    H261895   4.127   1.816   0.479 -1.3571 -2.7425 -0.1667
13494TIP3   OH261896   1.038   0.693   5.257  0.5816  0.2218 -0.4537
13494TIP3    H161897   1.107   0.685   5.192  2.3807 -1.4810  1.4765
13494TIP3    H261898   1.013   0.602   5.277 -0.4758  0.7122  0.6169
13495TIP3   OH261899   6.794   4.958  12.873  0.3440  0.8697 -0.2402
13495TIP3    H161900   6.776   5.038  12.823  0.1389  1.4548  0.7351
13495TIP3    H261901   6.827   4.989  12.957 -1.5458  0.0324  0.9001
13496TIP3   OH261902   6.510   2.378   0.490 -0.1745  0.0609  1.1772
13496TIP3    H161903   6.524   2.292   0.529  0.3683 -1.6168 -2.4036
13496TIP3    H261904   6.595   2.422   0.498  0.9762 -1.5915 -0.9649
13497TIP3   OH261905   4.049   4.470   4.808 -0.2617 -0.0706 -0.0914
13497TIP3    H161906   4.112   4.528   4.851 -0.5945 -1.3640  2.3507
13497TIP3    H261907   3.973   4.469   4.867 -0.6281 -2.2386 -0.5070
13498TIP3   OH261908   3.738   6.078   4.465  0.3106 -0.0545  0.2301
13498TIP3    H161909   3.776   5.997   4.499  0.0107  0.0689  0.8713
13498TIP3    H261910   3.654   6.087   4.509  0.4840  0.7742  0.4265
13499TIP3   OH261911   6.657   0.517   4.566 -0.2166 -0.7741 -0.0433
13499TIP3    H161912   6.619   0.600   4.594 -0.5082 -0.9506  0.0887
13499TIP3    H261913   6.605   0.450   4.611 -1.0739 -1.0919 -1.4708
13500TIP3   OH261914   6.255   0.393   3.884 -0.3255 -0.3820 -0.3716
13500TIP3    H161915   6.277   0.382   3.792 -0.5383  0.6703 -0.5628
13500TIP3    H261916   6.163   0.418   3.884 -0.0948  0.5362  0.0464
13501TIP3   OH261917   1.268   6.172  15.605 -0.4016  0.3270  0.0836
13501TIP3    H161918   1.281   6.267  15.609 -2.3764  0.7289 -1.4413
13501TIP3    H261919   1.294   6.141  15.691  1.5007  2.0620  0.2199
13502TIP3   OH261920   1.545   2.446   3.063 -0.1212 -0.2383 -0.2595
13502TIP3    H161921   1.466   2.397   3.086 -1.3103 -0.8197 -4.6564
13502TIP3    H261922   1.617   2.385   3.077 -0.7335 -0.6652  1.1504
13503TIP3   OH261923   2.409   0.700  16.810  0.1859 -0.4310 -0.1570
13503TIP3    H161924   2.494   0.727  16.775  0.9856  0.4125  2.2246
13503TIP3    H261925   2.369   0.782  16.839 -1.8728 -0.7051 -1.9782
13504TIP3   OH261926   0.779   0.432  13.506 -0.0369  0.1129  0.2835
13504TIP3    H161927   0.784   0.524  13.481 -0.2513 -0.0931 -0.5618
13504TIP3    H261928   0.819   0.428  13.593  0.5660  0.8919  0.0523
13505TIP3   OH261929   6.545   0.408   0.282 -0.4811 -0.1855  0.2607
13505TIP3    H161930   6.470   0.355   0.253 -0.3282 -1.2891  1.7778
13505TIP3    H261931   6.570   0.370   0.366  3.0862 -1.2168 -1.0886
13506TIP3   OH261932   6.032   1.668   2.268  0.3099 -0.3622 -0.2914
13506TIP3    H161933   5.937   1.681   2.268  0.3590  0.0532 -0.9852
13506TIP3    H261934   6.047   1.605   2.198  0.4446 -1.3488  0.5967
13507TIP3   OH261935   4.541   2.092   5.198  0.0974 -0.2700  0.1811
13507TIP3    H161936   4.629   2.096   5.161 -1.2544  1.7790 -3.3115
13507TIP3    H261937   4.536   2.168   5.257  1.1436 -1.5021  1.9736
13508TIP3   OH261938   2.029   6.809   3.002 -1.0150  0.3006 -0.2909
13508TIP3    H161939   1.936   6.830   2.992 -1.0693 -0.3270 -1.3197
13508TIP3    H261940   2.035   6.716   2.979 -0.3606 -0.1024  1.3475
13509TIP3   OH261941   3.529   0.717  15.892 -0.3373  0.0241  0.3033
13509TIP3    H161942   3.434   0.711  15.904 -0.2530 -3.0077  0.0524
13509TIP3    H261943   3.539   0.763  15.809 -1.7447 -1.8476 -0.9978
13510TIP3   OH261944   4.312   0.459  12.811 -0.1263 -0.0049 -0.0830
13510TIP3    H161945   4.266   0.515  12.749  1.2978  2.8412  1.2409
13510TIP3    H261946   4.387   0.425  12.762 -0.2014  0.4814 -0.5449
13511TIP3   OH261947   5.405   6.203   4.170 -0.0886  0.1303  0.1520
13511TIP3    H161948   5.401   6.214   4.265 -1.6062  1.8031 -0.0495
13511TIP3    H261949   5.406   6.292   4.135 -1.4000 -0.4169 -1.4198
13512TIP3   OH261950   3.743   6.208   5.248 -0.6218  0.5224  0.1467
13512TIP3    H161951   3.823   6.159   5.232 -0.8687 -0.0772  0.6847
13512TIP3    H261952   3.714   6.179   5.335 -1.6440  0.4013 -0.2167
13513TIP3   OH261953   3.578   2.540  16.903  0.1744 -0.4441 -0.2940
13513TIP3    H161954   3.668   2.516  16.927 -0.2505 -1.3888  0.4270
13513TIP3    H261955   3.560   2.620  16.953  0.1219 -1.0681  0.7113
13514TIP3   OH261956   4.071   3.300   4.126 -0.5773  1.0234  0.4236
13514TIP3    H161957   4.088   3.351   4.205  1.0239 -0.5241  1.1307
13514TIP3    H261958   4.140   3.234   4.124  0.2213  1.7661 -2.9520
13515TIP3   OH261959   4.229   0.089   2.773  0.2255 -0.0382 -0.0341
13515TIP3    H161960   4.152   0.040   2.801  0.9899 -0.1640  1.9812
13515TIP3    H261961   4.303   0.040   2.809  1.0908  1.7486  0.7277
13516TIP3   OH261962   1.360   5.986  11.680 -0.5427 -0.6572  0.2549
13516TIP3    H161963   1.398   5.976  11.768  1.1455 -1.0978 -0.4704
13516TIP3    H261964   1.336   5.897  11.654  0.9704 -0.8871 -0.5213
13517TIP3   OH261965   1.089   3.401   2.133  0.4058 -0.2517  0.3166
13517TIP3    H161966   1.113   3.453   2.056 -1.1164  1.8970  1.2018
13517TIP3    H261967   1.170   3.396   2.185  0.8927  0.1670 -0.3867
13518TIP3   OH261968   5.561   5.003  14.640  0.3756  0.1818 -0.0594
13518TIP3    H161969   5.611   5.002  14.559  1.8110  0.9143  0.7785
13518TIP3    H261970   5.617   5.048  14.703 -0.8349 -0.0647  1.2618
13519TIP3   OH261971   1.505   1.560   3.742  0.6365 -0.1224  0.1348
13519TIP3    H161972   1.596   1.529   3.748 -0.0846 -2.7547 -1.1076
13519TIP3    H261973   1.513   1.651   3.713  2.8906  0.5358  2.4162
13520TIP3   OH261974   6.707   5.443  16.106 -0.2740 -0.1581  0.2257
13520TIP3    H161975   6.705   5.368  16.165  0.8617 -1.0705 -0.8528
13520TIP3    H261976   6.742   5.409  16.023  0.0009  1.4793 -0.3846
13521TIP3   OH261977   1.706   3.242  16.211 -0.1255  0.1149 -0.1704
13521TIP3    H161978   1.801   3.238  16.213 -0.1349  0.2239  0.9887
13521TIP3    H261979   1.681   3.186  16.137  0.8079 -0.4278 -0.0824
13522TIP3   OH261980   1.371   4.367  17.201 -0.7296  0.1272 -0.1865
13522TIP3    H161981   1.416   4.374  17.117 -0.7531  2.1187 -0.0637
13522TIP3    H261982   1.422   4.302  17.250 -0.3647 -0.6104 -1.4975
13523TIP3   OH261983   2.875   3.238   5.489 -0.1914 -0.2199  0.1924
13523TIP3    H161984   2.814   3.281   5.548  0.5680 -1.4051  1.9366
13523TIP3    H261985   2.819   3.185   5.432 -0.8968  0.2095  0.4702
13524TIP3   OH261986   2.214   5.189   1.950  0.0752 -0.3942 -0.1789
13524TIP3    H161987   2.310   5.197   1.945  0.2357 -0.7056  1.7486
13524TIP3    H261988   2.197   5.099   1.923  0.2612 -0.1678 -1.0785
13525TIP3   OH261989   3.170   1.211  15.128  0.2939 -0.0869  0.1370
13525TIP3    H161990   3.172   1.179  15.218  0.1959  0.2032  0.2436
13525TIP3    H261991   3.082   1.189  15.097 -0.1855  1.1162  0.5959
13526TIP3   OH261992   4.933   3.566  15.244  0.9488  0.0021  0.5035
13526TIP3    H161993   5.015   3.559  15.195 -0.0454  1.2183 -1.4476
13526TIP3    H261994   4.877   3.499  15.206 -0.1220  1.5186 -0.7165
13527TIP3   OH261995   4.362   2.793  15.470 -0.0711 -0.5947  0.1476
13527TIP3    H161996   4.279   2.839  15.455  0.7437  1.1115  0.5523
13527TIP3    H261997   4.351   2.750  15.555 -0.1406  0.6354  0.7817
13528TIP3   OH261998   5.917   1.522  13.979 -0.2611 -0.0096 -0.2108
13528TIP3    H161999   6.008   1.508  14.006 -0.1035  0.3445 -0.5561
13528TIP3    H262000   5.920   1.599  13.923 -0.8858  0.4382  0.3632
13529TIP3   OH262001   1.550   3.067   4.069 -0.2571  0.0745  0.1224
13529TIP3    H162002   1.500   3.042   4.147 -0.0225 -1.4231 -0.1732
13529TIP3    H262003   1.483   3.083   4.002 -0.6198  3.5894  1.1161
13530TIP3   OH262004   2.974   3.541   3.429 -0.4011  0.0631  0.7718
13530TIP3    H162005   3.009   3.471   3.375 -3.2938 -0.4842 -0.5847
13530TIP3    H262006   2.914   3.497   3.489 -0.6332  1.1528  1.3690
13531TIP3   OH262007   1.332   5.508   5.136  0.3270 -0.0264  0.3860
13531TIP3    H162008   1.301   5.480   5.050 -1.0920  1.0351  0.5093
13531TIP3    H262009   1.289   5.450   5.198  0.9944 -0.4988  0.4183
13532TIP3   OH262010   1.331   2.203   4.236  0.4058  0.5063 -0.1389
13532TIP3    H162011   1.379   2.285   4.230  3.4948 -1.2567 -3.3025
13532TIP3    H262012   1.367   2.149   4.165 -2.7375 -2.9473  0.5908
13533TIP3   OH262013   5.065   6.589  16.779  0.2400 -0.2681  0.3215
13533TIP3    H162014   5.126   6.641  16.726 -1.6268  0.6886 -1.0314
13533TIP3    H262015   5.111   6.507  16.795  1.6005  0.1139 -1.3030
13534TIP3   OH262016   1.851   5.926   2.645  0.0637 -0.3527  0.0781
13534TIP3    H162017   1.759   5.942   2.623 -0.5001 -1.8102  1.1470
13534TIP3    H262018   1.890   5.896   2.563 -0.0066  1.6771 -0.7567
13535TIP3   OH262019   1.225   5.349  16.704  0.3424  0.5511  0.5708
13535TIP3    H162020   1.181   5.295  16.638 -0.8458 -0.2517  1.9541
13535TIP3    H262021   1.156   5.408  16.736  1.4875  2.6020 -0.5474
13536TIP3   OH262022   2.719   0.465   1.070  0.1832 -0.0679  0.0901
13536TIP3    H162023   2.646   0.522   1.094  1.4228  1.9364 -0.5933
13536TIP3    H262024   2.728   0.476   0.976  1.2122 -0.4789  0.1286
13537TIP3   OH262025   5.026   4.240  15.300 -0.8046  0.1273 -0.1383
13537TIP3    H162026   5.043   4.192  15.381  0.1099  1.0821  0.2578
13537TIP3    H262027   5.042   4.177  15.231  0.7500 -0.0624  0.3554
13538TIP3   OH262028   4.912   6.543  14.805 -0.1463  0.0872  0.2332
13538TIP3    H162029   4.827   6.584  14.787 -0.9929 -1.6192  0.0943
13538TIP3    H262030   4.930   6.490  14.727  0.1713 -0.9614  1.0008
13539TIP3   OH262031   4.146   2.976  10.681 -0.1639  0.0920  0.0599
13539TIP3    H162032   4.138   3.063  10.642 -1.4197  0.0600  0.2160
13539TIP3    H262033   4.216   2.934  10.630 -0.7154  0.5821 -1.1472
13540TIP3   OH262034   3.038   3.899   1.442 -0.2528 -0.2435 -0.0752
13540TIP3    H162035   3.066   3.888   1.533 -0.0766 -0.8064 -0.1978
13540TIP3    H262036   3.092   3.838   1.392 -0.6605 -0.2602 -0.5043
13541TIP3   OH262037   3.823   5.353  15.031  0.5532 -0.0554  0.4842
13541TIP3    H162038   3.805   5.438  15.072 -1.8293  1.1915 -2.7380
13541TIP3    H262039   3.900   5.370  14.976  0.4481 -0.1546  0.3062
13542TIP3   OH262040   1.328   5.890  16.746 -0.3586 -0.2375 -0.5031
13542TIP3    H162041   1.350   5.934  16.664 -2.0246 -0.4641 -1.1123
13542TIP3    H262042   1.244   5.928  16.772  0.2175 -0.0404  1.2152
13543TIP3   OH262043   4.088   5.868  15.739 -0.3998 -0.1728  0.0893
13543TIP3    H162044   4.093   5.947  15.685 -0.3582 -0.1222  0.1680
13543TIP3    H262045   4.177   5.857  15.773 -0.1765 -0.7489 -0.6434
13544TIP3   OH262046   0.694   3.934  14.220  0.7387  0.0053 -0.4502
13544TIP3    H162047   0.693   3.926  14.125 -0.2656  0.4112 -0.4855
13544TIP3    H262048   0.650   3.855  14.252  0.7101  0.0676 -0.3327
13545TIP3   OH262049   2.398   3.267  17.178  0.6428 -0.1878  0.2126
13545TIP3    H162050   2.402   3.241  17.271 -0.4553  0.3794  0.4458
13545TIP3    H262051   2.389   3.363  17.181 -0.3531 -0.2513 -0.4346
13546TIP3   OH262052   6.753   6.656  11.548 -0.7605  0.2651 -0.2264
13546TIP3    H162053   6.845   6.638  11.528 -1.3232 -0.5224 -2.3612
13546TIP3    H262054   6.711   6.665  11.462 -2.0829  4.0694  0.6199
13547TIP3   OH262055   3.674   6.590   0.551 -0.7580 -0.1781 -0.3740
13547TIP3    H162056   3.623   6.563   0.475 -1.9133 -2.3487  1.0417
13547TIP3    H262057   3.675   6.512   0.607  1.1095  0.9403  1.2779
13548TIP3   OH262058   3.664   2.632   4.988 -0.0389 -0.0394 -0.7789
13548TIP3    H162059   3.665   2.666   4.899 -0.3218  0.9865 -0.4117
13548TIP3    H262060   3.618   2.548   4.982  0.2425 -0.1340 -1.6475
13549TIP3   OH262061   2.826   4.366  16.961 -0.0636 -0.2059  0.1598
13549TIP3    H162062   2.748   4.410  16.996  0.3337 -0.6905  1.7319
13549TIP3    H262063   2.795   4.321  16.882 -1.1302  0.4676  0.1755
13550TIP3   OH262064   2.656   5.788  11.359  0.3837  0.2790  0.1919
13550TIP3    H162065   2.674   5.781  11.265  0.7048  0.2292  0.2586
13550TIP3    H262066   2.647   5.883  11.374 -0.6477  0.2401 -0.0697
13551TIP3   OH262067   2.699   1.321   0.550 -0.4207  0.0766 -0.1231
13551TIP3    H162068   2.787   1.322   0.511 -0.4693  1.2284 -0.2385
13551TIP3    H262069   2.698   1.243   0.605 -0.8264 -2.4990 -3.4810
13552TIP3   OH262070   4.650   4.581  13.724  0.2458 -0.1187  0.3669
13552TIP3    H162071   4.646   4.514  13.793  0.8599 -1.0881 -0.5016
13552TIP3    H262072   4.605   4.541  13.650  0.5083  0.4834 -0.1250
13553TIP3   OH262073   5.074   5.204   6.402  0.0422  0.0961 -0.0635
13553TIP3    H162074   5.111   5.116   6.407 -0.9720 -0.2892  1.8282
13553TIP3    H262075   5.067   5.231   6.494 -0.3838  1.8454 -0.5871
13554TIP3   OH262076   5.088   3.736   1.930  0.1864  0.4494 -0.1859
13554TIP3    H162077   5.158   3.801   1.928  1.2210 -0.6325 -0.2621
13554TIP3    H262078   5.084   3.702   1.841 -0.8685  0.9328 -0.3354
13555TIP3   OH262079   6.627   2.724   4.707 -0.2830  0.2686  0.7732
13555TIP3    H162080   6.551   2.686   4.664  1.4846 -2.0930 -0.5205
13555TIP3    H262081   6.678   2.763   4.636  0.7435 -0.1572  1.2438
13556TIP3   OH262082   0.196   3.538   4.348  0.3243  0.2321  0.1619
13556TIP3    H162083   0.142   3.572   4.277 -0.4878 -1.2279  0.0332
13556TIP3    H262084   0.133   3.504   4.411  1.0753 -0.4579  0.5597
13557TIP3   OH262085   5.680   3.672  12.727  0.6620  0.0889 -0.3722
13557TIP3    H162086   5.683   3.620  12.808  0.5428  1.1252  0.3221
13557TIP3    H262087   5.597   3.648  12.686  0.9341 -0.7890 -0.4295
13558TIP3   OH262088   4.810   2.329   1.166 -0.7477 -0.2108 -0.2167
13558TIP3    H162089   4.755   2.368   1.233 -0.6507  1.3867 -1.0283
13558TIP3    H262090   4.832   2.401   1.107  1.9245 -0.8485 -0.1411
13559TIP3   OH262091   4.058   1.867   3.391  0.3348  0.3914 -0.5583
13559TIP3    H162092   4.130   1.878   3.454 -0.9596  1.3778  0.8081
13559TIP3    H262093   4.047   1.772   3.384 -1.3241  0.1490  3.0052
13560TIP3   OH262094   0.979   3.446   6.550  0.8467 -0.1852 -0.7070
13560TIP3    H162095   0.899   3.449   6.497  1.4747  1.3465 -1.6278
13560TIP3    H262096   0.978   3.528   6.599  1.3713 -0.6071  0.0286
13561TIP3   OH262097   5.638   0.484   0.771  0.2504 -1.1084 -0.4631
13561TIP3    H162098   5.654   0.575   0.798  1.3503 -1.3024 -0.4170
13561TIP3    H262099   5.594   0.491   0.687 -1.1009 -0.5170  0.2724
13562TIP3   OH262100   1.839   4.910   0.788 -0.0957 -0.4554 -0.0196
13562TIP3    H162101   1.754   4.901   0.745 -0.7571 -0.3168  1.1985
13562TIP3    H262102   1.898   4.941   0.719 -1.4615  1.3404 -0.4834
13563TIP3   OH262103   2.988   0.656   0.463 -0.2006 -0.2031  0.2321
13563TIP3    H162104   3.075   0.648   0.502 -0.1804  2.0387  0.7427
13563TIP3    H262105   2.929   0.665   0.538 -0.7712 -0.6955 -0.1488
13564TIP3   OH262106   4.431   1.028  11.751 -0.6147  0.3464 -0.3626
13564TIP3    H162107   4.385   0.976  11.686 -1.8109  0.2897  0.4850
13564TIP3    H262108   4.362   1.057  11.811  0.3103  1.2200  0.3180
13565TIP3   OH262109   4.867   5.774  13.686  0.1987 -0.3151 -0.0088
13565TIP3    H162110   4.809   5.850  13.686 -0.9337 -1.1541  0.2367
13565TIP3    H262111   4.919   5.784  13.606  0.5424  1.0450  0.3559
13566TIP3   OH262112   0.581   4.572  16.838  0.7338 -0.5352 -0.0391
13566TIP3    H162113   0.632   4.491  16.833  0.2421 -0.8198 -0.6709
13566TIP3    H262114   0.644   4.642  16.821  0.7771 -0.9321 -1.7026
13567TIP3   OH262115   6.651   2.374  13.312  0.2743 -0.4357  0.1121
13567TIP3    H162116   6.676   2.288  13.278 -0.6367 -0.9168  0.6169
13567TIP3    H262117   6.585   2.405  13.249 -0.7043 -0.9030  0.8836
13568TIP3   OH262118   4.817   4.084  10.372 -0.6432  0.2318 -0.6136
13568TIP3    H162119   4.762   4.007  10.391  0.6018 -0.3089  1.0644
13568TIP3    H262120   4.901   4.047  10.344  0.4709  0.8880  1.6455
13569TIP3   OH262121   6.232   4.602  11.678  0.2277 -0.2599  0.0688
13569TIP3    H162122   6.269   4.685  11.647  1.4897 -0.5829  0.6800
13569TIP3    H262123   6.301   4.562  11.730 -0.4493 -1.6075 -0.0282
13570TIP3   OH262124   1.715   6.631  14.885 -0.3777 -0.1437 -0.4719
13570TIP3    H162125   1.704   6.632  14.980 -1.7763  0.5195 -0.6060
13570TIP3    H262126   1.807   6.652  14.871  0.1464 -1.3954  0.7453
13571TIP3   OH262127   4.594   6.510   1.997  0.1402 -0.0346  0.4877
13571TIP3    H162128   4.540   6.545   1.927 -0.3382 -0.4365  0.6463
13571TIP3    H262129   4.560   6.550   2.077  1.4058  1.2901  0.3960
13572TIP3   OH262130   0.530   0.171   0.632  0.2236  0.6148  0.3391
13572TIP3    H162131   0.523   0.126   0.548  0.5258  1.6190 -0.2325
13572TIP3    H262132   0.442   0.164   0.670  0.1212  0.0382  0.0091
13573TIP3   OH262133   6.213   6.286  11.717 -0.2298 -0.2518 -0.2984
13573TIP3    H162134   6.224   6.350  11.788  0.5924  0.5967 -1.1611
13573TIP3    H262135   6.298   6.243  11.711 -0.8706 -1.7050  0.4908
13574TIP3   OH262136   4.690   0.384  11.847 -0.2592 -0.6265 -0.6051
13574TIP3    H162137   4.672   0.472  11.812  0.9969 -0.3048 -0.4907
13574TIP3    H262138   4.785   0.383  11.862 -0.6918 -0.6911  2.9213
13575TIP3   OH262139   1.244   3.169   3.368 -0.0186  0.4502 -0.2231
13575TIP3    H162140   1.335   3.151   3.393  1.1194  2.0732 -2.7774
13575TIP3    H262141   1.239   3.141   3.277 -2.1940  0.1804 -0.0636
13576TIP3   OH262142   3.550   4.749  16.569  0.6664  0.4224 -0.3599
13576TIP3    H162143   3.588   4.776  16.653  1.4203  1.1165 -0.9063
13576TIP3    H262144   3.526   4.832  16.526 -0.6540  0.0316 -0.4062
13577TIP3   OH262145   1.199   0.328  11.490  0.1822  0.1670 -0.4385
13577TIP3    H162146   1.161   0.413  11.465  2.5088  0.9152 -1.7067
13577TIP3    H262147   1.222   0.287  11.408 -0.5701 -1.5993  0.1883
13578TIP3   OH262148   2.998   0.229   5.705  0.0835 -1.0411 -0.2824
13578TIP3    H162149   3.064   0.224   5.774  0.2328  0.1816 -0.3168
13578TIP3    H262150   2.934   0.162   5.729  1.0807 -1.9226  0.0035
13579TIP3   OH262151   2.348   2.656   4.543 -0.3780  0.7072  0.5356
13579TIP3    H162152   2.404   2.731   4.563  1.3495 -0.5868  0.6896
13579TIP3    H262153   2.384   2.619   4.463 -0.9633 -0.2033  0.6770
13580TIP3   OH262154   2.678   4.301  13.434 -0.8614  0.2789 -0.3799
13580TIP3    H162155   2.757   4.281  13.485 -1.5323  0.5430  0.7883
13580TIP3    H262156   2.704   4.283  13.343  0.9887  1.6927 -0.2052
13581TIP3   OH262157   6.648   1.788   6.170  0.6226  0.1863  0.0402
13581TIP3    H162158   6.710   1.727   6.211 -0.2740 -1.2814 -0.6776
13581TIP3    H262159   6.703   1.849   6.120  1.5843  0.4698  1.4115
13582TIP3   OH262160   5.515   3.990  15.080  0.0274 -0.5227  0.1105
13582TIP3    H162161   5.603   4.010  15.114 -0.8467 -1.2045  3.0647
13582TIP3    H262162   5.504   3.896  15.097 -0.3680 -1.0690 -2.6613
13583TIP3   OH262163   5.126   5.912   2.337 -0.2202  0.2796  0.0923
13583TIP3    H162164   5.115   5.864   2.420  0.0638  1.4678  0.8396
13583TIP3    H262165   5.094   6.000   2.356  1.2615  1.0016 -0.6022
13584TIP3   OH262166   2.791   2.057   1.763  0.1837 -1.2535  0.0964
13584TIP3    H162167   2.864   2.050   1.825  0.2660 -0.7078  0.0717
13584TIP3    H262168   2.754   1.969   1.758  0.6023 -1.4472  0.4040
13585TIP3   OH262169   2.790   6.193   5.107  0.0087 -0.2194  0.0902
13585TIP3    H162170   2.827   6.113   5.070 -1.0729 -0.9429  0.5031
13585TIP3    H262171   2.777   6.250   5.031 -1.5043 -1.4050 -0.6144
13586TIP3   OH262172   4.457   2.885  13.585  0.4803 -0.3640  0.2608
13586TIP3    H162173   4.401   2.887  13.663 -0.4245 -2.1918 -0.2987
13586TIP3    H262174   4.433   2.804  13.540  0.2299  1.1435 -2.5016
13587TIP3   OH262175   0.990   3.429   4.945 -0.3055  0.4216 -0.0262
13587TIP3    H162176   0.943   3.462   4.868  1.6897  0.9245 -1.1153
13587TIP3    H262177   0.925   3.377   4.993 -2.4072  2.4634 -0.4935
13588TIP3   OH262178   0.617   3.630   0.810  0.1010 -0.5369 -0.2035
13588TIP3    H162179   0.531   3.671   0.817  0.2467 -0.1745 -0.4894
13588TIP3    H262180   0.647   3.618   0.900  0.9755  1.9316 -0.1091
13589TIP3   OH262181   1.607   3.402   0.281  0.1555 -0.2122  0.6308
13589TIP3    H162182   1.633   3.322   0.236  0.5267 -0.0766  0.5980
13589TIP3    H262183   1.544   3.373   0.347 -0.5901 -0.3771 -0.1376
13590TIP3   OH262184   3.063   3.170  14.027  0.6579 -0.1721  0.1572
13590TIP3    H162185   3.130   3.142  13.965 -1.1830 -1.0920 -1.5214
13590TIP3    H262186   3.065   3.266  14.023  1.0304 -0.2125 -0.8087
13591TIP3   OH262187   6.024   0.533   5.558  0.0992  0.2346 -0.5913
13591TIP3    H162188   6.081   0.462   5.529 -0.7031 -0.9582  0.6558
13591TIP3    H262189   6.071   0.575   5.630  0.1194  0.3158 -0.6514
13592TIP3   OH262190   3.146   4.824   5.988 -0.2782 -0.2802  0.2119
13592TIP3    H162191   3.071   4.871   6.026  0.9049  1.4942  0.4487
13592TIP3    H262192   3.107   4.746   5.948 -1.9554 -0.7048  2.4530
13593TIP3   OH262193   5.550   3.474  16.457 -0.2776 -0.5288  0.1243
13593TIP3    H162194   5.519   3.478  16.548 -1.5772 -0.8052 -0.2948
13593TIP3    H262195   5.487   3.524  16.407  2.3330  2.7623 -0.2219
13594TIP3   OH262196   1.975   3.194  15.276 -0.6845 -0.2833 -0.5857
13594TIP3    H162197   2.015   3.140  15.344  0.9143 -0.2248 -1.4320
13594TIP3    H262198   1.912   3.249  15.323  0.5057 -0.1070  0.8695
13595TIP3   OH262199   1.430   1.040  14.043 -0.0673  0.0395  0.6192
13595TIP3    H162200   1.355   1.091  14.011 -0.8713 -3.3447 -3.9357
13595TIP3    H262201   1.398   0.950  14.047  3.0537 -1.1620  1.2596
13596TIP3   OH262202   4.199   4.643  13.143  0.2736 -0.2033 -0.0300
13596TIP3    H162203   4.132   4.588  13.101 -0.9866  0.5586  0.9022
13596TIP3    H262204   4.209   4.718  13.083  0.7716 -0.6259 -0.4836
13597TIP3   OH262205   5.117   1.119   4.320  0.1288  0.2540 -0.1533
13597TIP3    H162206   5.048   1.063   4.285 -0.4908 -0.5348  2.1343
13597TIP3    H262207   5.078   1.160   4.397  1.8447  0.6938  0.5340
13598TIP3   OH262208   2.302   3.222   2.216  0.1019 -0.0276 -0.0137
13598TIP3    H162209   2.387   3.253   2.248  0.1916 -0.6474  0.3640
13598TIP3    H262210   2.241   3.291   2.242  0.4614  0.3359 -0.1240
13599TIP3   OH262211   1.322   4.359  12.082  0.3904  0.4289 -0.5462
13599TIP3    H162212   1.374   4.285  12.051  0.0715  0.2049 -0.5547
13599TIP3    H262213   1.351   4.372  12.172  0.0777 -0.0505 -0.3687
13600TIP3   OH262214   1.410   4.398  11.282 -0.0041 -0.1294 -0.4251
13600TIP3    H162215   1.375   4.388  11.370 -0.3980 -0.8663 -0.6550
13600TIP3    H262216   1.355   4.466  11.242 -1.7669 -1.8261 -1.0443
13601TIP3   OH262217   1.531   1.182  15.250 -0.5503  0.9545 -0.3659
13601TIP3    H162218   1.473   1.255  15.270  1.8400  3.1885 -0.9212
13601TIP3    H262219   1.555   1.195  15.158 -0.7665 -1.1228 -0.7706
13602TIP3   OH262220   6.810   0.461  10.233 -0.3571 -0.1919  0.3070
13602TIP3    H162221   6.765   0.385  10.196  0.0075 -0.1225 -0.2892
13602TIP3    H262222   6.884   0.476  10.175  0.4894 -0.3467  1.3097
13603TIP3   OH262223   0.887   6.639   2.078 -0.3192  0.1332 -0.2304
13603TIP3    H162224   0.792   6.649   2.084 -0.3946 -0.6612  0.0230
13603TIP3    H262225   0.905   6.555   2.120  0.4662  0.1414 -0.5358
13604TIP3   OH262226   5.512   0.207   2.502 -0.0808  0.1466  0.1723
13604TIP3    H162227   5.475   0.129   2.544 -0.1462 -0.6551 -1.3220
13604TIP3    H262228   5.462   0.280   2.538 -1.8368 -0.7486 -0.3643
13605TIP3   OH262229   2.405   4.034   4.857  0.5348  0.0469  0.0613
13605TIP3    H162230   2.458   4.096   4.806  0.2727  1.2165  1.1635
13605TIP3    H262231   2.315   4.058   4.838  0.4253 -0.4419 -0.0315
13606TIP3   OH262232   6.146   4.921   2.839 -0.4169 -0.7367 -0.1649
13606TIP3    H162233   6.129   4.864   2.915 -0.6149 -0.0633  0.3023
13606TIP3    H262234   6.080   4.990   2.845  1.0737  0.6968  0.4400
13607TIP3   OH262235   1.780   0.726   5.183  0.3197 -0.9195 -0.5821
13607TIP3    H162236   1.874   0.713   5.178  0.3177 -1.7808  0.9273
13607TIP3    H262237   1.744   0.677   5.109  0.9952 -1.4793 -0.5480
13608TIP3   OH262238   2.276   5.736   0.313  0.0249  0.8918  0.5439
13608TIP3    H162239   2.280   5.653   0.360  1.6025 -0.6392 -2.0331
13608TIP3    H262240   2.190   5.736   0.270 -0.8550  1.6601  2.2251
13609TIP3   OH262241   4.795   5.509   4.555  0.1514 -0.1784  0.1756
13609TIP3    H162242   4.793   5.590   4.606 -0.4911  0.4086 -0.7656
13609TIP3    H262243   4.858   5.526   4.485 -2.4866  0.8371 -2.1153
13610TIP3   OH262244   4.593   2.699   2.798 -0.0366  0.0995 -0.3316
13610TIP3    H162245   4.505   2.665   2.784  0.2991 -1.0396  0.2136
13610TIP3    H262246   4.650   2.639   2.749  0.3458  1.6621 -1.8939
13611TIP3   OH262247   4.485   3.122  12.070 -0.1087 -0.2727 -0.2196
13611TIP3    H162248   4.492   3.216  12.085 -1.7699 -0.4077  1.9429
13611TIP3    H262249   4.412   3.112  12.009 -1.6833 -0.1833  1.5426
13612TIP3   OH262250   0.627   2.034  14.099 -0.1387  0.3208 -0.3596
13612TIP3    H162251   0.542   2.002  14.069 -0.4763  1.2509 -0.4516
13612TIP3    H262252   0.690   2.000  14.034 -0.4760 -0.1199 -0.4608
13613TIP3   OH262253   3.981   0.408   2.440  0.2274  0.6048  0.5071
13613TIP3    H162254   4.007   0.376   2.354 -2.7051 -0.9313  0.0743
13613TIP3    H262255   4.031   0.355   2.502  0.8283  0.2985 -0.2285
13614TIP3   OH262256   2.066   2.937   3.944 -0.3576  0.7426  0.3024
13614TIP3    H162257   2.050   2.867   3.881 -2.3002  1.3195  0.0947
13614TIP3    H262258   2.057   2.895   4.030  2.1503 -0.0108  0.2823
13615TIP3   OH262259   5.631   6.660   5.122  0.4721  0.1621  0.0960
13615TIP3    H162260   5.662   6.579   5.083 -1.0888  0.0515 -1.0060
13615TIP3    H262261   5.551   6.635   5.168 -0.6146  1.2209 -1.1395
13616TIP3   OH262262   3.565   0.123   1.060 -0.0114  0.2906 -0.3894
13616TIP3    H162263   3.659   0.106   1.055 -0.2249 -0.7974 -0.8369
13616TIP3    H262264   3.524   0.037   1.062 -0.9539  0.7462  1.2126
13617TIP3   OH262265   5.500   0.203  14.585  0.5463  0.2027  0.7136
13617TIP3    H162266   5.423   0.183  14.637  0.0219 -2.0667 -0.8204
13617TIP3    H262267   5.570   0.217  14.649 -1.3300  3.9396  2.2382
13618TIP3   OH262268   0.325   1.864   3.063  0.3793  0.0108 -0.6582
13618TIP3    H162269   0.317   1.948   3.108  2.5152 -0.4881  0.7742
13618TIP3    H262270   0.390   1.880   2.995 -0.4698 -0.0911 -1.5277
13619TIP3   OH262271   1.353   2.134  12.548  0.3460  0.1888 -0.4559
13619TIP3    H162272   1.427   2.107  12.493  2.0808  1.4585  1.1021
13619TIP3    H262273   1.305   2.197  12.495  1.3760  0.6157 -0.9212
13620TIP3   OH262274   1.586   5.925  11.521 -0.7636 -0.5320 -0.1650
13620TIP3    H162275   1.553   5.880  11.443 -0.9010  1.2487 -1.1863
13620TIP3    H262276   1.508   5.963  11.561 -0.9202 -2.7014  1.7683
13621TIP3   OH262277   3.227   2.555  16.716  0.3665 -0.4845  0.1456
13621TIP3    H162278   3.319   2.530  16.702  1.0967  0.3613  2.9335
13621TIP3    H262279   3.184   2.474  16.742  1.1017 -0.3303  2.0039
13622TIP3   OH262280   2.324   1.943  16.070 -0.0549 -0.4706 -0.0013
13622TIP3    H162281   2.248   1.929  16.013  1.1068 -0.0975 -1.6978
13622TIP3    H262282   2.341   2.037  16.064  1.0035 -0.6658 -0.2668
13623TIP3   OH262283   2.301   5.908  11.401 -0.0848  0.5301 -0.2419
13623TIP3    H162284   2.276   5.992  11.363  0.2876  0.8254  0.1467
13623TIP3    H262285   2.369   5.875  11.343 -1.6946 -0.5405 -1.6198
13624TIP3   OH262286   1.945   1.037   4.978  0.3338 -0.2127 -0.6458
13624TIP3    H162287   1.945   1.106   4.912  1.1886  0.6655  0.2279
13624TIP3    H262288   1.919   0.958   4.931 -2.3154  0.9824 -1.3325
13625TIP3   OH262289   4.965   0.576   2.439 -0.7536 -0.9233 -0.8678
13625TIP3    H162290   4.948   0.642   2.372 -0.7512  0.9789  0.8751
13625TIP3    H262291   5.050   0.539   2.416  0.4067  1.4338 -0.6725
13626TIP3   OH262292   2.623   1.891   4.229 -0.6856  0.0145 -0.2287
13626TIP3    H162293   2.594   1.960   4.289 -0.7505 -0.3169  0.1314
13626TIP3    H262294   2.704   1.925   4.191 -0.3809  0.0386  0.4116
13627TIP3   OH262295   0.172   1.880  15.956 -0.3940  0.1367  0.6859
13627TIP3    H162296   0.089   1.841  15.928  0.1055  0.2313 -1.0058
13627TIP3    H262297   0.182   1.958  15.902  2.2340 -1.4994 -1.4363
13628TIP3   OH262298   0.661   0.809   1.040 -0.0725 -0.0028  0.5228
13628TIP3    H162299   0.593   0.757   0.996 -0.8527  0.1122  1.5577
13628TIP3    H262300   0.743   0.764   1.018 -0.6703 -1.3557  0.9164
13629TIP3   OH262301   0.888   2.244   5.217 -0.1922 -0.1589 -0.0709
13629TIP3    H162302   0.850   2.296   5.146 -1.3359 -0.2851  0.4256
13629TIP3    H262303   0.903   2.307   5.287 -0.9465 -0.3612  0.2859
13630TIP3   OH262304   5.044   5.603  13.126  0.6287  0.2100  0.0350
13630TIP3    H162305   4.975   5.598  13.192  1.4918 -2.0285  0.8535
13630TIP3    H262306   5.126   5.599  13.176  1.3127 -0.5083 -1.1038
13631TIP3   OH262307   4.120   2.696  13.239 -0.2796  0.3237  0.1045
13631TIP3    H162308   4.137   2.602  13.240  1.8062  0.5871 -1.7865
13631TIP3    H262309   4.100   2.719  13.330 -0.2027 -1.8140  0.6985
13632TIP3   OH262310   0.233   2.423   0.019 -0.2766 -0.5885 -0.6778
13632TIP3    H162311   0.317   2.469   0.020  0.0245 -1.1347 -0.6850
13632TIP3    H262312   0.214   2.409  -0.073 -0.9949  0.6437 -0.7347
13633TIP3   OH262313   6.021   4.481   4.001 -0.2483  0.0743 -0.2289
13633TIP3    H162314   6.007   4.404   3.946  0.5218  1.0025 -1.7758
13633TIP3    H262315   6.050   4.446   4.085  4.1216 -1.3413 -2.0608
13634TIP3   OH262316   2.257   5.094  11.845  0.7049  0.2394 -0.6874
13634TIP3    H162317   2.250   5.051  11.760 -1.0430 -0.0950 -0.4113
13634TIP3    H262318   2.175   5.143  11.855  1.0159  0.5456  0.6557
13635TIP3   OH262319   3.152   2.263  16.392  0.4000 -0.1888  0.4128
13635TIP3    H162320   3.183   2.200  16.327  0.2930 -0.6263  0.7835
13635TIP3    H262321   3.087   2.215  16.443  0.4134  0.1795  0.7821
13636TIP3   OH262322   2.256   4.063   5.723  0.0990 -0.5257 -0.3421
13636TIP3    H162323   2.338   4.097   5.687 -0.4055 -0.7312 -1.7530
13636TIP3    H262324   2.280   4.033   5.811  1.1115  1.1079 -0.0078
13637TIP3   OH262325   5.649   3.054  12.004 -0.3295  0.0169 -0.5297
13637TIP3    H162326   5.721   3.117  12.002 -0.0084 -0.3559 -0.7081
13637TIP3    H262327   5.667   2.994  11.933 -0.0737 -0.8926  0.2813
13638TIP3   OH262328   6.682   6.590  10.570 -0.1180 -0.3947  0.2122
13638TIP3    H162329   6.756   6.559  10.519  0.1090  0.5232 -0.0378
13638TIP3    H262330   6.654   6.670  10.526 -1.0400 -0.5401  0.5060
13639TIP3   OH262331   3.934   0.481   4.384  0.3622  0.0708 -0.1727
13639TIP3    H162332   3.855   0.531   4.362 -0.2608  0.5460  2.7307
13639TIP3    H262333   3.958   0.438   4.302 -1.7791  1.4329 -1.6434
13640TIP3   OH262334   6.284   5.461  16.781 -0.0995  0.2136  0.1693
13640TIP3    H162335   6.321   5.411  16.853 -3.7379 -3.6968 -0.2486
13640TIP3    H262336   6.221   5.521  16.822 -1.1065 -0.9669  0.4020
13641TIP3   OH262337   0.629   5.433   2.426  0.1622  0.3383 -0.0410
13641TIP3    H162338   0.688   5.486   2.374 -0.8668 -0.0347 -1.6530
13641TIP3    H262339   0.558   5.493   2.451  0.2192  0.3072  0.1984
13642TIP3   OH262340   0.894   5.484   0.730  0.1718  0.6333 -0.1051
13642TIP3    H162341   0.937   5.570   0.738  0.7698  0.2473  1.0540
13642TIP3    H262342   0.905   5.444   0.816 -2.8961  0.6575  0.4067
13643TIP3   OH262343   0.676   3.746   1.702 -0.1751 -0.0839  1.0094
13643TIP3    H162344   0.640   3.811   1.642  0.8813  0.7836  1.2723
13643TIP3    H262345   0.688   3.794   1.784 -0.2060 -0.8553  1.4753
13644TIP3   OH262346   3.702   4.725  13.706  0.1570  0.4555  0.4673
13644TIP3    H162347   3.669   4.777  13.779 -0.5225  0.2445  0.3208
13644TIP3    H262348   3.700   4.635  13.737  0.9432  0.4690  0.5777
13645TIP3   OH262349   6.358   1.091   4.217  0.3392 -0.2650 -0.5018
13645TIP3    H162350   6.305   1.148   4.161 -0.7953 -0.5284  0.2585
13645TIP3    H262351   6.354   1.006   4.174 -3.1457 -1.2827  1.4149
13646TIP3   OH262352   5.727   2.851   3.318 -0.9072 -0.1281 -0.8197
13646TIP3    H162353   5.807   2.799   3.309  1.3826  3.0163 -0.2763
13646TIP3    H262354   5.747   2.934   3.273 -3.0950  1.5153  1.0234
13647TIP3   OH262355   4.191   4.294  11.756 -0.0150 -0.2916  0.4152
13647TIP3    H162356   4.275   4.251  11.774 -0.4586 -0.7815  1.4550
13647TIP3    H262357   4.128   4.244  11.808 -0.7684  0.7733  0.5480
13648TIP3   OH262358   2.513   6.093  11.225 -0.3192  0.3376 -0.0971
13648TIP3    H162359   2.457   6.046  11.164  1.1233 -0.1147 -1.1195
13648TIP3    H262360   2.556   6.160  11.172  0.5807  0.2625  0.5136
13649TIP3   OH262361   1.058   0.027  12.072 -0.3659  0.8015 -0.4493
13649TIP3    H162362   1.062   0.123  12.066 -0.6444  0.9141  0.8997
13649TIP3    H262363   1.028  -0.001  11.985 -2.7097  2.1169 -0.1513
13650TIP3   OH262364   2.977   2.723  15.085 -0.1350  0.3836 -0.2579
13650TIP3    H162365   2.976   2.627  15.087  1.1154  0.3515 -0.2598
13650TIP3    H262366   3.058   2.745  15.040 -1.6755  1.4540 -2.6993
13651TIP3   OH262367   6.635   3.452   0.857  0.2221 -0.1734 -0.7959
13651TIP3    H162368   6.642   3.530   0.802  0.9204 -0.0893 -0.5871
13651TIP3    H262369   6.546   3.456   0.893  0.0325  0.1840 -1.2882
13652TIP3   OH262370   0.374   0.175   4.898 -0.3448  0.2520 -0.0643
13652TIP3    H162371   0.332   0.261   4.906  0.7825  0.9191 -1.0675
13652TIP3    H262372   0.306   0.113   4.925 -1.2976  1.4283  0.3298
13653TIP3   OH262373   5.632   4.020   5.234 -0.0174 -0.1077 -0.5592
13653TIP3    H162374   5.701   4.069   5.190  0.5831 -0.0953  0.3611
13653TIP3    H262375   5.567   4.003   5.166 -0.0188  1.5316 -1.0163
13654TIP3   OH262376   6.498   4.100  13.753 -0.5020  0.0660 -0.2587
13654TIP3    H162377   6.504   4.065  13.842 -0.2506  0.3415 -0.1694
13654TIP3    H262378   6.404   4.103  13.735 -0.5130 -1.3135 -0.5248
13655TIP3   OH262379   5.928   5.079   3.346  0.2587 -0.0131 -0.3221
13655TIP3    H162380   5.974   5.095   3.429 -0.7088 -2.2646  0.7297
13655TIP3    H262381   5.966   4.998   3.312 -0.4248  0.0548 -1.2829
13656TIP3   OH262382   4.563   5.430  17.204 -0.0368 -0.6701  0.3120
13656TIP3    H162383   4.520   5.427  17.119  0.4747 -2.3039  0.0661
13656TIP3    H262384   4.528   5.508  17.247 -1.6131 -0.7793 -0.7058
13657TIP3   OH262385   0.410   1.120  14.268  0.6350  0.1458  0.4355
13657TIP3    H162386   0.369   1.086  14.189  1.6111 -0.5441  0.2107
13657TIP3    H262387   0.423   1.043  14.324  1.6189  0.3361  0.4887
13658TIP3   OH262388   3.245   2.628   1.537  0.4543 -0.1230  0.0855
13658TIP3    H162389   3.194   2.569   1.593 -0.3966 -0.2677 -0.8028
13658TIP3    H262390   3.207   2.616   1.450  0.3980  1.5934 -0.1596
13659TIP3   OH262391   5.055   6.159   6.429 -0.1331 -0.0260 -0.4304
13659TIP3    H162392   5.029   6.110   6.508 -1.5917  0.5028 -0.5539
13659TIP3    H262393   5.012   6.244   6.439 -1.4177 -0.3978 -2.4051
13660TIP3   OH262394   1.929   1.434   3.172  0.1054 -0.6690 -0.5600
13660TIP3    H162395   1.922   1.377   3.096 -3.2887 -1.5143  0.2609
13660TIP3    H262396   1.970   1.379   3.240 -1.8006 -1.7645 -0.2213
13661TIP3   OH262397   6.227   0.491  12.657 -0.4391  0.2634 -0.0345
13661TIP3    H162398   6.315   0.516  12.627  0.7424 -2.1174  1.1259
13661TIP3    H262399   6.232   0.495  12.752 -1.9257  0.9830  0.0411
13662TIP3   OH262400   4.956   3.567   0.772 -0.0096  0.6803  0.6223
13662TIP3    H162401   4.903   3.492   0.800  0.8825  0.6460  2.3639
13662TIP3    H262402   4.980   3.612   0.854  2.3853  0.8543 -0.0800
13663TIP3   OH262403   0.545   1.199   5.105  0.1938  0.0620 -0.3530
13663TIP3    H162404   0.594   1.130   5.060 -1.8066 -0.9082 -1.1643
13663TIP3    H262405   0.582   1.281   5.070  0.5375 -0.6434 -1.7207
13664TIP3   OH262406   4.815   5.345  11.450 -0.1427 -0.0958 -0.1116
13664TIP3    H162407   4.899   5.370  11.488  0.0767 -0.1519 -0.5549
13664TIP3    H262408   4.838   5.303  11.367 -0.6350  0.3450 -0.4784
13665TIP3   OH262409   1.485   2.400   5.726  0.3161 -0.0490  0.4704
13665TIP3    H162410   1.554   2.427   5.787  0.4980 -1.3346  0.8625
13665TIP3    H262411   1.438   2.331   5.772 -0.9905  0.5320  0.0318
13666TIP3   OH262412   2.637   2.628  12.801 -0.3492  0.0986  0.6417
13666TIP3    H162413   2.624   2.580  12.882 -0.4665  0.4822  0.8541
13666TIP3    H262414   2.548   2.652  12.773 -0.4267 -1.2228 -0.3372
13667TIP3   OH262415   5.672   4.517   4.649  0.1102  0.1702  0.0750
13667TIP3    H162416   5.654   4.608   4.624 -0.5185 -0.2797 -1.2540
13667TIP3    H262417   5.586   4.476   4.654  0.3935 -0.3860  0.5354
13668TIP3   OH262418   2.061   4.296  13.572  0.3358 -0.6917 -0.1429
13668TIP3    H162419   1.987   4.244  13.602  0.4321 -1.0994 -0.6107
13668TIP3    H262420   2.045   4.309  13.479 -0.7492  1.8538  0.3131
13669TIP3   OH262421   5.367   0.980   5.138  0.2004  0.1616  0.0995
13669TIP3    H162422   5.321   0.968   5.055  0.7405  0.7375 -0.2879
13669TIP3    H262423   5.439   1.039   5.118  0.0137  0.7514  1.0909
13670TIP3   OH262424   1.645   1.635   5.722  0.6911  0.0911 -0.1983
13670TIP3    H162425   1.724   1.593   5.688 -0.4427 -1.4249 -1.0868
13670TIP3    H262426   1.620   1.697   5.654 -0.6286 -1.7314 -1.4586
13671TIP3   OH262427   1.293   0.108  17.179  0.7201  0.1746  0.2327
13671TIP3    H162428   1.228   0.167  17.142  0.8622 -0.4987 -1.1462
13671TIP3    H262429   1.359   0.166  17.218  1.6599  1.0430 -2.4503
13672TIP3   OH262430   2.190   4.502  16.330 -0.2136  0.0496 -0.1921
13672TIP3    H162431   2.247   4.579  16.321  0.3307 -0.3747 -0.4320
13672TIP3    H262432   2.244   4.429  16.301 -0.5920 -0.4860  0.4363
13673TIP3   OH262433   5.684   1.100   3.531  0.7503 -0.0440 -0.2303
13673TIP3    H162434   5.688   1.195   3.522  0.3993  0.1161  1.0636
13673TIP3    H262435   5.731   1.066   3.455 -0.5462  1.1128 -1.6107
13674TIP3   OH262436   5.117   4.131   3.247 -0.0806  0.1389  0.1695
13674TIP3    H162437   5.058   4.202   3.222 -0.0855 -0.6837 -2.3584
13674TIP3    H262438   5.065   4.078   3.308 -0.9929  0.8576  0.0493
13675TIP3   OH262439   3.486   2.133   1.359 -0.7461 -0.1209 -0.5223
13675TIP3    H162440   3.451   2.222   1.367 -1.6191 -0.4050 -1.0278
13675TIP3    H262441   3.580   2.146   1.344 -0.6784  0.6729  0.4817
13676TIP3   OH262442   3.361   6.499   4.621  0.2739 -0.1091 -0.1435
13676TIP3    H162443   3.401   6.530   4.540 -0.3400  1.0175 -0.0286
13676TIP3    H262444   3.267   6.503   4.605  0.1523 -0.0475  0.5643
13677TIP3   OH262445   4.039   0.634  16.425  0.3477 -0.4310 -0.4566
13677TIP3    H162446   4.058   0.697  16.355 -0.2071  0.3272  0.0643
13677TIP3    H262447   4.124   0.597  16.448  0.9604  1.4205  0.4398
13678TIP3   OH262448   2.789   5.884   0.429 -0.2124  0.1808 -0.4585
13678TIP3    H162449   2.773   5.856   0.519  2.6949 -1.9312 -0.4591
13678TIP3    H262450   2.730   5.830   0.376 -0.7286  0.2205  0.0705
13679TIP3   OH262451   1.369   3.246   1.043 -0.8498 -0.4875 -0.4484
13679TIP3    H162452   1.427   3.204   1.107 -0.6858 -2.3743 -1.7577
13679TIP3    H262453   1.372   3.339   1.066 -0.1126 -0.9825  1.7159
13680TIP3   OH262454   2.148   2.472  13.123  0.4025  0.0919  0.4259
13680TIP3    H162455   2.180   2.457  13.212  0.9730 -0.3186  0.1557
13680TIP3    H262456   2.101   2.555  13.129 -0.8741 -0.6723  1.4421
13681TIP3   OH262457   1.090   0.139  14.792  0.2588 -0.0805  0.1422
13681TIP3    H162458   1.091   0.228  14.828 -0.3652 -0.2875  0.6946
13681TIP3    H262459   1.181   0.110  14.798  0.0909 -0.3806  2.3053
13682TIP3   OH262460   0.302   4.843  14.354  0.4289  0.1244 -0.2809
13682TIP3    H162461   0.352   4.804  14.282 -0.5813 -0.9508 -0.4384
13682TIP3    H262462   0.227   4.884  14.312 -0.8535 -1.6057  0.1948
13683TIP3   OH262463   6.497   6.081   2.126 -0.0884  0.6598  0.2859
13683TIP3    H162464   6.461   6.088   2.214 -3.0752 -1.0440 -0.6329
13683TIP3    H262465   6.461   5.998   2.092  1.8273  0.7085 -2.1599
13684TIP3   OH262466   2.688   2.288  10.811  0.9565 -0.8660 -0.0692
13684TIP3    H162467   2.656   2.204  10.846  1.3278 -0.4698  1.2623
13684TIP3    H262468   2.783   2.283  10.820  0.9090  0.3186  1.5730
13685TIP3   OH262469   1.839   3.792  16.590  0.1347 -0.2862  0.3163
13685TIP3    H162470   1.839   3.846  16.511  2.4060 -1.6696 -0.7530
13685TIP3    H262471   1.886   3.844  16.655 -2.0820  1.0219  0.9416
13686TIP3   OH262472   0.588   5.513  15.777 -0.4475  0.6624  0.0363
13686TIP3    H162473   0.678   5.492  15.752 -1.1101  0.8710 -2.9364
13686TIP3    H262474   0.593   5.603  15.811  0.5780  0.3357  0.7825
13687TIP3   OH262475   0.024   5.013   0.060  0.0194  0.0339 -0.0314
13687TIP3    H162476   0.113   5.045   0.074  0.1670 -0.1910 -0.4359
13687TIP3    H262477  -0.029   5.062   0.123  0.7832 -1.6504  2.0378
13688TIP3   OH262478   3.336   4.298   3.316  0.3328  0.4891  0.1512
13688TIP3    H162479   3.336   4.212   3.359  1.8442 -0.0236 -0.7576
13688TIP3    H262480   3.364   4.279   3.226  2.6931  2.1154  0.4582
13689TIP3   OH262481   4.639   4.195  11.480 -0.3560 -0.0833  0.4093
13689TIP3    H162482   4.623   4.275  11.429  0.1407  0.7437  1.4852
13689TIP3    H262483   4.553   4.157  11.493 -0.4722 -0.4488 -1.2221
13690TIP3   OH262484   2.871   0.726  13.264 -0.6066  0.2505  0.0440
13690TIP3    H162485   2.823   0.759  13.188  1.0275  2.5714 -0.0918
13690TIP3    H262486   2.962   0.725  13.236 -0.0699  0.3212  1.6826
13691TIP3   OH262487   3.390   6.281   3.917  0.0664  0.0484 -0.3070
13691TIP3    H162488   3.407   6.212   3.853  1.7080 -0.6382  0.7874
13691TIP3    H262489   3.367   6.233   3.997  2.3191  0.6355  0.7888
13692TIP3   OH262490   3.735   5.473   3.589 -0.1527  0.7628 -0.1526
13692TIP3    H162491   3.822   5.443   3.562  0.5069  2.7175 -0.3147
13692TIP3    H262492   3.695   5.395   3.628  1.8352 -0.0777  0.3605
13693TIP3   OH262493   0.384   6.813  10.682 -0.1965  0.0533  0.5361
13693TIP3    H162494   0.454   6.781  10.625  0.2684  1.0274  0.5470
13693TIP3    H262495   0.413   6.899  10.710 -1.5902  0.6670  0.2053
13694TIP3   OH262496   0.385   4.682   3.646  0.2271  0.2575 -0.4145
13694TIP3    H162497   0.350   4.677   3.557  0.7333 -0.9862 -0.5587
13694TIP3    H262498   0.408   4.592   3.668  1.9619  0.8336  0.2264
13695TIP3   OH262499   3.359   5.652  14.615  0.3689  0.2834  0.1259
13695TIP3    H162500   3.310   5.602  14.681  0.5333 -0.1649 -0.0836
13695TIP3    H262501   3.450   5.623  14.625  0.0716 -1.6509 -1.8782
13696TIP3   OH262502   4.902   4.281   2.375 -0.7830  0.2742  0.2980
13696TIP3    H162503   4.835   4.239   2.322 -0.2237 -0.1458 -0.0816
13696TIP3    H262504   4.959   4.210   2.403  0.4050  0.7992 -0.6823
13697TIP3   OH262505   2.090   5.532   3.749 -0.1011  0.2682 -0.2091
13697TIP3    H162506   2.062   5.547   3.658  0.3345  0.9133 -0.2381
13697TIP3    H262507   2.065   5.611   3.795  2.6811  1.4059 -0.4763
13698TIP3   OH262508   4.416   2.619   2.590  0.1216 -0.0569  0.0044
13698TIP3    H162509   4.433   2.526   2.575 -0.0265 -0.4487  1.9222
13698TIP3    H262510   4.444   2.663   2.510  2.4020 -1.5175 -0.0727
13699TIP3   OH262511   4.403   1.240  15.949 -0.0812  0.2005 -0.6782
13699TIP3    H162512   4.497   1.223  15.944  0.4016  2.5440 -0.5502
13699TIP3    H262513   4.381   1.280  15.865 -0.7406  0.5974 -0.3266
13700TIP3   OH262514   1.500   5.193   2.991  0.4862  0.2150 -0.0041
13700TIP3    H162515   1.590   5.214   3.014  0.8985 -2.6554  1.4185
13700TIP3    H262516   1.507   5.133   2.918 -0.3606  0.6980 -0.5057
13701TIP3   OH262517   0.150   5.764   4.473 -0.0694  0.0891  0.2634
13701TIP3    H162518   0.227   5.796   4.424 -0.0605 -0.3484 -0.0148
13701TIP3    H262519   0.186   5.727   4.553 -0.1686  1.7512  1.1111
13702TIP3   OH262520   1.548   3.548  10.893 -0.1773  0.1520 -0.4282
13702TIP3    H162521   1.479   3.500  10.940  0.3248  0.1140  0.2817
13702TIP3    H262522   1.556   3.503  10.809  0.2893 -1.0259  0.2232
13703TIP3   OH262523   3.603   2.079   3.304 -0.4414 -0.1918 -0.5712
13703TIP3    H162524   3.649   2.060   3.385 -1.2439 -0.0342 -0.0623
13703TIP3    H262525   3.515   2.104   3.332 -1.4930 -2.4714 -1.5830
13704TIP3   OH262526   1.381   1.894  12.241 -0.3680  0.8594  0.1380
13704TIP3    H162527   1.405   1.980  12.206  1.0512 -0.6172 -2.9453
13704TIP3    H262528   1.313   1.863  12.182 -0.2486 -0.4601  0.6681
13705TIP3   OH262529   5.760   0.854  15.375  0.1223  0.5516  0.1408
13705TIP3    H162530   5.701   0.810  15.314 -0.3855  1.0591  0.2582
13705TIP3    H262531   5.767   0.794  15.450 -0.5404  0.6521  0.2880
13706TIP3   OH262532   6.459   3.597  13.235  0.0744 -0.4419  0.0277
13706TIP3    H162533   6.371   3.593  13.271  0.0109 -0.3069 -0.1136
13706TIP3    H262534   6.474   3.690  13.218  1.4486  0.0268  3.0248
13707TIP3   OH262535   0.961   5.406  11.354 -0.2050  0.1083  0.3415
13707TIP3    H162536   0.902   5.333  11.336 -0.3863  0.2618  0.3151
13707TIP3    H262537   0.903   5.480  11.371 -0.0558 -0.0529  1.6598
13708TIP3   OH262538   5.915   6.558  12.221 -0.0083  0.0508 -0.3172
13708TIP3    H162539   5.859   6.481  12.223  1.1563 -0.8543 -0.9256
13708TIP3    H262540   5.916   6.590  12.311  0.7604 -1.6252  0.3181
13709TIP3   OH262541   2.873   4.873  15.898  0.0865  0.2895 -0.0061
13709TIP3    H162542   2.940   4.868  15.830 -0.6191 -1.7933 -0.6053
13709TIP3    H262543   2.912   4.829  15.973  0.2854  1.2529  0.4778
13710TIP3   OH262544   3.094   1.789   0.495  0.1559  0.0944  0.3919
13710TIP3    H162545   3.136   1.815   0.577 -0.2772 -1.0358  0.9940
13710TIP3    H262546   3.047   1.867   0.466 -0.7710  0.1416  1.9207
13711TIP3   OH262547   3.115   0.046  11.804 -0.0384 -0.0550  0.2278
13711TIP3    H162548   3.090  -0.047  11.801  1.3760 -0.4369 -1.8309
13711TIP3    H262549   3.196   0.047  11.855  0.2602 -0.0584 -0.2379
13712TIP3   OH262550   6.342   0.261  10.217  0.2962 -0.5720 -0.3147
13712TIP3    H162551   6.367   0.243  10.307 -2.5931  1.5163  1.0626
13712TIP3    H262552   6.335   0.356  10.212  0.0074 -0.6537 -2.6625
13713TIP3   OH262553   5.709   3.779   1.002 -0.5657  0.2723  0.1360
13713TIP3    H162554   5.743   3.715   0.939 -0.4365 -0.6789  1.1457
13713TIP3    H262555   5.714   3.863   0.956  2.3926  0.0775 -0.0460
13714TIP3   OH262556   5.801   4.712  14.001 -0.1115 -0.1029 -0.1067
13714TIP3    H162557   5.731   4.717  14.066  0.2992 -0.1441  0.3427
13714TIP3    H262558   5.864   4.650  14.037  1.9568  2.5662  1.2923
13715TIP3   OH262559   5.595   0.534   4.951 -0.1613 -0.0664  0.2600
13715TIP3    H162560   5.564   0.447   4.928  0.7027  0.0149 -1.3206
13715TIP3    H262561   5.516   0.587   4.958 -0.9243 -1.3875  3.4576
13716TIP3   OH262562   3.042   2.836  16.736 -0.3311 -0.1873  0.5677
13716TIP3    H162563   3.062   2.742  16.734 -1.5229 -0.4997  1.5623
13716TIP3    H262564   2.993   2.848  16.818 -1.5322  1.0219 -0.2820
13717TIP3   OH262565   1.657   2.388   4.329 -0.4236 -0.3285  0.4168
13717TIP3    H162566   1.658   2.295   4.306 -0.4068 -0.3343  0.4426
13717TIP3    H262567   1.713   2.396   4.406  0.9187 -0.0414 -0.5527
13718TIP3   OH262568   6.687   5.133  16.089  0.2218 -0.0295  0.2675
13718TIP3    H162569   6.714   5.184  16.013 -1.8579  0.7551 -0.0078
13718TIP3    H262570   6.595   5.113  16.073 -0.0814 -0.4496  2.2556
13719TIP3   OH262571   2.535   4.697  13.133  0.1901 -0.2906  0.3629
13719TIP3    H162572   2.544   4.662  13.044 -0.6212 -0.8406  0.4923
13719TIP3    H262573   2.540   4.792  13.121  1.1974 -0.3813 -0.1285
13720TIP3   OH262574   0.351   4.107  16.108 -0.0722 -0.3547 -0.1366
13720TIP3    H162575   0.325   4.193  16.142 -0.8603 -0.2105 -1.0454
13720TIP3    H262576   0.446   4.113  16.097 -0.2802  0.9298 -1.5362
13721TIP3   OH262577   2.926   3.260  13.365 -0.0128  0.5830 -0.4995
13721TIP3    H162578   2.851   3.320  13.368  0.3380  1.0683 -1.0476
13721TIP3    H262579   2.977   3.280  13.443 -0.7256 -0.1205  0.1544
13722TIP3   OH262580   5.322   5.729   0.640  0.0115  0.2239  0.5675
13722TIP3    H162581   5.340   5.776   0.559  1.3443 -0.4148  0.4660
13722TIP3    H262582   5.340   5.794   0.709 -0.4749  0.5658  0.3792
13723TIP3   OH262583   3.352   4.705   4.043 -0.1123 -0.5094  0.0099
13723TIP3    H162584   3.420   4.664   3.989  1.2758  2.8099 -1.0548
13723TIP3    H262585   3.280   4.723   3.981 -1.2372 -2.2859  0.7281
13724TIP3   OH262586   1.912   5.906  17.027  0.0755 -0.0574 -0.1383
13724TIP3    H162587   1.855   5.862  16.963 -0.5673 -0.3590  0.6184
13724TIP3    H262588   1.943   5.984  16.982 -2.3895  1.0955 -0.0262
13725TIP3   OH262589   1.647   4.735  13.196  0.5398  0.6979 -0.0084
13725TIP3    H162590   1.593   4.786  13.135 -0.3145 -0.4417 -0.2308
13725TIP3    H262591   1.646   4.787  13.277 -0.5228  0.9304 -0.1500
13726TIP3   OH262592   6.765   3.764   5.466 -0.3752 -1.0026 -0.5896
13726TIP3    H162593   6.678   3.804   5.471 -0.1762 -0.6249 -0.1039
13726TIP3    H262594   6.788   3.769   5.373 -0.1943  0.3580 -0.4933
13727TIP3   OH262595   2.174   2.077   4.424  0.0396  0.0312  0.7696
13727TIP3    H162596   2.239   2.061   4.492  0.2650  0.3682  0.6367
13727TIP3    H262597   2.138   1.991   4.404  1.2725 -0.3384  0.0215
13728TIP3   OH262598   2.157   6.387  17.187 -0.4896  0.0856  0.3608
13728TIP3    H162599   2.071   6.358  17.156  0.4923 -0.4135 -2.1553
13728TIP3    H262600   2.195   6.310  17.229 -0.2857 -0.5205 -0.8779
13729TIP3   OH262601   0.701   3.997   0.269  0.2894  0.1415 -0.0327
13729TIP3    H162602   0.753   3.948   0.332  1.8561  0.8825 -0.7079
13729TIP3    H262603   0.761   4.017   0.198 -1.3131 -0.2765 -1.5764
13730TIP3   OH262604   4.018   1.458  16.258  0.3641  0.1256  0.2930
13730TIP3    H162605   4.070   1.434  16.181 -0.7914  1.1053 -0.8347
13730TIP3    H262606   4.044   1.394  16.324 -0.1237 -2.1129 -1.5321
13731TIP3   OH262607   0.504   0.391   2.296 -0.0697 -0.4286  0.2992
13731TIP3    H162608   0.433   0.422   2.240  0.5764 -1.2904 -1.0641
13731TIP3    H262609   0.533   0.469   2.344  1.2857  1.1218 -2.7488
13732TIP3   OH262610   4.649   0.858  12.837 -0.0781 -0.0165  0.2803
13732TIP3    H162611   4.564   0.825  12.868 -0.6280  1.1663  0.0819
13732TIP3    H262612   4.627   0.927  12.775  1.0398 -0.7143 -0.9247
13733TIP3   OH262613   6.097   5.740  13.046 -0.2339  0.4748 -0.3379
13733TIP3    H162614   6.138   5.678  13.106 -0.3865 -0.0522 -0.7701
13733TIP3    H262615   6.155   5.817  13.047  1.0128 -0.4121 -1.2559
13734TIP3   OH262616   3.446   5.472  13.423  0.3168  0.1939 -0.1468
13734TIP3    H162617   3.395   5.515  13.491  3.3080  0.5056  2.0861
13734TIP3    H262618   3.446   5.379  13.447 -1.0585 -0.2039 -1.5013
13735TIP3   OH262619   2.814   6.807   1.515 -0.8393 -0.2006 -0.2119
13735TIP3    H162620   2.721   6.790   1.499 -0.5211 -1.3865 -0.8951
13735TIP3    H262621   2.849   6.724   1.545  0.2886 -0.1628 -1.3588
13736TIP3   OH262622   6.037   2.655  12.469  0.1034 -0.4659  0.4691
13736TIP3    H162623   5.982   2.731  12.449 -0.7637 -1.0982  0.3633
13736TIP3    H262624   6.122   2.676  12.432 -0.0660  0.5356  0.6136
13737TIP3   OH262625   1.354   6.264   6.129 -0.2648 -0.1542 -0.2146
13737TIP3    H162626   1.382   6.356   6.131 -1.4601  0.2212  0.1085
13737TIP3    H262627   1.411   6.223   6.064  0.2282  0.8360 -0.4323
13738TIP3   OH262628   2.217   4.316   1.604 -0.0958  0.4798 -0.1605
13738TIP3    H162629   2.200   4.267   1.685  0.0055  0.2078 -0.3028
13738TIP3    H262630   2.190   4.405   1.624  0.0781  0.4464  0.2288
13739TIP3   OH262631   1.460   5.193   1.754 -0.5220 -0.4666  0.0463
13739TIP3    H162632   1.537   5.241   1.724 -0.9039 -1.1202 -2.1832
13739TIP3    H262633   1.425   5.246   1.825  1.4015  0.3494  0.4584
13740TIP3   OH262634   2.385   2.950   6.264 -0.3635  0.6072  0.0145
13740TIP3    H162635   2.294   2.978   6.252 -0.2777  0.9023  0.0396
13740TIP3    H262636   2.412   2.989   6.347 -0.2775  0.3508  0.1085
13741TIP3   OH262637   4.716   0.575   4.714  0.1804  0.1755 -0.0754
13741TIP3    H162638   4.755   0.600   4.798 -0.1309  3.1469 -0.7097
13741TIP3    H262639   4.624   0.602   4.722 -0.1409 -0.5989 -0.9668
13742TIP3   OH262640   1.224   6.578  13.381  0.2874  0.0965  0.2596
13742TIP3    H162641   1.231   6.559  13.287 -0.6819 -0.6365  0.3146
13742TIP3    H262642   1.204   6.672  13.384 -0.9710 -0.1192 -0.3580
13743TIP3   OH262643   0.876   1.230  12.388 -0.4991  0.2415 -0.3051
13743TIP3    H162644   0.881   1.267  12.300 -0.2113  1.3720  0.1743
13743TIP3    H262645   0.785   1.203  12.397 -0.7667  1.0347 -0.5826
13744TIP3   OH262646   2.460   3.232   3.722  0.4704  0.0161  0.5985
13744TIP3    H162647   2.403   3.155   3.727  0.3063  0.1644  1.0888
13744TIP3    H262648   2.439   3.282   3.801 -0.8586  1.5649 -0.6602
13745TIP3   OH262649   0.995   5.534  14.634  0.3081 -0.1310 -0.4079
13745TIP3    H162650   0.945   5.471  14.686  0.7553  0.1327  0.3546
13745TIP3    H262651   0.933   5.566  14.568 -0.2200 -0.5820 -0.1356
13746TIP3   OH262652   6.578   0.298   1.108  0.5477 -0.1704  0.3959
13746TIP3    H162653   6.550   0.358   1.039  2.6012 -0.4016 -0.6952
13746TIP3    H262654   6.510   0.230   1.108 -1.2035  1.4697  0.8747
13747TIP3   OH262655   0.153   2.074  12.910  0.3942 -0.1214 -0.0852
13747TIP3    H162656   0.248   2.079  12.900  0.4529  0.6235  0.6884
13747TIP3    H262657   0.120   2.153  12.868  0.1897  0.0508  0.3924
13748TIP3   OH262658   1.518   5.016  13.079  0.1871 -0.1619  0.0183
13748TIP3    H162659   1.588   5.057  13.131 -0.3105  0.6377  0.0822
13748TIP3    H262660   1.554   5.013  12.991  0.6477 -0.5931  0.2130
13749TIP3   OH262661   2.453   2.274  11.662  0.0109  0.0538 -0.0400
13749TIP3    H162662   2.546   2.254  11.649 -0.0062 -0.5669  0.7572
13749TIP3    H262663   2.441   2.272  11.756 -1.4049 -2.7520 -0.1645
13750TIP3   OH262664   5.803   1.324   3.955 -0.0115 -0.3162  0.0751
13750TIP3    H162665   5.865   1.364   3.893  0.8778 -0.8600  0.5970
13750TIP3    H262666   5.724   1.310   3.903  0.2551  0.4966 -0.5772
13751TIP3   OH262667   4.213   6.231   4.601 -0.3506  0.2790  0.0269
13751TIP3    H162668   4.224   6.320   4.568 -0.2111  0.6950  1.1668
13751TIP3    H262669   4.120   6.212   4.587 -1.6611  2.4652  4.0642
13752TIP3   OH262670   3.425   0.549   0.786 -0.0735  0.3307  0.5538
13752TIP3    H162671   3.433   0.624   0.844 -2.0475  2.5003 -1.7023
13752TIP3    H262672   3.506   0.550   0.734  0.7924 -0.3821  1.8547
13753TIP3   OH262673   3.212   6.414   3.725 -0.2127  0.2451  0.5293
13753TIP3    H162674   3.212   6.376   3.638  0.9733  1.8226 -0.2116
13753TIP3    H262675   3.303   6.408   3.754  0.1243  2.6768  0.2428
13754TIP3   OH262676   2.304   1.234   0.980 -0.0812  0.3443  0.0486
13754TIP3    H162677   2.388   1.201   0.947 -1.8784 -2.2603 -2.3692
13754TIP3    H262678   2.239   1.202   0.918 -2.9581  2.0261  1.9474
13755TIP3   OH262679   6.118   5.814  10.979 -0.2333 -0.8926  0.1030
13755TIP3    H162680   6.066   5.777  10.909  0.0719 -2.1608  0.5182
13755TIP3    H262681   6.118   5.747  11.047  0.0459  0.0235  1.0388
13756TIP3   OH262682   0.674   3.877   1.105  0.1729  0.3695 -0.4863
13756TIP3    H162683   0.765   3.848   1.117 -0.5217 -1.8432 -0.0518
13756TIP3    H262684   0.660   3.942   1.173  1.2086  0.1501 -0.0433
13757TIP3   OH262685   1.723   5.026   3.189  0.5615 -0.3979  0.1499
13757TIP3    H162686   1.697   4.939   3.162  0.0354 -0.0953 -0.3305
13757TIP3    H262687   1.802   5.012   3.242 -0.3025 -1.2896  1.2664
13758TIP3   OH262688   4.796   1.809  12.033  0.6150 -0.0576  0.5623
13758TIP3    H162689   4.824   1.893  12.069 -0.4849  0.4905  0.2162
13758TIP3    H262690   4.830   1.809  11.943 -2.1762  1.6266 -0.6566
13759TIP3   OH262691   6.015   6.429  16.997 -0.2513 -0.1282  0.1286
13759TIP3    H162692   6.055   6.516  16.990  0.9120 -0.6063  0.5152
13759TIP3    H262693   6.085   6.374  17.030 -0.7445 -1.3811 -0.8364
13760TIP3   OH262694   3.376   5.327  12.929 -0.3995 -0.1100  0.1767
13760TIP3    H162695   3.376   5.237  12.961  1.2624  0.0911  0.8270
13760TIP3    H262696   3.287   5.340  12.895 -0.3681 -2.3500 -0.9804
13761TIP3   OH262697   1.914   0.473  13.158 -0.3659 -0.1080 -0.1658
13761TIP3    H162698   1.829   0.464  13.201 -0.3998 -1.7618 -0.5364
13761TIP3    H262699   1.953   0.386  13.161  0.8627  0.3771 -0.9652
13762TIP3   OH262700   4.460   3.573   0.284 -0.1970  0.2153  0.6745
13762TIP3    H162701   4.544   3.558   0.239 -0.3840 -1.0924  0.7499
13762TIP3    H262702   4.482   3.635   0.354 -0.0723  3.1762 -1.7339
13763TIP3   OH262703   6.434   6.034   3.139 -0.1113  0.3475 -0.0996
13763TIP3    H162704   6.460   6.126   3.140  0.2795  0.2324  0.3506
13763TIP3    H262705   6.482   5.996   3.065  0.2737  0.3435  0.1543
13764TIP3   OH262706   0.393   1.040   5.286  0.4414 -0.3839  0.2701
13764TIP3    H162707   0.405   1.058   5.193  1.2319 -0.8538  0.2779
13764TIP3    H262708   0.335   1.110   5.316 -3.1373 -2.3474 -1.3722
13765TIP3   OH262709   0.692   1.838   3.118  0.5327  0.1457  0.0597
13765TIP3    H162710   0.633   1.865   3.048 -1.3984  0.0456  1.5445
13765TIP3    H262711   0.775   1.821   3.075 -1.0487 -1.7352 -2.5249
13766TIP3   OH262712   5.764   1.878  10.909  0.4486 -0.6323  0.4446
13766TIP3    H162713   5.699   1.878  10.838  0.6033 -1.5275  0.2927
13766TIP3    H262714   5.848   1.874  10.864  0.6162  0.4973  0.6457
13767TIP3   OH262715   5.395   5.034  13.497  0.7174 -0.9143 -0.3828
13767TIP3    H162716   5.308   4.995  13.491 -0.1954  1.0678 -0.9143
13767TIP3    H262717   5.406   5.054  13.590 -0.1074  0.2408 -0.5038
13768TIP3   OH262718   0.577   5.959   0.683  0.8508 -0.4928 -0.2980
13768TIP3    H162719   0.514   6.001   0.741  1.2271  0.5473 -0.6332
13768TIP3    H262720   0.654   6.016   0.684  1.1766 -0.8911 -1.1687
13769TIP3   OH262721   3.813   1.622  13.522 -0.0785 -0.1507  0.2068
13769TIP3    H162722   3.762   1.583  13.594 -1.2108  0.6362 -0.1425
13769TIP3    H262723   3.879   1.675  13.566 -0.2886 -0.2580  0.6677
13770TIP3   OH262724   1.280   1.172  12.946 -0.3417 -0.0274  0.4940
13770TIP3    H162725   1.273   1.257  12.990  0.4871  1.0679 -1.3841
13770TIP3    H262726   1.218   1.177  12.874  0.0652 -0.8340  0.0822
13771TIP3   OH262727   1.260   2.410  15.003 -0.2796  0.5932  0.4069
13771TIP3    H162728   1.241   2.504  15.000 -0.0741  0.6090 -1.8743
13771TIP3    H262729   1.334   2.399  14.943 -1.3256 -1.2420 -0.6243
13772TIP3   OH262730   4.212   0.499   1.380 -0.8099  0.1208 -0.0289
13772TIP3    H162731   4.126   0.510   1.420 -1.0555 -0.5735 -0.3487
13772TIP3    H262732   4.195   0.490   1.286 -0.4094 -0.1830 -0.0798
13773TIP3   OH262733   6.720   5.464  11.244 -0.5208 -0.1288  0.0341
13773TIP3    H162734   6.643   5.518  11.223  0.2252  0.6861 -0.6661
13773TIP3    H262735   6.775   5.520  11.298  0.3438 -0.0865 -0.8455
13774TIP3   OH262736   5.199   6.687  11.863  0.0901  0.2896  0.2171
13774TIP3    H162737   5.219   6.629  11.790  0.7121  0.5898  0.1335
13774TIP3    H262738   5.114   6.658  11.896 -1.5103  1.7290 -2.2511
13775TIP3   OH262739   4.984   0.573  10.471 -0.1513  0.4586  0.2171
13775TIP3    H162740   4.949   0.485  10.484 -1.2891  0.5951 -1.5997
13775TIP3    H262741   5.079   0.563  10.482 -0.4882 -0.3357  3.1560
13776TIP3   OH262742   4.173   3.157   3.368  0.8053  0.1111  0.0463
13776TIP3    H162743   4.163   3.080   3.423  0.3586 -0.5675 -0.9524
13776TIP3    H262744   4.094   3.208   3.382  1.4912  0.8566  1.3798
13777TIP3   OH262745   2.830   3.495  11.992 -0.6601  0.0116  0.1848
13777TIP3    H162746   2.906   3.547  11.967 -0.6060  1.1327  2.4265
13777TIP3    H262747   2.757   3.536  11.945 -0.4073  1.3049  0.8800
13778TIP3   OH262748   5.868   0.495  13.505 -0.1231 -0.1465  0.1535
13778TIP3    H162749   5.789   0.441  13.503 -0.5648  0.4983 -0.1009
13778TIP3    H262750   5.913   0.469  13.585 -0.8931 -0.0963  0.6052
13779TIP3   OH262751   2.320   1.770   6.149 -0.5174 -0.4344  0.5702
13779TIP3    H162752   2.404   1.727   6.165  0.9038  2.1280  0.4192
13779TIP3    H262753   2.284   1.786   6.236 -2.6332 -4.4646  0.7053
13780TIP3   OH262754   6.027   1.963   4.601  0.3289 -0.4398  0.1646
13780TIP3    H162755   5.975   2.014   4.663  1.4714  0.6703  0.2499
13780TIP3    H262756   6.026   1.874   4.636 -1.7777 -0.5282 -0.0340
13781TIP3   OH262757   4.683   5.762   3.355 -0.1957 -0.0899 -0.6224
13781TIP3    H162758   4.698   5.671   3.378 -1.9513 -0.4061 -0.5839
13781TIP3    H262759   4.747   5.781   3.286  0.5639 -1.1623 -0.2264
13782TIP3   OH262760   6.348   1.148  12.646  0.4499 -0.1283 -0.0061
13782TIP3    H162761   6.329   1.187  12.731 -0.9831  2.0988 -1.2543
13782TIP3    H262762   6.280   1.182  12.588  1.5672 -1.3097 -2.1311
13783TIP3   OH262763   0.952   0.781  11.448 -0.2304 -0.1492  0.2750
13783TIP3    H162764   0.945   0.869  11.412  0.0507 -0.8960 -1.7601
13783TIP3    H262765   0.862   0.757  11.471 -0.8074 -0.3983 -2.0074
13784TIP3   OH262766   1.826   4.190   0.896  0.6187  0.2711 -0.3273
13784TIP3    H162767   1.821   4.277   0.936  1.7886  0.6561 -0.9608
13784TIP3    H262768   1.909   4.154   0.928 -0.7502 -1.4815  1.5358
13785TIP3   OH262769   0.108   4.797   1.893  0.3132 -0.3986 -0.1274
13785TIP3    H162770   0.098   4.878   1.943  2.1164  0.8191 -1.6097
13785TIP3    H262771   0.201   4.791   1.874  0.1130 -2.3986 -0.7990
13786TIP3   OH262772   2.202   2.812  16.387 -0.0680 -0.6365  0.1893
13786TIP3    H162773   2.257   2.735  16.401 -0.5532 -1.2562 -1.1647
13786TIP3    H262774   2.116   2.787  16.422 -0.5027 -1.1173 -1.1709
13787TIP3   OH262775   4.941   0.860  12.871 -0.2191  0.3650  0.8956
13787TIP3    H162776   4.946   0.793  12.939  1.6787  0.9573  1.4006
13787TIP3    H262777   4.848   0.865  12.849 -0.5754 -1.4563  1.8030
13788TIP3   OH262778   2.842   0.141   0.600 -0.3110 -0.2801 -0.4043
13788TIP3    H162779   2.815   0.133   0.691  0.0364 -1.2883 -0.3814
13788TIP3    H262780   2.937   0.157   0.604 -0.7789  3.1264 -0.4863
13789TIP3   OH262781   6.431   6.612   1.481  0.4113  0.0581  0.0978
13789TIP3    H162782   6.372   6.568   1.421 -1.0401 -1.1924  2.2876
13789TIP3    H262783   6.512   6.560   1.478 -0.5463 -1.5717  1.0735
13790TIP3   OH262784   0.328   6.777   0.168  0.4175 -0.0332 -0.5360
13790TIP3    H162785   0.241   6.754   0.136  0.5932  0.1423 -1.1449
13790TIP3    H262786   0.361   6.697   0.208  0.0157 -0.1265 -0.3816
13791TIP3   OH262787   0.379   2.491  16.909  0.1331 -0.0674  0.2166
13791TIP3    H162788   0.453   2.451  16.863 -0.7207 -1.2929 -0.1431
13791TIP3    H262789   0.413   2.574  16.942  1.0387  0.4343 -1.8431
13792TIP3   OH262790   3.164   3.551  16.368 -0.4203  0.3304  0.1556
13792TIP3    H162791   3.250   3.593  16.356 -0.1603  0.2657  1.5944
13792TIP3    H262792   3.137   3.578  16.456 -2.6608  1.6984 -0.8738
13793TIP3   OH262793   6.022   5.139   1.444  0.7143  0.5240 -0.2136
13793TIP3    H162794   5.983   5.070   1.497  1.2373 -1.0122 -1.7634
13793TIP3    H262795   5.956   5.209   1.445 -0.3373 -0.4407  0.4395
13794TIP3   OH262796   5.362   5.457  13.496  0.4384  0.1204  0.0631
13794TIP3    H162797   5.432   5.517  13.520  1.7275 -1.1366 -0.4187
13794TIP3    H262798   5.399   5.370  13.512 -1.2503 -0.5661  0.4025
13795TIP3   OH262799   2.503   6.275   4.226  0.0270 -0.1558  0.2359
13795TIP3    H162800   2.521   6.297   4.317  0.9268  1.5696 -0.2989
13795TIP3    H262801   2.550   6.193   4.211 -0.4065 -0.6340  1.3849
13796TIP3   OH262802   1.764   5.727  16.015 -0.5458  0.2779 -0.1383
13796TIP3    H162803   1.760   5.634  16.039 -0.4885  0.4092  0.4028
13796TIP3    H262804   1.676   5.747  15.983 -0.6931  0.1463  0.1742
13797TIP3   OH262805   2.943   2.101   5.787 -0.3205  0.0907  0.4298
13797TIP3    H162806   3.003   2.075   5.857  1.9027  2.5285 -0.3692
13797TIP3    H262807   2.991   2.084   5.707 -2.1710 -1.1279 -0.4752
13798TIP3   OH262808   1.164   0.531   5.047 -0.4648  0.8545 -0.4391
13798TIP3    H162809   1.220   0.462   5.012  0.1063  0.5345  1.0630
13798TIP3    H262810   1.083   0.486   5.072  0.7032  0.2410  2.5918
13799TIP3   OH262811   0.084   1.617   2.303  1.3103 -0.1126  0.0785
13799TIP3    H162812  -0.002   1.600   2.342  1.6577  0.7013  1.2677
13799TIP3    H262813   0.094   1.550   2.235  0.1856 -0.8725  0.6374
13800TIP3   OH262814   4.370   1.484   4.657 -0.4722 -0.0902  0.4720
13800TIP3    H162815   4.362   1.527   4.743 -1.2508 -0.1842  0.4566
13800TIP3    H262816   4.447   1.523   4.617  0.0836 -0.2669  1.3474
13801TIP3   OH262817   3.178   5.037  14.678 -0.9772  0.1122 -0.1692
13801TIP3    H162818   3.144   5.074  14.596 -0.9807 -0.3327 -0.3681
13801TIP3    H262819   3.201   4.947  14.657  0.8902  0.5495 -0.1893
13802TIP3   OH262820   2.985   0.837   2.904  0.8578 -0.5221 -0.0869
13802TIP3    H162821   2.934   0.910   2.938  0.3572 -1.9073  2.4195
13802TIP3    H262822   3.076   0.861   2.921  0.8164  0.2255 -0.8677
13803TIP3   OH262823   5.176   6.143   4.432  0.3925 -0.2866 -0.1382
13803TIP3    H162824   5.137   6.089   4.364  0.3915  0.6180 -0.8730
13803TIP3    H262825   5.110   6.147   4.501  0.9201 -2.3195  0.5354
13804TIP3   OH262826   3.293   3.893   4.823  0.0936 -0.0586  0.2673
13804TIP3    H162827   3.352   3.830   4.782 -0.4663 -0.9934  0.8680
13804TIP3    H262828   3.284   3.862   4.913  1.2880  1.9334  1.1495
13805TIP3   OH262829   6.249   4.478  13.670 -0.0098 -0.1036  0.3394
13805TIP3    H162830   6.186   4.413  13.701 -0.6214 -0.5554 -1.6979
13805TIP3    H262831   6.315   4.427  13.623  0.8575  0.5534  0.8177
13806TIP3   OH262832   2.476   0.666  11.175 -0.6494  0.6095  0.1208
13806TIP3    H162833   2.468   0.588  11.121 -1.4824 -0.2054  1.3792
13806TIP3    H262834   2.396   0.716  11.157 -0.6498  0.6231  0.1592
13807TIP3   OH262835   0.857   5.845   1.770 -0.0856 -0.1860 -0.0374
13807TIP3    H162836   0.839   5.810   1.682 -1.4309  0.4627 -0.0447
13807TIP3    H262837   0.822   5.934   1.768  1.8504  0.6324  0.4878
13808TIP3   OH262838   6.453   5.732  14.306 -0.0533 -0.1078 -0.2195
13808TIP3    H162839   6.511   5.755  14.233 -0.1034  1.5973  0.2370
13808TIP3    H262840   6.513   5.718  14.380  0.0216 -2.1393 -0.6223
13809TIP3   OH262841   0.812   3.689  12.633  0.2540  0.3800  0.3443
13809TIP3    H162842   0.767   3.629  12.574  0.6844  1.0072 -0.6413
13809TIP3    H262843   0.889   3.717  12.585  0.5796  0.9614  1.1805
13810TIP3   OH262844   5.186   6.131  11.267 -0.0406  0.7900 -0.3376
13810TIP3    H162845   5.261   6.186  11.243  0.1848 -0.3274 -2.4247
13810TIP3    H262846   5.160   6.162  11.354  3.0076  1.0302  0.6019
13811TIP3   OH262847   5.973   1.291  13.124  0.5599  0.0844 -0.1576
13811TIP3    H162848   5.879   1.305  13.127  0.4295 -0.2500 -1.9054
13811TIP3    H262849   5.996   1.262  13.212 -0.9970 -0.0412  0.2240
13812TIP3   OH262850   0.015   6.178  12.938 -0.2466  0.2280  0.0241
13812TIP3    H162851   0.068   6.116  12.989  0.9232 -0.3072 -1.7626
13812TIP3    H262852   0.064   6.260  12.942  0.3807 -0.0842 -1.0569
13813TIP3   OH262853   5.201   3.006   5.600  0.0647 -0.2125  0.0844
13813TIP3    H162854   5.272   3.043   5.653  2.0467 -1.3393 -1.6438
13813TIP3    H262855   5.154   2.949   5.660 -0.9678  2.3746  1.9096
13814TIP3   OH262856   2.596   2.894   3.014 -0.2375 -0.1236  0.3306
13814TIP3    H162857   2.610   2.917   3.106  1.2270  1.0781 -0.1562
13814TIP3    H262858   2.625   2.971   2.965 -1.4533 -0.5606 -1.1395
13815TIP3   OH262859   4.452   1.882  17.044 -0.1601 -0.2003  0.6873
13815TIP3    H162860   4.389   1.811  17.036 -0.9983  0.3402  2.0803
13815TIP3    H262861   4.535   1.844  17.017 -1.0369 -0.9576 -1.1290
13816TIP3   OH262862   3.066   3.471  14.892 -0.1623  0.1726 -0.4763
13816TIP3    H162863   3.039   3.487  14.802  0.9494 -0.0602 -0.8733
13816TIP3    H262864   3.038   3.549  14.940 -0.5154  0.4235 -1.0785
13817TIP3   OH262865   1.995   1.300   1.692  0.7228  0.6587 -0.5576
13817TIP3    H162866   1.931   1.362   1.727  0.5643  1.0942 -1.5780
13817TIP3    H262867   2.080   1.335   1.717  0.6106 -0.7623  2.2304
13818TIP3   OH262868   4.952   0.401  11.877  0.6049  0.2443  0.5642
13818TIP3    H162869   4.991   0.323  11.838  0.3761  0.3836  0.0454
13818TIP3    H262870   4.969   0.471  11.814 -0.5240  0.2958  0.2900
13819TIP3   OH262871   6.310   3.166   4.288  0.1038 -0.5814 -0.0276
13819TIP3    H162872   6.245   3.166   4.358  0.5749  0.8114  0.4435
13819TIP3    H262873   6.259   3.150   4.208 -0.4651 -1.9508  0.5683
13820TIP3   OH262874   6.591   3.740   4.513 -0.1282 -0.8294  0.0429
13820TIP3    H162875   6.563   3.664   4.564  0.9365 -1.5736 -0.4560
13820TIP3    H262876   6.563   3.720   4.424 -0.9157 -0.0706  0.1038
13821TIP3   OH262877   5.093   0.927   5.493 -0.1662  0.6928 -0.1801
13821TIP3    H162878   5.117   0.955   5.405 -0.1318  0.6212 -0.1932
13821TIP3    H262879   5.063   0.837   5.482 -2.4207  1.4231 -0.5170
13822TIP3   OH262880   4.708   0.014  13.607  0.2480 -0.1753  0.1163
13822TIP3    H162881   4.659   0.066  13.544  0.0567  0.0335  0.4360
13822TIP3    H262882   4.757   0.078  13.658  2.4209 -0.4675 -1.4635
13823TIP3   OH262883   3.559   5.599   2.713 -0.2780  0.5667  0.0415
13823TIP3    H162884   3.468   5.568   2.714 -0.8892  2.2046 -0.8819
13823TIP3    H262885   3.610   5.521   2.689 -1.5615 -0.1126 -0.6335
13824TIP3   OH262886   4.945   5.481   4.336  0.3544 -0.0669  0.4245
13824TIP3    H162887   4.951   5.437   4.251 -2.4085 -0.8339  0.5297
13824TIP3    H262888   5.017   5.445   4.387 -0.4539 -2.8410 -0.2372
13825TIP3   OH262889   4.032   2.208   3.195 -0.0643 -0.3924  0.5229
13825TIP3    H162890   3.962   2.247   3.143 -1.2799 -0.7377  1.8399
13825TIP3    H262891   3.990   2.186   3.279  1.4288 -1.3455  1.0502
13826TIP3   OH262892   4.530   1.570  15.679  0.4320 -0.2669 -0.2078
13826TIP3    H162893   4.610   1.535  15.641 -0.3337 -2.8572  0.3784
13826TIP3    H262894   4.555   1.657  15.712  2.6248 -0.4791 -1.1690
13827TIP3   OH262895   6.301   6.632   2.229 -0.4433 -0.2660  0.0366
13827TIP3    H162896   6.395   6.623   2.240 -0.3913  0.2737  0.0631
13827TIP3    H262897   6.289   6.653   2.136 -0.5468 -0.4451  0.0088
13828TIP3   OH262898   6.798   5.368  14.062 -0.1289 -0.0432  0.6492
13828TIP3    H162899   6.889   5.395  14.050  0.1915 -1.0711  0.6285
13828TIP3    H262900   6.792   5.285  14.014 -0.4266 -1.1853  2.5842
13829TIP3   OH262901   6.779   0.161   0.276  0.4411  0.1013  0.2507
13829TIP3    H162902   6.804   0.233   0.218  3.2176  0.0286  1.1820
13829TIP3    H262903   6.774   0.200   0.363 -3.3859  0.1446  0.1856
13830TIP3   OH262904   5.663   2.360  16.840  0.4489 -0.0411  0.1697
13830TIP3    H162905   5.599   2.369  16.910  0.4388  0.8468  0.0533
13830TIP3    H262906   5.612   2.364  16.760  0.4026 -1.5248  0.0918
13831TIP3   OH262907   6.786   0.425  12.076 -0.1234  0.1117 -0.2036
13831TIP3    H162908   6.700   0.400  12.109 -0.9920  2.1326 -0.7568
13831TIP3    H262909   6.848   0.386  12.138 -1.3727 -1.7723 -0.0547
13832TIP3   OH262910   1.639   6.447  11.698  0.4852 -0.3378  0.0208
13832TIP3    H162911   1.612   6.360  11.672  1.0099 -0.6429  0.4757
13832TIP3    H262912   1.558   6.491  11.725  0.1020 -0.3959 -0.9943
13833TIP3   OH262913   4.851   2.723  15.772  0.2400 -0.9957  0.4465
13833TIP3    H162914   4.831   2.808  15.733  0.7797 -0.0589  2.1428
13833TIP3    H262915   4.773   2.670  15.754 -0.2122 -0.0801 -0.3918
13834TIP3   OH262916   0.436   5.627  11.342 -0.3070  0.4167  0.2060
13834TIP3    H162917   0.495   5.555  11.319 -0.4269  0.3924 -0.0333
13834TIP3    H262918   0.493   5.698  11.369 -0.2067 -0.0331  1.2306
13835TIP3   OH262919   6.679   6.554   1.007  0.0879  0.0489  0.8837
13835TIP3    H162920   6.768   6.556   1.044 -0.4072  0.5241  2.1100
13835TIP3    H262921   6.678   6.475   0.953  2.0132  1.3309 -1.1806
13836TIP3   OH262922   1.209   3.271   1.459 -0.3984 -0.2025 -0.3625
13836TIP3    H162923   1.142   3.339   1.468  0.7336  0.9589 -0.4750
13836TIP3    H262924   1.159   3.189   1.458 -1.7875  0.5983 -0.0737
13837TIP3   OH262925   2.922   5.180  14.140  0.2938  0.3319  0.2392
13837TIP3    H162926   2.857   5.184  14.210 -0.0996  2.1581 -0.1842
13837TIP3    H262927   2.872   5.192  14.060  0.7238 -1.8710 -0.4109
13838TIP3   OH262928   1.735   6.083   0.950  0.0424 -0.3345 -0.5101
13838TIP3    H162929   1.744   5.999   0.994  1.5834 -0.5834 -1.2327
13838TIP3    H262930   1.656   6.121   0.988 -0.0311 -1.5805  0.6876
13839TIP3   OH262931   0.692   2.863  13.709 -0.3344 -0.1588  0.3206
13839TIP3    H162932   0.615   2.920  13.706 -2.3386 -2.6123 -3.2719
13839TIP3    H262933   0.721   2.858  13.618  3.6318 -0.1155  1.4193
13840TIP3   OH262934   2.082   3.491   1.331 -0.4501 -0.3254  0.4063
13840TIP3    H162935   2.033   3.432   1.389 -1.6632  2.4873  2.5147
13840TIP3    H262936   2.132   3.547   1.391  0.4690  0.9184 -1.4210
13841TIP3   OH262937   0.347   4.506   0.450 -0.3083 -0.2200 -0.4014
13841TIP3    H162938   0.319   4.565   0.521 -0.1532  1.0661 -1.3642
13841TIP3    H262939   0.266   4.483   0.405 -0.5978 -2.2784  1.0637
13842TIP3   OH262940   0.194   3.212   3.862 -0.0823  0.1089  0.1953
13842TIP3    H162941   0.195   3.134   3.917  0.8016 -1.1691 -1.5262
13842TIP3    H262942   0.101   3.226   3.843 -0.1873 -1.3573 -0.5382
13843TIP3   OH262943   6.194   0.653   4.700  0.1412  0.0987 -0.3513
13843TIP3    H162944   6.232   0.740   4.689 -1.5609  1.2171  1.7944
13843TIP3    H262945   6.221   0.625   4.787 -0.7236 -0.7858 -0.3414
13844TIP3   OH262946   3.973   5.289   0.308 -0.0967  0.0404  0.2901
13844TIP3    H162947   3.878   5.277   0.301 -0.0452 -0.5683  0.5215
13844TIP3    H262948   3.989   5.377   0.275 -0.5868 -0.3527 -1.0792
13845TIP3   OH262949   2.662   4.425  14.526 -0.2936 -0.9115 -1.1806
13845TIP3    H162950   2.653   4.482  14.450 -1.3881  0.0316 -0.3757
13845TIP3    H262951   2.669   4.485  14.601  0.1567 -1.8191 -0.4644
13846TIP3   OH262952   5.041   4.457  15.125  0.1025  0.5078 -0.0612
13846TIP3    H162953   5.063   4.399  15.053 -1.9313  1.0246 -1.1918
13846TIP3    H262954   5.051   4.404  15.203  0.0506 -0.8076 -0.9251
13847TIP3   OH262955   4.554   2.415  12.383 -0.0593 -0.2199  0.0332
13847TIP3    H162956   4.603   2.498  12.379 -0.5085  0.1382  1.3267
13847TIP3    H262957   4.463   2.441  12.372 -0.4401 -0.2055  2.5428
13848TIP3   OH262958   0.814   3.237   1.270 -0.2877  0.2630  0.1006
13848TIP3    H162959   0.824   3.239   1.365 -0.6531  2.8339  0.1395
13848TIP3    H262960   0.735   3.184   1.255 -0.3180 -0.0214  1.2309
13849TIP3   OH262961   2.118   6.700  16.981  0.1871 -0.5839  0.5649
13849TIP3    H162962   2.190   6.749  17.021  1.2556 -0.7631 -1.0809
13849TIP3    H262963   2.159   6.623  16.944 -1.2481 -1.9751  1.7309
13850TIP3   OH262964   0.328   3.470  11.393 -0.3523 -0.0734  0.1027
13850TIP3    H162965   0.269   3.432  11.459  0.0781  1.5555  1.5010
13850TIP3    H262966   0.395   3.516  11.444  0.2145  0.9398 -1.4757
13851TIP3   OH262967   5.866   1.569  15.521  0.4131 -0.5917  0.0227
13851TIP3    H162968   5.772   1.556  15.532  0.4978 -0.3777  1.0795
13851TIP3    H262969   5.881   1.554  15.427 -0.6509 -0.7167 -0.1439
13852TIP3   OH262970   1.140   0.335   6.283  0.0623  0.3501  0.6870
13852TIP3    H162971   1.166   0.255   6.330 -0.5446 -0.9775 -1.1242
13852TIP3    H262972   1.197   0.403   6.318  1.9633 -1.2763  0.9427
13853TIP3   OH262973   2.718   5.077   3.368  0.4873 -0.8856 -0.2105
13853TIP3    H162974   2.628   5.102   3.390  0.8845  0.3750  0.0607
13853TIP3    H262975   2.719   5.075   3.273  0.0835 -1.2339 -0.2089
13854TIP3   OH262976   6.351   1.526  12.820  0.2564 -0.2345  0.4067
13854TIP3    H162977   6.286   1.590  12.850 -2.4704 -1.9010 -1.4797
13854TIP3    H262978   6.335   1.518  12.726 -0.4364 -4.5321  0.7017
13855TIP3   OH262979   5.043   5.487  16.472 -0.0844  0.5954  0.1468
13855TIP3    H162980   5.040   5.572  16.428 -0.2982 -0.1125 -1.3042
13855TIP3    H262981   5.133   5.478  16.502  0.2099  0.9130 -0.6129
13856TIP3   OH262982   3.040   0.759  15.921  0.4460  0.0956  0.5835
13856TIP3    H162983   3.032   0.832  15.860 -0.9356  0.2697  0.9452
13856TIP3    H262984   3.076   0.688  15.867  0.2741  0.5587 -0.1681
13857TIP3   OH262985   4.950   2.332   2.319 -0.0219  0.4979  0.2754
13857TIP3    H162986   4.976   2.251   2.275 -1.2983  0.1348  0.1660
13857TIP3    H262987   4.906   2.383   2.251 -0.0914  0.8669  0.5930
13858TIP3   OH262988   0.754   1.042  15.798 -0.6251  0.1765 -0.0348
13858TIP3    H162989   0.710   1.044  15.713 -0.6722  0.1259 -0.0117
13858TIP3    H262990   0.846   1.057  15.778 -0.4324 -1.2051 -0.2231
13859TIP3   OH262991   2.181   5.309   6.192 -0.0573 -0.0749  0.0323
13859TIP3    H162992   2.112   5.367   6.226 -0.1780  0.4103 -0.9904
13859TIP3    H262993   2.260   5.363   6.195  0.0575 -0.2498  0.1470
13860TIP3   OH262994   1.708   6.218   2.712  0.0572  0.0112 -0.0433
13860TIP3    H162995   1.711   6.123   2.705 -1.4522 -0.2026  1.5097
13860TIP3    H262996   1.632   6.244   2.659  0.7783  0.4364 -0.9029
13861TIP3   OH262997   3.549   6.101   0.615 -0.5625 -0.4794 -0.4730
13861TIP3    H162998   3.553   6.182   0.667 -1.5521 -1.6973  1.6657
13861TIP3    H262999   3.634   6.060   0.628  0.5176  0.8411 -2.8021
13862TIP3   OH263000   3.028   6.216  11.273 -0.0155 -0.7597 -0.5251
13862TIP3    H163001   3.071   6.295  11.241 -1.6319  0.3672 -0.0554
13862TIP3    H263002   2.959   6.198  11.209 -0.7364 -0.7808  0.2350
13863TIP3   OH263003   3.370   2.101  12.720  0.1930  0.2624  0.2984
13863TIP3    H163004   3.300   2.056  12.767  0.3699 -2.0406 -1.4760
13863TIP3    H263005   3.440   2.036  12.712  1.3613  1.5516 -0.5276
13864TIP3   OH263006   3.067   4.907   0.581  0.4099 -0.1335 -0.2427
13864TIP3    H163007   3.047   4.817   0.558  2.5444 -1.0385  1.1145
13864TIP3    H263008   3.163   4.911   0.582  0.4132  1.4114  2.1842
13865TIP3   OH263009   2.146   0.061  13.674  0.0084  0.1447  0.0722
13865TIP3    H163010   2.180   0.149  13.658 -0.2734  0.2816  0.2121
13865TIP3    H263011   2.069   0.075  13.730  0.8901 -0.3185  1.4376
13866TIP3   OH263012   1.309   2.758  11.676 -0.1913 -0.6047 -0.3122
13866TIP3    H163013   1.235   2.713  11.636  0.9652 -2.7548 -0.2153
13866TIP3    H263014   1.366   2.781  11.602 -0.8684  0.9417 -0.3776
13867TIP3   OH263015   1.224   2.539   0.638 -0.3879 -0.3003  0.0048
13867TIP3    H163016   1.190   2.470   0.582 -0.6819  1.4733 -2.1452
13867TIP3    H263017   1.159   2.609   0.631  0.5399  0.6990  1.0669
13868TIP3   OH263018   6.452   5.466  10.535 -0.0381 -0.7105  0.6261
13868TIP3    H163019   6.505   5.387  10.531 -0.1030 -0.8981  2.6438
13868TIP3    H263020   6.514   5.536  10.551  0.1332 -0.1393 -2.0749
13869TIP3   OH263021   5.768   0.279   5.958  0.8994 -0.1035 -0.1394
13869TIP3    H163022   5.690   0.250   6.004  0.8335  0.5141  0.1539
13869TIP3    H263023   5.838   0.223   5.991  0.5128 -0.9734 -0.7476
13870TIP3   OH263024   4.147   1.070   4.715 -0.0553  0.1618  0.1632
13870TIP3    H163025   4.156   1.147   4.659 -0.1119 -0.6320 -0.9725
13870TIP3    H263026   4.149   1.105   4.804 -2.8395  1.8224 -0.2991
13871TIP3   OH263027   5.802   4.268  15.488  0.1496 -0.1406 -0.3640
13871TIP3    H163028   5.851   4.325  15.428 -0.3815  0.7516  0.0280
13871TIP3    H263029   5.712   4.300  15.483 -0.5365 -2.0869 -1.4592
13872TIP3   OH263030   0.344   4.854   5.191  0.1344  0.5121  0.5852
13872TIP3    H163031   0.366   4.933   5.143 -0.2768 -0.1390 -0.7280
13872TIP3    H263032   0.294   4.801   5.129  1.7452 -1.4686  0.8508
13873TIP3   OH263033   0.468   1.896  16.187 -0.0890 -0.5790 -0.0147
13873TIP3    H163034   0.433   1.929  16.104  1.5150  0.3942 -0.3298
13873TIP3    H263035   0.539   1.837  16.162  1.0115  0.4350  0.6732
13874TIP3   OH263036   4.792   1.336   1.731 -0.3481 -0.2749 -0.3229
13874TIP3    H163037   4.714   1.308   1.779 -0.4661  1.0501  0.2862
13874TIP3    H263038   4.859   1.345   1.799 -0.1412  0.2907 -0.6051
13875TIP3   OH263039   6.712   6.673  16.701  0.0874 -0.3505  0.7477
13875TIP3    H163040   6.692   6.766  16.710  1.0046 -0.0709  0.1062
13875TIP3    H263041   6.800   6.664  16.739  1.5422 -0.2356 -2.2500
13876TIP3   OH263042   5.835   5.376  15.265  0.1704 -0.2638 -0.0273
13876TIP3    H163043   5.844   5.392  15.359  2.4511  1.4009 -0.4353
13876TIP3    H263044   5.835   5.464  15.226 -0.7164 -0.9234 -1.6001
13877TIP3   OH263045   2.503   0.442  16.043 -0.3814  0.3988  0.2514
13877TIP3    H163046   2.533   0.364  16.090 -0.0096 -1.4602 -2.7749
13877TIP3    H263047   2.418   0.417  16.007 -0.6255  1.7002 -0.1396
13878TIP3   OH263048   4.127   1.854   2.723  0.1301 -0.1928  0.4142
13878TIP3    H163049   4.172   1.909   2.658 -3.3091  1.4301 -0.7958
13878TIP3    H263050   4.109   1.773   2.676  0.2051 -0.1535  0.3157
13879TIP3   OH263051   2.319   6.411  14.285  0.4404  0.1854  0.0115
13879TIP3    H163052   2.380   6.374  14.220 -0.1649 -0.9914  0.0896
13879TIP3    H263053   2.375   6.442  14.356  0.9451 -1.5195  0.4041
13880TIP3   OH263054   6.612   5.148  15.141  0.4743  0.4228 -0.6306
13880TIP3    H163055   6.638   5.172  15.230  1.4643 -0.3496 -0.6903
13880TIP3    H263056   6.655   5.212  15.085 -0.4912  1.1656 -0.5430
13881TIP3   OH263057   5.405   1.834   3.141  0.1064  0.5555  0.3378
13881TIP3    H163058   5.344   1.883   3.195 -0.3199  0.9054 -0.4497
13881TIP3    H263059   5.351   1.767   3.097  0.0673  1.5149 -1.1584
13882TIP3   OH263060   0.367   3.643   2.549 -1.2298 -0.0867  0.5305
13882TIP3    H163061   0.408   3.557   2.535  1.7250  0.6092  3.5678
13882TIP3    H263062   0.278   3.633   2.515 -0.0882 -3.3157 -2.1011
13883TIP3   OH263063   1.926   2.090   1.871  0.0385 -0.1996  0.0151
13883TIP3    H163064   1.878   2.055   1.946  0.6002 -0.1933  0.3878
13883TIP3    H263065   1.906   2.029   1.799 -2.3174  1.0365 -0.4632
13884TIP3   OH263066   0.446   4.081   0.360  0.5065  0.1264 -0.0732
13884TIP3    H163067   0.421   4.028   0.435 -0.2854 -0.3848 -0.6858
13884TIP3    H263068   0.517   4.032   0.319 -0.8331 -0.9603 -1.1634
13885TIP3   OH263069   3.578   6.321   1.708  0.9330 -0.0941 -0.1011
13885TIP3    H163070   3.579   6.379   1.632 -0.1883 -0.0484 -0.0979
13885TIP3    H263071   3.625   6.242   1.678 -2.1023 -1.3605 -1.9519
13886TIP3   OH263072   1.508   0.921   4.186  0.5044  0.2568  0.0151
13886TIP3    H163073   1.583   0.928   4.246 -0.3110  2.3583  0.8990
13886TIP3    H263074   1.501   0.828   4.167  3.2601 -0.0403 -0.0067
13887TIP3   OH263075   5.717   6.010  15.564  0.0729  0.4427  0.6051
13887TIP3    H163076   5.778   6.067  15.611  1.4175  0.4013 -0.9965
13887TIP3    H263077   5.688   6.062  15.489 -0.0766 -0.3510  0.0948
13888TIP3   OH263078   3.511   0.033  14.683 -0.2184  0.1269 -0.6581
13888TIP3    H163079   3.438   0.053  14.624 -1.0395 -4.0789 -1.4001
13888TIP3    H263080   3.587   0.024  14.626  0.0837  0.8692 -0.3814
13889TIP3   OH263081   4.837   5.974   1.146 -0.4209  0.0615 -0.2127
13889TIP3    H163082   4.759   6.028   1.150  1.0932  2.4305 -0.5689
13889TIP3    H263083   4.889   6.012   1.076  1.2152 -1.2022  0.2470
13890TIP3   OH263084   0.573   4.866   0.431  0.3266 -0.1581  0.4176
13890TIP3    H163085   0.500   4.805   0.418  0.9253 -1.0118  0.9458
13890TIP3    H263086   0.622   4.864   0.349 -0.1795  0.3399  0.0988
13891TIP3   OH263087   0.652   2.837   4.618 -0.2979  0.0336  0.4659
13891TIP3    H163088   0.697   2.921   4.605  0.9571 -0.4654  1.3974
13891TIP3    H263089   0.718   2.781   4.658 -0.3276 -2.1624 -2.2511
13892TIP3   OH263090   1.559   5.158   5.907  0.1729 -1.0532  0.0497
13892TIP3    H163091   1.526   5.094   5.969 -0.8605  0.8143  1.5464
13892TIP3    H263092   1.636   5.195   5.949  1.6308 -2.2374 -1.4408
13893TIP3   OH263093   6.635   6.810  14.943 -0.3029  0.5456  0.1561
13893TIP3    H163094   6.621   6.743  15.011  0.8792  0.3440  0.2256
13893TIP3    H263095   6.593   6.773  14.865  0.8554 -0.6082  0.0289
13894TIP3   OH263096   5.944   0.038   6.039 -0.0803 -0.1688 -0.4850
13894TIP3    H163097   5.958   0.013   6.130 -2.1215  0.8246  0.1829
13894TIP3    H263098   6.024   0.012   5.994  1.2126 -0.2243  1.6799
13895TIP3   OH263099   5.171   6.795   6.461 -0.5167  0.0850  0.1968
13895TIP3    H163100   5.253   6.778   6.414 -1.1772  1.7891 -1.7035
13895TIP3    H263101   5.187   6.875   6.510 -1.7005  1.8920 -2.1625
13896TIP3   OH263102   0.146   5.740   2.839 -0.3444 -0.0057 -0.0980
13896TIP3    H163103   0.103   5.757   2.756  1.0464 -0.2168 -0.8969
13896TIP3    H263104   0.127   5.648   2.858  0.2371 -0.2682 -0.7515
13897TIP3   OH263105   0.928   2.231  14.960  0.4007  0.4770  0.0798
13897TIP3    H163106   1.009   2.179  14.967  0.6649  1.0100  1.2763
13897TIP3    H263107   0.951   2.305  14.904  0.6176  0.4023  0.0688
13898TIP3   OH263108   6.757   5.432   1.722  0.3287  0.2111  0.0206
13898TIP3    H163109   6.709   5.394   1.795 -0.4935 -1.9834 -1.5667
13898TIP3    H263110   6.740   5.526   1.729 -2.0055 -0.2080  1.0660
13899TIP3   OH263111   1.446   0.865  16.045  0.6361 -0.1392 -0.1673
13899TIP3    H163112   1.446   0.829  16.134 -0.1994 -0.5469 -0.3227
13899TIP3    H263113   1.476   0.955  16.056  0.4911 -0.1685  0.5309
13900TIP3   OH263114   2.851   2.605   2.351 -0.4200  0.1458 -0.5480
13900TIP3    H163115   2.818   2.521   2.320  0.6845 -0.3708 -0.3915
13900TIP3    H263116   2.901   2.583   2.430  0.2330  0.8866 -0.7399
13901TIP3   OH263117   1.966   1.403   0.993 -0.1043 -0.0440 -0.3368
13901TIP3    H163118   1.981   1.478   1.050 -0.5788  1.2210 -1.8184
13901TIP3    H263119   1.990   1.327   1.047  1.7870  1.2288  0.7322
13902TIP3   OH263120   5.087   3.944  15.938 -0.1776 -0.4243  0.0665
13902TIP3    H163121   5.162   3.988  15.896 -0.0906 -0.1288  0.5322
13902TIP3    H263122   5.121   3.912  16.021 -0.3138 -1.1467 -0.1491
13903TIP3   OH263123   6.481   1.463   6.159  0.7208 -0.4038  0.7403
13903TIP3    H163124   6.555   1.467   6.100 -0.4006  1.9600 -0.6350
13903TIP3    H263125   6.512   1.502   6.240  1.5994 -1.5519  0.9808
13904TIP3   OH263126   2.279   1.468  12.150 -0.3565  0.5576 -0.2444
13904TIP3    H163127   2.216   1.396  12.159 -0.1335  0.4068  0.1438
13904TIP3    H263128   2.270   1.518  12.231  1.7773 -0.9040  1.0067
13905TIP3   OH263129   6.576   1.120   0.251  0.4466 -0.1659  0.1794
13905TIP3    H163130   6.565   1.206   0.213 -1.5194 -0.4985 -0.0835
13905TIP3    H263131   6.575   1.135   0.346  0.0451  0.0963  0.1338
13906TIP3   OH263132   1.577   0.034   3.309  0.0029  0.1141 -0.2101
13906TIP3    H163133   1.550   0.113   3.262  2.6471 -0.8143 -3.6646
13906TIP3    H263134   1.500  -0.023   3.307 -1.1219  1.5911  0.0084
13907TIP3   OH263135   3.457   1.357  16.661 -0.3849 -0.5819  0.4001
13907TIP3    H163136   3.488   1.283  16.608 -0.7263 -0.0005 -0.6324
13907TIP3    H263137   3.407   1.411  16.600 -0.4523  0.3164  1.2323
13908TIP3   OH263138   2.375   6.725  15.104 -0.5126  0.1591 -0.3215
13908TIP3    H163139   2.312   6.794  15.082  0.2865  0.6034 -1.2997
13908TIP3    H263140   2.334   6.645  15.074 -1.1023  0.2943  0.0970
13909TIP3   OH263141   5.139   4.053   1.720 -0.1904 -0.1723  0.2250
13909TIP3    H163142   5.046   4.063   1.699  0.0837 -1.3767 -1.8799
13909TIP3    H263143   5.162   3.968   1.683  1.1400 -1.1851  3.1694
13910TIP3   OH263144   6.064   5.219  15.351  0.3340 -0.7713 -0.3175
13910TIP3    H163145   5.991   5.263  15.308  2.9613  1.0756 -3.3408
13910TIP3    H263146   6.113   5.290  15.392 -0.1444 -2.1259  2.9421
13911TIP3   OH263147   2.686   0.444   1.921  0.5986 -0.4259 -0.4555
13911TIP3    H163148   2.598   0.450   1.884  0.6664  1.8114 -0.3648
13911TIP3    H263149   2.705   0.350   1.922 -1.6848 -0.9494 -0.6893
13912TIP3   OH263150   3.106   6.482  12.659 -0.3080  0.1521 -0.4652
13912TIP3    H163151   3.061   6.463  12.741  1.4530 -0.3013  0.4450
13912TIP3    H263152   3.036   6.483  12.593 -1.6184 -0.6406  0.8441
13913TIP3   OH263153   2.208   0.088   2.545  0.1097  0.0434 -0.2046
13913TIP3    H163154   2.175   0.013   2.595 -0.7717 -0.9134 -2.1506
13913TIP3    H263155   2.303   0.083   2.555  0.0479 -1.1835 -0.1044
13914TIP3   OH263156   1.142   4.000   2.515  0.2770  0.4254  0.4703
13914TIP3    H163157   1.219   3.953   2.483  0.4223  1.6207 -1.0502
13914TIP3    H263158   1.173   4.088   2.535 -0.8588  1.3064 -1.3312
13915TIP3   OH263159   5.659   4.528  11.720 -0.8372 -0.4290  0.2435
13915TIP3    H163160   5.609   4.527  11.638 -2.1255  1.6573  0.9127
13915TIP3    H263161   5.739   4.575  11.699  0.0728 -2.1581 -0.3823
13916TIP3   OH263162   6.722   2.258  15.627  0.5980 -0.2794 -0.4441
13916TIP3    H163163   6.688   2.260  15.538 -1.9872  1.0222  0.4678
13916TIP3    H263164   6.771   2.176  15.633 -2.2784 -2.2857 -1.9951
13917TIP3   OH263165   5.872   6.590   6.204 -0.2450 -0.5559  0.2540
13917TIP3    H163166   5.806   6.558   6.142 -0.2212 -1.6081  0.7339
13917TIP3    H263167   5.943   6.526   6.197  0.0477 -0.3016  0.8677
13918TIP3   OH263168   6.578   0.970  13.620 -0.1041 -0.5946 -0.2449
13918TIP3    H163169   6.671   0.949  13.613  0.1510  0.6696 -0.9049
13918TIP3    H263170   6.574   1.043  13.682 -0.3358  1.1983 -2.2784
13919TIP3   OH263171   2.955   6.201  15.823  0.0409  0.3970 -0.3688
13919TIP3    H163172   3.020   6.140  15.787 -0.2744 -0.6800  0.8288
13919TIP3    H263173   2.978   6.209  15.915 -0.8371  0.9317 -0.1851
13920TIP3   OH263174   3.402   0.954  13.087  0.3935 -0.2119  0.1801
13920TIP3    H163175   3.390   0.977  13.179  2.0226 -1.2267  0.6975
13920TIP3    H263176   3.347   1.016  13.039  1.7003  2.2437  1.6612
13921TIP3   OH263177   3.204   3.274  12.318 -0.6987 -0.0161  0.2677
13921TIP3    H163178   3.203   3.369  12.304 -1.4141 -0.1147 -0.4353
13921TIP3    H263179   3.130   3.258  12.377 -1.2441 -0.2411 -0.4564
13922TIP3   OH263180   5.623   5.033   3.260 -0.1734  0.0362 -0.2748
13922TIP3    H163181   5.593   4.966   3.320 -0.4092 -0.2053 -0.6604
13922TIP3    H263182   5.716   5.012   3.245 -0.6868 -1.3111 -1.8275
13923TIP3   OH263183   3.663   5.031  14.628 -0.0855 -0.5678 -0.6430
13923TIP3    H163184   3.757   5.034  14.608 -0.0398  3.0257 -0.4049
13923TIP3    H263185   3.621   5.068  14.550 -1.1961 -0.7017 -0.1249
13924TIP3   OH263186   0.017   5.078   5.435  0.0317 -0.2554 -0.3730
13924TIP3    H163187  -0.018   5.091   5.347 -0.4657 -1.2529 -0.3376
13924TIP3    H263188  -0.059   5.078   5.492  0.4328  1.5080  0.2354
13925TIP3   OH263189   6.322   3.543  12.067 -0.5660  0.0577 -0.5999
13925TIP3    H163190   6.411   3.540  12.031 -0.4300  0.6224 -0.3285
13925TIP3    H263191   6.320   3.623  12.120 -0.9301 -0.4810  0.2183
13926TIP3   OH263192   3.630   4.759   1.918  0.2162 -0.6769 -0.4553
13926TIP3    H163193   3.660   4.820   1.986 -1.9264  0.1714 -0.1847
13926TIP3    H263194   3.689   4.773   1.844 -0.5305  2.1793 -0.5980
13927TIP3   OH263195   1.623   6.741   4.346  0.0426  0.5206 -0.3055
13927TIP3    H163196   1.557   6.702   4.288 -0.5551  0.0072  0.7001
13927TIP3    H263197   1.706   6.704   4.316 -0.3267 -0.1732 -0.4794
13928TIP3   OH263198   1.012   5.471   1.609 -0.2598  0.7224  0.0054
13928TIP3    H163199   1.057   5.390   1.587 -1.8145 -0.1671 -0.0220
13928TIP3    H263200   1.042   5.533   1.542  0.8830  0.1746 -0.0202
13929TIP3   OH263201   2.114   2.398   3.583  0.3971  0.0582  0.5145
13929TIP3    H163202   2.163   2.449   3.648 -2.2636  1.8554  1.2996
13929TIP3    H263203   2.081   2.323   3.632  0.8907 -0.2162  0.4336
13930TIP3   OH263204   1.138   6.454   6.108  0.0737  0.2202 -0.3271
13930TIP3    H163205   1.231   6.434   6.116 -0.0191 -0.0195  0.1842
13930TIP3    H263206   1.108   6.400   6.035  0.6581  1.4568 -1.5325
13931TIP3   OH263207   5.934   4.719  12.788 -0.8872 -0.6418 -0.3508
13931TIP3    H163208   5.964   4.809  12.801  2.8999 -1.9274  1.2742
13931TIP3    H263209   5.846   4.718  12.825 -0.3045  1.9791  1.4344
13932TIP3   OH263210   2.535   4.659  10.757 -0.0475  0.5668 -0.4577
13932TIP3    H163211   2.561   4.591  10.820 -1.2921  0.7729  0.3075
13932TIP3    H263212   2.614   4.674  10.705  0.3465 -1.2483 -0.4550
13933TIP3   OH263213   2.900   3.064  15.716  0.3777  0.2337 -0.5208
13933TIP3    H163214   2.964   3.001  15.749  0.9665  2.1650  2.4729
13933TIP3    H263215   2.949   3.120  15.656  1.0101  0.4103  0.1377
13934TIP3   OH263216   1.056   4.457  14.289  0.1684  0.3795  0.3959
13934TIP3    H163217   0.983   4.445  14.350 -0.5050 -0.1998 -0.4942
13934TIP3    H263218   1.132   4.470  14.345 -0.4731  0.1346  1.3552
13935TIP3   OH263219   0.289   0.776   2.757 -0.5792 -0.0795  0.2755
13935TIP3    H163220   0.245   0.823   2.828 -1.9990 -1.9007  0.6627
13935TIP3    H263221   0.220   0.729   2.712  0.5980 -0.6613 -1.0058
13936TIP3   OH263222   6.432   5.292   2.679  0.4081  0.6108 -0.2910
13936TIP3    H163223   6.425   5.388   2.671  1.4511  0.6382 -1.1294
13936TIP3    H263224   6.501   5.268   2.617 -0.6117 -0.8193 -0.9314
13937TIP3   OH263225   2.647   1.893   0.277  0.2047  0.3315  0.3058
13937TIP3    H163226   2.563   1.846   0.272  1.1134 -1.4977  0.9860
13937TIP3    H263227   2.634   1.956   0.348 -0.4384 -0.3469  0.8206
13938TIP3   OH263228   6.419   1.250  15.433 -0.3155  0.1061 -0.3030
13938TIP3    H163229   6.381   1.166  15.457 -2.6719  0.9748 -0.7380
13938TIP3    H263230   6.428   1.297  15.516 -0.4043 -0.0128 -0.2264
13939TIP3   OH263231   0.895   1.531  12.817  0.1423 -0.0931  0.1899
13939TIP3    H163232   0.803   1.505  12.823 -0.5276  2.3376  1.9067
13939TIP3    H263233   0.942   1.466  12.869 -1.0049  0.1538  1.5953
13940TIP3   OH263234   1.602   6.452  16.264 -0.2804 -0.1066 -0.3638
13940TIP3    H163235   1.527   6.511  16.253  0.3107  0.5597 -0.8918
13940TIP3    H263236   1.677   6.510  16.274  0.1175 -0.7674  0.5771
13941TIP3   OH263237   1.276   3.087  14.396 -0.3300  0.4534  0.4857
13941TIP3    H163238   1.340   3.117  14.332 -0.2738  0.9794  0.7913
13941TIP3    H263239   1.211   3.040  14.343 -0.2317  0.7974  0.0529
13942TIP3   OH263240   2.447   5.786   0.690 -0.0406  0.1492 -0.5706
13942TIP3    H163241   2.378   5.853   0.686  1.7942  2.2775  0.7750
13942TIP3    H263242   2.404   5.710   0.728 -1.8776  1.0685 -0.6812
13943TIP3   OH263243   3.107   6.648  13.575 -0.0677  0.0732 -0.1961
13943TIP3    H163244   3.152   6.582  13.627 -2.4418 -1.5154 -0.0005
13943TIP3    H263245   3.123   6.730  13.622  1.7043 -0.5607  0.3910
13944TIP3   OH263246   3.857   6.035   3.795 -0.8401 -0.9521  0.1831
13944TIP3    H163247   3.825   6.124   3.809  2.0890  0.2162  0.1998
13944TIP3    H263248   3.841   6.018   3.702 -2.3190 -0.8508  0.3970
13945TIP3   OH263249   2.656   2.097  14.424  0.2995  0.9311 -0.6264
13945TIP3    H163250   2.640   2.182  14.384  1.8411  0.9741 -1.2429
13945TIP3    H263251   2.718   2.054  14.365  2.1063  0.6984  1.3217
13946TIP3   OH263252   1.084   0.400  15.957  0.0019  0.3444  0.1315
13946TIP3    H163253   1.060   0.399  15.864  0.6409  1.2001 -0.0525
13946TIP3    H263254   1.164   0.452  15.960  0.5622 -0.5419  1.0297
13947TIP3   OH263255   1.537   3.944  12.653 -0.4457 -0.0956 -0.1068
13947TIP3    H163256   1.561   3.851  12.661  0.8895  0.2769  0.6419
13947TIP3    H263257   1.443   3.944  12.639 -0.1367 -1.6854 -2.9327
13948TIP3   OH263258   1.066   1.299   4.520 -0.3155  0.3184  0.6760
13948TIP3    H163259   0.975   1.326   4.515 -0.2833  0.3763  0.3339
13948TIP3    H263260   1.111   1.356   4.457  0.0352  0.6201  1.1891
13949TIP3   OH263261   4.857   3.793   0.631 -0.1893 -0.2890 -0.6691
13949TIP3    H163262   4.893   3.732   0.696  0.0873  0.6911  0.1199
13949TIP3    H263263   4.881   3.880   0.664 -1.9890  0.3408 -0.9081
13950TIP3   OH263264   0.564   3.539   2.301 -0.4170 -0.3086  0.1694
13950TIP3    H163265   0.566   3.494   2.386 -2.2946 -0.5170  0.1346
13950TIP3    H263266   0.650   3.582   2.295 -0.0278 -0.7639  1.9030
13951TIP3   OH263267   4.615   5.381   0.675  0.1113  0.0992  0.5305
13951TIP3    H163268   4.571   5.336   0.747  0.7506 -0.2658  0.7006
13951TIP3    H263269   4.690   5.425   0.716  1.3977 -1.4002 -0.1240
13952TIP3   OH263270   3.488   3.338  13.956  0.2018 -0.4357 -0.8691
13952TIP3    H163271   3.448   3.425  13.949 -0.4173 -0.6488 -0.1406
13952TIP3    H263272   3.580   3.353  13.937  0.1262  0.4126 -0.6395
13953TIP3   OH263273   4.992   1.496   2.635 -0.0166  0.3724  0.2157
13953TIP3    H163274   5.060   1.429   2.640 -1.1347 -0.7478  1.0829
13953TIP3    H263275   5.033   1.569   2.589  0.8943 -1.3279 -1.8499
13954TIP3   OH263276   2.961   3.202   4.055  0.5860 -0.7796 -0.1360
13954TIP3    H163277   2.953   3.232   4.145  1.7754 -0.2767 -0.1848
13954TIP3    H263278   2.929   3.275   4.002  2.7124  0.1590 -0.2200
13955TIP3   OH263279   1.172   4.556  12.000  0.3508 -0.8129  0.1271
13955TIP3    H163280   1.105   4.509  11.951 -1.9926  1.3885  0.9985
13955TIP3    H263281   1.224   4.487  12.042 -1.9885 -2.6541  0.2148
13956TIP3   OH263282   1.873   1.409   4.579 -0.0564 -0.4356 -0.0971
13956TIP3    H163283   1.910   1.344   4.639  0.3622 -2.1151 -2.0281
13956TIP3    H263284   1.945   1.432   4.521 -0.9950 -0.6960 -1.4206
13957TIP3   OH263285   2.217   2.558   4.756  0.7175  0.5775  0.8210
13957TIP3    H163286   2.286   2.568   4.690  0.1622 -0.1978  0.1069
13957TIP3    H263287   2.215   2.642   4.801  0.6860  1.3514 -0.5718
13958TIP3   OH263288   6.743   3.021  17.108  0.4346  0.0098  0.3922
13958TIP3    H163289   6.827   3.054  17.141  1.2377 -0.5431 -1.0079
13958TIP3    H263290   6.723   2.946  17.164  1.1039 -0.1327  0.4443
13959TIP3   OH263291   4.606   4.838   0.688  0.4601  0.0803  0.4584
13959TIP3    H163292   4.652   4.803   0.611  0.7467  1.2808  0.0692
13959TIP3    H263293   4.642   4.789   0.762 -0.1046 -1.3763 -0.1896
13960TIP3   OH263294   4.113   4.400  11.393  0.2119  0.2053 -0.3886
13960TIP3    H163295   4.201   4.436  11.403  0.5680 -0.2390 -1.6757
13960TIP3    H263296   4.123   4.327  11.332 -1.0310  0.0648 -0.4685
13961TIP3   OH263297   4.403   6.706  13.005  0.1292 -0.0026 -0.2366
13961TIP3    H163298   4.356   6.644  13.061  0.3616  1.7386  1.9927
13961TIP3    H263299   4.473   6.653  12.966 -1.2808 -1.7354 -0.5619
13962TIP3   OH263300   0.562   5.546  16.598 -0.0505 -0.1883  0.0414
13962TIP3    H163301   0.592   5.515  16.684 -0.2854  0.7969  0.4992
13962TIP3    H263302   0.640   5.545  16.543  0.0119 -1.2471  0.1425
13963TIP3   OH263303   2.414   2.450  10.869 -0.1871  0.1133  0.3435
13963TIP3    H163304   2.339   2.469  10.925 -1.7568 -2.1245 -0.8289
13963TIP3    H263305   2.413   2.355  10.858  1.9898  0.1494 -0.8891
13964TIP3   OH263306   0.717   6.729  11.495  0.7684 -0.1549  0.6177
13964TIP3    H163307   0.704   6.809  11.547  1.0204  1.2895 -1.4201
13964TIP3    H263308   0.630   6.689  11.490  0.6725 -0.1456  1.8116
13965TIP3   OH263309   4.997   2.958   0.968  0.2031 -0.4687 -0.0201
13965TIP3    H163310   5.079   2.941   1.013  0.5967  0.9390 -0.1509
13965TIP3    H263311   4.941   3.000   1.033  0.5592  1.0219 -0.6295
13966TIP3   OH263312   5.944   5.105  17.164 -0.1113 -0.1110 -0.3102
13966TIP3    H163313   5.880   5.078  17.098  0.0975 -1.5355  0.0412
13966TIP3    H263314   5.897   5.098  17.247 -0.7345  2.7754 -0.3374
13967TIP3   OH263315   1.420   2.494  10.490  0.0534 -0.7274  0.1624
13967TIP3    H163316   1.497   2.543  10.519 -1.7012  2.0210  0.5585
13967TIP3    H263317   1.357   2.505  10.562 -0.9920 -2.2361 -0.4832
13968TIP3   OH263318   4.211   2.779   4.762 -0.1751 -0.8125  0.0732
13968TIP3    H163319   4.283   2.758   4.702  1.4700  0.3694  1.5331
13968TIP3    H263320   4.253   2.784   4.848 -1.6942  1.5460  0.7581
13969TIP3   OH263321   6.066   2.253   5.645  0.0952  0.5960  0.4300
13969TIP3    H163322   6.054   2.308   5.723  0.8278  0.2945  0.7639
13969TIP3    H263323   6.017   2.174   5.664 -1.1807  1.2170 -0.1614
13970TIP3   OH263324   5.418   5.833   2.927  0.4540 -0.6152  0.5513
13970TIP3    H163325   5.394   5.747   2.894  0.3431  0.2913 -2.0021
13970TIP3    H263326   5.340   5.887   2.914  1.2036  0.3742 -0.0298
13971TIP3   OH263327   0.461   0.747   0.103  0.1201 -0.2013 -0.1586
13971TIP3    H163328   0.484   0.764   0.195 -0.5662  1.1267 -0.2124
13971TIP3    H263329   0.545   0.748   0.057  0.5752 -1.8560  0.5796
13972TIP3   OH263330   5.615   1.178   5.601  0.7395 -0.2585  0.0082
13972TIP3    H163331   5.672   1.237   5.649  1.5827  0.4266 -1.7305
13972TIP3    H263332   5.669   1.101   5.583  0.0818 -0.9920  1.0756
13973TIP3   OH263333   5.202   4.589   2.325 -0.5209  0.5582 -0.1926
13973TIP3    H163334   5.108   4.572   2.319 -0.2824 -0.4398 -1.8163
13973TIP3    H263335   5.240   4.508   2.360 -0.2012  0.7555 -0.0698
13974TIP3   OH263336   4.484   2.771  11.356 -0.2539  0.1183  0.0425
13974TIP3    H163337   4.571   2.801  11.382  0.1890 -1.2046  0.1670
13974TIP3    H263338   4.427   2.847  11.371  0.8468  0.9792  0.0435
13975TIP3   OH263339   0.418   2.897   1.265 -0.5094  0.1416  0.0403
13975TIP3    H163340   0.333   2.864   1.293 -0.3001 -0.3980  0.0606
13975TIP3    H263341   0.469   2.818   1.247  0.1098  0.4539  0.3946
13976TIP3   OH263342   3.329   5.313   4.757 -0.1310 -0.2634  0.0324
13976TIP3    H163343   3.241   5.342   4.781 -0.2412 -1.6890  1.4466
13976TIP3    H263344   3.316   5.260   4.678 -0.2642  1.0671 -0.8869
13977TIP3   OH263345   2.406   5.994  16.436 -0.3450 -0.1440 -0.2023
13977TIP3    H163346   2.479   5.932  16.434 -1.3329 -1.3456 -0.1940
13977TIP3    H263347   2.447   6.079  16.455  1.3566 -0.3097 -2.6992
13978TIP3   OH263348   2.231   2.066  11.857  0.1449 -0.6417  0.6358
13978TIP3    H163349   2.173   2.042  11.929 -0.1002 -1.3254  0.2171
13978TIP3    H263350   2.180   2.129  11.806  0.0508 -0.6887  0.6721
13979TIP3   OH263351   6.056   5.236  14.232 -0.3621 -0.6349 -0.5620
13979TIP3    H163352   6.138   5.284  14.244 -2.7841  4.6268 -2.2310
13979TIP3    H263353   6.061   5.204  14.142 -0.3611  0.3101 -0.9111
13980TIP3   OH263354   2.991   0.931  11.414 -0.2015  0.0560 -0.1157
13980TIP3    H163355   2.898   0.939  11.398 -0.2937  2.1197  1.0680
13980TIP3    H263356   3.020   0.858  11.358 -2.3441 -0.1258 -1.0578
13981TIP3   OH263357   6.307   2.030  13.425 -0.4240 -0.0215  0.2569
13981TIP3    H163358   6.371   2.102  13.428  1.5618 -1.6376 -0.5360
13981TIP3    H263359   6.312   1.990  13.512 -3.0908  1.9420  1.4500
13982TIP3   OH263360   0.411   1.467   1.989  0.0388  0.2705 -0.0041
13982TIP3    H163361   0.486   1.468   1.930 -1.3517  2.7205 -1.9510
13982TIP3    H263362   0.446   1.496   2.073  1.3719  0.8859 -0.7386
13983TIP3   OH263363   0.329   3.964  11.341  0.8712  0.2780 -0.6538
13983TIP3    H163364   0.381   4.024  11.287  0.1623  0.7074 -0.8658
13983TIP3    H263365   0.250   3.948  11.290 -0.1448  1.2465  0.5408
13984TIP3   OH263366   6.365   5.054   3.172 -0.2210  0.3481 -0.0946
13984TIP3    H163367   6.439   5.004   3.138 -0.6128  1.4927 -2.9779
13984TIP3    H263368   6.291   4.994   3.167  0.3307 -0.6393  2.3318
13985TIP3   OH263369   4.550   2.668  16.268  0.4626 -0.1961  0.4440
13985TIP3    H163370   4.580   2.668  16.177 -0.6734 -1.9307  0.0314
13985TIP3    H263371   4.631   2.664  16.319  1.0749 -1.6429 -0.5664
13986TIP3   OH263372   2.214   6.037   5.173 -0.1867 -0.6233 -0.2140
13986TIP3    H163373   2.299   6.043   5.129 -2.0744 -0.7632 -4.3359
13986TIP3    H263374   2.211   5.948   5.208  1.5073 -0.4407  0.5138
13987TIP3   OH263375   5.229   4.143  16.751 -0.1174 -0.0139 -0.0154
13987TIP3    H163376   5.171   4.219  16.746 -0.4227 -0.3126 -1.1110
13987TIP3    H263377   5.214   4.109  16.840 -0.3240  0.9172  0.3259
13988TIP3   OH263378   2.438   1.672  11.151 -0.3459 -0.1672 -0.0861
13988TIP3    H163379   2.443   1.751  11.097 -0.1058  1.1442  1.7476
13988TIP3    H263380   2.368   1.620  11.111 -0.7883  1.1513 -1.1120
13989TIP3   OH263381   0.589   6.278   6.097  0.2921 -0.2025 -0.4217
13989TIP3    H163382   0.637   6.294   6.178  1.8452 -0.8786 -1.1526
13989TIP3    H263383   0.535   6.201   6.116 -2.2454  1.7955  1.0676
13990TIP3   OH263384   5.822   4.698  16.435 -0.3773  0.5183  0.0075
13990TIP3    H163385   5.857   4.645  16.363  0.8321  1.3591 -0.0411
13990TIP3    H263386   5.729   4.709  16.413 -1.2529 -3.2136  1.0257
13991TIP3   OH263387   5.747   0.341  13.797 -0.5332 -0.1069  0.0203
13991TIP3    H163388   5.756   0.430  13.832  1.6409 -0.8673  1.5946
13991TIP3    H263389   5.677   0.302  13.848  0.7741 -0.3234  1.7258
13992TIP3   OH263390   5.635   2.034  12.731  0.6668 -0.1465  0.0339
13992TIP3    H163391   5.639   2.084  12.649  0.3531  0.2660  0.2626
13992TIP3    H263392   5.571   1.964  12.714  0.9324 -0.3274 -0.2144
13993TIP3   OH263393   5.980   3.749  11.938  0.3777 -0.3793  0.1005
13993TIP3    H163394   5.976   3.654  11.928  1.6052 -0.6426  1.6422
13993TIP3    H263395   5.906   3.770  11.995 -0.3034 -0.3010 -0.7962
13994TIP3   OH263396   4.543   3.840   6.379  0.4312  0.7580 -0.7798
13994TIP3    H163397   4.610   3.886   6.430 -1.6982  0.0548  3.0051
13994TIP3    H263398   4.460   3.866   6.419 -1.2369 -2.0766 -2.0849
13995TIP3   OH263399   2.766   5.706  14.236  0.0559 -0.4613  0.1930
13995TIP3    H163400   2.767   5.611  14.248 -0.7533 -0.3839  0.9767
13995TIP3    H263401   2.857   5.729  14.220  0.0525 -1.5719 -1.7951
13996TIP3   OH263402   1.643   3.175  15.758  0.2314 -0.3797 -0.3947
13996TIP3    H163403   1.656   3.155  15.665 -2.0320  0.5399 -0.9715
13996TIP3    H263404   1.566   3.231  15.760  1.9214  2.0883  1.8149
13997TIP3   OH263405   4.325   6.325  12.286 -0.2094 -0.2358  0.3688
13997TIP3    H163406   4.360   6.283  12.364  2.6030  2.1969  0.5956
13997TIP3    H263407   4.264   6.391  12.319 -1.0675 -0.9557  0.2794
13998TIP3   OH263408   3.679   1.829  17.181  0.1344  0.2232  0.5953
13998TIP3    H163409   3.592   1.815  17.144  0.3749 -0.7288  0.3690
13998TIP3    H263410   3.719   1.742  17.181  1.0937  0.6568  0.6819
13999TIP3   OH263411   2.862   1.431  16.853 -0.0550  0.6134 -0.1852
13999TIP3    H163412   2.800   1.503  16.869 -0.8192  0.2067 -1.1895
13999TIP3    H263413   2.891   1.405  16.940 -1.5660  0.6138  0.3459
14000TIP3   OH263414   0.393   3.334   1.188  0.0877  0.1322 -0.2116
14000TIP3    H163415   0.416   3.381   1.108  0.7304  1.5591  0.7714
14000TIP3    H263416   0.461   3.267   1.197  1.1096  1.1724  0.0939
14001TIP3   OH263417   4.506   0.235  11.254 -0.4147  0.3320 -0.1963
14001TIP3    H163418   4.467   0.246  11.167 -0.8832  2.4872  0.2335
14001TIP3    H263419   4.599   0.255  11.242 -0.2881 -0.2950 -0.3425
14002TIP3   OH263420   3.032   6.571   0.255  0.1988 -0.2927 -0.1969
14002TIP3    H163421   3.003   6.662   0.248  0.2754 -0.3823 -2.5464
14002TIP3    H263422   2.978   6.524   0.191 -1.4163 -2.3935  2.4842
14003TIP3   OH263423   4.578   2.977  15.819  0.8228 -0.5769  0.3946
14003TIP3    H163424   4.504   3.012  15.770 -0.3162 -3.4849 -0.1955
14003TIP3    H263425   4.655   3.001  15.768  0.3164  2.1297  0.7770
14004TIP3   OH263426   0.407   2.462  10.992 -0.4059  0.2248  0.2154
14004TIP3    H163427   0.377   2.483  10.904 -0.1020 -0.3805 -0.0419
14004TIP3    H263428   0.424   2.368  10.989  0.9178  0.4327  0.5163
14005TIP3   OH263429   1.623   1.036  12.427 -0.5066 -0.1222 -0.1025
14005TIP3    H163430   1.597   1.106  12.487 -1.8734  0.7301 -1.5858
14005TIP3    H263431   1.541   1.010  12.384  0.2515 -1.4811 -0.7832
14006TIP3   OH263432   1.937   1.056   2.320 -0.4714 -0.1765 -0.4075
14006TIP3    H163433   1.904   0.975   2.357  1.2588 -1.1289 -0.8468
14006TIP3    H263434   1.876   1.077   2.249 -2.2756  0.2306  1.1860
14007TIP3   OH263435   5.987   2.456   4.738 -0.9652  0.1819 -0.0195
14007TIP3    H163436   5.917   2.506   4.696 -0.1061  0.5040 -1.1355
14007TIP3    H263437   6.027   2.518   4.800 -1.4404  0.1009  0.3731
14008TIP3   OH263438   3.255   2.635  12.526  0.6589 -0.0655  0.6740
14008TIP3    H163439   3.268   2.660  12.435 -0.2245 -1.0692  0.2633
14008TIP3    H263440   3.253   2.719  12.573  1.6659  0.4399 -0.1319
14009TIP3   OH263441   0.845   6.360  14.897 -0.0568 -0.0620 -0.1146
14009TIP3    H163442   0.800   6.443  14.911  2.0640  0.9353  1.2653
14009TIP3    H263443   0.896   6.373  14.817 -0.1516 -0.2550 -0.2094
14010TIP3   OH263444   4.223   1.805  16.666 -0.1215 -0.3138 -0.8876
14010TIP3    H163445   4.180   1.723  16.691  0.0222 -1.1047 -3.0486
14010TIP3    H263446   4.154   1.857  16.625  0.2098 -0.1157 -1.1933
14011TIP3   OH263447   0.682   3.408  15.327 -0.6196  0.1084  0.0756
14011TIP3    H163448   0.649   3.354  15.399  1.2305 -1.2412 -0.0268
14011TIP3    H263449   0.615   3.475  15.315 -1.8200 -0.6964  1.8605
14012TIP3   OH263450   5.990   4.978  12.806 -0.4293  0.0394  0.0285
14012TIP3    H163451   6.059   5.041  12.785 -1.0605  0.9510  0.5805
14012TIP3    H263452   5.909   5.030  12.801 -0.7360  0.1853  3.8107
14013TIP3   OH263453   3.262   4.855   2.302 -0.2612 -0.0105 -0.0435
14013TIP3    H163454   3.199   4.927   2.307 -1.4350 -1.0646  1.2339
14013TIP3    H263455   3.218   4.782   2.346  0.9667 -1.4611 -1.1365
14014TIP3   OH263456   2.728   5.455  14.260 -0.0762 -0.1601  0.4498
14014TIP3    H163457   2.722   5.360  14.270 -1.9997 -0.0192  0.9125
14014TIP3    H263458   2.708   5.470  14.167  1.8204 -0.2789 -0.0249
14015TIP3   OH263459   3.374   2.668   5.923 -0.2957  0.2099 -0.3022
14015TIP3    H163460   3.412   2.649   6.008  1.3302 -0.4372 -1.1293
14015TIP3    H263461   3.311   2.597   5.908 -0.7524  0.4516  0.4378
14016TIP3   OH263462   5.065   0.656   5.391 -0.0461 -0.1692 -0.8195
14016TIP3    H163463   5.146   0.675   5.343 -0.6855  2.4540 -0.9819
14016TIP3    H263464   5.015   0.600   5.333  1.0401 -0.6462 -1.3223
14017TIP3   OH263465   6.243   3.256  15.524 -0.2695  0.0791  0.9175
14017TIP3    H163466   6.261   3.165  15.547 -1.6343 -0.6130 -0.5715
14017TIP3    H263467   6.189   3.289  15.596 -0.1484 -0.4291  1.2447
14018TIP3   OH263468   2.616   3.071  10.924  0.3630  0.4683 -0.6069
14018TIP3    H163469   2.554   3.080  10.852  0.5145 -0.2019 -0.8314
14018TIP3    H263470   2.642   3.160  10.946 -1.8268  0.9111  0.5109
14019TIP3   OH263471   3.813   5.773  16.942  0.3571  0.4157  0.3991
14019TIP3    H163472   3.809   5.683  16.910 -0.2448  0.3997  0.4945
14019TIP3    H263473   3.821   5.827  16.863 -1.5456  0.4021  0.1441
14020TIP3   OH263474   4.640   6.562  13.658  0.2209 -0.3742  0.6691
14020TIP3    H163475   4.636   6.657  13.667 -0.3380 -0.4813  1.8463
14020TIP3    H263476   4.670   6.547  13.569  1.3763  0.9163  0.7985
14021TIP3   OH263477   1.592   3.926  12.018 -0.1896  0.4429 -0.3574
14021TIP3    H163478   1.596   3.888  12.106  1.1467  1.4347  0.0580
14021TIP3    H263479   1.618   3.855  11.960  1.2111  0.3695  0.3075
14022TIP3   OH263480   4.613   5.037  17.143  0.1483 -0.1778 -0.3271
14022TIP3    H163481   4.625   5.084  17.225  0.2897  1.4463 -1.2506
14022TIP3    H263482   4.697   4.995  17.126 -0.2319 -1.5350  0.9287
14023TIP3   OH263483   3.496   6.609  15.984  0.7058  0.4780 -0.4272
14023TIP3    H163484   3.525   6.690  16.025 -1.7059  0.9508  0.5334
14023TIP3    H263485   3.420   6.634  15.932  1.4418 -0.7848 -2.1998
14024TIP3   OH263486   2.603   0.138  14.196 -0.1583  0.2945 -0.0560
14024TIP3    H163487   2.651   0.204  14.146  1.6988  0.1065  1.3459
14024TIP3    H263488   2.574   0.074  14.131  1.6215  0.3889 -1.0069
14025TIP3   OH263489   4.622   1.341   4.397  0.3412 -0.2176  0.3702
14025TIP3    H163490   4.586   1.252   4.391 -1.7138  0.5412  0.8195
14025TIP3    H263491   4.712   1.332   4.365 -0.2264 -2.2085 -0.8778
14026TIP3   OH263492   6.219   4.945   3.561 -0.3730 -0.0769  0.3714
14026TIP3    H163493   6.233   4.913   3.650  1.1616 -1.5327 -0.3455
14026TIP3    H263494   6.208   4.866   3.508  0.5918  0.6800 -1.0094
14027TIP3   OH263495   1.300   3.143   3.093 -0.3411  0.2102 -0.6351
14027TIP3    H163496   1.333   3.100   3.014  1.9550 -0.1863  0.4545
14027TIP3    H263497   1.246   3.214   3.061 -0.4250 -0.6571 -2.5439
14028TIP3   OH263498   2.494   4.742   2.370  0.1009  0.7155 -0.5905
14028TIP3    H163499   2.457   4.793   2.297  0.0829 -0.3551 -1.3572
14028TIP3    H263500   2.420   4.690   2.402  0.2780  0.6701 -0.2534
14029TIP3   OH263501   3.020   1.309   4.436  0.1199  0.5534  0.2392
14029TIP3    H163502   3.084   1.321   4.507 -0.8807 -0.5793  1.3838
14029TIP3    H263503   2.935   1.306   4.481 -0.6470  0.9775 -1.1431
14030TIP3   OH263504   2.131   2.055   2.415  0.6898  0.2904 -0.0520
14030TIP3    H163505   2.098   2.131   2.461  0.2267 -0.8309  1.5608
14030TIP3    H263506   2.053   2.006   2.389  0.9787  0.3577 -1.0760
14031TIP3   OH263507   5.893   3.082  14.101  0.4428  0.5515  0.2981
14031TIP3    H163508   5.870   3.158  14.049  2.0150 -0.5125 -2.1251
14031TIP3    H263509   5.965   3.113  14.157  0.0050  1.2381  0.4896
14032TIP3   OH263510   6.242   2.353   2.836 -0.0809  0.1870  0.0967
14032TIP3    H163511   6.245   2.351   2.740 -1.5315 -1.2153  0.0499
14032TIP3    H263512   6.208   2.268   2.861 -0.2128  0.7224  1.8583
14033TIP3   OH263513   6.496   6.583   2.032  0.0074  0.1263  0.1195
14033TIP3    H163514   6.482   6.492   2.006 -0.6952  0.6295 -1.4037
14033TIP3    H263515   6.590   6.590   2.047  0.0333 -0.9062  0.5029
14034TIP3   OH263516   2.705   2.399   1.398 -0.1962 -0.4706 -0.2392
14034TIP3    H163517   2.709   2.317   1.447 -2.6439 -0.8240 -0.5059
14034TIP3    H263518   2.616   2.402   1.363  0.7840  0.7993 -2.9066
14035TIP3   OH263519   5.249   2.657   4.638  0.6858 -0.1269 -0.1999
14035TIP3    H163520   5.260   2.563   4.625  1.3765 -0.0377 -0.2817
14035TIP3    H263521   5.223   2.690   4.551 -0.0581 -0.3069 -0.0541
14036TIP3   OH263522   4.945   4.124  17.246 -0.1504 -0.6014 -0.1465
14036TIP3    H163523   4.858   4.088  17.231 -0.5503  0.1541  0.3146
14036TIP3    H263524   4.988   4.060  17.303 -0.7573 -0.5018  0.4391
14037TIP3   OH263525   6.275   2.636  16.519  0.2137 -0.0802  0.2025
14037TIP3    H163526   6.204   2.639  16.584 -0.0573  0.4649 -0.1154
14037TIP3    H263527   6.232   2.610  16.438  0.6736 -1.5353  0.3857
14038TIP3   OH263528   5.423   3.157   5.341 -0.2733 -0.8747 -0.0801
14038TIP3    H163529   5.435   3.236   5.393 -1.3949 -0.3242 -0.6114
14038TIP3    H263530   5.348   3.114   5.380  0.7643 -2.0782  0.6494
14039TIP3   OH263531   1.852   5.795   2.128  0.0109 -0.0434  0.2745
14039TIP3    H163532   1.765   5.757   2.123  0.4258 -0.8785 -3.2726
14039TIP3    H263533   1.912   5.721   2.120  0.9708  0.7253  0.0045
14040TIP3   OH263534   6.511   0.255  13.275  0.0204 -0.1897 -0.5680
14040TIP3    H163535   6.525   0.211  13.191 -0.7367 -1.5925  0.0100
14040TIP3    H263536   6.464   0.191  13.329  2.3636 -0.2041  1.6948
14041TIP3   OH263537   5.656   3.699   0.458  0.2402 -0.1831 -0.1844
14041TIP3    H163538   5.689   3.788   0.453 -0.8002  0.3140  1.2257
14041TIP3    H263539   5.727   3.649   0.499  0.5742  0.1339 -0.3790
14042TIP3   OH263540   1.125   2.685   3.646 -0.1606 -0.2176  0.4432
14042TIP3    H163541   1.106   2.754   3.583  0.6007  0.0915  0.5497
14042TIP3    H263542   1.151   2.732   3.726  0.1573 -0.6255  0.5826
14043TIP3   OH263543   1.059   5.972  10.791 -0.4588  0.6370 -0.0130
14043TIP3    H163544   1.022   6.057  10.818 -0.5840  0.6217 -0.1338
14043TIP3    H263545   1.043   5.914  10.865  1.2932  1.1874  0.8545
14044TIP3   OH263546   0.019   5.301   3.614 -0.2514 -0.5727 -0.0381
14044TIP3    H163547  -0.023   5.326   3.696  1.8706  0.8843  0.6820
14044TIP3    H263548  -0.048   5.317   3.547 -1.2763  0.4241  1.1858
14045TIP3   OH263549   5.302   5.252  13.799 -0.2047 -0.2158  0.1632
14045TIP3    H163550   5.395   5.240  13.778 -0.4560  0.6704 -1.6653
14045TIP3    H263551   5.263   5.165  13.787  0.1537 -0.2924 -0.5110
14046TIP3   OH263552   3.958   3.752  16.614  0.1995  0.2090 -0.9353
14046TIP3    H163553   3.985   3.661  16.612  0.1785  0.0202  2.1674
14046TIP3    H263554   4.039   3.801  16.600  0.2544 -0.2519 -2.3543
14047TIP3   OH263555   0.377   3.295  15.360  0.4380 -0.7536 -0.2941
14047TIP3    H163556   0.342   3.360  15.299  0.9363 -1.7966 -1.7685
14047TIP3    H263557   0.302   3.240  15.383  0.4598 -1.0317 -0.8720
14048TIP3   OH263558   1.600   3.390  14.220  0.0669  0.4556  0.0034
14048TIP3    H163559   1.594   3.399  14.125  0.0971  0.1225 -0.0311
14048TIP3    H263560   1.660   3.459  14.247  0.8642 -0.0876 -0.3361
14049TIP3   OH263561   6.599   3.295  11.655 -0.4551 -0.5280 -0.1206
14049TIP3    H163562   6.638   3.377  11.687 -0.5965 -0.7028  0.5038
14049TIP3    H263563   6.608   3.301  11.560  0.4652 -0.2512 -0.0303
14050TIP3   OH263564   0.447   5.881   3.482  0.0382  0.6409  0.6778
14050TIP3    H163565   0.372   5.932   3.512 -0.6078  0.0208  0.1484
14050TIP3    H263566   0.520   5.911   3.537 -0.7096  0.8455  1.5830
14051TIP3   OH263567   3.296   0.792  12.403  0.0957  0.5850  0.3105
14051TIP3    H163568   3.392   0.800  12.400  0.1650 -0.2888 -0.1911
14051TIP3    H263569   3.282   0.712  12.453 -0.3785  0.7247  0.3982
14052TIP3   OH263570   5.714   5.167   4.388  0.3743  0.3269  0.1801
14052TIP3    H163571   5.696   5.221   4.311 -1.6730  1.8702  1.6364
14052TIP3    H263572   5.666   5.085   4.372 -0.3939  0.8081 -0.0228
14053TIP3   OH263573   3.738   1.995  12.022 -0.1828 -0.0079 -0.0704
14053TIP3    H163574   3.800   1.941  12.072  0.5792  0.8888 -0.0394
14053TIP3    H263575   3.731   1.951  11.937 -0.5356 -0.8483  0.3757
14054TIP3   OH263576   4.833   0.119  12.795  0.3795 -0.0188  0.2779
14054TIP3    H163577   4.838   0.039  12.847 -0.3009 -0.7563 -0.7570
14054TIP3    H263578   4.746   0.118  12.756  0.7282  0.6974 -0.5714
14055TIP3   OH263579   0.350   3.914   3.104 -0.0248 -0.3549 -0.2489
14055TIP3    H163580   0.274   3.973   3.105  0.0549 -0.2394 -0.9018
14055TIP3    H263581   0.389   3.926   3.018  1.9164  1.0660  0.7438
14056TIP3   OH263582   4.490   5.980   5.747  0.6863  0.1491 -0.1442
14056TIP3    H163583   4.410   5.929   5.730  0.4905  0.6505 -0.7788
14056TIP3    H263584   4.474   6.064   5.703  0.3019  1.4351  2.2710
14057TIP3   OH263585   4.156   3.916  16.506 -0.5938  0.1290  0.5425
14057TIP3    H163586   4.150   3.991  16.565 -2.4297 -0.9142  1.7803
14057TIP3    H263587   4.131   3.952  16.420 -1.9042  0.8760  1.2000
14058TIP3   OH263588   3.047   0.148  12.791  0.4069  0.2413  0.1325
14058TIP3    H163589   3.109   0.091  12.745  0.6995  1.6158 -1.2706
14058TIP3    H263590   3.102   0.213  12.834  0.0083  0.5393  0.1972
14059TIP3   OH263591   3.574   5.626   0.919  0.7724  0.2141  0.6707
14059TIP3    H163592   3.644   5.655   0.861  0.3020  1.4262  0.6746
14059TIP3    H263593   3.497   5.619   0.863  1.0054 -1.7580  0.5316
14060TIP3   OH263594   3.283   3.333   4.888  0.0699 -0.7759  0.1168
14060TIP3    H163595   3.307   3.286   4.968  0.7775 -2.4609 -1.0511
14060TIP3    H263596   3.347   3.405   4.883 -1.3059  0.7290  2.1513
14061TIP3   OH263597   5.275   1.854   2.534 -0.0613 -0.1483  0.0525
14061TIP3    H163598   5.314   1.919   2.592 -0.6085  0.2365  0.0018
14061TIP3    H263599   5.323   1.863   2.452  1.4334 -1.4231  0.7333
14062TIP3   OH263600   2.428   3.517  14.642 -0.1265 -0.3111  0.1901
14062TIP3    H163601   2.450   3.485  14.730 -1.2528 -0.6683  0.3634
14062TIP3    H263602   2.480   3.462  14.583  0.0439 -0.6037  0.6024
14063TIP3   OH263603   2.679   3.940  16.811  0.7145  0.4817 -0.3001
14063TIP3    H163604   2.588   3.916  16.793  0.4838 -1.3825  2.6860
14063TIP3    H263605   2.680   4.036  16.809 -1.8166  0.6340  1.3884
14064TIP3   OH263606   6.649   4.015  12.723  0.2633 -1.0374 -0.0308
14064TIP3    H163607   6.678   4.027  12.814 -0.0619  1.4805 -0.1913
14064TIP3    H263608   6.613   4.100  12.698  2.3179 -0.9716 -3.2339
14065TIP3   OH263609   3.213   3.491   2.447  0.0454  0.0196  0.2083
14065TIP3    H163610   3.180   3.464   2.361 -0.1506 -1.0421  0.5952
14065TIP3    H263611   3.286   3.431   2.464  0.0067  0.1406  0.8294
14066TIP3   OH263612   5.477   3.499  13.464 -0.0436  0.3249  0.2163
14066TIP3    H163613   5.420   3.422  13.457 -0.2987  0.6748 -3.3757
14066TIP3    H263614   5.416   3.573  13.472 -0.0004  0.4472 -0.5007
14067TIP3   OH263615   2.812   6.302  11.546  0.4746  0.0519 -0.1028
14067TIP3    H163616   2.867   6.263  11.614 -0.1606 -2.0734 -0.7083
14067TIP3    H263617   2.747   6.354  11.594 -0.0152 -1.4712  0.9750
14068TIP3   OH263618   1.374   6.354  11.251  0.2231  0.2596 -0.4932
14068TIP3    H163619   1.293   6.385  11.211  0.6867  1.3038 -0.6484
14068TIP3    H263620   1.432   6.430  11.250  0.3805  0.2618  1.8321
14069TIP3   OH263621   2.958   2.322  10.835  0.2393 -0.3049 -0.1148
14069TIP3    H163622   2.967   2.232  10.802 -0.3848 -1.0628  1.6472
14069TIP3    H263623   2.986   2.377  10.762 -0.8447 -1.8729 -1.8102
14070TIP3   OH263624   2.459   4.311   2.404 -0.0398  0.6092  0.4446
14070TIP3    H163625   2.394   4.347   2.343 -1.8838  2.5040  3.2777
14070TIP3    H263626   2.524   4.380   2.414 -0.6107  0.9928  1.7422
14071TIP3   OH263627   4.000   1.217  10.647  0.1560  0.2473 -0.0133
14071TIP3    H163628   4.079   1.202  10.699 -0.3937  0.1206  0.8028
14071TIP3    H263629   3.996   1.142  10.588  0.2291 -0.1438  0.4726
14072TIP3   OH263630   0.405   2.718   4.592  0.2153 -0.2757  0.2277
14072TIP3    H163631   0.388   2.740   4.500 -1.3207  1.5275  0.8924
14072TIP3    H263632   0.497   2.743   4.605 -0.2189  1.8067 -0.2344
14073TIP3   OH263633   2.741   4.388  16.322  0.0422  0.1454  0.3079
14073TIP3    H163634   2.812   4.397  16.259  0.1631  2.7204  0.7007
14073TIP3    H263635   2.757   4.458  16.386 -2.7689  0.7483  0.4680
14074TIP3   OH263636   0.865   0.724  16.346  0.3015  0.0017  0.1111
14074TIP3    H163637   0.776   0.758  16.358  0.9525  1.5510  0.7147
14074TIP3    H263638   0.921   0.802  16.342  1.8737 -0.9805  1.5825
14075TIP3   OH263639   3.500   1.544   1.622  0.3809  0.1237 -0.6721
14075TIP3    H163640   3.423   1.589   1.587  1.1907  1.9938 -0.1574
14075TIP3    H263641   3.469   1.506   1.705 -0.3819 -0.5409 -1.2421
14076TIP3   OH263642   5.327   2.471   6.581 -0.3312 -0.1340 -0.1582
14076TIP3    H163643   5.240   2.486   6.617  0.3731 -0.4226  1.7851
14076TIP3    H263644   5.347   2.380   6.603  0.6918  0.1159 -0.0071
14077TIP3   OH263645   1.312   3.523   5.100 -0.1927  0.1870  0.0302
14077TIP3    H163646   1.368   3.579   5.154 -1.9150 -0.0533  2.2056
14077TIP3    H263647   1.354   3.437   5.103  0.1058  0.3407  0.3970
14078TIP3   OH263648   0.164   6.084  17.023  0.0920  0.3113  0.4128
14078TIP3    H163649   0.234   6.136  16.984  0.5362  0.4784  1.3922
14078TIP3    H263650   0.085   6.111  16.977  0.7582 -0.4418 -1.2493
14079TIP3   OH263651   1.694   3.471  16.392 -0.1039  0.0297  0.3303
14079TIP3    H163652   1.694   3.401  16.327 -1.3114 -0.2747  0.6293
14079TIP3    H263653   1.766   3.528  16.366 -0.9711  0.2905 -1.6612
14080TIP3   OH263654   2.169   0.966   1.796 -0.1132 -0.1967 -0.5001
14080TIP3    H163655   2.263   0.949   1.789  0.4275  1.8681  0.7186
14080TIP3    H263656   2.137   0.900   1.858  0.8240 -0.0944  0.1127
14081TIP3   OH263657   0.782   6.031  11.323  0.7701  0.2002 -0.0216
14081TIP3    H163658   0.858   6.077  11.289  0.3248  0.0564 -1.2893
14081TIP3    H263659   0.763   6.072  11.407  2.4179  0.0316  0.4654
14082TIP3   OH263660   0.969   3.792   0.708 -0.2463  0.0657  0.2725
14082TIP3    H163661   0.967   3.782   0.613 -1.1618  0.1615  0.2736
14082TIP3    H263662   1.028   3.865   0.723  1.8416 -1.4616 -0.0701
14083TIP3   OH263663   4.638   3.869  10.400  0.4727 -0.3881 -0.0240
14083TIP3    H163664   4.569   3.816  10.359  1.5871 -1.0666 -1.0941
14083TIP3    H263665   4.600   3.897  10.483 -1.0801 -0.7633 -0.5673
14084TIP3   OH263666   1.488   6.690   2.031 -0.5890 -0.4879 -0.0116
14084TIP3    H163667   1.575   6.721   2.004 -0.6871  0.5496  0.7944
14084TIP3    H263668   1.483   6.601   1.997  0.0922  0.0406 -1.6024
14085TIP3   OH263669   4.530   4.978  16.104 -0.4372  0.2725  0.5271
14085TIP3    H163670   4.513   5.067  16.133 -0.8902  0.5024 -0.4158
14085TIP3    H263671   4.601   4.947  16.161 -0.3241  1.2032  0.9037
14086TIP3   OH263672   4.445   3.482  13.685 -0.0104  0.6206  0.1653
14086TIP3    H163673   4.380   3.412  13.678 -1.3069  1.7803  0.0011
14086TIP3    H263674   4.461   3.492  13.779  1.0470 -0.6217  0.1405
14087TIP3   OH263675   1.079   2.151   3.529 -0.6242 -0.4344  0.3793
14087TIP3    H163676   1.114   2.112   3.609 -2.4673 -2.7482  0.1574
14087TIP3    H263677   1.106   2.243   3.534  0.8153 -0.8930  2.7648
14088TIP3   OH263678   6.722   2.549  14.204 -0.4745  0.2048 -0.0807
14088TIP3    H163679   6.733   2.619  14.269 -0.2858 -1.7599  2.1306
14088TIP3    H263680   6.643   2.573  14.157 -0.8755  1.5052  1.1635
14089TIP3   OH263681   3.638   3.410   1.654  0.4073  0.3192  0.1314
14089TIP3    H163682   3.614   3.319   1.636  0.0555  0.4949 -0.2875
14089TIP3    H263683   3.727   3.418   1.620  0.5819  0.0242  0.5177
14090TIP3   OH263684   4.139   1.848  14.813  0.6020  0.2132  0.4440
14090TIP3    H163685   4.056   1.840  14.767  1.1607  0.1095 -0.5760
14090TIP3    H263686   4.184   1.920  14.768  2.2784 -1.6110 -0.9712
14091TIP3   OH263687   2.669   4.393   0.845  0.0240 -0.1225  0.8262
14091TIP3    H163688   2.620   4.375   0.764  0.1683 -0.0953  0.7321
14091TIP3    H263689   2.675   4.308   0.889  0.2858 -0.2139  0.6171
14092TIP3   OH263690   0.821   4.919  13.631  0.2415 -0.5800 -0.1976
14092TIP3    H163691   0.848   5.009  13.614 -1.2162 -0.2014 -0.6170
14092TIP3    H263692   0.730   4.925  13.659 -0.0417 -1.9590 -0.7151
14093TIP3   OH263693   2.180   5.863   4.450  0.0200  0.3054  0.4929
14093TIP3    H163694   2.271   5.886   4.469 -0.0185 -1.3370  3.1453
14093TIP3    H263695   2.141   5.848   4.536 -1.9190 -2.0343 -0.6707
14094TIP3   OH263696   6.107   0.945  12.736 -0.4687 -0.2225  0.0085
14094TIP3    H163697   6.083   1.006  12.806  0.3644  2.4346 -1.8660
14094TIP3    H263698   6.054   0.972  12.661  1.6513 -0.1699 -1.5686
14095TIP3   OH263699   2.892   2.258   3.742 -0.4623  0.1323 -0.1271
14095TIP3    H163700   2.813   2.308   3.722  0.0386  2.0513  2.2008
14095TIP3    H263701   2.915   2.215   3.660 -2.6366  1.3334 -1.4586
14096TIP3   OH263702   0.203   3.001  12.642 -0.6267 -0.1548  0.4093
14096TIP3    H163703   0.273   2.987  12.578 -1.2649 -1.7568  0.0235
14096TIP3    H263704   0.226   3.084  12.684  0.9510 -0.1333 -0.4103
14097TIP3   OH263705   4.344   6.292   1.325 -0.1767  0.3119 -0.3716
14097TIP3    H163706   4.425   6.317   1.369 -1.0325 -0.4648  1.7531
14097TIP3    H263707   4.337   6.353   1.251  2.6014  0.0296 -0.9693
14098TIP3   OH263708   4.871   2.932   5.928  0.0899 -0.2643 -0.2739
14098TIP3    H163709   4.859   2.901   5.838  0.7548 -2.5396  0.3474
14098TIP3    H263710   4.866   3.027   5.922  1.3026 -0.2929 -2.9093
14099TIP3   OH263711   3.940   4.077   5.313  0.2193 -0.5771  0.0724
14099TIP3    H163712   3.906   4.047   5.397 -0.0462 -0.2884  0.0706
14099TIP3    H263713   4.024   4.118   5.336 -0.2835  0.3535  0.3446
14100TIP3   OH263714   2.405   5.347   0.881 -0.1559  0.4263  0.0064
14100TIP3    H163715   2.343   5.287   0.839 -1.3352  1.9351 -0.4639
14100TIP3    H263716   2.361   5.432   0.881  0.0755  0.6746  3.7123
14101TIP3   OH263717   1.270   0.244   0.706 -0.1005  0.7093 -0.0300
14101TIP3    H163718   1.347   0.187   0.711 -1.1684 -1.3336 -3.6870
14101TIP3    H263719   1.294   0.312   0.643 -1.0963  0.2821 -0.9064
14102TIP3   OH263720   4.386   4.194   3.543  0.1433 -0.5024  0.3022
14102TIP3    H163721   4.291   4.206   3.539  0.4213  1.8319 -1.5223
14102TIP3    H263722   4.411   4.227   3.629 -0.3491  2.7763 -0.6957
14103TIP3   OH263723   0.597   4.100  16.452  0.5608 -0.4238  0.0065
14103TIP3    H163724   0.599   4.090  16.357 -1.1467 -0.1385 -0.0879
14103TIP3    H263725   0.640   4.184  16.469 -0.5319  0.2814 -0.6571
14104TIP3   OH263726   6.420   4.459   0.874  0.5036  0.3134 -0.1935
14104TIP3    H163727   6.361   4.420   0.810 -1.5175  1.8983  0.5864
14104TIP3    H263728   6.444   4.543   0.836  1.9852 -0.1360 -0.3064
14105TIP3   OH263729   5.755   6.061   5.622 -0.7896  0.0451 -0.3330
14105TIP3    H163730   5.780   6.010   5.545 -0.6606  1.9145 -1.5872
14105TIP3    H263731   5.830   6.119   5.637  0.1891 -1.7523  2.6263
14106TIP3   OH263732   3.032   3.968   1.943  0.3985  0.0389  0.1094
14106TIP3    H163733   3.070   4.031   2.004 -1.0592 -0.0440  1.1436
14106TIP3    H263734   3.005   4.021   1.868 -1.0182  0.7221  1.0637
14107TIP3   OH263735   1.968   3.452   2.673  0.1126  0.0130  0.4597
14107TIP3    H163736   1.916   3.471   2.595  0.9395  0.6287  0.0298
14107TIP3    H263737   2.018   3.533   2.688  0.1873 -0.2036  1.4508
14108TIP3   OH263738   3.619   4.385  11.441 -0.8004  0.0739 -0.1131
14108TIP3    H163739   3.706   4.372  11.403 -0.5084 -1.2718  0.9398
14108TIP3    H263740   3.620   4.475  11.474  0.0116  0.2358 -0.5683
14109TIP3   OH263741   3.685   1.737  15.534 -0.3262  0.0639 -0.5436
14109TIP3    H163742   3.771   1.780  15.541 -0.8294  0.8891  1.1522
14109TIP3    H263743   3.672   1.698  15.620 -1.9481  0.5426 -0.5485
14110TIP3   OH263744   5.479   4.396  16.933  0.1758 -0.0757 -0.0197
14110TIP3    H163745   5.527   4.316  16.954 -1.7189 -1.3936 -0.5120
14110TIP3    H263746   5.415   4.405  17.004  0.0749  0.7624 -0.2029
14111TIP3   OH263747   0.659   5.633  12.810  0.6155  0.2994 -0.2403
14111TIP3    H163748   0.718   5.618  12.736 -0.1906 -0.2219 -0.7930
14111TIP3    H263749   0.712   5.681  12.873  1.7464 -0.4744 -0.5718
14112TIP3   OH263750   3.725   3.647  15.197  0.0550  0.4272  0.0243
14112TIP3    H163751   3.755   3.687  15.279  0.9717  1.9379 -0.9928
14112TIP3    H263752   3.779   3.688  15.130 -2.7434  1.6045 -1.6983
14113TIP3   OH263753   1.981   5.902  13.376 -0.2172 -0.2284 -0.5780
14113TIP3    H163754   1.960   5.862  13.460 -1.0321  0.2092 -0.5636
14113TIP3    H263755   1.910   5.964  13.360  1.1061  1.3523 -0.5181
14114TIP3   OH263756   2.107   1.996  11.074 -0.3699  0.1723  0.0429
14114TIP3    H163757   2.187   1.979  11.026  0.0099 -0.4363  0.8601
14114TIP3    H263758   2.037   1.978  11.011  0.1205  0.0559 -0.4745
14115TIP3   OH263759   0.543   0.961  16.186 -0.1034 -0.7951 -0.2808
14115TIP3    H163760   0.556   1.028  16.119 -2.0985  0.6255  0.6877
14115TIP3    H263761   0.613   0.976  16.250 -0.2130  0.0076 -0.3455
14116TIP3   OH263762   4.831   2.310  10.739 -0.0302  0.2304 -0.3307
14116TIP3    H163763   4.897   2.252  10.778  0.5575  0.0428 -1.5480
14116TIP3    H263764   4.849   2.396  10.775 -1.0488 -0.3394  1.6748
14117TIP3   OH263765   0.235   3.475  12.316 -0.0438  0.1332 -0.5098
14117TIP3    H163766   0.232   3.452  12.223 -0.3378  1.6511 -0.9168
14117TIP3    H263767   0.325   3.504  12.331 -0.0751  0.1840 -0.4145
14118TIP3   OH263768   1.055   3.572  15.445 -0.2767 -0.0324 -0.1963
14118TIP3    H163769   1.131   3.602  15.396  0.7125 -0.6232  0.9315
14118TIP3    H263770   1.049   3.631  15.520 -1.3695  0.4438 -0.6327
14119TIP3   OH263771   1.140   1.806  14.826  0.7544  0.2617 -0.0349
14119TIP3    H163772   1.206   1.875  14.833 -0.6637  1.8654 -1.4993
14119TIP3    H263773   1.085   1.818  14.904  0.7292  0.5672 -0.0972
14120TIP3   OH263774   1.511   4.485  16.982 -0.1783  0.0741 -0.6935
14120TIP3    H163775   1.505   4.524  16.894 -0.4098 -0.2039 -0.8047
14120TIP3    H263776   1.470   4.549  17.039 -1.3791 -0.3911 -0.9988
14121TIP3   OH263777   0.155   5.561  16.195 -0.2061 -0.0373  0.3646
14121TIP3    H163778   0.066   5.535  16.218 -1.0810  1.5869 -0.9980
14121TIP3    H263779   0.145   5.624  16.124  1.9565  1.2756  1.1076
14122TIP3   OH263780   2.720   4.129   6.844 -0.2648  0.4431 -0.1338
14122TIP3    H163781   2.720   4.221   6.818  0.4526  0.3127 -0.6010
14122TIP3    H263782   2.811   4.109   6.863 -0.6634  0.4134  2.1105
14123TIP3   OH263783   1.378   3.666   4.410 -0.2027 -0.0870  0.3686
14123TIP3    H163784   1.340   3.591   4.364  1.5111 -0.7773 -0.0119
14123TIP3    H263785   1.393   3.634   4.499 -2.0332  0.7359  1.0136
14124TIP3   OH263786   6.153   4.395  15.761  0.1812  0.5761  0.0545
14124TIP3    H163787   6.194   4.356  15.838  0.4340  0.8560  0.0613
14124TIP3    H263788   6.093   4.460  15.796  0.5648  0.9605  0.0036
14125TIP3   OH263789   4.001   4.891  16.228  1.2233  0.1285 -0.1768
14125TIP3    H163790   3.916   4.854  16.207  0.5048  0.9830  1.0681
14125TIP3    H263791   3.989   4.931  16.314  2.9003  0.2201  0.0536
14126TIP3   OH263792   3.262   3.721  13.002  0.8518  0.9095 -0.0310
14126TIP3    H163793   3.199   3.790  13.022  1.5763  1.5067  0.2779
14126TIP3    H263794   3.322   3.761  12.938  0.7196  0.2415 -0.5833
14127TIP3   OH263795   2.648   1.811  15.803  0.2355  0.2360  0.0683
14127TIP3    H163796   2.671   1.779  15.715  2.1578  2.9911 -0.5664
14127TIP3    H263797   2.557   1.786  15.814 -0.1836  0.0374 -2.8885
14128TIP3   OH263798   3.581   5.505  13.043  0.1107 -0.0673  0.2436
14128TIP3    H163799   3.531   5.444  12.988 -0.9634  0.2522  0.8521
14128TIP3    H263800   3.614   5.451  13.115 -2.1636  0.3025  1.6542
14129TIP3   OH263801   0.193   1.282  12.961 -0.4941  0.2712 -0.3821
14129TIP3    H163802   0.167   1.322  13.044 -0.4912 -0.5578  0.0368
14129TIP3    H263803   0.289   1.280  12.964 -0.5170 -1.2478  0.3584
14130TIP3   OH263804   5.251   3.368   2.140 -0.5763 -0.1266 -0.2446
14130TIP3    H163805   5.280   3.429   2.207 -0.4179 -1.2716  0.7536
14130TIP3    H263806   5.227   3.288   2.188  1.5148 -1.7313 -1.6916
14131TIP3   OH263807   1.279   3.041  13.310  0.3069 -0.0022  0.1935
14131TIP3    H163808   1.348   3.048  13.376  1.5978 -2.3156 -0.7674
14131TIP3    H263809   1.214   2.984  13.350  0.6112 -0.5848 -0.1228
14132TIP3   OH263810   1.291   0.557  12.754 -0.2218  0.6783 -0.2036
14132TIP3    H163811   1.317   0.607  12.831  0.0416  1.0867 -0.5512
14132TIP3    H263812   1.332   0.472  12.765 -0.9115  0.4291  0.5378
14133TIP3   OH263813   4.894   5.689   0.289 -0.0274 -0.0301 -0.5051
14133TIP3    H163814   4.962   5.701   0.223  0.8018  1.4395  0.5690
14133TIP3    H263815   4.824   5.749   0.262  0.6817  1.2483  0.3759
14134TIP3   OH263816   3.650   3.148  16.705 -0.2364  0.4995  0.1852
14134TIP3    H163817   3.650   3.121  16.613  1.8505  0.5616  0.1241
14134TIP3    H263818   3.679   3.239  16.703 -1.7756  1.0291  0.8111
14135TIP3   OH263819   1.023   6.773   2.549  0.1167 -0.1849  0.1960
14135TIP3    H163820   1.085   6.815   2.609  0.6521 -1.7227  0.7555
14135TIP3    H263821   0.976   6.846   2.508  0.8240  0.9393  1.3314
14136TIP3   OH263822   5.112   5.294   6.706  0.6382 -0.0262  0.1184
14136TIP3    H163823   5.133   5.254   6.790 -1.0875  0.2739  0.7395
14136TIP3    H263824   5.130   5.387   6.718 -2.5073  0.5744  1.3135
14137TIP3   OH263825   0.967   6.376  16.516  0.0165  0.3666 -0.0525
14137TIP3    H163826   0.881   6.400  16.482 -0.1580  0.1478  0.2313
14137TIP3    H263827   0.999   6.310  16.455  0.0819  0.6111 -0.2856
14138TIP3   OH263828   4.756   0.167  14.130  0.1618 -0.0415  0.1594
14138TIP3    H163829   4.721   0.178  14.219  0.6563  0.7794  0.2631
14138TIP3    H263830   4.838   0.120  14.142  0.3325  0.2517  0.1677
14139TIP3   OH263831   1.100   1.836  13.416 -0.2509 -0.2937 -0.4268
14139TIP3    H163832   1.042   1.832  13.340 -1.1067 -0.4281  0.2156
14139TIP3    H263833   1.135   1.747  13.423 -0.0397 -0.2383 -0.7606
14140TIP3   OH263834   3.881   2.778   5.863  0.3165 -0.3138 -0.0392
14140TIP3    H163835   3.817   2.840   5.827  0.4701  0.0562  0.3197
14140TIP3    H263836   3.965   2.810   5.832  0.3809 -0.4495 -0.0038
14141TIP3   OH263837   5.457   0.289  15.486  0.0414  0.3765 -0.0130
14141TIP3    H163838   5.384   0.268  15.543 -1.1227  0.4036 -1.4290
14141TIP3    H263839   5.440   0.238  15.406  0.8602  1.3900 -0.8641
14142TIP3   OH263840   2.839   4.249  13.191 -0.2172 -0.3535  0.0933
14142TIP3    H163841   2.845   4.206  13.105 -3.5176 -1.5539  0.3306
14142TIP3    H263842   2.834   4.177  13.254 -1.2634  0.4446  0.9550
14143TIP3   OH263843   0.486   2.869   4.206  0.0877  0.1198  0.2398
14143TIP3    H163844   0.430   2.883   4.283 -2.7643 -2.1899 -1.2009
14143TIP3    H263845   0.453   2.931   4.141  0.3604 -0.1086 -0.1159
14144TIP3   OH263846   1.747   2.188  12.456 -0.2006  0.2509  0.6166
14144TIP3    H163847   1.690   2.225  12.389 -0.7952 -0.3344  0.7929
14144TIP3    H263848   1.701   2.111  12.487  1.2018 -0.8862 -0.0322
14145TIP3   OH263849   3.950   0.310  15.172  0.3602  0.1336 -0.0530
14145TIP3    H163850   3.943   0.229  15.122  0.4879 -0.6401  1.1323
14145TIP3    H263851   4.044   0.325  15.181  0.3448  0.1169  0.1588
14146TIP3   OH263852   5.427   2.863  15.810 -0.4468 -0.0506 -0.5105
14146TIP3    H163853   5.371   2.895  15.738  1.6950  1.7074 -1.5298
14146TIP3    H263854   5.484   2.799  15.768 -1.6193 -1.8664  0.5331
14147TIP3   OH263855   5.712   0.557   6.035 -0.2909  0.7850  0.1122
14147TIP3    H163856   5.752   0.476   6.004  3.3454  2.1589  0.6801
14147TIP3    H263857   5.644   0.577   5.971  1.3394 -0.7206 -2.2467
14148TIP3   OH263858   2.219   2.552   3.257 -0.0601 -0.2821 -0.7544
14148TIP3    H163859   2.275   2.629   3.252 -1.4501  1.1103  2.5160
14148TIP3    H263860   2.130   2.585   3.249 -0.7154 -1.4162  1.1832
14149TIP3   OH263861   3.914   5.311  16.530 -0.3810  0.5399  0.2014
14149TIP3    H163862   3.852   5.335  16.461  1.6932  1.7105 -1.3395
14149TIP3    H263863   3.970   5.244  16.491 -1.6247 -1.8612  2.1602
14150TIP3   OH263864   0.197   1.843  13.809 -0.4381  0.4349 -0.5414
14150TIP3    H163865   0.232   1.756  13.827  0.7617  0.5876 -1.9410
14150TIP3    H263866   0.103   1.831  13.805 -0.2748 -0.8445 -0.8860
14151TIP3   OH263867   5.672   5.617   4.881 -0.2409 -0.3462  0.1414
14151TIP3    H163868   5.762   5.624   4.848 -0.7140  1.4327 -0.8825
14151TIP3    H263869   5.682   5.607   4.976  1.0428  0.0649  0.0641
14152TIP3   OH263870   1.267   3.473   3.468  0.4135  0.3058 -0.7271
14152TIP3    H163871   1.256   3.527   3.390 -0.8373  0.4929 -0.4535
14152TIP3    H263872   1.317   3.397   3.439  0.2187  0.5183 -1.6462
14153TIP3   OH263873   0.989   2.264  14.163 -0.3388 -0.3723 -0.1160
14153TIP3    H163874   1.030   2.311  14.236 -1.5151  1.5750 -0.6484
14153TIP3    H263875   0.910   2.226  14.200 -0.0504 -0.8457  0.0165
14154TIP3   OH263876   0.128   2.275   2.677 -0.1776 -0.3191 -0.4925
14154TIP3    H163877   0.071   2.336   2.723 -1.5839 -0.7599 -1.5932
14154TIP3    H263878   0.080   2.250   2.598  1.1227 -1.4596 -0.9836
14155TIP3   OH263879   3.082   1.238   0.234  0.1344 -0.5985 -0.3279
14155TIP3    H163880   3.139   1.315   0.230  0.8922 -1.0363  1.1271
14155TIP3    H263881   3.142   1.165   0.244 -0.6502 -1.1361  0.6027
14156TIP3   OH263882   3.566   2.653   2.656  0.4338  0.1378 -0.0822
14156TIP3    H163883   3.504   2.598   2.608 -0.7525  0.4423  1.0279
14156TIP3    H263884   3.637   2.594   2.681 -0.4268 -0.7295  0.3997
14157TIP3   OH263885   2.200   6.294  10.795 -0.2829 -0.0516  0.3927
14157TIP3    H163886   2.259   6.246  10.854 -0.1253 -0.4824 -0.1098
14157TIP3    H263887   2.138   6.229  10.765  0.5259 -0.1823 -1.0670
14158TIP3   OH263888   5.753   2.230   2.013  0.1815 -0.0062  0.9592
14158TIP3    H163889   5.700   2.283   1.953  0.5982 -0.3916  0.2331
14158TIP3    H263890   5.835   2.217   1.966  0.5998 -0.1464  1.7095
14159TIP3   OH263891   4.127   4.207   4.529  0.1707 -0.1526  0.0455
14159TIP3    H163892   4.046   4.257   4.516  1.3060  1.6993 -0.1955
14159TIP3    H263893   4.177   4.258   4.593  1.7856 -0.4662 -0.9122
14160TIP3   OH263894   4.083   4.086   2.301  0.6575  0.1463  0.3225
14160TIP3    H163895   4.008   4.125   2.255  0.4707 -0.2402  0.2977
14160TIP3    H263896   4.145   4.067   2.231 -0.4364 -2.3303 -0.0882
14161TIP3   OH263897   2.844   6.614   6.558 -0.5665  0.2530  0.9268
14161TIP3    H163898   2.894   6.652   6.631 -1.0837 -0.3940  1.6303
14161TIP3    H263899   2.822   6.525   6.588  0.4328 -0.5478 -0.5853
14162TIP3   OH263900   2.491   4.805   2.931  0.9789  0.3619  0.3459
14162TIP3    H163901   2.570   4.751   2.932  2.1160  1.8971  2.5174
14162TIP3    H263902   2.488   4.844   3.018 -1.1652  1.8265 -0.3046
14163TIP3   OH263903   2.959   5.707   0.022 -0.3709 -0.2779  0.8090
14163TIP3    H163904   2.989   5.749  -0.059 -2.0141 -0.2068  0.2028
14163TIP3    H263905   3.037   5.707   0.078  0.3097  1.4303 -0.0335
14164TIP3   OH263906   1.367   1.056   1.059 -0.3243  0.4737 -0.3372
14164TIP3    H163907   1.397   1.061   1.150  1.3204 -0.1998 -0.8162
14164TIP3    H263908   1.298   0.990   1.060 -1.8688  1.9864  0.7657
14165TIP3   OH263909   1.753   2.768   0.183  0.2239  0.3870 -0.1767
14165TIP3    H163910   1.802   2.834   0.232  2.8220 -0.3915 -1.5075
14165TIP3    H263911   1.776   2.685   0.224 -2.3405  0.1613  0.9475
14166TIP3   OH263912   4.651   4.617   1.565  0.0768 -0.1195  0.5354
14166TIP3    H163913   4.707   4.663   1.627  0.9539 -0.7313  0.2177
14166TIP3    H263914   4.621   4.685   1.505 -0.5883  0.4378  1.4692
14167TIP3   OH263915   5.311   0.484   0.809 -0.5192 -0.1579 -0.5054
14167TIP3    H163916   5.228   0.522   0.838 -0.6422 -1.4039  0.8802
14167TIP3    H263917   5.335   0.422   0.878 -0.1497 -2.3702 -2.5008
14168TIP3   OH263918   6.039   3.679  16.710 -1.3348 -0.1311  0.1839
14168TIP3    H163919   6.069   3.735  16.781 -2.3202 -0.2615  0.7130
14168TIP3    H263920   6.111   3.617  16.696 -1.0174  0.0816  0.8682
14169TIP3   OH263921   6.805   6.259   1.121 -0.4351 -0.2212 -0.2870
14169TIP3    H163922   6.810   6.302   1.207 -1.4742  0.0209 -0.3337
14169TIP3    H263923   6.893   6.270   1.084 -0.6322  1.8121 -0.2602
14170TIP3   OH263924   6.396   1.360  12.224  0.4990  0.4038 -0.5464
14170TIP3    H163925   6.356   1.285  12.180  0.2264 -1.4531  2.5389
14170TIP3    H263926   6.323   1.408  12.262  0.8480  0.1763  0.4459
14171TIP3   OH263927   6.107   3.645   2.020 -0.2092  0.3539  0.1576
14171TIP3    H163928   6.021   3.628   2.058  0.3692 -0.1919  1.2439
14171TIP3    H263929   6.160   3.678   2.092  0.7142 -0.0562 -0.3127
14172TIP3   OH263930   6.246   4.464   5.160  0.2923  0.7058 -0.2313
14172TIP3    H163931   6.164   4.512   5.156  0.8005  1.6132  0.0534
14172TIP3    H263932   6.235   4.394   5.096 -1.1024  0.1599  0.5589
14173TIP3   OH263933   3.754   4.469   3.673  0.2785  0.2733 -0.5599
14173TIP3    H163934   3.836   4.420   3.668  1.6413  2.5252 -2.3872
14173TIP3    H263935   3.711   4.451   3.590 -1.3440 -1.1704  0.5258
14174TIP3   OH263936   4.718   1.084   4.543 -0.0526  0.0005 -0.3477
14174TIP3    H163937   4.723   1.178   4.560  0.8033 -0.2663  0.9838
14174TIP3    H263938   4.809   1.054   4.546 -0.3858 -1.0081  0.0691
14175TIP3   OH263939   3.373   5.278  10.970  0.7410 -0.9563  0.0095
14175TIP3    H163940   3.288   5.295  10.930  0.7755 -0.8976 -0.0381
14175TIP3    H263941   3.408   5.364  10.992 -0.4663 -1.0349  2.6273
14176TIP3   OH263942   4.569   3.368  11.297  0.0341  0.1377 -0.4276
14176TIP3    H163943   4.636   3.387  11.363 -0.2161  0.7520 -0.3365
14176TIP3    H263944   4.613   3.314  11.232 -0.1433 -1.9046  1.0606
14177TIP3   OH263945   2.924   4.327   6.759 -0.1845  0.6307  0.3793
14177TIP3    H163946   2.956   4.411   6.725  0.1854  1.0408  1.6824
14177TIP3    H263947   2.960   4.261   6.700  1.7154  1.2063  0.8385
14178TIP3   OH263948   1.819   2.880   4.246 -0.0803  0.2761 -0.2381
14178TIP3    H163949   1.907   2.855   4.220  0.0549 -1.7103  1.7604
14178TIP3    H263950   1.770   2.886   4.163  1.8184  1.1561 -1.3491
14179TIP3   OH263951   3.542   3.068  15.233  0.0138  0.3360 -0.4116
14179TIP3    H163952   3.464   3.077  15.287  0.5183  1.7091  0.1565
14179TIP3    H263953   3.567   3.159  15.213  2.1413 -0.0017  0.4449
14180TIP3   OH263954   2.526   5.936  15.034  0.4328  0.0151 -0.2041
14180TIP3    H163955   2.534   6.016  14.983 -0.3449  0.6283  0.6027
14180TIP3    H263956   2.611   5.893  15.025  0.4033  0.2386 -1.7655
14181TIP3   OH263957   5.388   5.370  14.105 -0.3920  0.2030 -0.3307
14181TIP3    H163958   5.467   5.423  14.105 -0.7416  0.7466 -0.7293
14181TIP3    H263959   5.356   5.375  14.014 -0.2682 -0.9411 -0.4420
14182TIP3   OH263960   0.161   3.834  13.582 -0.1541 -0.6608 -0.6253
14182TIP3    H163961   0.176   3.741  13.597  0.6520 -0.4771 -0.2282
14182TIP3    H263962   0.193   3.849  13.493  1.3443 -0.4385 -0.0793
14183TIP3   OH263963   5.501   0.942  13.343  0.6363  0.3281  0.6104
14183TIP3    H163964   5.547   0.895  13.273  1.7091 -0.0031  1.5120
14183TIP3    H263965   5.468   0.873  13.400  1.0222  0.6257  1.1999
14184TIP3   OH263966   5.200   0.955  12.395  0.2186 -0.1299 -0.2487
14184TIP3    H163967   5.136   0.898  12.352 -1.2526  1.9506 -1.0229
14184TIP3    H263968   5.280   0.946  12.344 -0.3950 -0.5160 -1.1528
14185TIP3   OH263969   1.387   5.798   1.711 -0.4781  0.0749  0.5433
14185TIP3    H163970   1.297   5.830   1.703 -0.6086  0.1208  1.9342
14185TIP3    H263971   1.429   5.859   1.773  0.6407  0.2935 -0.3813
14186TIP3   OH263972   4.323   4.795   5.711 -0.2638 -0.7127  0.5824
14186TIP3    H163973   4.395   4.759   5.659  0.2341  0.2816  0.5706
14186TIP3    H263974   4.364   4.865   5.762 -1.5320  0.9633 -0.6072
14187TIP3   OH263975   4.099   4.185  14.650 -0.2197 -0.5711  0.3676
14187TIP3    H163976   4.113   4.094  14.623 -1.5402 -0.9602  0.9032
14187TIP3    H263977   4.130   4.237  14.576 -0.8776 -1.5116 -0.6024
14188TIP3   OH263978   0.029   3.615  11.456  0.5146  0.4306 -0.3461
14188TIP3    H163979   0.066   3.552  11.517 -0.4561  0.8348  0.6906
14188TIP3    H263980   0.073   3.698  11.478 -0.9065  0.9080  0.8752
14189TIP3   OH263981   5.984   3.678   4.105  0.3274  0.3656 -0.4626
14189TIP3    H163982   5.956   3.746   4.166  0.5024 -2.0158  2.4492
14189TIP3    H263983   6.070   3.708   4.074 -0.6157  2.5471 -1.1659
14190TIP3   OH263984   4.382   1.402  14.955 -0.3831 -0.1547  0.0526
14190TIP3    H163985   4.373   1.400  15.051 -0.4845 -0.6351  0.0304
14190TIP3    H263986   4.352   1.490  14.931  1.1508  0.5575  0.6175
14191TIP3   OH263987   4.119   4.341  12.460 -0.2941 -0.3191 -1.0595
14191TIP3    H163988   4.170   4.305  12.388 -0.8774 -1.8695 -0.7267
14191TIP3    H263989   4.077   4.265  12.501  0.9706  0.3565  1.6908
14192TIP3   OH263990   0.996   6.229  16.884 -0.6671  0.4920 -0.0028
14192TIP3    H163991   0.907   6.253  16.910 -0.9185 -0.4842  0.0643
14192TIP3    H263992   1.040   6.313  16.870 -1.0496  1.0383  1.7780
14193TIP3   OH263993   1.584   4.401  14.513 -0.1299 -0.2675  0.5496
14193TIP3    H163994   1.524   4.449  14.569  0.0259 -0.6053  1.0170
14193TIP3    H263995   1.534   4.383  14.433  0.4436  2.3879 -0.4953
14194TIP3   OH263996   2.779   2.440  16.556 -0.5130 -0.6272 -0.1690
14194TIP3    H163997   2.823   2.464  16.474 -0.8137 -1.9449 -0.7380
14194TIP3    H263998   2.790   2.346  16.563 -2.7619 -0.9489 -0.0716
14195TIP3   OH263999   2.084   1.990   3.059 -0.1007  0.3159  0.6883
14195TIP3    H164000   2.130   1.907   3.053  1.0071  0.8284  1.7017
14195TIP3    H264001   2.007   1.979   3.003 -1.0737 -2.0808  2.3348
14196TIP3   OH264002   3.190   3.830   5.734  1.0292  0.2962  0.3720
14196TIP3    H164003   3.132   3.906   5.736  0.4380 -0.1291 -0.3441
14196TIP3    H264004   3.277   3.866   5.751  1.1391  1.5173 -2.2349
14197TIP3   OH264005   0.329   2.599   5.078  0.0554  0.7608  0.0990
14197TIP3    H164006   0.267   2.609   5.006 -0.0301  1.0791  0.2140
14197TIP3    H264007   0.415   2.614   5.039 -0.0870  2.3741  0.3311
14198TIP3   OH264008   5.393   1.865  15.765  0.2644 -0.7468 -0.2494
14198TIP3    H164009   5.366   1.877  15.857  0.1443 -2.0077 -0.0933
14198TIP3    H264010   5.431   1.777  15.763  1.8588 -0.0741 -1.0689
14199TIP3   OH264011   4.221   6.579  12.040  0.2432 -0.0153 -0.4746
14199TIP3    H164012   4.298   6.575  12.097  1.5774  1.4089 -2.1136
14199TIP3    H264013   4.147   6.561  12.099  1.6705  0.1287  1.4357
14200TIP3   OH264014   5.036   1.669  11.000  0.6498 -0.5522 -0.1812
14200TIP3    H164015   5.068   1.749  11.041  0.3095 -0.4258 -0.1556
14200TIP3    H264016   4.951   1.693  10.964  0.2876 -1.0442  0.3153
14201TIP3   OH264017   3.759   6.083  16.463 -0.5989  0.2701  0.5073
14201TIP3    H164018   3.735   6.069  16.371 -0.8854 -1.5272  0.8118
14201TIP3    H264019   3.782   6.176  16.468  1.3162  0.0236 -1.8274
14202TIP3   OH264020   0.908   2.752  14.282  0.7506 -0.3666 -0.3008
14202TIP3    H164021   0.882   2.701  14.205 -0.0252 -1.4987  0.6886
14202TIP3    H264022   0.932   2.686  14.347  2.6761  0.5881  0.0252
14203TIP3   OH264023   5.857   1.547  10.926  0.0133 -0.7949 -1.0567
14203TIP3    H164024   5.822   1.479  10.869  1.6832 -0.6346 -2.3611
14203TIP3    H264025   5.920   1.594  10.871  1.8904 -0.7771  0.9644
14204TIP3   OH264026   3.314   2.112   2.398 -0.2612  0.6505 -0.6683
14204TIP3    H164027   3.328   2.021   2.371  1.2623  0.7058 -0.1637
14204TIP3    H264028   3.322   2.163   2.317 -0.1538  0.4157 -0.8060
14205TIP3   OH264029   6.265   0.478  16.289  0.8842 -0.0233  0.1755
14205TIP3    H164030   6.252   0.383  16.287 -0.3576  0.1366 -0.2025
14205TIP3    H264031   6.240   0.504  16.378 -1.8533  0.3027 -0.5910
14206TIP3   OH264032   4.344   1.988   4.393 -0.3179 -0.1423 -0.0740
14206TIP3    H164033   4.357   1.913   4.334 -3.1941  1.0624 -2.4716
14206TIP3    H264034   4.382   2.062   4.346 -1.1793  0.5769  0.3369
14207TIP3   OH264035   1.930   1.718  12.631  0.1913  0.1983 -0.2982
14207TIP3    H164036   1.907   1.798  12.585 -0.4893  0.7493  0.9512
14207TIP3    H264037   1.852   1.663  12.623  0.6987 -0.4063 -1.2530
14208TIP3   OH264038   4.981   4.062   0.669  0.4187 -0.4683  0.3182
14208TIP3    H164039   4.952   4.135   0.724  0.4415 -0.0031 -0.2864
14208TIP3    H264040   5.076   4.060   0.679  0.3094 -1.4560  1.6184
14209TIP3   OH264041   6.184   5.472   3.142  0.2202  0.1270  0.5657
14209TIP3    H164042   6.201   5.398   3.200 -0.7426 -1.2672 -0.8534
14209TIP3    H264043   6.174   5.433   3.055 -2.6764  1.5868  0.0993
14210TIP3   OH264044   0.631   4.170  14.567 -0.0239  0.7517 -0.0055
14210TIP3    H164045   0.576   4.160  14.645  0.4849  1.6411  0.4839
14210TIP3    H264046   0.568   4.181  14.495 -0.4984  0.4274  0.3513
14211TIP3   OH264047   2.079   3.919   3.002  0.3148  0.2266  0.5193
14211TIP3    H164048   2.158   3.969   2.980 -1.2503  2.1719 -1.0919
14211TIP3    H264049   2.012   3.986   3.018 -1.6160 -1.3108 -0.6797
14212TIP3   OH264050   2.571   5.435  16.558 -0.1753 -0.2261 -0.1853
14212TIP3    H164051   2.495   5.379  16.547 -0.4660  0.2839 -0.8739
14212TIP3    H264052   2.538   5.523  16.539  0.2986  0.1617  0.7421
14213TIP3   OH264053   5.602   3.288   5.704 -0.5973  0.1801  0.4560
14213TIP3    H164054   5.509   3.284   5.724 -0.9891 -1.2493 -1.3997
14213TIP3    H264055   5.625   3.380   5.716 -2.3072  0.6200  0.6343
14214TIP3   OH264056   5.607   1.475   3.733 -0.1016  0.5247  0.6047
14214TIP3    H164057   5.620   1.424   3.653 -0.2718  0.5167  0.5807
14214TIP3    H264058   5.522   1.518   3.719 -0.0787  0.6102  0.7340
14215TIP3   OH264059   4.934   1.779   3.477 -0.4535  0.3051 -0.4488
14215TIP3    H164060   4.954   1.870   3.500 -0.0493  0.1820 -0.3031
14215TIP3    H264061   4.897   1.742   3.558 -0.4143  0.2819 -0.4412
14216TIP3   OH264062   5.990   5.034   4.596 -0.3890 -0.0363 -0.0355
14216TIP3    H164063   5.946   4.977   4.532 -0.8762  0.9255 -0.5889
14216TIP3    H264064   5.988   5.121   4.555  0.4436  0.3560  0.7354
14217TIP3   OH264065   0.524   0.567   3.480 -0.4537 -0.1069 -0.5649
14217TIP3    H164066   0.606   0.569   3.531 -1.6986  2.0295  1.5729
14217TIP3    H264067   0.459   0.532   3.542 -1.1728 -1.9430 -2.2793
14218TIP3   OH264068   6.183   2.159  15.250 -0.1734 -0.3993  0.2779
14218TIP3    H164069   6.110   2.182  15.193  0.6162  1.3411 -0.0855
14218TIP3    H264070   6.261   2.168  15.195  0.3678 -2.0550  0.7063
14219TIP3   OH264071   2.224   4.496  14.913 -0.7482  0.3214 -0.2442
14219TIP3    H164072   2.177   4.433  14.858  0.3755 -0.6062 -0.1874
14219TIP3    H264073   2.317   4.473  14.901 -0.2401  2.4425 -0.7837
14220TIP3   OH264074   2.747   5.641   4.481  0.4929  0.2920  0.3552
14220TIP3    H164075   2.657   5.652   4.510  0.0194 -2.4383  0.1803
14220TIP3    H264076   2.746   5.667   4.389  0.1546  1.2325  0.6110
14221TIP3   OH264077   6.349   6.218   1.545  0.2577 -0.0438 -0.5320
14221TIP3    H164078   6.296   6.256   1.614  0.9106  0.2514 -0.1776
14221TIP3    H264079   6.290   6.159   1.498 -0.5096  0.6528 -0.4724
14222TIP3   OH264080   1.685   4.908   4.749  0.0384  0.0584 -0.0903
14222TIP3    H164081   1.713   4.838   4.807  0.8856  0.0179 -0.5357
14222TIP3    H264082   1.614   4.952   4.797 -0.1216 -0.7425  0.4270
14223TIP3   OH264083   6.740   5.225  15.396 -0.3200  0.4932  0.4205
14223TIP3    H164084   6.811   5.161  15.402 -0.8687 -0.2416 -0.5925
14223TIP3    H264085   6.774   5.302  15.442  1.6577  0.6218 -1.0775
14224TIP3   OH264086   4.767   4.689   0.852 -1.0428  0.1046 -0.1007
14224TIP3    H164087   4.805   4.682   0.939  1.0296 -0.1382 -0.9719
14224TIP3    H264088   4.783   4.604   0.812 -0.3856  0.7691 -1.3081
14225TIP3   OH264089   6.182   4.209  14.037  0.4597 -0.0937  0.3851
14225TIP3    H164090   6.217   4.122  14.054  0.6522  0.0138  0.5372
14225TIP3    H264091   6.145   4.237  14.120 -1.2770 -0.7882 -0.1151
14226TIP3   OH264092   5.330   3.016  16.960  0.3609 -0.1573  0.5437
14226TIP3    H164093   5.335   3.038  17.054  1.0127  1.8656  0.0876
14226TIP3    H264094   5.237   3.028  16.939  0.2282 -0.5211  0.8855
14227TIP3   OH264095   4.376   3.204   4.498 -0.3388 -0.6432  0.0773
14227TIP3    H164096   4.311   3.162   4.554  0.0597 -0.6574  0.5410
14227TIP3    H264097   4.380   3.149   4.420 -1.1204 -0.4518 -0.1095
14228TIP3   OH264098   3.593   3.092  13.032  0.2862  0.2585  0.3232
14228TIP3    H164099   3.527   3.078  12.964  1.0860  0.9566 -0.6148
14228TIP3    H264100   3.672   3.119  12.985  0.3091  2.7643  1.5919
14229TIP3   OH264101   1.727   4.427  12.501  0.2126 -0.3113  0.3164
14229TIP3    H164102   1.708   4.333  12.495  1.6073 -0.6586  0.9235
14229TIP3    H264103   1.820   4.434  12.478  0.3386  0.8094  1.0877
14230TIP3   OH264104   2.862   3.494  14.668 -0.0963  0.4610 -0.4454
14230TIP3    H164105   2.800   3.433  14.709  2.2056 -1.6080  0.2153
14230TIP3    H264106   2.850   3.576  14.716 -1.5995 -0.1680  0.3283
14231TIP3   OH264107   6.704   6.242   2.773 -0.0463 -0.2483  0.0483
14231TIP3    H164108   6.637   6.180   2.802 -0.2106 -0.2708 -0.3706
14231TIP3    H264109   6.756   6.260   2.851 -0.0707 -0.8237  0.1995
14232TIP3   OH264110   5.630   1.502  14.414  0.0276  0.2546  0.2767
14232TIP3    H164111   5.563   1.536  14.355 -0.3117  0.3000  0.6813
14232TIP3    H264112   5.660   1.421  14.373  0.8144  1.0158 -0.6781
14233TIP3   OH264113   2.386   6.336   3.164  0.4978 -0.4677 -0.0683
14233TIP3    H164114   2.349   6.295   3.085  0.5439 -3.4209  1.2877
14233TIP3    H264115   2.450   6.399   3.131 -3.0223  2.3158 -2.4561
14234TIP3   OH264116   0.260   5.869  16.696 -0.0547 -0.3859  0.1261
14234TIP3    H164117   0.241   5.801  16.762  0.9297 -0.2380  0.5844
14234TIP3    H264118   0.191   5.859  16.631 -0.6336 -1.0226  0.8112
14235TIP3   OH264119   1.850   4.408   0.002 -0.3060 -0.3127  0.4631
14235TIP3    H164120   1.924   4.454   0.042 -0.2930 -0.3948  0.5336
14235TIP3    H264121   1.788   4.478  -0.022 -0.5234 -0.2950  1.0518
14236TIP3   OH264122   0.677   6.001   3.598 -0.0038  0.4768  0.0139
14236TIP3    H164123   0.665   6.082   3.646 -0.4374 -0.4062  1.4566
14236TIP3    H264124   0.708   6.028   3.511 -1.3023  2.2341  0.0552
14237TIP3   OH264125   0.945   4.660   0.394 -0.4686  0.4903  0.0785
14237TIP3    H164126   0.916   4.734   0.341 -0.0782  1.4866  1.1980
14237TIP3    H264127   0.898   4.584   0.359 -0.2313  1.1053 -1.6510
14238TIP3   OH264128   0.875   6.657   3.775  0.0814  0.1098 -0.0716
14238TIP3    H164129   0.862   6.627   3.865 -1.4771 -0.6690 -0.5102
14238TIP3    H264130   0.937   6.595   3.737  1.3147  0.8664  0.6406
14239TIP3   OH264131   3.628   6.778   0.812  0.0394  0.1862 -0.6350
14239TIP3    H164132   3.618   6.772   0.717 -1.9569 -2.6791 -0.3664
14239TIP3    H264133   3.554   6.830   0.841  1.9680  3.1876 -0.7216
14240TIP3   OH264134   1.063   2.171   3.265 -0.0548 -0.1556 -0.0011
14240TIP3    H164135   1.040   2.176   3.358 -2.0336 -1.1217 -0.3742
14240TIP3    H264136   1.093   2.081   3.253  0.3989  0.0290 -0.2698
14241TIP3   OH264137   5.257   4.487   3.250 -0.2273  0.7087  0.3561
14241TIP3    H164138   5.230   4.417   3.190 -0.2598  1.5740 -0.6679
14241TIP3    H264139   5.251   4.447   3.337 -0.7868 -0.3895 -0.1593
14242TIP3   OH264140   2.538   6.416   2.444  0.0914 -0.1326 -0.0264
14242TIP3    H164141   2.610   6.477   2.427  0.4840 -0.4743  0.3622
14242TIP3    H264142   2.550   6.347   2.379  1.4833 -1.3456  1.4238
14243TIP3   OH264143   2.035   2.498  16.596 -0.4548 -0.0994  0.1215
14243TIP3    H164144   2.074   2.544  16.670  0.5259  0.6708 -0.8465
14243TIP3    H264145   2.079   2.412  16.595 -0.8958 -0.3373  0.7701
14244TIP3   OH264146   3.689   4.169   3.105  0.2635  0.3292 -0.3142
14244TIP3    H164147   3.662   4.133   3.190  1.7868  1.1358  0.5558
14244TIP3    H264148   3.774   4.211   3.122  0.0317  1.5871 -1.9753
14245TIP3   OH264149   0.323   2.599   4.261 -0.3641 -0.2097  0.0704
14245TIP3    H164150   0.292   2.668   4.203 -0.4535 -1.4009 -1.3492
14245TIP3    H264151   0.418   2.601   4.253 -0.4215 -1.3228 -1.3251
14246TIP3   OH264152   5.591   0.303  14.165 -0.7769  0.1481 -0.1004
14246TIP3    H164153   5.574   0.230  14.225  0.7000  0.3685  0.6226
14246TIP3    H264154   5.615   0.261  14.082  0.7172 -0.2318  0.4944
14247TIP3   OH264155   0.225   5.679   1.770 -0.4745 -0.3107  0.9547
14247TIP3    H164156   0.180   5.703   1.689  0.5425  1.5494  0.8783
14247TIP3    H264157   0.281   5.605   1.746  0.9912  1.1853 -0.5005
14248TIP3   OH264158   6.071   1.331  17.188 -0.1380 -0.4819  0.8155
14248TIP3    H164159   5.998   1.345  17.128 -0.0461  0.2344  0.8648
14248TIP3    H264160   6.124   1.411  17.181 -1.1524  0.5220  3.2965
14249TIP3   OH264161   4.434   4.389   4.460  0.7789  0.2107 -0.3520
14249TIP3    H164162   4.357   4.389   4.516  1.2575  0.2178  0.3173
14249TIP3    H264163   4.409   4.336   4.385  0.4307 -0.5473  0.2863
14250TIP3   OH264164   0.131   6.191  10.603  0.4774  0.0449  0.0732
14250TIP3    H164165   0.134   6.152  10.516 -0.8358 -0.1214  0.0839
14250TIP3    H264166   0.109   6.119  10.661  2.4017 -0.0760  0.7294
14251TIP3   OH264167   0.282   1.564   2.662  0.0646  0.0726  0.2995
14251TIP3    H164168   0.259   1.643   2.712  0.5154  0.5182 -0.1824
14251TIP3    H264169   0.215   1.559   2.594 -1.1524 -1.1068  1.5288
14252TIP3   OH264170   5.852   1.646   4.799 -0.2766  0.1091 -0.0872
14252TIP3    H164171   5.914   1.692   4.742  0.8438 -2.7525 -1.3748
14252TIP3    H264172   5.810   1.715   4.850  2.6422  2.3498 -0.4817
14253TIP3   OH264173   4.469   5.080   2.726  0.6216  0.2057 -0.5872
14253TIP3    H164174   4.424   5.008   2.682  0.3675  0.6359 -1.0458
14253TIP3    H264175   4.461   5.154   2.665 -0.6918  1.1217  0.6317
14254TIP3   OH264176   6.165   5.696   4.655 -0.0850  0.3671 -0.2435
14254TIP3    H164177   6.150   5.607   4.688 -0.7492 -0.5261 -2.7292
14254TIP3    H264178   6.203   5.683   4.568  1.6803  2.5699  0.1064
14255TIP3   OH264179   3.459   5.015  12.175 -0.2964 -0.0534 -0.3187
14255TIP3    H164180   3.521   5.084  12.200  2.3926 -2.0481 -1.0101
14255TIP3    H264181   3.459   4.955  12.250 -1.0720 -0.2824 -0.4970
14256TIP3   OH264182   2.809   6.387  12.036 -0.1984 -0.8328  0.1057
14256TIP3    H164183   2.858   6.306  12.054  0.1812 -0.6197  0.0154
14256TIP3    H264184   2.727   6.375  12.084  0.2168 -0.8994  0.8214
14257TIP3   OH264185   1.898   4.567  13.944 -0.3719 -0.1767  0.0180
14257TIP3    H164186   1.977   4.577  13.997 -0.6672 -1.5688  0.7776
14257TIP3    H264187   1.868   4.656  13.927  0.5154  0.3262  1.0195
14258TIP3   OH264188   0.477   1.483  11.241  0.1839 -0.8331  0.3267
14258TIP3    H164189   0.441   1.396  11.222 -0.7757  0.0437 -2.3015
14258TIP3    H264190   0.476   1.528  11.157 -2.8346  3.0130  2.0701
14259TIP3   OH264191   3.819   3.530  14.661 -0.3419 -0.0258  0.5324
14259TIP3    H164192   3.873   3.604  14.688 -0.6591 -0.2462  1.8407
14259TIP3    H264193   3.729   3.561  14.670 -0.6200 -1.3661  3.8680
14260TIP3   OH264194   4.526   2.268   0.238  0.1390  0.2291  0.3791
14260TIP3    H164195   4.489   2.201   0.181 -3.9750  0.9789  1.7559
14260TIP3    H264196   4.547   2.222   0.319  0.0064  0.1289  0.3583
14261TIP3   OH264197   0.768   4.563   1.025  0.1422 -0.2973 -0.2456
14261TIP3    H164198   0.797   4.550   0.934 -0.0586 -0.3973 -0.2951
14261TIP3    H264199   0.849   4.566   1.075  0.2226 -1.0835 -0.3201
14262TIP3   OH264200   3.280   6.762   0.456  0.2774 -0.9474 -0.2885
14262TIP3    H164201   3.278   6.790   0.548  0.6588  0.0181 -0.5609
14262TIP3    H264202   3.213   6.816   0.414  1.3318 -0.0781 -0.9121
14263TIP3   OH264203   3.532   4.536   0.020 -0.3171  0.2202 -0.0529
14263TIP3    H164204   3.599   4.593   0.058  0.0360 -0.8450  0.9658
14263TIP3    H264205   3.458   4.543   0.079  0.0127 -0.9639  0.5323
14264TIP3   OH264206   5.708   2.048  15.746  0.1021 -0.3383 -0.6147
14264TIP3    H164207   5.641   2.044  15.814 -0.6672  0.7080 -1.2762
14264TIP3    H264208   5.790   2.035  15.793 -0.5445 -1.7078  0.1989
14265TIP3   OH264209   3.562   1.195  14.724  0.4666  0.0993 -0.1180
14265TIP3    H164210   3.525   1.109  14.745  0.0938 -0.8071 -3.7577
14265TIP3    H264211   3.652   1.176  14.696  0.9001  1.1345  0.5236
14266TIP3   OH264212   0.681   5.611   3.700  0.3600 -0.4936  0.3899
14266TIP3    H164213   0.609   5.568   3.655  1.1793 -0.4158 -1.0460
14266TIP3    H264214   0.648   5.699   3.719 -1.0161 -1.3875  2.5998
14267TIP3   OH264215   3.595   2.264   5.194  0.1939 -0.5913  0.2325
14267TIP3    H164216   3.601   2.278   5.288  3.3055 -0.3386  0.1157
14267TIP3    H264217   3.681   2.291   5.160 -1.1276  0.2352 -2.8113
14268TIP3   OH264218   1.826   0.729   1.826  0.1102  0.2755  0.3824
14268TIP3    H164219   1.847   0.677   1.749  0.4222  0.2405  0.4913
14268TIP3    H264220   1.823   0.819   1.794 -0.3644  0.1990  0.2071
14269TIP3   OH264221   0.718   3.243   5.688  0.0119  0.6728 -0.3799
14269TIP3    H164222   0.689   3.153   5.706 -0.4716  0.8661 -0.1796
14269TIP3    H264223   0.655   3.276   5.624  0.0970  0.9184 -0.3380
14270TIP3   OH264224   4.290   4.009  10.447  0.4064 -0.0110  0.2396
14270TIP3    H164225   4.328   4.040  10.365  1.1339 -0.8328  0.2349
14270TIP3    H264226   4.199   4.037  10.445  0.7255  1.0098 -0.3000
14271TIP3   OH264227   0.081   1.019  11.667  0.2632 -0.5348 -0.1604
14271TIP3    H164228   0.009   1.011  11.604  0.1492 -1.6799  0.1060
14271TIP3    H264229   0.148   0.959  11.634  0.9261  0.1705 -0.1428
14272TIP3   OH264230   0.689   6.611  15.779 -0.1916 -0.1823  0.3048
14272TIP3    H164231   0.655   6.666  15.849  1.9229  0.2603  1.0730
14272TIP3    H264232   0.707   6.672  15.708 -2.4889 -0.6536 -0.7661
14273TIP3   OH264233   2.492   6.583  15.417  0.4500  0.5585 -0.3661
14273TIP3    H164234   2.488   6.675  15.393 -0.1260  1.0294  1.3750
14273TIP3    H264235   2.549   6.581  15.494  0.3320 -0.5246 -0.2907
14274TIP3   OH264236   5.097   6.730   0.212 -0.1232 -0.6565 -0.1713
14274TIP3    H164237   5.013   6.754   0.251  0.2270  0.1606  0.0902
14274TIP3    H264238   5.078   6.651   0.161 -0.5274 -1.9940  1.9273
14275TIP3   OH264239   6.615   6.506   2.904 -0.1438  0.2103 -0.2392
14275TIP3    H164240   6.602   6.465   2.819  0.6954  0.1142 -0.3273
14275TIP3    H264241   6.604   6.600   2.887  0.6315  0.2471 -0.5879
14276TIP3   OH264242   4.775   6.333  12.560  0.2740 -0.7265 -0.0449
14276TIP3    H164243   4.776   6.329  12.464 -1.8365 -1.7153 -0.0755
14276TIP3    H264244   4.744   6.421  12.580 -3.2657 -1.7223 -0.4375
14277TIP3   OH264245   2.472   2.202   6.562 -0.4495  0.6591 -0.6693
14277TIP3    H164246   2.565   2.189   6.540 -0.0232 -0.7458  1.6061
14277TIP3    H264247   2.429   2.122   6.532 -0.3401 -0.0298  0.8818
14278TIP3   OH264248   2.051   6.133   4.667 -0.4534  0.0305  0.4342
14278TIP3    H164249   2.131   6.131   4.615  0.3060 -2.8665  1.5483
14278TIP3    H264250   2.071   6.195   4.738  0.5741 -0.1832  0.3512
14279TIP3   OH264251   3.224   3.733   1.340 -0.3547  0.2152 -0.6371
14279TIP3    H164252   3.301   3.724   1.396 -0.6174  1.0372 -0.1281
14279TIP3    H264253   3.211   3.646   1.302  0.3639 -0.1192 -0.1249
14280TIP3   OH264254   2.475   2.684   1.270  0.3156 -0.3060 -0.0708
14280TIP3    H164255   2.432   2.682   1.356  3.2113 -0.8895  1.4861
14280TIP3    H264256   2.463   2.774   1.239  0.9160  0.4957  1.9042
14281TIP3   OH264257   4.631   0.287  16.889 -0.0108 -0.2301  0.0498
14281TIP3    H164258   4.666   0.375  16.881  1.1086 -0.5957  0.6884
14281TIP3    H264259   4.664   0.241  16.811 -2.9296  0.6211 -1.8160
14282TIP3   OH264260   6.227   4.899  14.903  0.2669 -0.3238 -0.0464
14282TIP3    H164261   6.195   4.812  14.931 -2.6432  0.4332 -0.6555
14282TIP3    H264262   6.187   4.960  14.965  3.2222  0.5946  1.0967
14283TIP3   OH264263   0.617   1.116   0.060 -0.3052 -0.3240 -0.2478
14283TIP3    H164264   0.689   1.058   0.086  0.3061  0.4079 -0.2628
14283TIP3    H264265   0.597   1.167   0.139 -0.9323 -0.6526 -0.1945
14284TIP3   OH264266   1.352   0.385  11.216  0.2924 -0.5239 -0.1490
14284TIP3    H164267   1.371   0.309  11.161  0.0836  0.2752 -1.3779
14284TIP3    H264268   1.280   0.429  11.171 -0.2111 -0.0989  1.0447
14285TIP3   OH264269   1.945   2.014   6.198 -0.6747  0.4568  0.0047
14285TIP3    H164270   1.980   2.061   6.122 -0.4693  1.6064  0.7779
14285TIP3    H264271   1.966   2.071   6.273 -1.6471 -0.2188  0.8174
14286TIP3   OH264272   5.323   1.159   3.092  0.0510 -0.0424  0.1012
14286TIP3    H164273   5.256   1.090   3.091 -0.3820  0.2686 -2.9994
14286TIP3    H264274   5.290   1.223   3.155 -1.9044 -0.5183 -0.3464
14287TIP3   OH264275   0.733   3.645  16.898  0.0288 -0.4989  0.1012
14287TIP3    H164276   0.755   3.709  16.831  2.7953 -1.5540 -0.1609
14287TIP3    H264277   0.660   3.595  16.861  1.1147 -0.7007 -1.9326
14288TIP3   OH264278   0.031   2.696  16.560 -0.0301  0.3759 -0.5175
14288TIP3    H164279   0.081   2.615  16.551 -0.5816 -0.1685  0.9770
14288TIP3    H264280   0.078   2.746  16.625 -1.8750 -0.5987  1.7286
14289TIP3   OH264281   0.892   3.959  13.316  0.5402  0.1254 -0.0736
14289TIP3    H164282   0.840   3.947  13.395 -0.4994 -1.7549 -0.9629
14289TIP3    H264283   0.902   4.054  13.308 -3.7202  0.7819 -0.3693
14290TIP3   OH264284   3.557   3.838   4.870  0.4040 -0.3068 -0.4437
14290TIP3    H164285   3.598   3.924   4.866 -0.1448  0.1080  1.5494
14290TIP3    H264286   3.597   3.795   4.945 -1.9125 -0.2963  0.9167
14291TIP3   OH264287   2.874   2.142  16.262  0.1616  0.3552  0.5794
14291TIP3    H164288   2.792   2.096  16.245  0.4125  0.3693 -0.7336
14291TIP3    H264289   2.847   2.233  16.277 -0.2201  0.0301  2.0247
14292TIP3   OH264290   5.990   6.382   0.677  0.2667 -0.4242  0.1608
14292TIP3    H164291   6.069   6.436   0.686 -0.0412  0.0989 -0.2192
14292TIP3    H264292   5.928   6.420   0.739  1.0344 -2.2440  2.1821
14293TIP3   OH264293   4.653   2.954   5.430 -0.3117 -0.4531 -0.1137
14293TIP3    H164294   4.561   2.933   5.443 -0.3336  0.6777  2.2441
14293TIP3    H264295   4.685   2.888   5.370 -2.8467 -0.3188 -1.7708
14294TIP3   OH264296   4.572   3.681   4.757 -0.0118  0.3594 -0.4906
14294TIP3    H164297   4.530   3.743   4.816 -0.0881 -0.9716  0.9228
14294TIP3    H264298   4.665   3.687   4.778  0.0550  0.4507 -0.8071
14295TIP3   OH264299   5.380   6.284   0.047 -0.2377 -0.0803 -0.4114
14295TIP3    H164300   5.400   6.278  -0.046 -1.4967  2.0641 -0.8891
14295TIP3    H264301   5.464   6.270   0.091  0.4754 -0.5476 -1.8767
14296TIP3   OH264302   1.784   4.254   4.820 -0.0045  0.3664 -0.3211
14296TIP3    H164303   1.824   4.173   4.852 -0.2194  0.0817 -0.7637
14296TIP3    H264304   1.841   4.284   4.751  0.8855  1.4083  0.8273
14297TIP3   OH264305   4.873   5.610  11.699 -0.2969 -0.6509  0.0387
14297TIP3    H164306   4.834   5.522  11.696  1.0674 -1.2558 -1.6187
14297TIP3    H264307   4.801   5.667  11.725 -1.5754 -2.0682 -0.2380
14298TIP3   OH264308   0.972   6.356   2.520 -0.1716  0.6358  0.2148
14298TIP3    H164309   0.911   6.303   2.570 -0.4203  1.6092  0.9657
14298TIP3    H264310   0.937   6.445   2.524  0.5072  0.9642 -0.5876
14299TIP3   OH264311   0.486   2.098  13.497 -0.2342  0.1856 -0.2623
14299TIP3    H164312   0.436   2.016  13.493 -1.2905  0.8657 -1.8780
14299TIP3    H264313   0.422   2.164  13.521  0.0745  0.9178 -1.3826
14300TIP3   OH264314   3.685   1.684   1.744 -0.7436  0.0203 -0.4172
14300TIP3    H164315   3.698   1.768   1.700 -2.8759  0.0172 -1.1553
14300TIP3    H264316   3.612   1.642   1.697 -1.8469 -0.8466  1.8718
14301TIP3   OH264317   2.846   1.907   6.024 -0.1905  0.1370 -0.1666
14301TIP3    H164318   2.924   1.878   6.071 -0.0494 -1.0067 -1.0755
14301TIP3    H264319   2.875   1.920   5.934 -0.8259  0.6796 -0.2995
14302TIP3   OH264320   3.354   3.276   2.540 -0.7509 -0.4340 -0.6116
14302TIP3    H164321   3.435   3.244   2.502 -0.5050 -0.0566 -0.4076
14302TIP3    H264322   3.300   3.197   2.552  1.0030 -1.3266  2.7776
14303TIP3   OH264323   4.637   0.753  14.504  0.3825  0.5935 -0.7419
14303TIP3    H164324   4.558   0.699  14.508  1.3197 -0.8376 -0.9554
14303TIP3    H264325   4.631   0.799  14.421 -0.1442  0.3680 -0.8276
14304TIP3   OH264326   4.217   5.720  13.758 -0.2087  0.0868 -0.5009
14304TIP3    H164327   4.277   5.753  13.691 -1.9275 -0.5370 -2.4848
14304TIP3    H264328   4.198   5.796  13.812  2.9227  0.1223  0.7475
14305TIP3   OH264329   4.749   3.229   4.718 -0.8937  0.2375 -0.4319
14305TIP3    H164330   4.834   3.205   4.754  0.0497  0.6641 -2.2345
14305TIP3    H264331   4.713   3.292   4.780  1.1792  1.8544 -0.7833
14306TIP3   OH264332   0.630   3.552  12.813 -0.0680 -0.6583  0.0539
14306TIP3    H164333   0.600   3.534  12.903 -1.5700  1.6277  0.0991
14306TIP3    H264334   0.706   3.609  12.824 -0.9764  0.6285 -0.0693
14307TIP3   OH264335   5.021   4.944   2.331  0.1693 -0.0812  0.3575
14307TIP3    H164336   4.952   4.899   2.380  0.1731  0.8229  1.2200
14307TIP3    H264337   5.098   4.936   2.387  0.0522  1.4044  0.7745
14308TIP3   OH264338   5.885   6.203   0.514 -0.1661 -0.3992  0.4165
14308TIP3    H164339   5.926   6.243   0.437 -2.1067 -1.1819 -1.1064
14308TIP3    H264340   5.916   6.256   0.588  1.8052  0.3425 -0.8646
14309TIP3   OH264341   3.809   1.463  16.853 -0.1330  0.1557  0.2908
14309TIP3    H164342   3.890   1.502  16.886  0.6325 -0.9241 -0.2428
14309TIP3    H264343   3.787   1.394  16.916  0.9201 -1.4022 -0.9593
14310TIP3   OH264344   1.463   4.723  14.899  0.2151 -0.2484  0.0474
14310TIP3    H164345   1.459   4.660  14.972 -2.0933  0.0308  0.2385
14310TIP3    H264346   1.466   4.809  14.941  3.9999 -0.1186 -0.2068
14311TIP3   OH264347   5.034   2.166  13.141 -0.1384  0.5752 -0.8148
14311TIP3    H164348   4.965   2.233  13.135 -1.2474 -0.3083  1.0909
14311TIP3    H264349   4.990   2.085  13.114 -0.2735 -0.2271  1.6435
14312TIP3   OH264350   2.328   1.705   4.385  0.3047 -0.0873 -0.5112
14312TIP3    H164351   2.411   1.720   4.431 -0.3343  1.4173  0.2221
14312TIP3    H264352   2.344   1.627   4.331  2.1108  0.0374 -0.2154
14313TIP3   OH264353   6.672   6.335  12.717  0.1205 -0.1551 -1.0986
14313TIP3    H164354   6.733   6.302  12.783  0.0831 -0.2551 -1.1136
14313TIP3    H264355   6.703   6.423  12.696 -0.8548  0.5738  0.3134
14314TIP3   OH264356   4.490   3.935  10.633 -0.3120  0.6025  0.2460
14314TIP3    H164357   4.405   3.950  10.593 -0.8085 -0.6566  0.7728
14314TIP3    H264358   4.481   3.968  10.722  0.0695  1.3375  0.0214
14315TIP3   OH264359   5.338   4.316  11.759 -0.0219 -0.4374 -0.2142
14315TIP3    H164360   5.299   4.316  11.846 -0.4172 -0.6328 -0.3893
14315TIP3    H264361   5.264   4.302  11.699  0.2399 -0.2662 -0.5828
14316TIP3   OH264362   3.001   0.378  15.738 -0.0856 -0.5670 -0.4317
14316TIP3    H164363   2.999   0.380  15.834  0.8981 -0.3746 -0.4080
14316TIP3    H264364   2.927   0.432  15.711  1.2580  1.6921  0.2222
14317TIP3   OH264365   3.809   6.492  11.929 -0.5123 -0.1967 -0.2626
14317TIP3    H164366   3.738   6.428  11.942 -0.9533  0.0891 -1.1725
14317TIP3    H264367   3.776   6.551  11.861 -0.3143  1.3121  0.8989
14318TIP3   OH264368   0.815   1.071  10.838 -0.4078  0.3343 -0.2086
14318TIP3    H164369   0.888   1.081  10.899 -0.3043 -1.9986  0.1171
14318TIP3    H264370   0.810   1.156  10.794  1.0261  1.3014  1.3599
14319TIP3   OH264371   5.751   1.681  13.592 -0.5792 -0.1922 -0.4544
14319TIP3    H164372   5.807   1.673  13.670 -1.6933 -2.0212  0.2168
14319TIP3    H264373   5.765   1.771  13.562  0.3619  0.3703  1.4822
14320TIP3   OH264374   0.320   4.158   2.841  0.2992 -0.0588 -0.3362
14320TIP3    H164375   0.237   4.141   2.797  0.5105 -1.1715 -0.3191
14320TIP3    H264376   0.303   4.235   2.896 -0.8011 -0.4461 -0.1109
14321TIP3   OH264377   6.799   2.884   1.542  0.1043  0.1048  0.2273
14321TIP3    H164378   6.828   2.919   1.458 -1.0264 -0.5401 -0.4494
14321TIP3    H264379   6.881   2.862   1.587  0.8658  3.1549  0.5565
14322TIP3   OH264380   1.131   4.294  11.895  0.1603  0.4452  0.0336
14322TIP3    H164381   1.154   4.218  11.842 -1.0553 -0.1016  0.2456
14322TIP3    H264382   1.213   4.318  11.939  0.4402 -1.1421  0.4614
14323TIP3   OH264383   3.104   4.307  12.535 -0.1734 -0.4928 -0.1651
14323TIP3    H164384   3.073   4.226  12.574 -2.5480  0.9872  1.2860
14323TIP3    H264385   3.038   4.330  12.470  0.5601  0.1784 -0.6986
14324TIP3   OH264386   3.943   5.287   3.692 -0.5816  0.5740  0.2871
14324TIP3    H164387   4.012   5.235   3.735 -1.3327 -0.0870  0.7313
14324TIP3    H264388   3.906   5.340   3.763 -1.5738 -0.2383  0.3930
14325TIP3   OH264389   6.257   4.369   3.606 -0.2607 -0.4761 -0.3736
14325TIP3    H164390   6.280   4.329   3.522  2.7652  0.0530  0.0856
14325TIP3    H264391   6.293   4.457   3.601  1.4864 -0.9648  2.0543
14326TIP3   OH264392   1.584   6.556  15.707 -0.1035  0.3871 -0.0725
14326TIP3    H164393   1.618   6.630  15.756  2.3507  0.0726 -1.1440
14326TIP3    H264394   1.578   6.588  15.617  0.3233 -0.4745 -0.4213
14327TIP3   OH264395   4.173   6.573  14.899  0.2171 -0.2110  0.3171
14327TIP3    H164396   4.104   6.610  14.844  0.2852  0.5544  0.7375
14327TIP3    H264397   4.141   6.582  14.988  0.4666 -0.6907  0.4580
14328TIP3   OH264398   6.158   1.180  12.425  0.1983  0.3547 -0.0868
14328TIP3    H164399   6.167   1.144  12.336 -1.1857  2.7515 -1.2882
14328TIP3    H264400   6.065   1.196  12.435  0.6213  2.7142  0.6665
14329TIP3   OH264401   6.509   4.000  16.162 -0.6211 -0.2624  0.2344
14329TIP3    H164402   6.454   3.974  16.088 -0.3503  0.7304 -0.3251
14329TIP3    H264403   6.556   4.077  16.131 -1.1777  0.7175  1.7403
14330TIP3   OH264404   0.598   4.145   6.062 -0.2219  0.1250  0.5201
14330TIP3    H164405   0.657   4.105   5.998 -0.3585 -1.3423  1.2932
14330TIP3    H264406   0.640   4.131   6.146 -0.7142  0.8415  0.8942
14331TIP3   OH264407   3.596   6.411  16.175 -0.3929 -0.0154 -0.4899
14331TIP3    H164408   3.640   6.332  16.144 -1.5225 -0.9697  0.2541
14331TIP3    H264409   3.558   6.450  16.096 -0.0699 -0.3619 -0.8203
14332TIP3   OH264410   0.357   4.627  11.796 -0.4825  0.5378  0.0313
14332TIP3    H164411   0.324   4.589  11.877  2.5962 -0.3894  0.9984
14332TIP3    H264412   0.377   4.718  11.818  0.9119  0.1314  0.5694
14333TIP3   OH264413   2.039   0.026   5.436 -0.3067  0.1858 -0.1067
14333TIP3    H164414   1.956   0.067   5.461  0.4954  1.3660  0.7517
14333TIP3    H264415   2.056  -0.038   5.505 -0.6211 -0.2495 -0.4265
14334TIP3   OH264416   6.163   0.206  16.355 -0.4135 -0.2066 -0.5943
14334TIP3    H164417   6.208   0.195  16.439  0.6142  1.6032 -0.8491
14334TIP3    H264418   6.225   0.172  16.290 -0.0046  0.9664 -0.8317
14335TIP3   OH264419   6.512   5.876   3.371 -0.5245  0.2752 -0.6769
14335TIP3    H164420   6.440   5.876   3.308  0.2282 -2.1640 -1.6923
14335TIP3    H264421   6.591   5.874   3.317  0.2609  0.9732  0.3950
14336TIP3   OH264422   5.418   0.873  10.179 -0.3823  0.2763  0.1552
14336TIP3    H164423   5.401   0.955  10.132 -1.6876 -0.7961 -1.3621
14336TIP3    H264424   5.371   0.807  10.129  1.2035 -1.5388  0.9469
14337TIP3   OH264425   2.837   2.306  14.931  0.2962 -0.0246  0.0397
14337TIP3    H164426   2.781   2.297  14.853  0.4612  1.6117 -0.3033
14337TIP3    H264427   2.834   2.220  14.973 -1.2241 -0.4228 -0.8183
14338TIP3   OH264428   0.461   4.013   2.078 -0.1166  0.0663  0.3589
14338TIP3    H164429   0.370   3.982   2.081  0.1496 -0.9747 -1.1468
14338TIP3    H264430   0.497   3.988   2.163 -0.2576 -2.8343 -0.3287
14339TIP3   OH264431   4.194   0.437   1.098 -0.3134  0.4233 -0.7269
14339TIP3    H164432   4.179   0.368   1.033 -0.1479  0.2275 -0.5570
14339TIP3    H264433   4.275   0.411   1.143 -0.4063  0.5790 -0.4677
14340TIP3   OH264434   6.252   0.853   5.054  0.7528 -0.5910 -0.5573
14340TIP3    H164435   6.265   0.775   5.000 -1.7295 -0.8818 -0.8435
14340TIP3    H264436   6.224   0.819   5.139  0.6849 -0.0409 -0.3559
14341TIP3   OH264437   2.309   5.233   3.680 -0.0857  0.6340  0.2610
14341TIP3    H164438   2.393   5.223   3.725 -0.9555  3.7434  2.8812
14341TIP3    H264439   2.323   5.306   3.620 -0.0718 -1.0036 -1.8498
14342TIP3   OH264440   3.143   1.349  16.990  0.0718  0.2886  0.3079
14342TIP3    H164441   3.234   1.330  16.967 -0.3049 -0.1647 -0.8707
14342TIP3    H264442   3.147   1.381  17.080  1.3463 -0.1364  0.4155
14343TIP3   OH264443   1.368   0.977   5.614 -0.0107  0.3934 -0.2977
14343TIP3    H164444   1.439   0.936   5.662 -0.3633 -0.0290 -0.1302
14343TIP3    H264445   1.403   0.992   5.526  1.2209  2.6946  0.5067
14344TIP3   OH264446   3.229   2.536  15.020 -0.0943 -0.0258 -0.3068
14344TIP3    H164447   3.303   2.526  15.080 -0.1283 -0.1551 -0.2854
14344TIP3    H264448   3.171   2.462  15.041 -0.2985  0.1553 -0.2254
14345TIP3   OH264449   1.280   0.251  13.037 -0.2528 -0.0382 -0.0287
14345TIP3    H164450   1.292   0.156  13.034 -1.9069 -0.2620 -2.1469
14345TIP3    H264451   1.357   0.286  12.993  0.3370 -0.3806  0.7100
14346TIP3   OH264452   5.752   0.222  15.578  0.1115 -0.0271  0.0282
14346TIP3    H164453   5.675   0.265  15.540  0.0549  0.0573  0.2402
14346TIP3    H264454   5.763   0.263  15.664  0.1500 -0.3274  0.1666
14347TIP3   OH264455   1.574   5.986  15.287  0.0907 -0.2641 -0.0876
14347TIP3    H164456   1.486   6.011  15.316  0.1851  2.0469 -1.5324
14347TIP3    H264457   1.602   5.919  15.350 -1.5422  1.0459  2.2130
14348TIP3   OH264458   3.853   0.610  13.779 -0.1493  0.5222  0.4745
14348TIP3    H164459   3.905   0.539  13.816 -1.0087 -0.6034 -0.4146
14348TIP3    H264460   3.912   0.653  13.717 -0.5536 -1.5078 -1.4434
14349TIP3   OH264461   5.464   6.401   5.927 -1.1869  0.2277  0.4592
14349TIP3    H164462   5.375   6.411   5.895 -0.7131  1.0428 -0.6779
14349TIP3    H264463   5.516   6.383   5.848  0.2720  3.8885  0.3877
14350TIP3   OH264464   2.522   4.090   2.539  0.3368  0.6541 -0.0700
14350TIP3    H164465   2.488   4.156   2.478  2.3523 -0.4726 -2.6265
14350TIP3    H264466   2.599   4.131   2.577  0.8573  0.2655 -0.6866
14351TIP3   OH264467   3.027   5.894  12.460 -0.6298  0.0573  0.2279
14351TIP3    H164468   3.104   5.885  12.516  0.9026 -0.1811 -1.8106
14351TIP3    H264469   3.011   5.989  12.456  0.1678  0.1899 -0.0755
14352TIP3   OH264470   4.512   0.284   2.685  0.5892 -0.1057  0.3447
14352TIP3    H164471   4.595   0.286   2.637  2.3233  2.4177  3.1383
14352TIP3    H264472   4.520   0.209   2.744  0.9560  0.1967  0.6849
14353TIP3   OH264473   4.471   5.469   1.846 -0.1170 -0.4619  0.4409
14353TIP3    H164474   4.542   5.530   1.826 -0.8444  0.2047 -0.2278
14353TIP3    H264475   4.425   5.459   1.763 -1.0137 -0.5988  0.9416
14354TIP3   OH264476   3.238   3.891  16.631 -0.3570 -0.1129 -0.4118
14354TIP3    H164477   3.179   3.819  16.609 -1.1843 -0.2583  1.9822
14354TIP3    H264478   3.303   3.891  16.561 -0.8059 -2.6676 -0.9215
14355TIP3   OH264479   5.377   3.410  15.173  0.2339  0.5030 -0.4063
14355TIP3    H164480   5.325   3.476  15.127  0.0003  1.4481  1.1388
14355TIP3    H264481   5.389   3.340  15.109  0.1683  1.8745 -1.9714
14356TIP3   OH264482   2.748   1.027  16.994  0.2381 -0.1854  0.1340
14356TIP3    H164483   2.805   1.078  17.052 -1.0591  0.0560  1.2360
14356TIP3    H264484   2.755   0.937  17.027  0.3471 -0.2407 -0.0378
14357TIP3   OH264485   3.296   6.534  12.017  0.1062 -0.5181  0.7240
14357TIP3    H164486   3.339   6.565  12.097  0.7581  0.1171  0.1460
14357TIP3    H264487   3.221   6.484  12.048  0.7121 -0.8279  1.7471
14358TIP3   OH264488   6.049   4.100  15.507  0.2922  0.2240 -0.6102
14358TIP3    H164489   6.070   4.169  15.444 -1.3262  0.8525 -0.5126
14358TIP3    H264490   5.953   4.099  15.511  0.2915  0.8226  2.4922
14359TIP3   OH264491   4.971   4.057  11.855  0.9734  0.1832 -0.2206
14359TIP3    H164492   5.018   3.986  11.810  1.2332  1.2483 -1.7239
14359TIP3    H264493   5.038   4.125  11.868  0.2374  1.0654 -0.9085
14360TIP3   OH264494   3.099   0.522  14.952 -0.1771 -0.2177 -0.6858
14360TIP3    H164495   3.111   0.596  14.893 -0.7584  1.5077  1.2350
14360TIP3    H264496   3.181   0.516  15.000 -0.1965 -0.6989 -0.7104
14361TIP3   OH264497   4.876   6.636   4.894  0.2224 -0.1382 -0.5926
14361TIP3    H164498   4.936   6.707   4.917  0.1498  0.1717 -1.3342
14361TIP3    H264499   4.831   6.667   4.815 -0.2002 -0.7820 -0.6133
14362TIP3   OH264500   1.291   3.238   5.996 -0.2332 -0.1964  0.0283
14362TIP3    H164501   1.348   3.241   6.073 -1.0255  1.4763  0.6134
14362TIP3    H264502   1.203   3.231   6.032 -0.5508 -0.3318 -0.7591
14363TIP3   OH264503   1.810   6.062  15.094  0.1666  0.3484 -0.0878
14363TIP3    H164504   1.896   6.071  15.136  0.9352 -0.4603 -1.4050
14363TIP3    H264505   1.748   6.058  15.166  1.2013  1.3137  0.8859
14364TIP3   OH264506   6.547   2.710  15.252 -0.3039 -0.4915 -0.1909
14364TIP3    H164507   6.590   2.652  15.190  0.3625  0.1921 -0.3858
14364TIP3    H264508   6.563   2.670  15.337 -0.2633 -0.8465 -0.3626
14365TIP3   OH264509   5.203   6.296  12.377 -0.1765 -0.2554 -0.2301
14365TIP3    H164510   5.144   6.256  12.313 -2.0254 -0.8967  1.7575
14365TIP3    H264511   5.275   6.234  12.384 -0.9815 -1.2209 -0.1939
14366TIP3   OH264512   4.205   1.425   5.732  0.2718  0.3785 -0.2829
14366TIP3    H164513   4.129   1.470   5.767  1.2056 -0.3672  3.0104
14366TIP3    H264514   4.178   1.334   5.724  1.2997 -0.3734  3.1347
14367TIP3   OH264515   6.279   6.746   1.660 -0.2855 -0.1418  0.2375
14367TIP3    H164516   6.207   6.784   1.610  0.2390  0.4802 -0.0699
14367TIP3    H264517   6.314   6.677   1.604 -0.7340 -0.5528  0.4551
14368TIP3   OH264518   2.711   3.826   2.273 -0.2289 -0.5730  0.6244
14368TIP3    H164519   2.632   3.773   2.276  0.7181 -2.2116 -1.2555
14368TIP3    H264520   2.745   3.825   2.363 -0.8864 -2.1309  0.8767
14369TIP3   OH264521   1.841   2.446   2.942  0.9650 -0.3776 -0.0196
14369TIP3    H164522   1.801   2.385   3.004  2.1649  1.0507  2.2984
14369TIP3    H264523   1.935   2.439   2.958  1.1904  1.3483 -0.3403
14370TIP3   OH264524   2.928   0.012   3.386  0.4339 -0.3447 -0.9851
14370TIP3    H164525   2.905  -0.080   3.394  1.2439 -0.5065 -0.3744
14370TIP3    H264526   3.010   0.013   3.337  0.2041  0.0849 -1.3726
14371TIP3   OH264527   2.411   1.372  15.163 -0.4179 -0.1701  0.2006
14371TIP3    H164528   2.337   1.316  15.140 -1.5479  1.8043 -1.2704
14371TIP3    H264529   2.371   1.450  15.202  0.7796  1.2262 -1.2164
14372TIP3   OH264530   3.172   3.961  11.984  0.3854  0.3301  0.3440
14372TIP3    H164531   3.216   4.046  11.989  1.6275 -0.0597 -2.3039
14372TIP3    H264532   3.238   3.901  11.950 -1.4977 -0.8468 -1.4595
14373TIP3   OH264533   3.298   6.546   0.257 -0.1853 -0.0709  0.4489
14373TIP3    H164534   3.312   6.611   0.327 -1.0165 -1.6771  2.2037
14373TIP3    H264535   3.206   6.556   0.233 -0.6353 -1.2697  1.5303
14374TIP3   OH264536   4.990   4.330   3.084  0.5586  0.1308 -0.8155
14374TIP3    H164537   4.923   4.287   3.031 -1.8606  3.4243 -0.7912
14374TIP3    H264538   4.989   4.421   3.054  1.4656  1.4101  2.5752
14375TIP3   OH264539   2.293   2.208  15.455 -0.2066 -0.3635 -0.1947
14375TIP3    H164540   2.297   2.156  15.375  0.6307 -0.1445 -0.2985
14375TIP3    H264541   2.366   2.177  15.508 -0.3759 -0.0666  0.2197
14376TIP3   OH264542   0.729   2.446  16.837  0.0637  0.4035 -0.5932
14376TIP3    H164543   0.736   2.380  16.906 -2.9607 -0.0225 -0.5347
14376TIP3    H264544   0.742   2.397  16.756 -0.3129  0.0697 -0.4606
14377TIP3   OH264545   2.865   6.253   0.928 -0.9659  0.0706 -0.4159
14377TIP3    H164546   2.854   6.341   0.891  2.3802  0.7009 -0.2010
14377TIP3    H264547   2.910   6.203   0.860  1.4461  0.0159  1.0881
14378TIP3   OH264548   1.265   6.780   1.909 -0.4468 -0.2752 -0.3084
14378TIP3    H164549   1.347   6.764   1.956 -0.2416  2.6395  0.5119
14378TIP3    H264550   1.283   6.752   1.819  1.9675  1.4637 -0.4840
14379TIP3   OH264551   0.603   0.548  12.102 -0.0027  0.6958  0.4435
14379TIP3    H164552   0.536   0.518  12.040  1.5812 -0.5520 -0.7265
14379TIP3    H264553   0.555   0.605  12.163 -1.9859  0.3824 -0.7422
14380TIP3   OH264554   1.191   2.907  13.555 -0.3928  0.4144  0.4681
14380TIP3    H164555   1.193   2.812  13.558  1.1332  0.2704 -1.9426
14380TIP3    H264556   1.253   2.935  13.623  1.9647 -0.5340 -1.1574
14381TIP3   OH264557   6.515   2.413  14.507 -0.2147 -0.2317  0.1569
14381TIP3    H164558   6.609   2.395  14.500 -0.3020 -0.5561 -0.2745
14381TIP3    H264559   6.508   2.507  14.493 -0.0247 -0.3331 -0.7054
14382TIP3   OH264560   0.035   1.114  15.965  0.1671 -0.1953  0.3794
14382TIP3    H164561   0.026   1.031  16.012  1.2725  1.0363  2.8949
14382TIP3    H264562   0.125   1.113  15.932 -0.2948 -0.6122 -0.9453
14383TIP3   OH264563   2.575   2.985   4.292 -0.0183 -0.1880 -0.0425
14383TIP3    H164564   2.656   2.988   4.242 -0.1927  1.3019 -0.2705
14383TIP3    H264565   2.603   2.989   4.384  0.1671  0.8060 -0.1312
14384TIP3   OH264566   5.585   2.476  11.802 -0.0988 -0.2062  0.5800
14384TIP3    H164567   5.518   2.540  11.826 -0.2160 -0.3110  0.5320
14384TIP3    H264568   5.627   2.514  11.724 -2.1791 -1.5816 -1.3266
14385TIP3   OH264569   2.028   0.484   5.037  0.6408  0.0750  0.0149
14385TIP3    H164570   2.072   0.490   5.122 -2.4087 -0.4884  1.7961
14385TIP3    H264571   1.937   0.468   5.059 -0.0800 -1.4310 -3.4359
14386TIP3   OH264572   4.771   3.008  15.602 -0.2896  0.3820 -0.1423
14386TIP3    H164573   4.815   2.979  15.522 -0.8036  0.1522 -0.3486
14386TIP3    H264574   4.760   3.102  15.591  1.6470  0.7276  0.6574
14387TIP3   OH264575   5.975   5.862  15.590 -0.3519  0.8765 -0.0179
14387TIP3    H164576   5.920   5.821  15.524  0.1449  1.6058 -0.9081
14387TIP3    H264577   6.063   5.860  15.554  0.5883 -1.8062  2.1051
14388TIP3   OH264578   5.031   4.359   1.762  0.1576  0.0717 -0.4815
14388TIP3    H164579   4.964   4.328   1.700  1.9544 -0.0828 -2.4622
14388TIP3    H264580   5.053   4.282   1.814 -1.5514  0.2585  0.5761
14389TIP3   OH264581   1.443   5.954   1.007 -0.7975  0.4067  0.7362
14389TIP3    H164582   1.410   5.896   1.076 -1.9271 -0.6242 -0.6223
14389TIP3    H264583   1.515   5.905   0.967  0.0399  1.1225  1.3178
14390TIP3   OH264584   2.522   0.004   1.430  0.1365 -0.1155  0.1246
14390TIP3    H164585   2.492  -0.061   1.366  0.1364  0.0338 -0.0278
14390TIP3    H264586   2.515   0.088   1.384  0.3089 -0.0272  0.2603
14391TIP3   OH264587   3.667   1.676  14.845 -0.0093 -0.4084  0.0950
14391TIP3    H164588   3.729   1.679  14.918 -2.0645  3.1613  1.9863
14391TIP3    H264589   3.582   1.667  14.887 -1.1340 -0.2087 -2.0253
14392TIP3   OH264590   0.858   0.929   2.601  0.3315 -0.3232  0.3554
14392TIP3    H164591   0.950   0.956   2.605 -0.2842  2.6323 -1.8326
14392TIP3    H264592   0.809   1.006   2.630 -1.5063 -2.0650  2.1652
14393TIP3   OH264593   5.611   4.458   2.284  0.0566  0.2864 -0.5081
14393TIP3    H164594   5.597   4.551   2.263  2.0368  0.5757 -0.6985
14393TIP3    H264595   5.698   4.455   2.324 -1.4660 -0.9346  3.2273
14394TIP3   OH264596   2.042   5.973  16.798 -0.2522 -0.0312 -0.3789
14394TIP3    H164597   2.085   5.951  16.716 -2.2342 -0.6280 -1.3074
14394TIP3    H264598   2.024   5.889  16.840 -0.8196  0.1855 -0.1753
14395TIP3   OH264599   0.402   6.009  13.153  0.3650 -0.0816  0.3102
14395TIP3    H164600   0.487   5.984  13.188  0.3187 -0.3193  0.2546
14395TIP3    H264601   0.351   6.037  13.229  0.0997 -1.0578  0.5098
14396TIP3   OH264602   5.131   0.300  16.958 -0.3293 -0.3632 -0.0621
14396TIP3    H164603   5.210   0.351  16.941 -0.3904  0.3790  1.6320
14396TIP3    H264604   5.163   0.212  16.979  0.0470 -0.1300  0.3623
14397TIP3   OH264605   3.857   1.935  14.175 -0.1274  0.3690  0.1323
14397TIP3    H164606   3.937   1.986  14.184  0.7531 -0.9314 -0.1225
14397TIP3    H264607   3.842   1.929  14.081 -0.9468  1.1952  0.1855
14398TIP3   OH264608   1.559   0.683  12.363 -0.2831 -0.6260  0.1684
14398TIP3    H164609   1.577   0.712  12.274 -1.9622  0.0923  0.0208
14398TIP3    H264610   1.644   0.684  12.407  0.1993  1.6544 -0.6721
14399TIP3   OH264611   4.468   3.177   2.341  0.3600  0.0856  0.3664
14399TIP3    H164612   4.504   3.229   2.269 -1.1903  0.9827  0.1681
14399TIP3    H264613   4.418   3.108   2.298 -0.7247  0.7346  0.5411
14400TIP3   OH264614   5.518   4.785  15.891 -0.2029  0.0258 -0.1966
14400TIP3    H164615   5.492   4.816  15.804 -1.5394  2.2800  0.8967
14400TIP3    H264616   5.469   4.704  15.903 -1.8023  0.8694 -0.7130
14401TIP3   OH264617   4.407   1.430   3.760  0.0498 -0.3244  0.5809
14401TIP3    H164618   4.467   1.359   3.783  1.5786  0.7110 -0.0857
14401TIP3    H264619   4.383   1.469   3.844  2.2972  0.7978  0.7682
14402TIP3   OH264620   5.786   1.096  17.143 -0.3484 -0.5016  0.2904
14402TIP3    H164621   5.704   1.130  17.179 -0.5008 -0.9361  0.3623
14402TIP3    H264622   5.770   1.091  17.048 -0.5430 -0.9546  0.3459
14403TIP3   OH264623   6.384   1.912   2.068 -0.1194 -0.1365  0.1544
14403TIP3    H164624   6.377   1.817   2.064 -0.5871 -0.0824 -0.4143
14403TIP3    H264625   6.319   1.938   2.133  1.3913 -0.3378  1.8449
14404TIP3   OH264626   0.735   1.370  13.704  0.1693  0.6282  0.2664
14404TIP3    H164627   0.701   1.460  13.714 -0.6373  0.2088  1.5812
14404TIP3    H264628   0.657   1.315  13.708  0.8498 -0.2797  1.8908
14405TIP3   OH264629   5.350   5.984  15.006 -0.4238 -0.3979  0.3609
14405TIP3    H164630   5.378   5.918  15.069  0.0485  1.4663  2.2051
14405TIP3    H264631   5.257   5.997  15.024 -0.1591  0.5547  1.1293
14406TIP3   OH264632   2.984   3.797  15.344 -0.1050 -0.2217 -0.8195
14406TIP3    H164633   3.006   3.714  15.302 -0.6446  1.0561 -3.9109
14406TIP3    H264634   3.048   3.859  15.310 -0.6517  0.9613  0.2107
14407TIP3   OH264635   5.047   6.227  12.894  0.0478  0.0023 -0.5394
14407TIP3    H164636   5.086   6.255  12.977 -2.2405  1.8359  0.0084
14407TIP3    H264637   5.051   6.305  12.838 -1.0268 -0.3449 -1.1257
14408TIP3   OH264638   3.153   0.814  12.932  0.0704 -0.8131 -0.3121
14408TIP3    H164639   3.175   0.889  12.987  0.6776 -2.8681  2.4707
14408TIP3    H264640   3.075   0.841  12.884 -0.0386  1.3742  0.9770
14409TIP3   OH264641   4.839   0.714   5.621  0.1334  0.7392  0.4948
14409TIP3    H164642   4.880   0.710   5.534  0.0629 -0.6812  0.4929
14409TIP3    H264643   4.745   0.717   5.603 -0.0153 -1.8133  0.4645
14410TIP3   OH264644   5.896   0.222   0.955 -0.0540  0.2091 -0.2892
14410TIP3    H164645   5.929   0.312   0.949 -2.7008  1.2498 -0.3458
14410TIP3    H264646   5.802   0.230   0.940 -0.8586 -2.2029  2.5513
14411TIP3   OH264647   4.632   5.659   5.655  0.5750  0.3215 -0.1469
14411TIP3    H164648   4.556   5.669   5.712  1.5189  0.6654  1.0839
14411TIP3    H264649   4.636   5.565   5.637  0.9147  0.0275  1.3098
14412TIP3   OH264650   6.693   3.498  14.311  0.5243 -0.0646  0.0267
14412TIP3    H164651   6.724   3.574  14.262  1.1358  0.1283  0.7126
14412TIP3    H264652   6.619   3.466  14.259 -0.5725  1.7411  0.3785
14413TIP3   OH264653   6.454   3.682  12.866  0.6931  0.2798 -0.1806
14413TIP3    H164654   6.449   3.600  12.914 -2.2514 -0.1406 -1.0114
14413TIP3    H264655   6.497   3.743  12.927 -0.8178 -0.8142  2.1129
14414TIP3   OH264656   6.338   6.213  15.507  0.1075  0.1392  0.2337
14414TIP3    H164657   6.389   6.206  15.588 -1.0312  1.4064  1.1276
14414TIP3    H264658   6.253   6.175  15.530 -0.2607  0.6168 -0.3261
14415TIP3   OH264659   3.201   4.831   1.026  0.0496  0.4145  0.3248
14415TIP3    H164660   3.191   4.776   1.104 -0.2839  0.1861  0.1217
14415TIP3    H264661   3.257   4.903   1.055 -0.0176  0.2959  0.7600
14416TIP3   OH264662   3.762   5.597   2.197 -0.1201  0.0311 -0.2092
14416TIP3    H164663   3.715   5.649   2.262  0.2953  0.0667  0.0661
14416TIP3    H264664   3.836   5.651   2.172 -0.5015  0.1899 -1.0254
14417TIP3   OH264665   1.245   3.073   6.304  0.9828  0.4574 -0.1583
14417TIP3    H164666   1.255   3.151   6.358  2.7016 -0.0156  0.2828
14417TIP3    H264667   1.322   3.020   6.325 -0.3836 -1.6021 -0.0431
14418TIP3   OH264668   3.467   6.175  13.749  0.1883  0.4104 -0.0076
14418TIP3    H164669   3.427   6.091  13.772 -0.5140  0.4613 -0.9733
14418TIP3    H264670   3.458   6.229  13.828 -0.6152  0.0394  0.1576
14419TIP3   OH264671   4.616   6.714   4.135  0.5264  0.3708 -0.2064
14419TIP3    H164672   4.660   6.651   4.192 -0.2341  1.8095  2.1309
14419TIP3    H264673   4.687   6.760   4.090  1.1330 -1.0160 -0.7340
14420TIP3   OH264674   2.931   0.651   4.503  0.4584  0.2574  0.0875
14420TIP3    H164675   2.903   0.710   4.573  2.4930  1.0215  0.3217
14420TIP3    H264676   2.942   0.708   4.427  1.2290 -0.0294 -0.0242
14421TIP3   OH264677   5.588   2.211   1.312  0.0928  0.1565  0.9077
14421TIP3    H164678   5.618   2.121   1.325  1.9398  0.5408 -0.3111
14421TIP3    H264679   5.566   2.242   1.400 -0.5915 -1.4565  1.3487
14422TIP3   OH264680   4.434   5.255  12.312  0.6858  0.4241 -0.4864
14422TIP3    H164681   4.400   5.257  12.222 -0.6841  3.8863 -0.0790
14422TIP3    H264682   4.526   5.234  12.303  0.3502 -0.3700 -2.5877
14423TIP3   OH264683   1.053   6.349  13.514 -0.2652 -0.9985 -0.1246
14423TIP3    H164684   1.111   6.387  13.448 -1.4729 -1.2072 -1.3465
14423TIP3    H264685   0.965   6.356  13.476 -1.5611  2.2282  2.9556
14424TIP3   OH264686   2.361   4.840   3.565  0.0599  0.2503 -0.3467
14424TIP3    H164687   2.354   4.894   3.644  0.6568  0.5089 -0.4642
14424TIP3    H264688   2.371   4.750   3.598 -0.8722  0.2127 -0.1493
14425TIP3   OH264689   6.205   4.061   0.058 -0.4697  0.1858 -0.6028
14425TIP3    H164690   6.180   3.973   0.086  1.1299 -0.6965 -1.7794
14425TIP3    H264691   6.127   4.095   0.014 -0.5963 -1.3560 -1.6720
14426TIP3   OH264692   3.779   5.670  13.567  0.0861 -0.2495  0.3798
14426TIP3    H164693   3.724   5.726  13.512  1.4320  0.7165 -0.0264
14426TIP3    H264694   3.777   5.585  13.522  1.9125  0.7432 -1.7943
14427TIP3   OH264695   6.232   2.017  16.031 -0.0046  0.5730 -0.8554
14427TIP3    H164696   6.271   1.936  15.998  1.4769  1.1856 -0.6927
14427TIP3    H264697   6.230   2.075  15.955 -2.1306  0.0431 -1.2538
14428TIP3   OH264698   0.969   0.987  16.075 -0.1540  0.1927 -0.5297
14428TIP3    H164699   1.055   1.013  16.042  0.5997  0.5718  1.5797
14428TIP3    H264700   0.951   1.049  16.146 -2.6442  0.7444 -1.5144
14429TIP3   OH264701   2.480   5.430   1.750  0.4791  0.3991  0.3594
14429TIP3    H164702   2.498   5.362   1.815 -0.6635 -0.9906 -0.6792
14429TIP3    H264703   2.395   5.404   1.712  2.0175 -0.1518 -3.1494
14430TIP3   OH264704   0.933   4.276  13.349  0.5102  0.0766 -0.2288
14430TIP3    H164705   0.996   4.298  13.281  0.8388 -1.1086 -0.3368
14430TIP3    H264706   0.858   4.332  13.332  0.3142 -0.6623 -2.0057
14431TIP3   OH264707   0.017   3.917  14.209 -0.1051  0.6139 -1.0072
14431TIP3    H164708  -0.070   3.944  14.238  0.5171  1.4510  0.1616
14431TIP3    H264709   0.035   3.974  14.134  0.5312  2.4295  0.4520
14432TIP3   OH264710   5.073   3.295   1.093 -0.0019 -0.4086 -0.2055
14432TIP3    H164711   5.091   3.386   1.067 -0.6197 -0.2852 -0.2128
14432TIP3    H264712   5.160   3.257   1.107  0.2415  0.6662  1.4410
14433TIP3   OH264713   2.217   0.765   2.748 -0.4411  0.2679 -0.0001
14433TIP3    H164714   2.192   0.746   2.658 -1.8368  1.0905  0.1991
14433TIP3    H264715   2.302   0.722   2.758  0.1016  0.7873 -1.9284
14434TIP3   OH264716   6.713   1.490   1.944  0.1991  0.1913 -0.0323
14434TIP3    H164717   6.743   1.468   1.856  0.8642 -0.9640  0.4571
14434TIP3    H264718   6.756   1.574   1.964  0.0065  0.4813 -0.8106
14435TIP3   OH264719   4.877   4.685  15.091 -0.2652 -0.3871  0.4927
14435TIP3    H164720   4.842   4.655  15.007 -0.0932  0.0678  0.2518
14435TIP3    H264721   4.968   4.655  15.091 -0.1608 -0.0745  0.3544
14436TIP3   OH264722   3.073   5.531  11.738 -0.0936 -0.0407 -0.0739
14436TIP3    H164723   3.145   5.512  11.678 -0.0081  3.1254 -1.1722
14436TIP3    H264724   3.016   5.455  11.732  2.6345 -2.2561  0.1367
14437TIP3   OH264725   5.763   1.756   2.277  0.2171 -0.1801  0.0724
14437TIP3    H164726   5.798   1.830   2.327  1.4511 -0.7943  0.1382
14437TIP3    H264727   5.687   1.727   2.328  1.5361 -0.8893  1.7387
14438TIP3   OH264728   2.423   0.716   5.151  0.2882 -0.3599  0.6169
14438TIP3    H164729   2.481   0.641   5.165  1.2273  0.3821  0.8190
14438TIP3    H264730   2.370   0.692   5.075  0.0561 -1.5238  1.1257
14439TIP3   OH264731   1.011   2.509   5.507 -0.4317  0.4459 -0.1286
14439TIP3    H164732   1.073   2.437   5.518 -1.7157 -0.8259 -0.9021
14439TIP3    H264733   1.005   2.550   5.593  1.0799  0.2830  0.0698
14440TIP3   OH264734   4.570   0.204  12.390  0.1794 -0.2336  0.1332
14440TIP3    H164735   4.498   0.246  12.343 -0.8703  0.0895  1.9392
14440TIP3    H264736   4.612   0.148  12.324 -0.2817  1.2984 -1.5459
14441TIP3   OH264737   2.640   0.168   0.406 -0.1094  0.4570 -0.0884
14441TIP3    H164738   2.579   0.220   0.458 -1.1718  0.7759 -1.5769
14441TIP3    H264739   2.705   0.138   0.469 -1.8476  0.0100  1.5984
14442TIP3   OH264740   2.629   3.881   4.088  0.7235 -0.9992 -0.1447
14442TIP3    H164741   2.551   3.885   4.143 -0.5864 -1.3737 -1.8763
14442TIP3    H264742   2.694   3.834   4.140  0.1656  0.2343  1.7366
14443TIP3   OH264743   5.318   1.243   2.371  0.1605 -0.1605  0.1980
14443TIP3    H164744   5.320   1.201   2.285 -0.1333  0.1862  0.0160
14443TIP3    H264745   5.249   1.310   2.363  1.1201  0.8666  0.2288
14444TIP3   OH264746   4.543   1.822  14.967  0.1948  0.3213 -0.1386
14444TIP3    H164747   4.599   1.780  15.032 -1.4119  1.1509  1.8875
14444TIP3    H264748   4.456   1.789  14.985 -0.4760  1.4612 -1.1303
14445TIP3   OH264749   6.547   4.309   4.026  0.1415 -0.9545  0.3596
14445TIP3    H164750   6.611   4.265   4.082  0.9658 -0.1561  0.0690
14445TIP3    H264751   6.488   4.352   4.088  1.2676  0.2316  0.6587
14446TIP3   OH264752   6.327   2.433  16.921  0.1995  0.6442  0.0172
14446TIP3    H164753   6.376   2.507  16.957 -1.9143  1.8263  0.6027
14446TIP3    H264754   6.292   2.388  16.997 -0.0284  0.1026 -0.4065
14447TIP3   OH264755   4.333   0.176  15.416  0.2451 -0.0664 -0.1186
14447TIP3    H164756   4.354   0.113  15.485  0.0522  0.0412  0.0391
14447TIP3    H264757   4.281   0.243  15.460  1.1916  0.6683 -0.0978
14448TIP3   OH264758   6.149   5.689  16.837  0.2187 -0.7074  0.4358
14448TIP3    H164759   6.056   5.680  16.814  0.4430 -0.2686 -0.6988
14448TIP3    H264760   6.183   5.752  16.773  1.4228 -1.2528  0.5258
14449TIP3   OH264761   0.276   1.159   4.989  0.0849  0.4428  0.0085
14449TIP3    H164762   0.254   1.210   4.911 -0.3043  2.0763  1.1207
14449TIP3    H264763   0.364   1.189   5.013 -0.0943  0.5050  0.6008
14450TIP3   OH264764   5.374   2.760   3.907 -0.0118 -0.1719  0.4868
14450TIP3    H164765   5.366   2.688   3.969 -2.0529 -0.5868 -0.1751
14450TIP3    H264766   5.435   2.727   3.840 -1.3482 -1.5846 -0.1118
14451TIP3   OH264767   6.016   1.764  10.246 -0.2041  0.0737  0.0150
14451TIP3    H164768   6.061   1.686  10.212 -1.1108 -0.2313 -0.5298
14451TIP3    H264769   5.968   1.799  10.171  0.0443  1.0593  0.3009
14452TIP3   OH264770   5.544   6.164  11.535  0.1642 -0.3066 -0.6729
14452TIP3    H164771   5.522   6.071  11.526 -1.6449  0.1465 -1.4631
14452TIP3    H264772   5.506   6.204  11.457  0.1068  1.2348  0.1244
14453TIP3   OH264773   3.093   5.095  11.228 -0.0932  0.7054  0.2688
14453TIP3    H164774   3.119   5.003  11.237  2.5141  1.3629  0.3672
14453TIP3    H264775   3.052   5.100  11.142  1.2297 -0.2612 -0.4483
14454TIP3   OH264776   0.714   5.434  13.895  0.1047 -0.4793  0.3768
14454TIP3    H164777   0.660   5.380  13.952  0.6495 -1.8834 -0.3806
14454TIP3    H264778   0.665   5.440  13.813 -1.8707  3.5922  1.6066
14455TIP3   OH264779   4.195   3.778   2.775  0.1956  0.1597  0.1692
14455TIP3    H164780   4.244   3.716   2.830  0.6790 -2.8476 -3.2406
14455TIP3    H264781   4.258   3.846   2.753  0.6960  0.0921  1.3254
14456TIP3   OH264782   2.522   2.164  13.003 -0.0749 -0.3587  0.2071
14456TIP3    H164783   2.599   2.160  13.061  0.3497  1.4282 -0.1595
14456TIP3    H264784   2.465   2.229  13.044 -1.1192 -1.2061  0.1305
14457TIP3   OH264785   0.256   1.486   5.195  0.0455 -0.2043 -0.0190
14457TIP3    H164786   0.331   1.540   5.172  0.3344 -0.3847  0.4851
14457TIP3    H264787   0.182   1.547   5.198 -0.2330 -0.3262 -2.4439
14458TIP3   OH264788   0.019   4.966   2.920  0.1782  0.4376  0.9788
14458TIP3    H164789   0.024   5.001   2.832 -0.8383 -0.0737  0.7005
14458TIP3    H264790   0.056   5.034   2.976 -0.5422  1.3945  0.3106
14459TIP3   OH264791   3.858   0.174  16.084  0.5120 -0.0277  0.1895
14459TIP3    H164792   3.823   0.182  16.173  1.3030  1.4616  0.3897
14459TIP3    H264793   3.789   0.129  16.036 -2.0887  3.3498  0.3842
14460TIP3   OH264794   4.674   0.991  13.401 -0.6588  0.1460 -0.1699
14460TIP3    H164795   4.706   0.915  13.352 -1.6066 -2.0235  2.3510
14460TIP3    H264796   4.744   1.010  13.463 -1.5410 -0.5732  1.1045
14461TIP3   OH264797   6.009   6.415  15.747  0.3420 -0.8226 -0.1352
14461TIP3    H164798   6.071   6.481  15.779 -0.6858  0.3922 -0.5687
14461TIP3    H264799   5.989   6.442  15.658 -3.8999  1.3036  1.1907
14462TIP3   OH264800   0.272   2.799  11.814 -0.3564 -0.4909  0.3245
14462TIP3    H164801   0.182   2.833  11.818  0.3322  1.3216  2.0989
14462TIP3    H264802   0.270   2.736  11.742 -2.7795  0.2683 -0.3867
14463TIP3   OH264803   5.507   0.476  12.456  0.4975 -0.1084 -0.5377
14463TIP3    H164804   5.492   0.424  12.377  0.9858  1.9049 -2.0225
14463TIP3    H264805   5.569   0.544  12.429  1.1671  0.2764  1.7589
14464TIP3   OH264806   2.552   0.663  15.860  0.1421 -0.2802 -0.5277
14464TIP3    H164807   2.519   0.594  15.918 -0.6734 -1.2198 -2.0293
14464TIP3    H264808   2.602   0.721  15.917 -1.4418 -0.5971  1.2828
14465TIP3   OH264809   3.093   2.241   3.009  0.5082 -0.7483 -0.5857
14465TIP3    H164810   3.118   2.268   3.098  1.5458 -0.2010 -1.0224
14465TIP3    H264811   3.099   2.321   2.957  0.3733 -1.1607 -1.2457
14466TIP3   OH264812   1.453   5.236  12.645  0.3333  0.1670 -0.2083
14466TIP3    H164813   1.483   5.204  12.730 -0.7838 -3.0187 -0.8984
14466TIP3    H264814   1.505   5.316  12.631  2.4901 -0.6383  2.2458
14467TIP3   OH264815   5.655   1.685   5.982  0.1973  0.0262  0.4504
14467TIP3    H164816   5.703   1.604   5.995 -0.4242 -0.2682  0.9941
14467TIP3    H264817   5.721   1.749   5.955  0.4212 -1.1095 -1.9326
14468TIP3   OH264818   1.334   2.404   1.794 -0.2300 -0.5366  0.2261
14468TIP3    H164819   1.353   2.343   1.865 -0.1561 -1.0494 -0.2192
14468TIP3    H264820   1.274   2.356   1.737 -0.3703 -0.0954  0.0027
14469TIP3   OH264821   1.503   1.465  16.434  0.1842 -0.3462 -0.2641
14469TIP3    H164822   1.544   1.545  16.401  1.3505 -0.5854  0.5417
14469TIP3    H264823   1.560   1.436  16.505 -0.6571 -1.4612 -0.0087
14470TIP3   OH264824   1.628   2.383  14.519 -0.4869  0.6060  0.5185
14470TIP3    H164825   1.591   2.296  14.533 -0.8673  0.8571  1.1351
14470TIP3    H264826   1.686   2.397  14.595 -0.5826  0.9655  0.5262
14471TIP3   OH264827   6.765   0.809   2.753  0.6615  0.3486  0.1124
14471TIP3    H164828   6.815   0.777   2.678 -0.3855  0.1483 -0.5200
14471TIP3    H264829   6.673   0.795   2.729  0.2375  1.7999  0.7394
14472TIP3   OH264830   1.506   2.290  16.469  0.2019  0.0132  0.2111
14472TIP3    H164831   1.450   2.218  16.497  0.4412  0.6108  2.3396
14472TIP3    H264832   1.590   2.273  16.512  0.1753  1.7037  0.9641
14473TIP3   OH264833   6.230   1.212  11.191  0.1356  0.5057 -0.0440
14473TIP3    H164834   6.187   1.126  11.198  0.9704  0.1108  0.3851
14473TIP3    H264835   6.175   1.261  11.130  0.8242 -1.0907 -2.0911
14474TIP3   OH264836   1.594   5.360  15.043  0.2055  0.0690 -0.0612
14474TIP3    H164837   1.568   5.306  15.117  0.1867 -0.7584 -0.6569
14474TIP3    H264838   1.599   5.449  15.078  2.9508 -0.6437  1.6290
14475TIP3   OH264839   5.736   1.882   1.678 -0.0754 -0.0132 -0.5878
14475TIP3    H164840   5.711   1.953   1.619  0.0620  0.5328 -0.0014
14475TIP3    H264841   5.659   1.824   1.681  0.8832 -1.6560 -3.5730
14476TIP3   OH264842   4.282   3.968  11.275 -0.5536 -0.3473  0.1490
14476TIP3    H164843   4.189   3.952  11.260 -0.7460 -0.1062  1.0108
14476TIP3    H264844   4.317   3.881  11.297 -1.0908 -0.0803  2.2888
14477TIP3   OH264845   0.732   4.417   3.495  0.1033  0.0524  0.4133
14477TIP3    H164846   0.662   4.482   3.490 -0.0536 -0.1556 -0.2911
14477TIP3    H264847   0.810   4.464   3.465  0.2153  0.2181  0.9648
14478TIP3   OH264848   4.021   4.751   2.462  0.0854 -0.0044  0.1005
14478TIP3    H164849   4.021   4.677   2.401  1.7841 -1.7489  2.0920
14478TIP3    H264850   3.940   4.741   2.512  0.6687 -1.0271  0.8772
14479TIP3   OH264851   6.207   0.705   3.280 -0.2758  0.6031 -0.3378
14479TIP3    H164852   6.187   0.793   3.249 -2.6187  0.9156  1.7737
14479TIP3    H264853   6.134   0.682   3.338  1.6148 -1.6420  1.3665
14480TIP3   OH264854   4.898   2.024   0.908 -0.3522  0.0493  0.2119
14480TIP3    H164855   4.923   2.107   0.866  0.4968 -0.3685 -0.1186
14480TIP3    H264856   4.905   1.959   0.838 -2.2037 -0.1288  0.1427
14481TIP3   OH264857   1.428   1.550   0.418 -0.7262 -0.0062  0.1151
14481TIP3    H164858   1.473   1.612   0.475 -1.7612 -0.5873  1.6404
14481TIP3    H264859   1.476   1.468   0.429 -0.7541 -0.0522 -0.0936
14482TIP3   OH264860   6.311   2.679  13.472  0.3677 -0.0419 -0.4018
14482TIP3    H164861   6.349   2.627  13.543 -1.3151 -2.4716 -1.1700
14482TIP3    H264862   6.372   2.665  13.399  0.5847  0.1122 -0.2533
14483TIP3   OH264863   2.848   2.163   4.403  0.8164 -0.1236  0.2177
14483TIP3    H164864   2.914   2.122   4.346 -0.3335 -0.5921 -0.8152
14483TIP3    H264865   2.789   2.092   4.427 -0.6444  0.6967 -0.7899
14484TIP3   OH264866   5.049   0.444  12.154 -0.2078 -0.5802  0.3813
14484TIP3    H164867   4.985   0.424  12.222 -1.0106 -2.2411 -0.7808
14484TIP3    H264868   5.007   0.417  12.073  0.5435  1.7393 -0.8858
14485TIP3   OH264869   5.515   4.296  14.438  0.1067 -0.4445  0.4006
14485TIP3    H164870   5.525   4.239  14.362  1.5844  0.7209 -0.3382
14485TIP3    H264871   5.464   4.370  14.405  1.1300  0.2784  0.3727
14486TIP3   OH264872   6.754   0.475   3.676  0.0314 -0.2099 -0.0267
14486TIP3    H164873   6.719   0.389   3.653 -0.4791 -0.1622  0.5634
14486TIP3    H264874   6.715   0.534   3.611  0.0637 -0.3556 -0.1811
14487TIP3   OH264875   6.181   3.734   2.837 -0.0267 -0.1753  0.3174
14487TIP3    H164876   6.166   3.751   2.744  0.1553 -0.1032  0.3002
14487TIP3    H264877   6.275   3.750   2.849  0.2155 -1.4306  0.2366
14488TIP3   OH264878   3.157   3.448   2.191  0.3980 -0.6098 -0.0362
14488TIP3    H164879   3.194   3.395   2.121 -0.8311 -0.4176 -0.8437
14488TIP3    H264880   3.170   3.539   2.162  0.2359 -0.5192  0.1730
14489TIP3   OH264881   3.958   0.201   3.748 -0.1950 -0.0896  0.1664
14489TIP3    H164882   3.990   0.185   3.660 -2.2236 -1.6236 -0.3843
14489TIP3    H264883   3.892   0.270   3.737  0.7958  0.9752  0.7900
14490TIP3   OH264884   2.181   1.100   6.023  0.2152 -0.2548  0.1762
14490TIP3    H164885   2.168   1.185   6.063  2.0403 -0.8947  2.3429
14490TIP3    H264886   2.093   1.065   6.012 -0.4902  0.2265  3.2494
14491TIP3   OH264887   6.323   6.613  16.834  0.0530 -0.5330 -0.0870
14491TIP3    H164888   6.270   6.655  16.766 -0.0069  1.9498  1.3655
14491TIP3    H264889   6.273   6.627  16.914  1.6042 -0.5386  0.9079
14492TIP3   OH264890   0.165   6.375  14.454 -0.0935  0.2424 -0.1256
14492TIP3    H164891   0.234   6.380  14.520  1.3043  0.0950 -1.5259
14492TIP3    H264892   0.180   6.292  14.409 -0.9140  0.4205 -0.7549
14493TIP3   OH264893   5.763   1.316  10.801  0.3367  0.1499  0.1014
14493TIP3    H164894   5.804   1.239  10.761 -3.0565 -1.8613  0.0970
14493TIP3    H264895   5.727   1.365  10.727 -1.2954 -0.7147  0.2607
14494TIP3   OH264896   6.526   2.007   2.595 -0.4128  0.0084 -0.2268
14494TIP3    H164897   6.551   2.098   2.610 -1.3909  0.0430  1.4283
14494TIP3    H264898   6.605   1.957   2.613 -0.0350  0.4832 -0.5500
14495TIP3   OH264899   2.267   3.918   3.664  0.2173 -0.1532  0.1581
14495TIP3    H164900   2.303   3.992   3.615  0.8428 -0.7836 -0.3684
14495TIP3    H264901   2.244   3.954   3.749  2.1864  0.3012  0.5541
14496TIP3   OH264902   2.515   5.666   5.461 -0.1687  0.2430  0.0851
14496TIP3    H164903   2.609   5.653   5.474 -0.3456 -2.8997 -1.0633
14496TIP3    H264904   2.476   5.581   5.479 -2.6263  1.0279 -1.1147
14497TIP3   OH264905   0.774   0.196  10.949  0.0205 -0.1946  0.4835
14497TIP3    H164906   0.865   0.220  10.964  1.0545 -3.0457 -0.6269
14497TIP3    H264907   0.767   0.187  10.854 -1.2011 -0.7781  0.6121
14498TIP3   OH264908   4.340   6.364   2.205  0.4747  0.0923 -0.1738
14498TIP3    H164909   4.358   6.323   2.290 -0.5022 -0.3986 -0.1756
14498TIP3    H264910   4.383   6.306   2.141  0.3335 -0.1241 -0.0762
14499TIP3   OH264911   5.399   4.201   4.522 -0.8604 -0.1415 -0.5127
14499TIP3    H164912   5.451   4.134   4.568 -0.8288  1.3619  1.7895
14499TIP3    H264913   5.434   4.201   4.433  1.4378 -0.8669  0.3148
14500TIP3   OH264914   1.588   2.649  14.116 -0.0429  0.2689  0.2854
14500TIP3    H164915   1.652   2.579  14.131  1.4636  1.4660 -0.2962
14500TIP3    H264916   1.512   2.624  14.169  1.7385 -0.0752  2.8721
14501TIP3   OH264917   0.218   4.431  12.778 -0.1260 -0.1639 -0.1001
14501TIP3    H164918   0.255   4.504  12.729  0.4678  0.1471  0.7879
14501TIP3    H264919   0.285   4.362  12.773  0.2135  0.0878  0.7702
14502TIP3   OH264920   6.458   0.074  11.860  0.6293  0.2110 -0.4774
14502TIP3    H164921   6.405   0.000  11.829 -1.7245  0.9982  1.3370
14502TIP3    H264922   6.532   0.078  11.800  1.2303 -3.9657 -0.3292
14503TIP3   OH264923   0.954   1.509  14.334  0.6710 -0.5680  0.1128
14503TIP3    H164924   0.903   1.462  14.401  1.8541 -4.4514 -1.4044
14503TIP3    H264925   0.890   1.531  14.266  0.1578 -0.4619  0.6216
14504TIP3   OH264926   6.327   4.125  16.911 -0.1218  0.0868 -0.1227
14504TIP3    H164927   6.422   4.131  16.919 -0.2141  0.7680  0.6225
14504TIP3    H264928   6.295   4.213  16.932 -1.0168 -0.5867  1.5859
14505TIP3   OH264929   1.942   6.631   4.865  0.2904  0.1356  0.1401
14505TIP3    H164930   1.984   6.704   4.819 -0.4896 -0.1775 -1.1218
14505TIP3    H264931   1.848   6.648   4.854  0.0786  0.0514  1.6620
14506TIP3   OH264932   5.320   2.299  15.098  0.2480 -0.0009 -0.0262
14506TIP3    H164933   5.274   2.277  15.017  1.5648  2.4300 -1.5538
14506TIP3    H264934   5.413   2.293  15.075  0.6819 -0.6108  1.7393
14507TIP3   OH264935   0.318   4.303   6.339 -0.2052  0.0930 -0.2737
14507TIP3    H164936   0.313   4.294   6.244 -0.2177 -2.2483 -0.1007
14507TIP3    H264937   0.281   4.390   6.356 -1.6104 -0.0284 -2.2889
14508TIP3   OH264938   4.290   0.385   0.381  0.1155  0.3369  0.2199
14508TIP3    H164939   4.308   0.470   0.341  0.9119  0.9168  1.7593
14508TIP3    H264940   4.374   0.357   0.417 -0.4128 -0.5452  0.8008
14509TIP3   OH264941   1.850   0.965   0.525  0.4669  0.2415  1.1279
14509TIP3    H164942   1.944   0.950   0.523  0.5324  0.5870 -1.1700
14509TIP3    H264943   1.812   0.879   0.507  0.4101  0.3586  0.6665
14510TIP3   OH264944   1.063   1.373  13.261  0.3391 -0.7560  0.6030
14510TIP3    H164945   1.104   1.458  13.279  0.6262 -0.9547  0.9132
14510TIP3    H264946   1.136   1.311  13.268  0.1760 -0.9994  0.1409
14511TIP3   OH264947   6.097   6.140  15.595 -0.3757 -0.1948 -0.5438
14511TIP3    H164948   6.051   6.057  15.586 -1.9208  0.4502  0.8425
14511TIP3    H264949   6.094   6.159  15.688  1.1427  0.7873 -0.6625
14512TIP3   OH264950   6.652   5.902   5.235 -0.0495  0.0142 -0.7541
14512TIP3    H164951   6.667   5.914   5.329  0.1000 -2.8518 -0.3344
14512TIP3    H264952   6.557   5.901   5.225 -0.0901 -1.1381 -0.3702
14513TIP3   OH264953   1.654   4.537  15.918  0.1755 -0.0634  0.4118
14513TIP3    H164954   1.709   4.502  15.988  1.1144  0.8402  0.1311
14513TIP3    H264955   1.702   4.518  15.837  0.6339  1.7084  0.2384
14514TIP3   OH264956   3.886   1.200  16.445  0.5962 -0.1494 -0.0563
14514TIP3    H164957   3.903   1.186  16.352 -1.2390  1.0456 -0.6397
14514TIP3    H264958   3.855   1.115  16.477 -0.3200 -0.1776 -0.9619
14515TIP3   OH264959   5.329   3.107  17.235  0.2549 -0.3180 -0.5284
14515TIP3    H164960   5.299   3.021  17.265  0.3422  0.1133  0.8254
14515TIP3    H264961   5.410   3.123  17.283  0.8289  0.0687 -1.5774
14516TIP3   OH264962   1.898   3.759   6.607  0.1725  0.0988 -0.1991
14516TIP3    H164963   1.829   3.696   6.632  0.5364 -1.5571 -2.9211
14516TIP3    H264964   1.910   3.813   6.685 -1.9522 -1.5978  1.4606
14517TIP3   OH264965   5.958   2.637   3.927  0.1872 -0.4429  0.1715
14517TIP3    H164966   6.025   2.688   3.972  0.6638  0.5083 -1.5307
14517TIP3    H264967   5.967   2.660   3.835 -4.5356  2.2834  0.0451
14518TIP3   OH264968   4.641   2.454  14.426 -0.1004 -0.2108  0.2272
14518TIP3    H164969   4.586   2.430  14.352  2.3522 -0.2496 -1.6862
14518TIP3    H264970   4.629   2.548  14.437  1.0391  0.1812 -1.5995
14519TIP3   OH264971   3.632   2.390   5.983 -0.5415 -0.0194  0.4188
14519TIP3    H164972   3.649   2.451   6.054  0.4457 -0.0729  0.2468
14519TIP3    H264973   3.620   2.305   6.026  0.7738 -0.1840  0.4869
14520TIP3   OH264974   0.030   0.322   5.181  0.1000  0.0371  0.7716
14520TIP3    H164975   0.125   0.329   5.182  0.2505 -1.0122 -1.1981
14520TIP3    H264976   0.008   0.311   5.089 -1.9125 -0.0837  1.2245
14521TIP3   OH264977   6.807   1.959   0.923 -0.3773  0.2615 -0.1419
14521TIP3    H164978   6.814   2.051   0.896 -0.3317  0.2455 -0.1845
14521TIP3    H264979   6.714   1.940   0.920 -0.4647  0.5233  0.5726
14522TIP3   OH264980   3.860   2.324  16.410 -0.0312  0.4175  0.1455
14522TIP3    H164981   3.777   2.286  16.380 -0.6655  2.0431 -0.2840
14522TIP3    H264982   3.906   2.348  16.329 -0.1094  1.4482  0.3858
14523TIP3   OH264983   0.043   6.554  10.797 -0.6071 -0.7933  0.4068
14523TIP3    H164984   0.120   6.511  10.759  1.2048  2.3009  0.1960
14523TIP3    H264985  -0.017   6.566  10.724  0.3306 -0.0360 -0.2660
14524TIP3   OH264986   0.748   6.533   0.412  0.0746 -0.0677  0.1800
14524TIP3    H164987   0.681   6.466   0.424  0.2717 -0.2017  0.5797
14524TIP3    H264988   0.782   6.518   0.324 -1.3311  0.8454 -0.5323
14525TIP3   OH264989   0.644   4.543  11.210  0.7662  0.4821  0.0396
14525TIP3    H164990   0.561   4.589  11.198 -0.2214 -1.2433 -0.1552
14525TIP3    H264991   0.619   4.452  11.227  2.6222 -0.0553  0.1768
14526TIP3   OH264992   1.793   5.847   1.094  0.2980  0.4270 -0.5231
14526TIP3    H164993   1.794   5.753   1.114  0.3806  0.7336  1.0692
14526TIP3    H264994   1.812   5.889   1.178  0.6857  1.8632 -1.3027
14527TIP3   OH264995   6.211   2.444   3.577  0.1933  0.5278  0.2507
14527TIP3    H164996   6.135   2.407   3.532  0.2542 -1.5093  1.7221
14527TIP3    H264997   6.174   2.492   3.650  0.2292  1.8052 -0.5343
14528TIP3   OH264998   5.800   3.449  16.523 -1.0163 -0.0357  0.4445
14528TIP3    H164999   5.838   3.385  16.463 -1.0449 -1.4203  1.8405
14528TIP3    H265000   5.706   3.448  16.502 -0.7387  1.2236 -1.0207
14529TIP3   OH265001   6.540   3.148  15.688 -0.6644  0.0812 -0.0478
14529TIP3    H165002   6.448   3.122  15.681 -1.2776  2.1488 -0.5298
14529TIP3    H265003   6.538   3.243  15.677  1.5443  0.1727 -0.0095
14530TIP3   OH265004   2.161   6.773   4.587 -0.8133 -0.5879  0.4101
14530TIP3    H165005   2.104   6.734   4.520 -0.7186 -1.3846  0.7769
14530TIP3    H265006   2.248   6.737   4.569 -0.4231  0.5684 -0.1023
14531TIP3   OH265007   1.786   4.143   3.289 -0.2637  0.0819  0.2540
14531TIP3    H165008   1.696   4.117   3.272 -0.3203  1.6613 -2.4452
14531TIP3    H265009   1.787   4.167   3.381 -2.6990  0.3433  0.2750
14532TIP3   OH265010   0.019   4.678   2.980 -0.4637 -0.4857  0.8434
14532TIP3    H165011  -0.043   4.638   3.040 -0.0731 -2.4565  0.0384
14532TIP3    H265012  -0.005   4.770   2.976 -0.6700 -0.3427  3.7604
14533TIP3   OH265013   4.482   0.392  14.007  0.1096 -0.0316 -0.5800
14533TIP3    H165014   4.526   0.339  13.942  0.6450  1.4441 -1.4637
14533TIP3    H265015   4.551   0.419  14.068  0.4199  1.9079 -1.7127
14534TIP3   OH265016   2.313   0.931   0.077  0.4129  0.1222  0.0700
14534TIP3    H165017   2.279   0.860   0.023 -0.2168 -0.4650  1.1925
14534TIP3    H265018   2.406   0.935   0.058  0.8496 -2.2754  1.3454
14535TIP3   OH265019   3.687   5.176  13.789 -0.1906 -0.0754 -0.2438
14535TIP3    H165020   3.720   5.103  13.738 -1.1493 -0.1294 -0.8156
14535TIP3    H265021   3.604   5.145  13.826 -0.4464  0.5990 -0.2195
14536TIP3   OH265022   2.503   3.743   5.737 -0.5411  0.3485 -0.2461
14536TIP3    H165023   2.526   3.788   5.656 -1.4583 -0.5894 -1.0627
14536TIP3    H265024   2.531   3.802   5.807  0.6185  1.0118 -1.2278
14537TIP3   OH265025   2.396   0.354  10.169  0.2837  0.4641 -0.1708
14537TIP3    H165026   2.404   0.421  10.237  1.7606  1.9069 -1.6745
14537TIP3    H265027   2.302   0.346  10.154 -0.0249  0.7292  1.4141
14538TIP3   OH265028   1.910   1.641   1.125 -0.1521 -0.3286  0.0614
14538TIP3    H165029   1.824   1.636   1.085 -0.5391  2.0959  0.4565
14538TIP3    H265030   1.893   1.643   1.219  0.5602 -2.6183  0.3059
14539TIP3   OH265031   2.369   1.412   3.357  0.5012 -0.1184  0.1032
14539TIP3    H165032   2.349   1.320   3.375  0.4326 -0.4731 -1.5634
14539TIP3    H265033   2.388   1.414   3.263  1.7035  1.3715  0.3374
14540TIP3   OH265034   3.670   4.515   1.438 -0.1659  0.2099  0.0576
14540TIP3    H165035   3.640   4.595   1.393 -2.9431  0.3989  1.9931
14540TIP3    H265036   3.599   4.453   1.425  1.3010 -1.4935 -0.1345
14541TIP3   OH265037   1.057   3.985   2.081 -0.2144 -0.0545  0.0514
14541TIP3    H165038   1.120   4.045   2.040  0.0605  0.2971  0.9651
14541TIP3    H265039   1.014   4.038   2.148 -0.2014 -0.7848  0.6538
14542TIP3   OH265040   0.074   6.731   3.425  0.1576 -0.1372 -0.4186
14542TIP3    H165041  -0.019   6.720   3.447  0.5199 -1.8275  0.4319
14542TIP3    H265042   0.088   6.671   3.352  0.8221 -0.8012  0.2375
14543TIP3   OH265043   3.638   1.791  15.828 -0.5036 -0.8597 -0.5066
14543TIP3    H165044   3.636   1.887  15.831 -1.0817 -0.8849  0.5549
14543TIP3    H265045   3.565   1.764  15.884  0.6058 -1.9225  0.4935
14544TIP3   OH265046   5.744   4.050  13.155  0.3397  0.1064  0.4792
14544TIP3    H165047   5.673   4.001  13.196  1.6258 -2.0496  0.3103
14544TIP3    H265048   5.728   4.042  13.061  0.2672  0.4806  0.4595
14545TIP3   OH265049   0.003   1.744   2.008  0.1589 -0.0015  0.3507
14545TIP3    H165050   0.007   1.738   1.912  0.3463  2.6484  0.1257
14545TIP3    H265051   0.095   1.754   2.035  0.1323 -0.9877  0.8641
14546TIP3   OH265052   1.949   4.362  14.317  1.1557  0.0582  0.0850
14546TIP3    H165053   1.883   4.336  14.252 -0.7610  0.5080  1.7605
14546TIP3    H265054   2.026   4.309  14.295 -0.3426 -1.8673 -0.8528
14547TIP3   OH265055   6.505   3.003   2.705 -0.6638 -0.2083  0.2883
14547TIP3    H165056   6.530   2.972   2.618 -1.0513  0.1444  0.0494
14547TIP3    H265057   6.459   3.085   2.689 -1.6793 -0.6772  0.7415
14548TIP3   OH265058   6.301   3.558  16.746  0.3913 -0.3351 -0.8984
14548TIP3    H165059   6.274   3.642  16.784  0.7529  0.0463 -1.4470
14548TIP3    H265060   6.378   3.533  16.796 -1.8682 -2.3270  1.8712
14549TIP3   OH265061   2.364   2.249   4.223 -0.0436 -0.4379 -0.1283
14549TIP3    H165062   2.409   2.241   4.139  0.0052  1.7271 -0.3646
14549TIP3    H265063   2.273   2.228   4.204  0.1922 -1.2742 -0.4062
14550TIP3   OH265064   6.162   2.682   0.151 -0.1243  0.5943 -0.3008
14550TIP3    H165065   6.179   2.693   0.245 -0.6422  0.1913 -0.1554
14550TIP3    H265066   6.091   2.743   0.132 -0.3467  0.3280 -0.3274
14551TIP3   OH265067   4.332   3.813  15.292 -0.4557 -0.1796 -0.1951
14551TIP3    H165068   4.275   3.881  15.329  0.8425  0.5607  0.5039
14551TIP3    H265069   4.301   3.802  15.202 -0.4961  1.5848 -0.4376
14552TIP3   OH265070   2.906   6.266  16.742  0.6252  0.0857 -0.3003
14552TIP3    H165071   2.984   6.266  16.798 -0.6811  0.2522  1.6318
14552TIP3    H265072   2.897   6.357  16.713  1.0622  0.0984 -0.4008
14553TIP3   OH265073   3.520   3.390  12.461 -0.7048  0.1223 -0.0673
14553TIP3    H165074   3.455   3.438  12.513 -0.1954  1.0153 -0.2376
14553TIP3    H265075   3.552   3.322  12.520 -2.7687 -1.2554 -0.4029
14554TIP3   OH265076   1.434   6.426   0.478 -0.3194  0.6411 -0.0506
14554TIP3    H165077   1.501   6.438   0.410 -1.2415 -0.8523 -1.2833
14554TIP3    H265078   1.475   6.366   0.540 -0.0810  0.6762 -0.1699
14555TIP3   OH265079   1.555   6.274  15.496 -0.3306  0.1256 -0.4170
14555TIP3    H165080   1.491   6.344  15.487  0.3798  0.7494 -0.7687
14555TIP3    H265081   1.624   6.296  15.433  0.2475 -0.4985 -0.0221
14556TIP3   OH265082   0.149   3.314   6.916  0.3369 -0.2143 -0.0247
14556TIP3    H165083   0.109   3.247   6.861  1.0088  1.0129 -2.1077
14556TIP3    H265084   0.075   3.367   6.946  0.0433 -0.1963 -0.7483
14557TIP3   OH265085   1.057   2.689   5.285 -0.8443 -0.7436  0.3315
14557TIP3    H165086   1.014   2.645   5.359  1.8687 -0.7564  2.0318
14557TIP3    H265087   1.150   2.670   5.296 -0.0775  1.2722 -1.7556
14558TIP3   OH265088   6.086   4.418  12.359  0.3494  0.5267  0.4142
14558TIP3    H165089   6.105   4.325  12.368 -1.3233  0.1360  0.3126
14558TIP3    H265090   6.090   4.453  12.448 -0.7936 -0.0513  0.7188
14559TIP3   OH265091   5.887   2.942  16.319 -0.4581  0.3224  0.5194
14559TIP3    H165092   5.928   3.002  16.381  0.2495 -0.1606  0.5353
14559TIP3    H265093   5.817   2.900  16.370 -0.0360  0.1012  0.9243
14560TIP3   OH265094   1.556   3.466   4.021 -0.2035  0.4434 -0.6166
14560TIP3    H165095   1.525   3.462   4.112 -0.4193  0.3855 -0.6926
14560TIP3    H265096   1.494   3.524   3.977 -1.7203 -1.6393 -1.3689
14561TIP3   OH265097   6.724   3.523  13.472  0.1135  0.4749 -0.7684
14561TIP3    H165098   6.658   3.549  13.536  0.6064  1.1430 -0.5208
14561TIP3    H265099   6.737   3.600  13.417  3.5531  1.8214  1.6483
14562TIP3   OH265100   6.444   4.296  15.369  0.2829 -0.1536  0.1650
14562TIP3    H165101   6.518   4.340  15.328 -1.6652 -0.4829 -4.2049
14562TIP3    H265102   6.403   4.364  15.423  1.0840  1.4526 -1.1463
14563TIP3   OH265103   3.468   6.615   3.674  0.0892 -0.2563  0.4191
14563TIP3    H165104   3.449   6.603   3.767  2.4744 -0.7676  0.8994
14563TIP3    H265105   3.563   6.628   3.670 -0.0517  0.5568 -1.8803
14564TIP3   OH265106   2.230   3.658  11.021  0.3043  0.0784  0.0709
14564TIP3    H165107   2.196   3.712  10.950 -0.1083  0.8377  0.8188
14564TIP3    H265108   2.299   3.605  10.981 -2.3846 -2.3332 -1.7475
14565TIP3   OH265109   3.901   1.000   0.340  0.1262 -0.4081  0.1970
14565TIP3    H165110   3.888   1.063   0.270 -0.4356  1.8297  2.1747
14565TIP3    H265111   3.996   0.985   0.342  0.5880  2.1330  1.0209
14566TIP3   OH265112   1.906   0.086  13.827  0.3739  0.6732  0.0724
14566TIP3    H165113   1.918   0.065  13.919  0.2008  0.3439  0.0210
14566TIP3    H265114   1.834   0.150  13.827  1.3260  1.7709  0.2800
14567TIP3   OH265115   6.467   4.475  14.178 -0.1074  0.6544  0.6484
14567TIP3    H165116   6.414   4.547  14.142 -0.7821  0.1670  0.6498
14567TIP3    H265117   6.491   4.506  14.266 -1.2098  0.4934  1.0255
14568TIP3   OH265118   4.950   0.609  11.433 -0.3132  0.1674  0.1746
14568TIP3    H165119   5.006   0.681  11.402 -1.1676  0.3407 -1.0048
14568TIP3    H265120   4.971   0.536  11.375  0.9433 -0.7551  1.6991
14569TIP3   OH265121   1.876   2.415  11.915 -0.0911  0.7628 -0.3251
14569TIP3    H165122   1.801   2.460  11.954  0.3088  1.7666 -0.6825
14569TIP3    H265123   1.846   2.389  11.828 -0.1162  0.9171 -0.3628
14570TIP3   OH265124   3.438   3.380   3.584 -0.0958 -0.0549 -0.0967
14570TIP3    H165125   3.373   3.363   3.652  0.1011  2.5992  0.8931
14570TIP3    H265126   3.391   3.370   3.502 -0.9401 -1.1045  0.4931
14571TIP3   OH265127   2.097   2.290   2.921 -0.3102 -0.2637 -0.6650
14571TIP3    H165128   2.087   2.345   2.843  2.2771 -0.2349 -1.0624
14571TIP3    H265129   2.084   2.201   2.889 -1.0250 -0.1389 -0.7402
14572TIP3   OH265130   3.565   1.185  11.285  0.1158 -0.3690 -0.0646
14572TIP3    H165131   3.585   1.239  11.209 -0.5941 -1.8785 -1.3922
14572TIP3    H265132   3.570   1.095  11.252 -2.2800 -1.0177  1.1108
14573TIP3   OH265133   0.475   3.022  12.484  0.3811 -0.4854  0.6608
14573TIP3    H165134   0.474   3.115  12.507  0.8530 -0.9748  2.8402
14573TIP3    H265135   0.458   3.021  12.389 -0.7537  1.7417  0.7697
14574TIP3   OH265136   5.618   6.687   1.393  0.3501 -0.1956  0.0622
14574TIP3    H165137   5.561   6.619   1.358 -0.7349  0.4475  0.4927
14574TIP3    H265138   5.587   6.768   1.351 -1.4186  0.7094  2.7901
14575TIP3   OH265139   6.762   4.611   5.062  0.0422 -0.1436  0.3714
14575TIP3    H165140   6.832   4.565   5.109  0.3260 -1.2264 -1.0331
14575TIP3    H265141   6.724   4.544   5.005 -0.3922  1.0685 -0.8093
14576TIP3   OH265142   3.282   2.884  11.550 -0.2432 -0.0698 -0.2192
14576TIP3    H165143   3.245   2.797  11.535 -2.2747  0.7850 -0.4163
14576TIP3    H265144   3.309   2.884  11.641  0.5796 -1.1732 -0.4447
14577TIP3   OH265145   0.034   2.045   2.188 -0.6104  0.2990  0.2668
14577TIP3    H165146  -0.028   1.973   2.174 -0.0947 -0.2757  0.8978
14577TIP3    H265147  -0.009   2.121   2.149 -1.1647 -0.3478 -0.4109
14578TIP3   OH265148   5.882   6.343  11.886 -0.0634  0.1651 -0.0767
14578TIP3    H165149   5.827   6.334  11.808  0.4468 -0.9405 -0.3242
14578TIP3    H265150   5.869   6.434  11.914 -1.5746  0.0870 -0.4483
14579TIP3   OH265151   6.065   0.696   4.389 -0.3083  0.0120  1.0959
14579TIP3    H165152   6.094   0.734   4.306 -1.2772 -1.5695 -0.0280
14579TIP3    H265153   6.013   0.765   4.430  1.4684  1.3777  1.1769
14580TIP3   OH265154   0.008   1.066  14.422 -0.9211 -0.1785  0.5128
14580TIP3    H165155   0.060   0.997  14.381  0.7465 -0.3414  2.6829
14580TIP3    H265156   0.013   1.140  14.361  1.2875 -0.4534  0.2677
14581TIP3   OH265157   6.501   5.712   4.533  0.5636  0.1360  0.2867
14581TIP3    H165158   6.487   5.768   4.610 -1.0543  0.6507 -0.3335
14581TIP3    H265159   6.573   5.754   4.486 -0.5293  1.6796 -0.0954
14582TIP3   OH265160   3.944   5.549   5.926 -0.0262 -0.3466  0.8389
14582TIP3    H165161   3.942   5.517   6.016 -0.5703 -0.2223  0.8729
14582TIP3    H265162   3.880   5.495   5.880  1.4357 -1.5677  0.1281
14583TIP3   OH265163   1.541   1.594  14.490 -0.5162  0.4626 -0.1024
14583TIP3    H165164   1.616   1.565  14.438 -0.9603 -1.6253  0.3669
14583TIP3    H265165   1.491   1.650  14.430 -0.0926 -0.4558 -1.3702
14584TIP3   OH265166   0.857   4.422   1.419  0.5031 -0.4300  0.3357
14584TIP3    H165167   0.827   4.410   1.509 -0.0062  1.3794  0.4389
14584TIP3    H265168   0.779   4.410   1.365  0.2005  1.2051  0.3701
14585TIP3   OH265169   1.145   5.469  12.020  0.5258 -0.0371  0.3484
14585TIP3    H165170   1.088   5.505  12.088 -0.5412  0.1863 -0.6436
14585TIP3    H265171   1.121   5.376  12.016  2.1501 -0.5953  1.7774
14586TIP3   OH265172   1.565   5.126  16.009  0.5328  0.5470 -0.1399
14586TIP3    H165173   1.537   5.113  16.099  1.1588 -1.4058 -0.1794
14586TIP3    H265174   1.636   5.063  15.996 -0.3179 -0.0473 -2.3380
14587TIP3   OH265175   6.752   0.860  16.016 -0.1875 -0.0540  0.5042
14587TIP3    H165176   6.697   0.800  16.067 -0.8501  0.8795  0.9093
14587TIP3    H265177   6.694   0.892  15.946  0.3539 -0.3818 -0.0996
14588TIP3   OH265178   3.115   6.306  12.421  0.1140 -0.1463 -0.3731
14588TIP3    H165179   3.041   6.253  12.451  0.7715 -1.7881 -1.4683
14588TIP3    H265180   3.145   6.352  12.499 -0.7599 -1.0610  0.5448
14589TIP3   OH265181   4.879   0.380  17.056 -0.0073  0.0012  0.2911
14589TIP3    H165182   4.837   0.302  17.019  0.6953 -0.4438  0.4081
14589TIP3    H265183   4.970   0.374  17.026 -0.2494  1.5185 -0.8957
14590TIP3   OH265184   4.698   3.197   5.314  0.3561  0.0657 -0.0890
14590TIP3    H165185   4.684   3.113   5.356 -0.1710  0.2006  0.0052
14590TIP3    H265186   4.721   3.256   5.386  0.2507  0.1134 -0.0949
14591TIP3   OH265187   0.024   4.213  11.649 -0.1241  0.4554 -0.4739
14591TIP3    H165188   0.096   4.162  11.614  0.6923  1.6777 -0.6108
14591TIP3    H265189  -0.038   4.147  11.682  0.8494 -0.6097 -0.7199
14592TIP3   OH265190   2.303   0.119  11.882 -0.6878  0.4029 -0.4705
14592TIP3    H165191   2.268   0.131  11.794 -0.7637  0.5708 -0.4184
14592TIP3    H265192   2.229   0.086  11.933 -1.2000  2.1123 -0.0177
14593TIP3   OH265193   4.038   4.514   2.362  0.8607 -0.2791 -0.1805
14593TIP3    H165194   4.021   4.467   2.280 -0.6045 -0.1919  0.0498
14593TIP3    H265195   4.077   4.448   2.420 -0.2422 -0.9703 -0.1965
14594TIP3   OH265196   1.409   0.438   1.953  0.1321  0.2890  0.4366
14594TIP3    H165197   1.417   0.501   1.881 -1.1853 -1.0826 -0.9961
14594TIP3    H265198   1.459   0.361   1.924  1.3225  0.4388  1.9471
14595TIP3   OH265199   4.889   4.817   3.218 -0.1259 -0.1421 -0.2415
14595TIP3    H165200   4.980   4.788   3.215 -0.1788 -0.3272 -0.0951
14595TIP3    H265201   4.894   4.912   3.220  0.0248 -0.1220 -1.3937
14596TIP3   OH265202   5.512   1.865  14.801  0.2640  0.4620  0.2528
14596TIP3    H165203   5.461   1.880  14.721 -1.4173 -0.3056  1.1316
14596TIP3    H265204   5.455   1.895  14.872  1.6986  1.0664  1.1977
14597TIP3   OH265205   6.228   4.273   1.093 -0.6530  0.5223  0.5999
14597TIP3    H165206   6.220   4.203   1.158 -0.1992  1.8034  2.0943
14597TIP3    H265207   6.280   4.235   1.023  0.7516 -0.2481  2.0055
14598TIP3   OH265208   1.346   4.199   0.769 -0.2592  0.4123  0.4321
14598TIP3    H165209   1.403   4.272   0.797  0.1377  0.2570  0.0453
14598TIP3    H265210   1.268   4.207   0.824 -0.3411  1.3016  0.2017
14599TIP3   OH265211   5.180   5.539  15.497  0.1133 -0.0114 -0.1421
14599TIP3    H165212   5.143   5.627  15.497 -0.1039 -0.0473 -2.2876
14599TIP3    H265213   5.120   5.487  15.551 -0.4978  0.8669  0.0396
14600TIP3   OH265214   1.805   0.775  11.269 -0.0989 -0.3052 -0.5108
14600TIP3    H165215   1.886   0.736  11.302  0.2367  0.7040 -0.1186
14600TIP3    H265216   1.786   0.725  11.190  2.0111  0.7032 -1.7562
14601TIP3   OH265217   5.169   2.691   5.670  0.1832  0.5624 -0.4407
14601TIP3    H165218   5.154   2.685   5.764 -0.1739 -0.2776 -0.5466
14601TIP3    H265219   5.260   2.721   5.662  0.8795 -1.2936  0.1686
14602TIP3   OH265220   0.231   2.195  13.471  0.4478 -0.4853 -0.4788
14602TIP3    H165221   0.198   2.281  13.496  0.6880 -0.2133 -1.0861
14602TIP3    H265222   0.236   2.198  13.375  1.8394 -0.6543 -0.4301
14603TIP3   OH265223   3.529   2.907  16.173  0.0794 -0.1288  0.8154
14603TIP3    H165224   3.557   2.995  16.148 -2.0100 -0.1856 -2.2879
14603TIP3    H265225   3.605   2.870  16.217  1.9623  2.3299 -0.1017
14604TIP3   OH265226   1.745   1.473   2.930  0.1078 -0.3341  0.1195
14604TIP3    H165227   1.808   1.510   2.990 -0.6467  0.8226  0.2256
14604TIP3    H265228   1.792   1.465   2.847 -0.0908  2.3283 -0.3411
14605TIP3   OH265229   5.527   4.804   1.533  0.6073  0.4250 -0.5688
14605TIP3    H165230   5.447   4.853   1.513  1.0192  0.7192 -1.5596
14605TIP3    H265231   5.508   4.760   1.616 -0.3509  0.9928 -0.4690
14606TIP3   OH265232   3.271   4.588   3.329 -0.3383  0.0601  0.2879
14606TIP3    H165233   3.183   4.608   3.360  0.1603  0.1478  1.7435
14606TIP3    H265234   3.263   4.502   3.288 -1.1409  0.1691  0.1950
14607TIP3   OH265235   2.802   3.495  16.907 -0.9710 -0.4468 -0.2509
14607TIP3    H165236   2.858   3.475  16.982 -1.6057  0.7129  0.5557
14607TIP3    H265237   2.826   3.584  16.882 -0.9193 -0.7453 -1.3101
14608TIP3   OH265238   5.530   3.470  12.190  0.2816  0.0383  0.2487
14608TIP3    H165239   5.539   3.547  12.246 -1.1430  0.3327  0.1026
14608TIP3    H265240   5.443   3.479  12.150 -0.0060 -1.7485  0.3897
14609TIP3   OH265241   1.781   0.201   2.274  0.1693  0.3651  0.0298
14609TIP3    H165242   1.847   0.152   2.322 -0.8829  1.0754  2.3993
14609TIP3    H265243   1.698   0.160   2.298 -0.3938  0.6630 -1.3396
14610TIP3   OH265244   4.313   2.805  11.072  0.0930 -0.0194 -0.0362
14610TIP3    H165245   4.339   2.778  10.985 -1.1137  1.9549 -1.0984
14610TIP3    H265246   4.324   2.727  11.127  0.8919 -1.2927 -1.9252
14611TIP3   OH265247   2.210   1.099  10.686  0.6954  0.2595 -0.3916
14611TIP3    H165248   2.211   1.090  10.591 -1.4718  1.1845 -0.5644
14611TIP3    H265249   2.226   1.193  10.701  0.6707  0.1807  0.1416
14612TIP3   OH265250   4.828   6.810   4.010  0.1059  0.1221 -0.8957
14612TIP3    H165251   4.900   6.753   3.982  1.3638  1.5288 -0.6840
14612TIP3    H265252   4.783   6.834   3.928 -0.8582 -1.6369 -0.9280
14613TIP3   OH265253   1.629   5.766   0.282  0.8322  0.3621  0.1605
14613TIP3    H165254   1.689   5.782   0.209  0.5121  0.1530 -0.1535
14613TIP3    H265255   1.579   5.847   0.291 -0.2065 -0.1303 -0.8801
14614TIP3   OH265256   2.665   5.942   3.197  0.2954 -0.1256 -0.1175
14614TIP3    H165257   2.589   5.889   3.174  0.1719 -0.5112  1.1283
14614TIP3    H265258   2.628   6.026   3.224  0.4230  0.2166 -0.9574
14615TIP3   OH265259   0.409   1.085   1.809  0.3879  0.0422  0.0986
14615TIP3    H165260   0.416   1.124   1.896 -0.0267 -0.4999  0.3832
14615TIP3    H265261   0.449   0.998   1.819  0.3702 -0.0091 -0.2618
14616TIP3   OH265262   5.467   2.253  15.727 -0.3797 -0.4682  0.0975
14616TIP3    H165263   5.512   2.261  15.811  0.1379 -0.3337 -0.1897
14616TIP3    H265264   5.375   2.237  15.750 -0.3966  0.4086  0.6865
14617TIP3   OH265265   2.550   3.053   0.443 -0.5799 -0.3892 -0.1462
14617TIP3    H165266   2.528   2.993   0.372 -0.3113 -1.5309  0.7114
14617TIP3    H265267   2.594   2.998   0.509 -0.4202  0.7220  0.7045
14618TIP3   OH265268   5.483   4.378  16.226 -0.0698  0.3594 -0.8257
14618TIP3    H165269   5.548   4.382  16.297 -0.4151 -1.4612 -0.3538
14618TIP3    H265270   5.535   4.358  16.148  0.3399  2.5971 -1.1773
14619TIP3   OH265271   5.682   4.666  12.878 -0.0889 -0.0934  0.2217
14619TIP3    H165272   5.663   4.600  12.944 -1.0573  0.4982  0.5494
14619TIP3    H265273   5.662   4.749  12.921 -0.1652  0.3318 -0.6239
14620TIP3   OH265274   3.126   2.911  12.459 -0.2979 -0.1875 -0.1530
14620TIP3    H165275   3.058   2.870  12.406 -1.6250  0.8722  0.6854
14620TIP3    H265276   3.195   2.934  12.396 -1.5553  0.4749 -1.3335
14621TIP3   OH265277   1.496   4.997   0.504 -0.1148 -0.0350  0.0237
14621TIP3    H165278   1.545   5.011   0.423  0.6626 -3.0426 -0.1233
14621TIP3    H265279   1.407   4.977   0.474  0.0982 -0.8377 -0.0865
14622TIP3   OH265280   6.699   5.401   0.471 -0.0519  0.6123  0.6156
14622TIP3    H165281   6.625   5.434   0.522 -1.5056  2.0429 -2.1658
14622TIP3    H265282   6.708   5.464   0.399  1.4659 -1.5420 -1.2130
14623TIP3   OH265283   4.140   5.299  12.919 -0.3095 -0.0731  0.2105
14623TIP3    H165284   4.227   5.259  12.912 -1.0218 -1.5248 -0.9641
14623TIP3    H265285   4.147   5.379  12.868  0.3535 -0.1497  0.1677
14624TIP3   OH265286   1.484   3.341   1.399  0.5952  0.0170  0.0192
14624TIP3    H165287   1.396   3.353   1.434 -0.4427  1.8982 -2.8718
14624TIP3    H265288   1.513   3.257   1.435 -1.7312  0.0747  2.2651
14625TIP3   OH265289   3.365   3.398   0.073 -0.4211 -0.5780 -0.1594
14625TIP3    H165290   3.391   3.318   0.118 -0.3926 -0.7642 -0.5016
14625TIP3    H265291   3.292   3.433   0.124  0.2803 -0.2265  0.6229
14626TIP3   OH265292   5.619   6.736  16.585  0.3342 -0.3647 -0.4385
14626TIP3    H165293   5.656   6.801  16.645 -1.3462  0.8792 -0.6746
14626TIP3    H265294   5.583   6.668  16.643  1.3197 -0.6547 -0.1594
14627TIP3   OH265295   3.808   1.902   1.294 -0.3282 -0.5718 -0.9625
14627TIP3    H165296   3.714   1.887   1.283 -0.3276 -0.1763 -1.5169
14627TIP3    H265297   3.815   1.961   1.369 -0.3885 -2.4151  0.5603
14628TIP3   OH265298   6.706   2.202  15.351  0.4824 -0.4507 -0.0324
14628TIP3    H165299   6.670   2.252  15.278 -0.3212  1.8034  1.8142
14628TIP3    H265300   6.800   2.223  15.350  0.2541  0.6248  0.3480
14629TIP3   OH265301   0.535   4.057   0.634 -0.1262  0.0442  0.5376
14629TIP3    H165302   0.568   3.967   0.637 -0.2629 -0.1428 -1.6791
14629TIP3    H265303   0.606   4.108   0.594 -1.2782  0.1954 -1.5019
14630TIP3   OH265304   0.320   4.011   1.435  0.2451  0.3173 -0.1699
14630TIP3    H165305   0.226   4.028   1.445  0.1361 -1.0136  1.3954
14630TIP3    H265306   0.324   3.927   1.391  0.6677 -0.3938  1.1774
14631TIP3   OH265307   2.791   4.710  14.614 -0.1836  0.0990 -0.6766
14631TIP3    H165308   2.704   4.703  14.653 -0.2144  1.8507 -0.3857
14631TIP3    H265309   2.851   4.694  14.687 -0.2467 -0.1329 -0.6731
14632TIP3   OH265310   3.019   4.744  12.510 -0.0631  0.3164 -0.1039
14632TIP3    H165311   3.044   4.681  12.443 -1.5203  0.1265 -0.5097
14632TIP3    H265312   3.101   4.783  12.539  0.6765 -0.3436 -1.2632
14633TIP3   OH265313   6.100   5.178   3.541 -0.3091  0.2093  0.0486
14633TIP3    H165314   6.176   5.219   3.500  0.8621 -1.5614  0.3368
14633TIP3    H265315   6.128   5.088   3.557 -1.9071 -0.0418  1.6677
14634TIP3   OH265316   2.483   2.724   6.348 -0.2191 -0.2766  0.1253
14634TIP3    H165317   2.482   2.737   6.443  0.3428  0.4187  0.0534
14634TIP3    H265318   2.448   2.806   6.313 -1.1442 -0.8174 -0.2589
14635TIP3   OH265319   5.921   5.766   2.249 -0.0425 -0.1314 -0.2092
14635TIP3    H165320   5.999   5.761   2.304 -0.3121  1.0322  0.2996
14635TIP3    H265321   5.953   5.745   2.161  0.7403 -0.1680  0.0777
14636TIP3   OH265322   0.554   0.241   1.412  0.6948 -0.1433 -0.4685
14636TIP3    H165323   0.552   0.263   1.319 -1.2231 -0.9593 -0.6629
14636TIP3    H265324   0.607   0.162   1.417  0.6461 -0.2068 -0.9070
14637TIP3   OH265325   0.011   6.551  12.606  0.8285  0.3650  0.6189
14637TIP3    H165326   0.055   6.633  12.626  0.1767  1.0108 -0.4731
14637TIP3    H265327   0.058   6.516  12.530  0.9980 -0.1849  0.9724
14638TIP3   OH265328   6.217   1.212  15.895 -0.0684  0.6124  0.5377
14638TIP3    H165329   6.206   1.123  15.862  0.6028  0.7646 -0.1253
14638TIP3    H265330   6.285   1.204  15.963  0.8917  0.7995 -0.3790
14639TIP3   OH265331   5.285   4.021   5.247 -0.2374 -0.5169  0.5951
14639TIP3    H165332   5.206   4.028   5.301  0.5333  0.1808  1.6751
14639TIP3    H265333   5.303   4.111   5.219 -0.0632 -0.7337 -0.0098
14640TIP3   OH265334   3.753   0.498  12.725  0.1284 -0.7065  0.2902
14640TIP3    H165335   3.809   0.567  12.761 -0.6533  0.6589 -0.9662
14640TIP3    H265336   3.755   0.513  12.630 -1.3387 -1.4086  0.1187
14641TIP3   OH265337   2.319   3.768   2.841  0.1419 -0.1139 -0.3236
14641TIP3    H165338   2.368   3.689   2.865 -1.7067 -1.2096 -0.0269
14641TIP3    H265339   2.256   3.739   2.776  0.5595  1.5039 -1.5098
14642TIP3   OH265340   4.488   2.364   2.512 -0.3338 -0.6391  0.1475
14642TIP3    H165341   4.566   2.412   2.486 -2.2298  1.3742 -2.1963
14642TIP3    H265342   4.522   2.283   2.550  2.8746  0.5057  0.0067
14643TIP3   OH265343   2.633   0.568   0.464 -0.2479 -0.4390 -0.3921
14643TIP3    H165344   2.571   0.546   0.394 -0.4602  2.5098 -1.2330
14643TIP3    H265345   2.712   0.594   0.419 -0.1652  0.8809  0.4645
14644TIP3   OH265346   5.324   2.995  13.193  0.0891  0.3643 -0.2257
14644TIP3    H165347   5.367   3.002  13.278 -1.3824 -2.2508  0.8737
14644TIP3    H265348   5.359   2.914  13.155  2.3414  2.5435 -3.2178
14645TIP3   OH265349   6.588   0.895  15.562  0.0388  0.0139 -0.2225
14645TIP3    H165350   6.521   0.941  15.512 -1.4602 -1.5898  0.2263
14645TIP3    H265351   6.547   0.878  15.647 -0.3394 -3.9471 -1.0297
14646TIP3   OH265352   6.266   4.115  13.581 -0.7826 -0.0232  0.0498
14646TIP3    H165353   6.181   4.150  13.557 -0.9690 -0.7333 -0.3695
14646TIP3    H265354   6.315   4.112  13.498  0.4338  2.3839  0.6053
14647TIP3   OH265355   0.926   4.597  14.653 -0.3843 -0.3161  0.8819
14647TIP3    H165356   0.893   4.678  14.691  2.6034  0.9918  0.9527
14647TIP3    H265357   0.958   4.547  14.727  0.6494 -0.1152  0.5880
14648TIP3   OH265358   0.857   6.020   2.475  0.0763 -0.4237  0.2356
14648TIP3    H165359   0.838   6.105   2.516  0.1415  0.2098 -1.0231
14648TIP3    H265360   0.808   6.021   2.393  1.7453 -0.7080 -0.8170
14649TIP3   OH265361   5.051   0.867  12.140  0.0670 -0.3965  0.1501
14649TIP3    H165362   4.986   0.907  12.082 -1.5352 -0.7863  1.5804
14649TIP3    H265363   5.015   0.781  12.161 -0.3887  0.3851  3.1023
14650TIP3   OH265364   0.921   6.225   4.851  0.3583  0.3001  0.1490
14650TIP3    H165365   0.879   6.202   4.934  1.6677  0.0143  0.7538
14650TIP3    H265366   0.954   6.141   4.817  2.7094  0.8128  0.9888
14651TIP3   OH265367   5.200   4.642  12.021  0.2476 -0.0879  0.3229
14651TIP3    H165368   5.176   4.723  12.065  0.2479  0.3951 -0.5479
14651TIP3    H265369   5.163   4.573  12.075 -1.4598  0.5603  0.0392
14652TIP3   OH265370   1.356   1.990   5.236  0.4906 -0.0202 -0.4959
14652TIP3    H165371   1.262   1.995   5.250  0.3329  0.9301 -1.7442
14652TIP3    H265372   1.377   1.897   5.249 -0.2217  0.0911  1.8740
14653TIP3   OH265373   2.963   4.580   0.714 -0.3290  0.2414 -0.1299
14653TIP3    H165374   3.039   4.622   0.754  0.4118 -1.3171  0.1532
14653TIP3    H265375   2.889   4.614   0.764  0.1182  1.9812 -0.5723
14654TIP3   OH265376   0.408   0.767  11.898  0.0818  0.2739  0.0369
14654TIP3    H165377   0.429   0.676  11.916  0.0294 -0.0070 -1.2284
14654TIP3    H265378   0.362   0.797  11.976  1.1172 -0.4336  0.9477
14655TIP3   OH265379   0.255   2.345   6.013 -0.2146  0.1611  0.5504
14655TIP3    H165380   0.185   2.290   5.978 -0.1970 -0.2249  1.1029
14655TIP3    H265381   0.210   2.410   6.067 -0.1224 -0.5881  1.5797
14656TIP3   OH265382   5.451   5.022  11.255 -0.5514 -0.1854 -0.0527
14656TIP3    H165383   5.490   5.014  11.167 -0.7384  0.4007 -0.1888
14656TIP3    H265384   5.402   5.104  11.252 -2.1963 -1.1276 -0.0339
14657TIP3   OH265385   6.111   6.744   2.990  0.0611  0.4826 -0.2816
14657TIP3    H165386   6.110   6.741   3.086  1.4005 -0.2698 -0.2630
14657TIP3    H265387   6.191   6.696   2.965  0.3200  1.5944 -1.7408
14658TIP3   OH265388   1.516   6.189  12.537 -0.5503 -0.4904  0.8588
14658TIP3    H165389   1.532   6.162  12.627 -0.9889  1.1937  1.4671
14658TIP3    H265390   1.549   6.278  12.531 -1.4052 -0.2168 -0.3739
14659TIP3   OH265391   3.709   5.595   5.419 -0.2721  1.3052  0.3315
14659TIP3    H165392   3.727   5.503   5.396 -1.7367  0.1757  3.1893
14659TIP3    H265393   3.641   5.621   5.357  0.2389  0.5243 -0.6026
14660TIP3   OH265394   3.278   0.946  13.342  0.1760 -0.2095  0.6336
14660TIP3    H165395   3.346   0.929  13.408  0.9946  0.4534 -0.0161
14660TIP3    H265396   3.216   1.004  13.386  1.4671  1.4102  0.4097
14661TIP3   OH265397   6.437   6.330   3.743  0.1983 -0.0917 -0.1613
14661TIP3    H165398   6.520   6.293   3.714  2.3884  1.4150  3.4060
14661TIP3    H265399   6.430   6.304   3.835 -2.7006  0.8618  0.0071
14662TIP3   OH265400   6.582   0.133   5.487 -0.2180  0.2225  0.4619
14662TIP3    H165401   6.519   0.101   5.551 -0.3073  0.6339  0.5849
14662TIP3    H265402   6.611   0.055   5.441 -0.7556  0.0179  0.4605
14663TIP3   OH265403   3.190   1.791   4.251  0.3466 -0.1842 -0.0521
14663TIP3    H165404   3.283   1.783   4.271  0.1705  2.0145  2.0714
14663TIP3    H265405   3.187   1.825   4.162  1.6076  0.6020  0.1886
14664TIP3   OH265406   0.998   5.064  16.806  0.3000  0.3801  0.4743
14664TIP3    H165407   0.987   5.046  16.712 -0.6875 -1.5608  0.9004
14664TIP3    H265408   0.914   5.101  16.833  1.1782  2.6483  0.2950
14665TIP3   OH265409   4.307   0.781  15.574 -0.1718  0.5985  0.1952
14665TIP3    H165410   4.399   0.803  15.591 -0.4522  1.2627  0.9495
14665TIP3    H265411   4.309   0.729  15.494  0.9049  0.2601  0.4206
14666TIP3   OH265412   2.788   0.308  14.056  0.8025  0.0623 -0.0577
14666TIP3    H165413   2.827   0.274  14.136  2.0951 -1.0714 -1.1354
14666TIP3    H265414   2.826   0.395  14.046  1.6305 -0.3060 -0.1268
14667TIP3   OH265415   3.610   5.948   1.431  0.1062  0.2975  0.1142
14667TIP3    H165416   3.690   5.994   1.405  0.0751  0.1952 -0.1656
14667TIP3    H265417   3.575   5.912   1.350 -2.0713  3.1855 -0.3994
14668TIP3   OH265418   2.234   0.419   2.382 -0.1608 -0.0732  0.4857
14668TIP3    H165419   2.306   0.482   2.389  0.6984 -0.9263 -0.3663
14668TIP3    H265420   2.155   0.472   2.396  0.6160  0.8739  1.4681
14669TIP3   OH265421   1.073   3.954   3.818 -0.3721  0.6053  0.4225
14669TIP3    H165422   1.164   3.926   3.831 -0.8578 -2.2931 -1.5003
14669TIP3    H265423   1.058   4.018   3.888  2.7458  0.2906  1.5618
14670TIP3   OH265424   6.567   5.763   4.874 -0.5102 -0.0529  0.1940
14670TIP3    H165425   6.481   5.729   4.899 -0.4319 -0.8285 -0.5600
14670TIP3    H265426   6.626   5.735   4.944 -0.8048  0.2041  0.5478
14671TIP3   OH265427   3.663   5.440   1.644  0.1976 -0.0519  0.3899
14671TIP3    H165428   3.636   5.474   1.729 -0.2712  0.6874 -0.0483
14671TIP3    H265429   3.602   5.479   1.581 -0.1935 -1.4870 -0.1702
14672TIP3   OH265430   1.912   0.862  10.410  0.2130  0.7548  0.7936
14672TIP3    H165431   1.868   0.854  10.495  0.1377  0.3663  0.7184
14672TIP3    H265432   1.883   0.786  10.360  1.3806  0.1823  0.9348
14673TIP3   OH265433   0.883   4.334  14.113 -0.3483 -0.3476 -0.6794
14673TIP3    H165434   0.958   4.376  14.155  0.8969 -1.0420 -2.0890
14673TIP3    H265435   0.857   4.265  14.173 -0.3491  0.3815  0.1729
14674TIP3   OH265436   2.670   3.465  16.419  0.8284 -0.4638  0.2650
14674TIP3    H165437   2.583   3.489  16.386  0.7812 -0.8517  0.1080
14674TIP3    H265438   2.653   3.400  16.486  0.8158  1.3509  2.1186
14675TIP3   OH265439   5.611   4.980   5.385 -0.0897  0.4976 -0.1813
14675TIP3    H165440   5.593   4.946   5.472 -1.4754 -0.5995 -0.8466
14675TIP3    H265441   5.541   4.943   5.330 -0.0096  2.1895 -1.5090
14676TIP3   OH265442   2.745   1.325   3.100 -0.0745 -0.9443  0.9027
14676TIP3    H165443   2.745   1.297   3.008  1.9135  0.0767  0.5399
14676TIP3    H265444   2.683   1.397   3.103  0.6153 -0.2927  0.1000
14677TIP3   OH265445   3.435   4.348   0.518 -0.6403  0.4187 -0.5880
14677TIP3    H165446   3.358   4.298   0.494 -1.6649  1.7121 -0.1199
14677TIP3    H265447   3.437   4.421   0.456 -0.1863  0.7670 -0.1721
14678TIP3   OH265448   6.619   1.777   1.159  0.4880  0.1723 -0.3529
14678TIP3    H165449   6.554   1.791   1.090 -1.9197 -2.5080  1.1348
14678TIP3    H265450   6.637   1.865   1.193 -2.5558  1.0860 -0.7738
14679TIP3   OH265451   4.881   4.769   4.228 -0.3093  0.6488 -0.0914
14679TIP3    H165452   4.832   4.692   4.257 -0.4618  0.0542 -1.8072
14679TIP3    H265453   4.847   4.841   4.281 -1.3555 -0.1756  0.3883
14680TIP3   OH265454   6.394   0.059   6.286  0.0690  0.3630  0.0710
14680TIP3    H165455   6.466   0.121   6.275 -1.1901  1.8589  0.0116
14680TIP3    H265456   6.340   0.070   6.208 -1.4313  0.9154  1.1559
14681TIP3   OH265457   4.387   4.122  11.522 -0.1439  0.2796 -0.1271
14681TIP3    H165458   4.363   4.118  11.430 -0.2174  0.8239 -0.1356
14681TIP3    H265459   4.304   4.131  11.568 -0.1253 -0.2228  0.0140
14682TIP3   OH265460   0.341   0.118   2.150  0.1849  0.1780 -0.3765
14682TIP3    H165461   0.347   0.212   2.138  0.2998 -0.0585 -2.4137
14682TIP3    H265462   0.267   0.106   2.210  1.0937  1.5949  1.1274
14683TIP3   OH265463   4.686   6.474   6.656  0.4116  0.0474 -0.1178
14683TIP3    H165464   4.677   6.569   6.654 -0.8814 -0.0642 -0.3562
14683TIP3    H265465   4.596   6.441   6.654  0.8509 -1.1894 -0.6065
14684TIP3   OH265466   3.291   1.116  11.027  0.4162 -0.7284 -0.2049
14684TIP3    H165467   3.222   1.052  11.008  1.2810 -1.8754  0.4114
14684TIP3    H265468   3.350   1.111  10.952 -0.5072  0.7654 -1.0707
14685TIP3   OH265469   3.745   1.040   0.577 -0.3498  0.7168 -0.5842
14685TIP3    H165470   3.706   0.954   0.588 -1.8458  1.2782 -1.2838
14685TIP3    H265471   3.819   1.026   0.518 -1.1537  0.0560 -1.4565
14686TIP3   OH265472   5.829   0.437  11.723 -0.2569  0.0067 -0.4469
14686TIP3    H165473   5.761   0.469  11.784  0.1769  0.8283 -0.3783
14686TIP3    H265474   5.780   0.391  11.655 -0.8189 -0.1666  0.0686
14687TIP3   OH265475   3.898   1.358   5.116  0.2833 -0.0032  0.2941
14687TIP3    H165476   3.857   1.295   5.175  2.4883 -0.1903  1.7280
14687TIP3    H265477   3.878   1.443   5.155 -2.8245  0.3773 -1.7227
14688TIP3   OH265478   6.047   5.266   0.633 -0.0816  0.0775  0.1496
14688TIP3    H165479   6.071   5.342   0.686  0.3209 -0.4385  0.7175
14688TIP3    H265480   5.981   5.220   0.684 -0.4611  0.1442 -0.2794
14689TIP3   OH265481   6.022   2.608   2.484 -0.3814  0.4503 -0.0670
14689TIP3    H165482   6.011   2.682   2.425 -0.9317  0.6809  0.3238
14689TIP3    H265483   5.985   2.637   2.568  2.4014  0.9647  1.0970
14690TIP3   OH265484   4.397   5.412   0.243 -0.9610  0.2009  0.1153
14690TIP3    H165485   4.428   5.473   0.310  0.0987  0.5831 -0.6713
14690TIP3    H265486   4.414   5.326   0.279  0.3936  0.4003  0.0441
14691TIP3   OH265487   1.367   3.118   0.548 -0.0431  0.7448 -0.0911
14691TIP3    H165488   1.398   3.048   0.605  0.4681 -0.0361 -1.2858
14691TIP3    H265489   1.296   3.079   0.497 -0.6781  1.5060  0.1831
14692TIP3   OH265490   6.127   6.080  16.166 -0.2899  0.5531  0.0560
14692TIP3    H165491   6.174   6.021  16.224 -1.4332 -3.2854 -2.4879
14692TIP3    H265492   6.039   6.084  16.202 -0.9711 -1.7420 -1.1143
14693TIP3   OH265493   0.308   3.234  16.811  0.3386  0.4450  0.0324
14693TIP3    H165494   0.398   3.225  16.781  1.3844  3.4672  1.7822
14693TIP3    H265495   0.277   3.315  16.769 -0.9610  0.3707  0.7856
14694TIP3   OH265496   5.988   3.889   2.982  0.3849  0.9378  0.2581
14694TIP3    H165497   6.037   3.821   2.935  0.6172  2.3019 -1.5901
14694TIP3    H265498   5.992   3.965   2.924 -2.0318  1.7805  1.0939
14695TIP3   OH265499   3.984   5.178  11.938  0.7189  0.1710 -0.0968
14695TIP3    H165500   3.941   5.110  11.990  1.9678  0.4073  1.3408
14695TIP3    H265501   4.062   5.134  11.902 -0.0065  0.0766 -1.6304
14696TIP3   OH265502   2.714   4.847   3.781  0.0102  0.7122  0.0690
14696TIP3    H165503   2.760   4.854   3.697 -0.2111 -0.4605 -0.1708
14696TIP3    H265504   2.742   4.762   3.816 -0.4773  0.8609  0.8359
14697TIP3   OH265505   0.947   3.228   0.115  0.6037 -0.3021  0.2865
14697TIP3    H165506   0.989   3.213   0.200 -0.5046 -1.2541  0.6929
14697TIP3    H265507   0.985   3.162   0.057  1.6349  0.5869 -0.0794
14698TIP3   OH265508   3.547   2.889  15.001  0.0695 -0.4223 -0.2767
14698TIP3    H165509   3.536   2.941  15.080 -0.1871 -0.4894 -0.2684
14698TIP3    H265510   3.513   2.802  15.024  1.8016 -1.0335  0.1737
14699TIP3   OH265511   3.086   2.826   0.990 -0.7809  0.0490  0.2401
14699TIP3    H165512   3.113   2.905   1.036  1.8582 -1.9590  2.4553
14699TIP3    H265513   3.067   2.763   1.060  0.4163 -2.2496 -1.3875
14700TIP3   OH265514   1.897   4.961  15.128 -0.1499 -0.4117  0.8447
14700TIP3    H165515   1.891   4.958  15.033 -1.9426  0.7503  0.8662
14700TIP3    H265516   1.876   5.052  15.150 -0.6175 -0.8606  2.3732
14701TIP3   OH265517   6.607   1.241   1.008  0.5465 -0.0796 -0.5311
14701TIP3    H165518   6.656   1.323   1.009  0.4375  0.0232 -1.6789
14701TIP3    H265519   6.658   1.183   0.950 -1.1080  0.3416 -2.5440
14702TIP3   OH265520   0.193   6.264  13.844 -0.5635 -0.0463  0.2401
14702TIP3    H165521   0.105   6.269  13.805 -0.1481  1.0181 -0.6036
14702TIP3    H265522   0.208   6.351  13.881  0.9636  0.4876 -1.5134
14703TIP3   OH265523   0.283   5.485  10.415  0.4454  0.0291  0.3414
14703TIP3    H165524   0.252   5.395  10.410 -0.2306  0.3036 -1.5149
14703TIP3    H265525   0.226   5.527  10.479  0.7410 -0.8339  1.1853
14704TIP3   OH265526   3.978   6.062  11.407  0.2076  0.5203 -0.0994
14704TIP3    H165527   4.020   6.147  11.414 -1.7263  1.6633 -1.2372
14704TIP3    H265528   3.911   6.074  11.339  0.6948 -2.2647 -1.2200
14705TIP3   OH265529   4.822   0.051   2.525  1.1733  0.0926 -0.0733
14705TIP3    H165530   4.757   0.104   2.479  1.8433  0.2376 -0.8631
14705TIP3    H265531   4.773  -0.027   2.554  0.2926  0.9155  0.7156
14706TIP3   OH265532   6.767   1.167  15.005 -0.2931 -0.3531 -0.3622
14706TIP3    H165533   6.694   1.202  15.058 -1.6079 -0.4510 -2.0273
14706TIP3    H265534   6.745   1.074  14.994  1.2828 -0.9387  0.9538
14707TIP3   OH265535   3.131   3.119   0.821 -0.1414 -0.2256  0.4749
14707TIP3    H165536   3.219   3.086   0.799 -1.0734 -1.0134 -2.5852
14707TIP3    H265537   3.147   3.204   0.862  2.0927  0.6239 -1.8536
14708TIP3   OH265538   3.069   5.584  13.496  0.5661  0.0755 -0.5817
14708TIP3    H165539   3.138   5.624  13.549  1.5227  0.4597 -2.0428
14708TIP3    H265540   3.093   5.492  13.491  0.1723 -0.0662  0.0911
14709TIP3   OH265541   5.096   1.240   5.611 -0.3556 -0.1447 -0.0146
14709TIP3    H165542   5.139   1.182   5.674  1.7582  1.2648 -0.0448
14709TIP3    H265543   5.102   1.193   5.528  0.2151 -0.4141  0.1747
14710TIP3   OH265544   1.362   5.270  12.950 -0.8815 -0.8572  0.5269
14710TIP3    H165545   1.314   5.277  13.032 -1.7255 -1.1648  0.0688
14710TIP3    H265546   1.311   5.208  12.897 -1.3050  0.6231 -0.8798
14711TIP3   OH265547   0.340   0.737  14.127  0.1775  0.2848  0.1614
14711TIP3    H165548   0.435   0.753  14.121  0.3883 -0.6567  0.8738
14711TIP3    H265549   0.332   0.653  14.171 -1.0183  0.8047  0.9844
14712TIP3   OH265550   0.137   0.959  11.217  0.5640  0.0253 -0.2223
14712TIP3    H165551   0.164   1.019  11.287  0.4335 -0.3198  0.1296
14712TIP3    H265552   0.043   0.976  11.207  0.5675  0.0209 -0.2605
14713TIP3   OH265553   6.501   6.805  16.375  0.4009  0.0485 -0.0511
14713TIP3    H165554   6.439   6.793  16.303  0.6879  2.0960 -0.6773
14713TIP3    H265555   6.516   6.716  16.408 -2.0753 -0.6184 -0.5213
14714TIP3   OH265556   6.445   6.633  11.105 -0.2367  0.3218  0.4360
14714TIP3    H165557   6.420   6.602  11.192  0.1037  0.8612  0.7307
14714TIP3    H265558   6.428   6.728  11.107  0.3061  0.4314  0.1067
14715TIP3   OH265559   2.123   5.705  11.486 -0.5566 -0.0628 -0.4353
14715TIP3    H165560   2.184   5.774  11.458 -0.0719 -0.4659 -0.4039
14715TIP3    H265561   2.174   5.624  11.476 -0.7951 -0.3232  0.4552
14716TIP3   OH265562   4.931   1.157  11.297  0.8373 -0.3365 -0.1287
14716TIP3    H165563   4.850   1.203  11.322  1.1672 -0.9454  2.2193
14716TIP3    H265564   4.909   1.115  11.214 -1.1925 -0.3036  0.3413
14717TIP3   OH265565   5.103   1.674  14.386 -0.1765 -0.3063 -0.6875
14717TIP3    H165566   5.072   1.604  14.443 -1.5127  0.3529 -0.5577
14717TIP3    H265567   5.099   1.753  14.440 -0.7592  0.2037 -1.4471
14718TIP3   OH265568   0.765   6.165  13.469 -0.1055 -0.3104  0.1153
14718TIP3    H165569   0.703   6.238  13.461  1.0135  0.8355  1.4696
14718TIP3    H265570   0.782   6.139  13.378 -1.6423  0.1216 -0.3313
14719TIP3   OH265571   0.357   4.255   0.729 -0.0002  0.0139 -0.1581
14719TIP3    H165572   0.432   4.313   0.731  0.3470 -0.4449  0.5825
14719TIP3    H265573   0.388   4.177   0.683  0.1932 -0.4473  0.7303
14720TIP3   OH265574   3.386   4.030   2.087  0.2497 -0.7232  0.4759
14720TIP3    H165575   3.351   3.941   2.084 -1.6568 -0.0173 -1.8778
14720TIP3    H265576   3.432   4.039   2.003  1.8051  0.0524  1.3669
14721TIP3   OH265577   1.715   3.359   6.430 -0.1445  0.0979 -0.0123
14721TIP3    H165578   1.775   3.302   6.381  0.1956  0.2909  0.1794
14721TIP3    H265579   1.772   3.423   6.473 -0.5318  0.6147 -0.2671
14722TIP3   OH265580   0.009   6.181  14.636  0.2027 -0.0916  0.1869
14722TIP3    H165581   0.083   6.126  14.610 -0.4783 -1.1249  0.3407
14722TIP3    H265582   0.043   6.236  14.706  0.9198 -0.2742 -0.0062
14723TIP3   OH265583   0.354   5.736   5.223 -0.1164 -0.7061  0.5575
14723TIP3    H165584   0.361   5.739   5.318  1.3332  0.9208  0.4363
14723TIP3    H265585   0.299   5.810   5.200  0.7618 -0.1893  0.0569
14724TIP3   OH265586   2.943   2.657   2.104 -0.3986 -0.0067 -0.0227
14724TIP3    H165587   2.987   2.575   2.081  0.8849  0.2526  1.3535
14724TIP3    H265588   2.913   2.644   2.194  0.4844  1.2675  0.4840
14725TIP3   OH265589   5.294   3.804   2.570  0.0498  0.1590 -0.2545
14725TIP3    H165590   5.331   3.808   2.482 -0.0610 -1.1222 -0.3722
14725TIP3    H265591   5.356   3.852   2.624 -0.3365  1.7547 -1.1627
14726TIP3   OH265592   3.039   3.775  12.165 -0.2395 -0.6171  0.2689
14726TIP3    H165593   3.111   3.826  12.127 -1.7765  0.4283 -1.4466
14726TIP3    H265594   2.997   3.835  12.227 -2.3475  0.5511 -2.1043
14727TIP3   OH265595   5.331   1.906   5.615  0.3761 -0.7631 -0.6319
14727TIP3    H165596   5.360   1.957   5.691  1.7828 -0.7512 -1.1437
14727TIP3    H265597   5.371   1.951   5.540  1.5250 -2.4946 -1.1147
14728TIP3   OH265598   1.106   0.794  15.652 -0.2193  0.4847  0.3115
14728TIP3    H165599   1.162   0.717  15.639 -0.8839 -0.3972  2.3860
14728TIP3    H265600   1.163   0.858  15.695 -0.9301 -0.7638  3.3356
14729TIP3   OH265601   0.019   1.650  15.282 -0.8240 -0.4112 -0.0667
14729TIP3    H165602   0.112   1.628  15.280 -0.6974  0.1678 -1.0800
14729TIP3    H265603  -0.024   1.574  15.243 -0.6875 -0.2763 -0.4842
14730TIP3   OH265604   2.579   3.258  16.112 -0.9009  0.0696 -0.0922
14730TIP3    H165605   2.618   3.225  16.031 -0.0765  1.5408 -0.3268
14730TIP3    H265606   2.555   3.179  16.160  1.8226 -0.9438 -0.2040
14731TIP3   OH265607   0.538   2.064  11.683 -0.1055 -0.0866  0.8673
14731TIP3    H165608   0.561   2.060  11.590 -0.8037 -0.0688  0.6889
14731TIP3    H265609   0.469   2.129  11.688 -2.2543 -2.2339  0.9226
14732TIP3   OH265610   4.641   3.381   0.706  0.6573 -0.1497  0.0978
14732TIP3    H165611   4.627   3.333   0.624 -0.5790  0.1988  0.0914
14732TIP3    H265612   4.732   3.362   0.729  1.4181  0.7157 -1.9709
14733TIP3   OH265613   4.062   1.460   5.337 -0.2977 -0.4354 -0.2597
14733TIP3    H165614   3.978   1.506   5.339 -0.1622 -0.1921 -0.0594
14733TIP3    H265615   4.050   1.385   5.395 -0.2067 -0.0966  0.2054
14734TIP3   OH265616   0.615   5.700   2.541 -0.0011  0.3001  0.3621
14734TIP3    H165617   0.669   5.670   2.468 -1.7209  0.0722 -0.8543
14734TIP3    H265618   0.656   5.661   2.619 -0.0687 -2.2168 -0.8032
14735TIP3   OH265619   3.355   4.540   4.245  0.1150  0.1410 -0.2994
14735TIP3    H165620   3.345   4.575   4.157 -1.3621 -0.6958 -0.4960
14735TIP3    H265621   3.386   4.450   4.232 -1.0092 -0.3072 -0.0406
14736TIP3   OH265622   4.445   5.727   3.184  0.0549 -0.4257 -0.1176
14736TIP3    H165623   4.433   5.817   3.155  2.8064  0.8114  2.0947
14736TIP3    H265624   4.456   5.733   3.279 -0.8279 -3.2722  0.2699
14737TIP3   OH265625   6.015   1.325   1.716  0.1649  0.0701  0.2752
14737TIP3    H165626   6.087   1.281   1.762  1.4604  1.2693 -0.5174
14737TIP3    H265627   5.972   1.377   1.783  0.6189  0.0665  0.5764
14738TIP3   OH265628   4.527   0.793   0.320 -0.0462 -0.7798 -0.2291
14738TIP3    H165629   4.567   0.736   0.386  0.0729 -0.0344  0.3640
14738TIP3    H265630   4.470   0.736   0.270  1.1713 -1.7179 -0.5985
14739TIP3   OH265631   2.528   0.295   4.315  0.2080 -0.2223 -0.7305
14739TIP3    H165632   2.581   0.374   4.319 -0.5610  0.2712  0.8033
14739TIP3    H265633   2.442   0.325   4.285  0.2386 -0.6857 -1.2988
14740TIP3   OH265634   3.254   4.691   4.801  0.0822 -0.1795 -0.1849
14740TIP3    H165635   3.258   4.717   4.708 -1.5698 -2.6983 -1.0674
14740TIP3    H265636   3.270   4.597   4.799 -4.2504 -1.1741  1.5024
14741TIP3   OH265637   5.073   2.408  13.792  0.2924  0.1424 -0.2239
14741TIP3    H165638   5.146   2.386  13.850  0.8357  1.4065 -0.4100
14741TIP3    H265639   5.017   2.330  13.794  0.3426  0.0906  1.9186
14742TIP3   OH265640   4.670   5.642  14.318 -0.1973  0.5721 -0.1945
14742TIP3    H165641   4.683   5.626  14.224 -0.8867  0.9567 -0.3573
14742TIP3    H265642   4.613   5.570  14.347 -0.8673  1.0513 -0.3045
14743TIP3   OH265643   2.598   1.462  11.722  0.0079 -0.5640 -0.2944
14743TIP3    H165644   2.618   1.522  11.650 -1.0746 -0.0057 -0.1518
14743TIP3    H265645   2.671   1.472  11.783  0.2378  0.0065 -0.6608
14744TIP3   OH265646   5.584   4.911   2.991  0.0125 -0.1396  0.0379
14744TIP3    H165647   5.589   4.964   3.070  0.4952  1.0554 -0.7653
14744TIP3    H265648   5.519   4.956   2.937 -1.2826 -1.6715  0.2611
14745TIP3   OH265649   3.590   0.036   1.787 -0.1759  0.2191  0.0498
14745TIP3    H165650   3.570  -0.047   1.744  0.5989 -0.2933  0.6466
14745TIP3    H265651   3.598   0.014   1.879 -0.3687  1.0377  0.2704
14746TIP3   OH265652   0.213   1.100   2.043 -0.1676  0.3053  0.2245
14746TIP3    H165653   0.181   1.170   1.986 -0.5988 -0.5679 -0.6319
14746TIP3    H265654   0.245   1.033   1.983  0.1060 -0.3004  1.0309
14747TIP3   OH265655   3.785   2.389  15.693  0.4086 -0.1561  0.1157
14747TIP3    H165656   3.825   2.319  15.745 -0.2325 -0.9008 -0.3759
14747TIP3    H265657   3.723   2.431  15.752 -0.9416 -1.5486 -0.2770
14748TIP3   OH265658   3.450   1.388  12.630  0.1225 -0.1261 -0.0661
14748TIP3    H165659   3.492   1.326  12.690  1.7161  1.7333  0.8206
14748TIP3    H265660   3.454   1.344  12.545 -1.4938 -2.4746  0.9527
14749TIP3   OH265661   0.193   4.509  11.256  0.5817 -0.3771  0.4163
14749TIP3    H165662   0.263   4.575  11.257 -0.4966  0.8076  1.8589
14749TIP3    H265663   0.112   4.559  11.252 -0.2587 -1.7201 -0.9019
14750TIP3   OH265664   1.306   2.199   5.877 -0.0413 -0.0521  0.2548
14750TIP3    H165665   1.346   2.111   5.879 -1.2175 -0.6078 -0.0378
14750TIP3    H265666   1.227   2.190   5.929 -0.4153  0.7181 -0.1771
14751TIP3   OH265667   0.193   5.233   2.077 -0.2987 -0.4828  0.2631
14751TIP3    H165668   0.177   5.236   1.983 -0.8542 -1.2420  0.3237
14751TIP3    H265669   0.248   5.310   2.095 -0.4643 -0.1496 -0.6213
14752TIP3   OH265670   2.045   4.216   2.869 -0.2176  0.6848  0.3857
14752TIP3    H165671   1.989   4.222   2.946 -0.0263 -1.3657  0.7223
14752TIP3    H265672   2.096   4.136   2.882  0.9380  1.1350 -1.1343
14753TIP3   OH265673   3.637   3.331  15.485  0.3785 -0.1344 -0.3237
14753TIP3    H165674   3.592   3.389  15.547 -2.7400 -1.6323 -1.0393
14753TIP3    H265675   3.729   3.334  15.514 -0.1375  2.7428  1.5070
14754TIP3   OH265676   6.047   2.964   1.481  0.2385  0.1500  0.6524
14754TIP3    H165677   6.086   2.993   1.399  1.5713 -1.9814  0.4664
14754TIP3    H265678   6.048   3.042   1.537  3.8632  0.5175  0.2820
14755TIP3   OH265679   3.700   5.508   0.524  0.0655  0.3873  0.1600
14755TIP3    H165680   3.790   5.505   0.556 -0.0465  1.3025  0.5937
14755TIP3    H265681   3.647   5.484   0.600  0.0301 -3.0732 -0.8042
14756TIP3   OH265682   3.339   2.577   2.496 -0.8653 -0.4411  0.0581
14756TIP3    H165683   3.261   2.523   2.510  0.0013 -2.1748 -1.4026
14756TIP3    H265684   3.342   2.593   2.402  0.7630 -0.8307 -0.0015
14757TIP3   OH265685   1.720   3.144  12.940  0.1389  0.4045  0.1084
14757TIP3    H165686   1.701   3.234  12.965 -0.4231  0.2424  0.2680
14757TIP3    H265687   1.690   3.137  12.850 -0.5425  0.1604  0.3474
14758TIP3   OH265688   5.918   2.130   1.491 -0.0562 -0.2173 -0.6028
14758TIP3    H165689   6.004   2.091   1.509  0.8867  2.2960  1.0102
14758TIP3    H265690   5.925   2.159   1.400  0.0221 -1.7915 -1.1231
14759TIP3   OH265691   3.274   1.334  13.420 -0.5869 -0.1030 -0.2174
14759TIP3    H165692   3.233   1.262  13.467 -0.9333 -0.1835 -0.6342
14759TIP3    H265693   3.201   1.393  13.399 -0.0556  1.4269  1.9287
14760TIP3   OH265694   4.161   2.000  14.370  0.1961  0.6507  0.1851
14760TIP3    H165695   4.217   2.039  14.303  0.2610  0.5085  0.1569
14760TIP3    H265696   4.188   1.908  14.374  0.4862  0.7543  0.7063
14761TIP3   OH265697   3.480   2.017   1.836 -0.2247  0.0370  0.2468
14761TIP3    H165698   3.539   1.944   1.814  2.1244  1.9081 -0.0707
14761TIP3    H265699   3.493   2.030   1.929  1.6727  1.8337 -0.1936
14762TIP3   OH265700   1.408   4.213  11.662 -0.3822 -0.4309 -1.3601
14762TIP3    H165701   1.342   4.282  11.648  0.6242  0.6878 -0.7407
14762TIP3    H265702   1.491   4.255  11.640  0.6326 -0.3898  2.0071
14763TIP3   OH265703   0.311   4.961   3.154  0.0244 -0.0798  0.4067
14763TIP3    H165704   0.323   4.952   3.248  3.2439  0.3367  0.1448
14763TIP3    H265705   0.230   5.012   3.145 -0.4597 -0.2877  2.9108
14764TIP3   OH265706   3.177   4.257  14.980  0.2050  0.3499 -0.0370
14764TIP3    H165707   3.163   4.268  14.886  0.0462 -0.2077 -0.0814
14764TIP3    H265708   3.211   4.168  14.990 -0.5454  0.1113  0.5056
14765TIP3   OH265709   5.377   6.758  12.365 -0.0317 -0.3153 -0.0863
14765TIP3    H165710   5.414   6.755  12.277  1.1400 -0.0859  0.3840
14765TIP3    H265711   5.333   6.843  12.369  2.7509  1.2023  0.6094
14766TIP3   OH265712   0.172   1.906  16.904  0.0072 -0.0553  0.2559
14766TIP3    H165713   0.184   1.822  16.859 -0.1873  1.5043 -2.9869
14766TIP3    H265714   0.253   1.919  16.952 -0.1024 -2.2123  1.1544
14767TIP3   OH265715   3.901   5.256  13.386 -0.7704 -0.5368  0.1164
14767TIP3    H165716   3.849   5.277  13.464  0.2267 -2.7785  1.4895
14767TIP3    H265717   3.897   5.160  13.380 -0.4935 -0.4453 -2.4098
14768TIP3   OH265718   0.235   3.955  12.994  0.5360  0.1211  0.1768
14768TIP3    H165719   0.325   3.930  12.973  0.4640 -1.2655  1.3360
14768TIP3    H265720   0.232   4.049  12.979  2.1303  0.1607 -0.0685
14769TIP3   OH265721   5.649   3.310   2.962  0.0765 -0.2165 -0.4601
14769TIP3    H165722   5.564   3.278   2.993  1.1300 -2.3327  0.5533
14769TIP3    H265723   5.699   3.230   2.946  2.2522  0.9584  0.1166
14770TIP3   OH265724   0.907   1.170   5.369  0.1598  0.0403 -0.1891
14770TIP3    H165725   0.923   1.096   5.429 -1.8729  0.7800  1.4019
14770TIP3    H265726   0.820   1.152   5.332 -0.2676  1.4709  0.0557
14771TIP3   OH265727   4.456   1.660  14.589  0.2165 -0.1492  0.1634
14771TIP3    H165728   4.510   1.591  14.629  0.0767  0.5025  1.5121
14771TIP3    H265729   4.366   1.638  14.615  0.1335  0.3390  0.2843
14772TIP3   OH265730   5.792   2.047   3.633 -0.1835  0.0308 -0.0261
14772TIP3    H165731   5.728   2.033   3.703  1.9721 -2.1400  1.6873
14772TIP3    H265732   5.832   2.131   3.654  0.5331 -0.6510  1.5127
14773TIP3   OH265733   2.762   0.237  16.361  0.1194  0.1096  0.1878
14773TIP3    H165734   2.683   0.243  16.306  0.0308 -0.1183  0.2854
14773TIP3    H265735   2.772   0.143  16.377  0.8680  0.0633 -0.4814
14774TIP3   OH265736   3.730   2.478   0.148 -0.2191  0.6831  0.3270
14774TIP3    H165737   3.772   2.393   0.137 -0.8877  0.3624  0.2166
14774TIP3    H265738   3.687   2.473   0.233 -3.3974 -0.4990 -1.2048
14775TIP3   OH265739   0.198   1.919  14.879  0.3300  0.2820 -0.4214
14775TIP3    H165740   0.231   1.860  14.947  1.0940  1.3601  0.1760
14775TIP3    H265741   0.257   1.995  14.883 -0.2821  0.8350 -1.5541
14776TIP3   OH265742   4.716   2.268   2.106 -0.3809  0.5296  0.0598
14776TIP3    H165743   4.714   2.301   2.196 -0.8101 -0.1445  0.3039
14776TIP3    H265744   4.761   2.336   2.057 -1.4015  1.5755  0.5213
14777TIP3   OH265745   2.447   5.729  13.222  0.1988  0.3668 -0.0986
14777TIP3    H165746   2.520   5.714  13.282 -0.5446 -1.7653  0.3501
14777TIP3    H265747   2.380   5.772  13.275 -0.5595 -1.7510  0.7469
14778TIP3   OH265748   2.570   0.653  13.373  0.1681 -0.3969 -0.1249
14778TIP3    H165749   2.535   0.569  13.405  1.5475 -0.5839  1.0123
14778TIP3    H265750   2.647   0.628  13.322 -0.3841  0.0978 -1.2173
14779TIP3   OH265751   6.088   0.912   1.839  0.3848 -0.2088  0.1188
14779TIP3    H165752   6.132   0.860   1.771 -1.5189  0.1672 -1.5057
14779TIP3    H265753   6.135   0.994   1.842  2.0562 -1.1452  1.1293
14780TIP3   OH265754   1.711   1.471   3.392  0.3487  0.1805  0.1344
14780TIP3    H165755   1.758   1.422   3.324 -0.3057  0.8036 -0.7807
14780TIP3    H265756   1.626   1.490   3.353  1.1128  3.4299 -0.1950
14781TIP3   OH265757   1.339   6.217   4.808  0.0512  0.1093  0.1814
14781TIP3    H165758   1.294   6.158   4.867 -2.1157  0.1880 -1.2956
14781TIP3    H265759   1.270   6.270   4.768  1.6434  1.6834 -0.6624
14782TIP3   OH265760   3.397   6.716   1.019  0.3529 -0.2085  0.0242
14782TIP3    H165761   3.391   6.679   0.930 -1.3087 -0.7548  0.3344
14782TIP3    H265762   3.332   6.667   1.069  0.5080  0.8548  1.2917
14783TIP3   OH265763   5.258   4.047   1.116  0.3445 -0.4057 -0.6217
14783TIP3    H165764   5.334   4.092   1.154  1.8089 -1.3320 -2.3042
14783TIP3    H265765   5.255   4.078   1.025 -1.0474 -0.7355 -0.7187
14784TIP3   OH265766   1.269   2.456   1.235 -0.4962 -0.1816  0.8877
14784TIP3    H165767   1.299   2.543   1.206 -0.4430 -0.0145  1.4295
14784TIP3    H265768   1.335   2.429   1.299  1.4488 -2.1492 -1.7174
14785TIP3   OH265769   3.954   0.247   4.176  0.1130  0.8996  0.3991
14785TIP3    H165770   4.036   0.221   4.135 -0.0800  0.8776  0.0227
14785TIP3    H265771   3.927   0.171   4.228 -0.7806  0.0597 -1.1976
14786TIP3   OH265772   5.714   0.861   3.054  0.1384 -0.5073  0.0158
14786TIP3    H165773   5.703   0.858   3.149 -0.1088 -1.2997 -0.0353
14786TIP3    H265774   5.686   0.775   3.023 -0.7943  0.0999 -0.8887
14787TIP3   OH265775   4.639   4.648  16.948 -0.1375  0.4424  0.0629
14787TIP3    H165776   4.690   4.707  17.003 -0.0190 -0.1201  0.5698
14787TIP3    H265777   4.700   4.619  16.880  0.0403  0.2640  0.2975
14788TIP3   OH265778   5.235   3.004   4.895  0.1891 -0.0095  0.0827
14788TIP3    H165779   5.224   3.007   4.800 -0.5899 -0.7161  0.1378
14788TIP3    H265780   5.223   3.095   4.923 -1.1369 -0.0205 -0.3585
14789TIP3   OH265781   5.008   6.146   3.035 -0.1271 -0.5848  0.0115
14789TIP3    H165782   4.952   6.074   3.063  1.7693 -1.0918  2.9242
14789TIP3    H265783   4.967   6.224   3.074 -0.7689 -0.4158 -0.9712
14790TIP3   OH265784   0.873   3.670  14.704 -0.5899 -0.0175  0.0469
14790TIP3    H165785   0.823   3.705  14.631 -2.2386 -0.6318  0.8317
14790TIP3    H265786   0.823   3.695  14.782 -0.4947 -1.8878  0.7717
14791TIP3   OH265787   5.841   5.626   5.511  0.0412  0.1001  0.0428
14791TIP3    H165788   5.893   5.688   5.562 -0.8080 -0.5765  1.8375
14791TIP3    H265789   5.750   5.648   5.532 -0.3432 -0.3239 -1.0712
14792TIP3   OH265790   2.818   5.109  12.984 -0.4805 -0.4690 -0.3882
14792TIP3    H165791   2.861   5.119  13.069  0.6015 -0.0127 -0.9728
14792TIP3    H265792   2.741   5.165  12.990 -3.1900 -3.9756  1.9791
14793TIP3   OH265793   4.118   5.765   1.296 -0.4289  0.2995  0.4486
14793TIP3    H165794   4.053   5.725   1.237  0.3535 -1.1904  0.5366
14793TIP3    H265795   4.168   5.823   1.239 -0.1741 -0.5368 -0.2080
14794TIP3   OH265796   5.932   3.836   5.570 -0.0909  0.0269 -0.2372
14794TIP3    H165797   5.903   3.885   5.646 -1.1218 -1.8726  0.6688
14794TIP3    H265798   5.932   3.745   5.599 -1.5457 -0.8966 -2.7658
14795TIP3   OH265799   2.505   5.591  12.504  0.2146  0.0789  0.4291
14795TIP3    H165800   2.424   5.548  12.532  0.2618 -1.3796 -1.5067
14795TIP3    H265801   2.479   5.643  12.428  0.8506  0.6764  0.6132
14796TIP3   OH265802   6.222   3.065   0.881  0.3009  0.2456  0.4400
14796TIP3    H165803   6.204   3.146   0.832  0.6998 -0.1928 -0.4657
14796TIP3    H265804   6.261   3.007   0.816 -2.5150 -1.6985  0.3153
14797TIP3   OH265805   2.312   5.613  14.582 -0.0259 -0.3447  0.6719
14797TIP3    H165806   2.397   5.574  14.559 -0.9770 -1.8109 -0.5983
14797TIP3    H265807   2.319   5.633  14.675  1.6218 -0.6621  0.6506
14798TIP3   OH265808   6.773   5.469   1.413  0.0656  0.2673 -0.2130
14798TIP3    H165809   6.784   5.454   1.506 -2.0059 -2.1241 -0.2555
14798TIP3    H265810   6.678   5.463   1.398  0.4704 -1.9395 -2.7706
14799TIP3   OH265811   5.611   2.214  16.558 -0.1815 -0.3593  0.2681
14799TIP3    H165812   5.623   2.152  16.630 -1.1564  0.6533  1.3607
14799TIP3    H265813   5.678   2.191  16.494  0.9985 -1.0274  1.6923
14800TIP3   OH265814   5.573   0.167  13.917 -0.1711 -0.5371  0.0039
14800TIP3    H165815   5.596   0.116  13.838 -0.5717 -1.4660  0.4688
14800TIP3    H265816   5.479   0.151  13.928 -0.4257  0.7784 -0.1525
14801TIP3   OH265817   3.397   0.234   3.961  0.3163 -0.1128 -0.3108
14801TIP3    H165818   3.448   0.154   3.945  1.8754  0.5869  0.8779
14801TIP3    H265819   3.390   0.239   4.056  0.0572  1.0625 -0.3804
14802TIP3   OH265820   5.814   0.837   4.466 -0.1919  0.0862  0.1783
14802TIP3    H165821   5.813   0.928   4.494 -0.8808  0.7628 -1.8400
14802TIP3    H265822   5.740   0.797   4.510 -1.2447  1.1023 -0.6149
14803TIP3   OH265823   5.442   2.234   3.567  0.2850 -0.2205  0.2316
14803TIP3    H165824   5.455   2.327   3.586  0.5490  0.1350 -1.4624
14803TIP3    H265825   5.451   2.190   3.651  0.7623  1.2247  0.9664
14804TIP3   OH265826   1.485   1.772  13.238 -0.1879  0.5022  0.1960
14804TIP3    H165827   1.568   1.780  13.284  0.0894 -0.2528 -0.1653
14804TIP3    H265828   1.437   1.704  13.284 -0.0793  0.0366 -0.3667
14805TIP3   OH265829   3.161   0.674  11.459 -0.2007  0.7710  0.1319
14805TIP3    H165830   3.164   0.637  11.547  0.4394 -2.0362 -0.9617
14805TIP3    H265831   3.212   0.755  11.465  3.9707 -1.6492  1.4288
14806TIP3   OH265832   5.784   4.229   0.136 -0.2610 -0.4845 -0.2331
14806TIP3    H165833   5.869   4.266   0.110  0.4000 -0.9398  1.1753
14806TIP3    H265834   5.721   4.271   0.077  0.4985  2.5142  0.9039
14807TIP3   OH265835   6.107   0.148  13.307 -0.0048  0.2742  0.3213
14807TIP3    H165836   6.188   0.128  13.355  1.0564  2.8101 -0.2495
14807TIP3    H265837   6.037   0.128  13.369  1.2471  1.6287  2.3144
14808TIP3   OH265838   0.635   2.081  15.614 -0.7151  0.3679  0.1592
14808TIP3    H165839   0.723   2.117  15.605 -0.2432 -0.5401  0.8991
14808TIP3    H265840   0.645   2.008  15.676 -1.9359  0.0750  0.0457
14809TIP3   OH265841   0.776   1.041   4.337 -0.3730  0.3015 -0.1875
14809TIP3    H165842   0.748   1.108   4.399  1.2582  0.5619  0.3104
14809TIP3    H265843   0.819   0.975   4.391  1.5327  0.7799 -1.0599
14810TIP3   OH265844   2.515   5.969   1.105 -0.1426  0.4723  0.0958
14810TIP3    H165845   2.448   5.969   1.173  0.2219 -0.5622  0.4783
14810TIP3    H265846   2.573   5.896   1.128 -0.8092 -0.8426 -2.1079
14811TIP3   OH265847   3.159   0.911  12.187 -0.5345 -0.0701  0.7016
14811TIP3    H165848   3.113   0.989  12.219  0.5033  0.7388  0.2908
14811TIP3    H265849   3.223   0.892  12.255  0.8350  0.9056 -0.2624
14812TIP3   OH265850   3.247   2.814  15.409  0.6571 -0.3822  0.5845
14812TIP3    H165851   3.236   2.867  15.330  3.0175 -0.8151 -0.1219
14812TIP3    H265852   3.192   2.737  15.394 -1.0781  0.7863  0.6497
14813TIP3   OH265853   2.016   3.588  15.942 -0.1426  0.4874 -0.3897
14813TIP3    H165854   1.930   3.570  15.981  0.0580  0.7433  0.1779
14813TIP3    H265855   2.055   3.502  15.927 -0.2913  0.3830 -0.1807
14814TIP3   OH265856   5.431   0.918  15.590 -0.3478 -0.2030  0.3529
14814TIP3    H165857   5.444   0.829  15.625  1.1163 -0.0811  0.1519
14814TIP3    H265858   5.346   0.944  15.625  0.9719 -0.0964  3.8437
14815TIP3   OH265859   2.236   5.787   5.697  0.4079  0.7887  0.4630
14815TIP3    H165860   2.293   5.713   5.716 -1.0821 -1.2916 -2.3798
14815TIP3    H265861   2.170   5.785   5.767 -1.3577 -2.6280 -1.0718
14816TIP3   OH265862   2.372   3.923  13.577 -0.9479 -0.8856 -0.3678
14816TIP3    H165863   2.438   3.881  13.632 -1.2397 -2.4445 -1.1570
14816TIP3    H265864   2.418   3.997  13.537 -0.7142  0.2489  1.8602
14817TIP3   OH265865   0.406   5.817  14.736  0.1042  0.0328 -0.2161
14817TIP3    H165866   0.470   5.850  14.673 -0.8480 -0.1001 -1.2839
14817TIP3    H265867   0.370   5.739  14.695 -2.9989  1.7664 -1.1807
14818TIP3   OH265868   1.550   3.337  14.482  0.1758  0.3641 -0.6347
14818TIP3    H165869   1.567   3.347  14.388 -0.5382  0.2728 -0.7804
14818TIP3    H265870   1.455   3.351  14.491  0.1977  0.1257  0.0346
14819TIP3   OH265871   5.218   3.601   4.027 -1.0369  0.4417 -0.0974
14819TIP3    H165872   5.243   3.685   4.064 -0.0329  0.0003  0.2603
14819TIP3    H265873   5.301   3.561   4.000 -1.3641 -0.9515  0.8546
14820TIP3   OH265874   4.738   0.861  14.937 -0.4941  0.1881 -0.3664
14820TIP3    H165875   4.744   0.910  15.019  3.6124 -0.0443 -0.3068
14820TIP3    H265876   4.714   0.926  14.872 -0.5830  1.0834  0.5280
14821TIP3   OH265877   3.575   2.943  10.768  0.1109  0.3975 -0.4029
14821TIP3    H165878   3.588   3.020  10.824  0.6287 -1.0655  1.6224
14821TIP3    H265879   3.663   2.905  10.759 -0.2999 -0.6009 -0.3528
14822TIP3   OH265880   3.086   3.931  11.002  0.5628  0.2315  0.2557
14822TIP3    H165881   3.091   3.872  10.926  0.0091  0.2842  0.1749
14822TIP3    H265882   3.085   4.018  10.963 -0.4836  0.2413  0.2765
14823TIP3   OH265883   1.169   4.995   3.958 -0.4972 -0.1044 -0.0423
14823TIP3    H165884   1.230   5.066   3.937 -0.8016 -0.0304 -0.6923
14823TIP3    H265885   1.226   4.921   3.979 -0.1553  0.7125  2.1028
14824TIP3   OH265886   6.406   1.597   5.065 -0.4812 -0.0082 -0.5138
14824TIP3    H165887   6.435   1.526   5.008  1.0052  0.6553 -0.6316
14824TIP3    H265888   6.478   1.660   5.063 -0.8330  0.5231  1.2621
14825TIP3   OH265889   2.784   2.490  13.953  1.3597  0.4985  0.1165
14825TIP3    H165890   2.808   2.514  14.042 -1.2542  1.4155  0.6703
14825TIP3    H265891   2.762   2.573  13.910 -0.2943 -0.1534 -0.3965
14826TIP3   OH265892   6.525   0.629  12.245  0.1209  0.0505 -0.1032
14826TIP3    H165893   6.509   0.537  12.227 -1.5720  0.3786 -0.4459
14826TIP3    H265894   6.492   0.675  12.168  0.4882  0.9865  0.2783
14827TIP3   OH265895   6.641   2.752  16.114 -0.0658 -0.0201 -0.5710
14827TIP3    H165896   6.643   2.846  16.129 -0.9386  0.0437 -0.7887
14827TIP3    H265897   6.655   2.714  16.200 -0.2124  0.3182 -0.3943
14828TIP3   OH265898   2.622   6.482  13.702 -0.2297  0.4278  0.4015
14828TIP3    H165899   2.706   6.438  13.696 -0.5179 -0.2393  1.0616
14828TIP3    H265900   2.643   6.571  13.729  0.2987  0.4299 -0.0077
14829TIP3   OH265901   4.422   1.116  14.922 -0.2124 -0.1859 -0.1179
14829TIP3    H165902   4.516   1.135  14.916 -0.0277  0.4270  2.9346
14829TIP3    H265903   4.381   1.201  14.938 -0.8572 -0.7548  1.6044
14830TIP3   OH265904   4.699   5.920  15.128 -0.3830  0.6094 -0.1837
14830TIP3    H165905   4.741   5.862  15.063  1.7086  0.5111  1.1710
14830TIP3    H265906   4.772   5.964  15.171 -1.8475  2.5659  0.4098
14831TIP3   OH265907   2.182   4.433   5.739 -0.6550  0.1937 -0.0727
14831TIP3    H165908   2.168   4.399   5.651 -0.3903 -1.0747  0.3386
14831TIP3    H265909   2.110   4.394   5.790  0.9804 -1.7538  0.8989
14832TIP3   OH265910   3.875   3.799   2.865 -0.3345 -0.0823  0.0208
14832TIP3    H165911   3.893   3.705   2.875  0.1233  0.0427  0.4288
14832TIP3    H265912   3.961   3.840   2.870 -0.4596  0.3015 -0.9112
14833TIP3   OH265913   4.693   0.203  15.587 -0.3078 -0.3617  0.0359
14833TIP3    H165914   4.725   0.245  15.667 -0.7855  0.3729 -0.1576
14833TIP3    H265915   4.598   0.205  15.595 -0.3623 -0.0309 -0.6826
14834TIP3   OH265916   1.469   2.950  12.222 -0.4457 -0.2217  0.1190
14834TIP3    H165917   1.535   2.893  12.264 -1.0481  0.6166  2.3289
14834TIP3    H265918   1.516   2.990  12.149  0.6645 -1.7410 -0.0689
14835TIP3   OH265919   6.444   1.870  14.638  0.1778 -0.0125 -0.0008
14835TIP3    H165920   6.441   1.775  14.648  0.0460 -0.1801 -1.3301
14835TIP3    H265921   6.442   1.905  14.727  2.0137 -1.2798  0.5886
14836TIP3   OH265922   4.345   3.068   0.035  0.0005 -0.0879  0.0925
14836TIP3    H165923   4.379   2.986  -0.000  2.9748  0.9277  0.2458
14836TIP3    H265924   4.357   3.061   0.130 -1.1975 -0.0575  0.2584
14837TIP3   OH265925   2.587   5.847   4.728  0.3787  0.0800 -0.0120
14837TIP3    H165926   2.528   5.798   4.671 -0.3993 -0.3050  1.0816
14837TIP3    H265927   2.644   5.780   4.767  1.3281  0.4110 -0.8023
14838TIP3   OH265928   0.764   6.433   5.462  0.6055 -0.3879  0.0176
14838TIP3    H165929   0.679   6.434   5.418  0.4386 -1.4184  0.2779
14838TIP3    H265930   0.825   6.403   5.394  0.6172 -0.4632  0.0615
14839TIP3   OH265931   5.000   0.948   0.882 -0.4521 -0.3428 -0.1020
14839TIP3    H165932   4.943   1.017   0.848  0.1873  0.2343 -0.0235
14839TIP3    H265933   5.088   0.974   0.855 -0.4339 -2.7267 -2.8801
14840TIP3   OH265934   1.836   1.587  12.076 -0.6369 -0.0356  0.4044
14840TIP3    H165935   1.843   1.514  12.014  0.6450 -0.3902  0.9475
14840TIP3    H265936   1.767   1.560  12.137 -1.5855  0.1131 -0.5694
14841TIP3   OH265937   0.051   4.452   2.785  0.1021  0.1246  1.0051
14841TIP3    H165938   0.044   4.489   2.873  0.8158 -0.0349  1.1304
14841TIP3    H265939   0.145   4.443   2.769  0.0048  0.6739  0.0093
14842TIP3   OH265940   3.895   3.831   5.190 -0.2449  0.6827  0.5012
14842TIP3    H165941   3.929   3.795   5.107 -2.5623 -0.0043 -0.2295
14842TIP3    H265942   3.908   3.925   5.182  2.0922  0.4194  0.6069
14843TIP3   OH265943   1.776   2.468  16.628  0.1704 -0.1658  0.1768
14843TIP3    H165944   1.871   2.481  16.619  0.1073  0.0857 -0.1572
14843TIP3    H265945   1.761   2.469  16.723  0.5306 -0.4264  0.2412
14844TIP3   OH265946   4.643   3.567   5.137  0.0022  0.1223  0.0423
14844TIP3    H165947   4.733   3.564   5.167 -0.1647 -0.6810  0.4872
14844TIP3    H265948   4.591   3.565   5.218 -0.4131  1.6164 -0.1558
14845TIP3   OH265949   2.484   2.585  16.150 -0.0282  0.3452 -0.0066
14845TIP3    H165950   2.457   2.499  16.117 -1.1060  0.9748 -0.8160
14845TIP3    H265951   2.440   2.592  16.235 -0.2209  0.2342 -0.0950
14846TIP3   OH265952   0.817   6.670  12.046  0.4539 -0.0967 -0.0211
14846TIP3    H165953   0.795   6.699  12.135 -1.4967 -0.5345 -0.3220
14846TIP3    H265954   0.824   6.751  11.996 -1.3533  0.0578 -0.0733
14847TIP3   OH265955   0.269   4.873   4.455 -0.3512  0.1042  0.2051
14847TIP3    H165956   0.347   4.902   4.502  0.7590 -2.7595  0.3682
14847TIP3    H265957   0.211   4.839   4.523 -0.8000  0.2441 -0.1022
14848TIP3   OH265958   0.569   1.041  13.670  0.3289 -0.4674 -0.3308
14848TIP3    H165959   0.566   1.112  13.606  0.4757 -1.3554 -1.3426
14848TIP3    H265960   0.613   0.969  13.625  2.9104 -0.2797  1.6135
14849TIP3   OH265961   2.356   3.144  15.227  0.8494  0.1768 -0.1301
14849TIP3    H165962   2.361   3.174  15.317 -1.5530  0.6371 -0.0651
14849TIP3    H265963   2.289   3.200  15.187  1.2074 -0.6139 -1.9394
14850TIP3   OH265964   0.713   6.335   6.389  0.0623  0.2442 -0.6972
14850TIP3    H165965   0.649   6.308   6.455  1.7673 -0.1293  0.9274
14850TIP3    H265966   0.770   6.258   6.379  0.1223  0.4651 -2.2959
14851TIP3   OH265967   1.288   4.499   5.565 -0.0898  0.3665  0.3841
14851TIP3    H165968   1.253   4.546   5.490 -0.3371  0.3505  0.4886
14851TIP3    H265969   1.351   4.437   5.527  0.7603  1.2463  0.3066
14852TIP3   OH265970   1.843   0.798  10.667  0.5230 -0.2786  0.1840
14852TIP3    H165971   1.784   0.724  10.685 -0.2557  0.2288 -0.2422
14852TIP3    H265972   1.813   0.867  10.727 -0.2043  0.4368 -0.9580
14853TIP3   OH265973   2.383   2.401  14.401 -0.3913  0.3222  0.0732
14853TIP3    H165974   2.307   2.356  14.439 -0.1702 -0.4372 -0.3540
14853TIP3    H265975   2.394   2.361  14.315  1.1996 -0.4572  0.5797
14854TIP3   OH265976   0.409   6.106   5.824  0.4911  0.7250 -0.4978
14854TIP3    H165977   0.365   6.136   5.904  1.7981  1.9926 -0.2147
14854TIP3    H265978   0.493   6.153   5.824  1.5441 -1.0403 -1.3872
14855TIP3   OH265979   4.792   5.542   1.253 -0.0807  0.2215  0.1706
14855TIP3    H165980   4.766   5.556   1.162  2.0636  1.8799 -0.2590
14855TIP3    H265981   4.853   5.612   1.272  0.6071 -0.8923  2.4852
14856TIP3   OH265982   5.937   6.344   5.394 -0.4146  0.1699  0.1801
14856TIP3    H165983   5.909   6.434   5.410 -0.7903 -0.0449  0.7391
14856TIP3    H265984   5.865   6.304   5.346 -0.8627 -0.2233  1.1420
14857TIP3   OH265985   6.498   0.155   0.761 -0.2119  0.0001  0.0986
14857TIP3    H165986   6.435   0.207   0.710 -0.1943  0.9320  0.9910
14857TIP3    H265987   6.449   0.129   0.839  0.7177  1.4553  1.2166
14858TIP3   OH265988   6.355   1.815  12.065  0.0838 -0.0535 -0.0019
14858TIP3    H165989   6.404   1.867  12.128 -0.3600 -0.5318  0.7533
14858TIP3    H265990   6.410   1.738  12.048 -0.5835 -0.8329  1.2164
14859TIP3   OH265991   5.133   3.246   0.724  0.6129  0.1274  0.3153
14859TIP3    H165992   5.173   3.260   0.810  1.6548 -1.8809  0.2183
14859TIP3    H265993   5.190   3.293   0.664  0.2513  0.9990  0.6437
14860TIP3   OH265994   2.008   0.006  13.228 -0.0756  0.0222 -0.0687
14860TIP3    H165995   2.050  -0.066  13.275 -1.5370 -0.7938  0.0500
14860TIP3    H265996   1.954   0.049  13.295  0.7102  1.1999 -0.1565
14861TIP3   OH265997   2.645   4.418   0.551 -0.1653 -0.0356  0.6382
14861TIP3    H165998   2.633   4.513   0.544  0.8639  0.0669  0.1395
14861TIP3    H265999   2.739   4.407   0.565  0.4243 -1.1505 -3.1658
14862TIP3   OH266000   4.732   3.289  14.169 -0.1906  0.1509 -0.5235
14862TIP3    H166001   4.800   3.330  14.115  0.2926 -0.2388 -0.2125
14862TIP3    H266002   4.671   3.252  14.106  0.3123 -0.2001 -0.8149
14863TIP3   OH266003   2.320   4.508  11.927  0.3576  0.1974  0.3864
14863TIP3    H166004   2.395   4.452  11.905  0.0482  0.1010 -0.4455
14863TIP3    H266005   2.290   4.542  11.843 -0.4880  0.2957  0.7222
14864TIP3   OH266006   5.468   5.884  15.558  0.2818 -0.4382 -0.3708
14864TIP3    H166007   5.399   5.923  15.505  1.2534  0.7168 -0.8468
14864TIP3    H266008   5.527   5.957  15.578  1.7679 -1.5077 -0.6314
14865TIP3   OH266009   5.779   1.910   4.909  0.2158 -0.1123 -0.0898
14865TIP3    H166010   5.783   2.006   4.900  0.9840 -0.2766 -1.7772
14865TIP3    H266011   5.725   1.881   4.836 -0.3812 -0.9629  0.6706
14866TIP3   OH266012   6.415   4.559   2.355  0.7115 -0.0393 -0.1886
14866TIP3    H166013   6.327   4.590   2.333  1.3816 -0.1390 -3.6140
14866TIP3    H266014   6.438   4.605   2.436 -1.8105  1.3147 -0.1679
14867TIP3   OH266015   4.679   1.314  16.253  0.6935 -0.5154 -0.9900
14867TIP3    H166016   4.769   1.311  16.283  0.2020  0.5357  0.7318
14867TIP3    H266017   4.666   1.405  16.225 -0.0750 -0.4069 -0.3381
14868TIP3   OH266018   6.612   6.062   4.821 -0.0340  0.1736  0.9832
14868TIP3    H166019   6.600   5.972   4.853  0.6464 -0.2412  0.1123
14868TIP3    H266020   6.661   6.052   4.740 -1.9480  1.1593 -0.3824
14869TIP3   OH266021   0.137   5.890   0.120  0.1417  0.5878  0.9434
14869TIP3    H166022   0.153   5.983   0.137  0.4278  0.6289  0.4777
14869TIP3    H266023   0.044   5.885   0.099  0.0493  0.7143  1.3203
14870TIP3   OH266024   0.550   1.955  14.844  0.0648  0.0676  0.2706
14870TIP3    H166025   0.622   2.002  14.803 -0.1098  0.2848  0.2140
14870TIP3    H266026   0.479   2.018  14.848 -0.1993 -0.2163  0.1142
14871TIP3   OH266027   2.648   3.339  14.155  0.3089 -0.0351 -0.1818
14871TIP3    H166028   2.688   3.282  14.221  0.6981 -0.5879 -0.8687
14871TIP3    H266029   2.649   3.286  14.075  1.2720  1.1661 -1.0031
14872TIP3   OH266030   3.281   6.661   3.477 -0.4352 -0.0877  0.5886
14872TIP3    H166031   3.271   6.755   3.493  1.5431  0.4043 -0.7189
14872TIP3    H266032   3.343   6.632   3.544 -0.4136 -0.2632  0.4933
14873TIP3   OH266033   1.423   0.195   2.732 -0.2233  0.1509 -0.8617
14873TIP3    H166034   1.442   0.202   2.639  0.7043  0.7309 -0.6357
14873TIP3    H266035   1.374   0.274   2.753 -0.5689 -0.0553 -0.8878
14874TIP3   OH266036   1.549   4.019   4.537 -0.9269  0.0768  0.7167
14874TIP3    H166037   1.486   3.947   4.541 -0.8686 -0.1014 -1.0712
14874TIP3    H266038   1.626   3.984   4.582 -2.0339  0.3205  2.9964
14875TIP3   OH266039   2.333   1.350  11.454  0.0362  0.5900  0.2373
14875TIP3    H166040   2.315   1.377  11.544  0.1374  1.0676  0.1167
14875TIP3    H266041   2.282   1.411  11.400 -1.4823 -0.8020 -0.0049
14876TIP3   OH266042   1.067   5.189   5.472 -0.2175  0.2900  0.1492
14876TIP3    H166043   1.096   5.218   5.558  1.0282 -0.2220 -0.0634
14876TIP3    H266044   1.096   5.258   5.412 -2.1574  1.2446  0.2379
14877TIP3   OH266045   4.345   2.904  16.229  0.5544 -0.0517  0.1733
14877TIP3    H166046   4.377   2.965  16.295 -0.6973 -0.0328  0.7838
14877TIP3    H266047   4.424   2.864  16.192  1.4133  2.0471 -0.3643
14878TIP3   OH266048   5.453   5.834  13.743 -0.1391 -0.2653 -0.2913
14878TIP3    H166049   5.521   5.897  13.768  0.9837 -1.6888  0.3599
14878TIP3    H266050   5.499   5.767  13.692 -0.6174 -2.2735  1.7410
14879TIP3   OH266051   4.803   2.974  11.251 -0.2184  0.2808 -0.1525
14879TIP3    H166052   4.748   2.928  11.188  0.5225  0.0961 -0.6804
14879TIP3    H266053   4.831   2.906  11.312  0.8924 -0.0043 -0.9441
14880TIP3   OH266054   0.610   4.718   1.766  0.0299  0.1054 -0.4098
14880TIP3    H166055   0.625   4.646   1.705 -1.5692 -0.3241 -0.3278
14880TIP3    H266056   0.697   4.737   1.802  0.8093 -0.4205 -1.9147
14881TIP3   OH266057   0.172   1.661   0.572  0.7470 -0.3863 -0.1785
14881TIP3    H166058   0.253   1.613   0.591  1.0631  0.0373 -0.4413
14881TIP3    H266059   0.120   1.652   0.651  0.8249 -1.1144 -0.1996
14882TIP3   OH266060   5.920   6.474  10.891 -0.1171 -0.7636 -0.1188
14882TIP3    H166061   5.848   6.481  10.829  0.1380 -0.5346 -0.3932
14882TIP3    H266062   5.927   6.380  10.909  0.5056 -0.9704 -1.2905
14883TIP3   OH266063   0.003   1.495  13.088  0.7368  0.3064  0.4024
14883TIP3    H166064   0.043   1.566  13.138 -0.7648  1.4869 -0.0133
14883TIP3    H266065   0.042   1.503  13.001  1.4479 -0.1532  0.6651
14884TIP3   OH266066   6.708   3.013   3.968 -0.5835  0.0133 -0.3016
14884TIP3    H166067   6.774   2.964   4.017 -0.5896 -1.1102 -1.3716
14884TIP3    H266068   6.664   2.948   3.914 -2.1732  0.8371 -0.0785
14885TIP3   OH266069   4.515   2.673   0.331 -0.1673  0.1955 -0.1531
14885TIP3    H166070   4.532   2.589   0.374  0.6991 -0.4155 -1.6169
14885TIP3    H266071   4.602   2.711   0.319 -0.1996 -0.3541 -2.6625
14886TIP3   OH266072   2.409   2.475  16.674 -0.0054  0.5296 -0.0340
14886TIP3    H166073   2.491   2.508  16.711  0.4275  0.4815 -0.9188
14886TIP3    H266074   2.409   2.382  16.694 -0.7696  0.8529  1.6308
14887TIP3   OH266075   4.557   1.929  12.093  0.1280 -0.5021 -0.1271
14887TIP3    H166076   4.573   2.023  12.094 -1.3370 -0.2144 -1.1592
14887TIP3    H266077   4.638   1.892  12.059 -0.3562  0.6806 -2.8002
14888TIP3   OH266078   5.974   0.067   2.787 -0.3850 -0.1427  0.4820
14888TIP3    H166079   5.924   0.022   2.720 -0.5391 -0.0789  0.5545
14888TIP3    H266080   6.022  -0.003   2.833  0.1109 -0.1388 -0.0155
14889TIP3   OH266081   1.484   5.061   0.941  0.0471 -0.2493 -0.0807
14889TIP3    H166082   1.559   5.061   1.001  2.1791 -1.8700 -2.4786
14889TIP3    H266083   1.482   5.149   0.904  0.8049 -0.1779  0.0365
14890TIP3   OH266084   2.376   6.314  15.629 -0.3501  0.4420 -0.0326
14890TIP3    H166085   2.345   6.239  15.680 -0.2213 -0.3636 -1.0955
14890TIP3    H266086   2.333   6.389  15.669  1.2517  0.1176  2.5095
14891TIP3   OH266087   6.805   6.527   3.852 -0.2644  0.1218  0.4930
14891TIP3    H166088   6.832   6.618   3.838  0.2931  0.0696  1.1634
14891TIP3    H266089   6.887   6.478   3.855 -0.3279  0.0416  3.1815
14892TIP3   OH266090   2.875   6.035   0.070 -0.4389 -0.3085 -0.0949
14892TIP3    H166091   2.809   5.966   0.072 -0.3528 -0.4487 -1.4249
14892TIP3    H266092   2.870   6.075   0.157  0.9869 -3.3361  1.5524
14893TIP3   OH266093   4.296   4.791   2.298  0.1192 -0.3128  0.6499
14893TIP3    H166094   4.319   4.700   2.313  0.5682 -0.2175  0.5396
14893TIP3    H266095   4.334   4.812   2.213  0.4908  0.1419  0.9268
14894TIP3   OH266096   2.414   3.487   3.881 -0.0989  0.0703  0.1831
14894TIP3    H166097   2.377   3.496   3.793 -0.5475 -0.5934  0.3015
14894TIP3    H266098   2.475   3.561   3.888  0.6115 -0.3592 -1.0223
14895TIP3   OH266099   2.060   5.623   4.381 -0.1534  0.5423  0.3232
14895TIP3    H166100   2.127   5.691   4.394  0.7534 -0.4746  1.1555
14895TIP3    H266101   1.977   5.669   4.394  0.4452  1.4478  1.1603
14896TIP3   OH266102   2.266   0.197  16.985  0.1354 -0.1071  0.3203
14896TIP3    H166103   2.189   0.171  17.035 -0.0233  2.9716  1.9273
14896TIP3    H266104   2.255   0.290  16.970  2.1984 -0.1337 -1.9819
14897TIP3   OH266105   5.597   2.574  13.159  0.0882 -0.1455 -0.0479
14897TIP3    H166106   5.543   2.532  13.225 -1.6233  0.7928 -0.7868
14897TIP3    H266107   5.552   2.656  13.139  2.5745  1.4320  0.3549
14898TIP3   OH266108   3.694   1.949   1.646 -0.4084 -0.0635 -0.1770
14898TIP3    H166109   3.720   2.041   1.649 -2.3447  0.8301 -4.0320
14898TIP3    H266110   3.607   1.950   1.606 -1.3615 -3.5345  1.3849
14899TIP3   OH266111   6.730   6.653  11.261  0.0138 -0.2171  0.6954
14899TIP3    H166112   6.667   6.721  11.235 -0.7432 -0.5747  1.5224
14899TIP3    H266113   6.761   6.616  11.178 -2.4029 -1.4069  0.2298
14900TIP3   OH266114   2.665   3.840  11.940  0.2619  0.2098 -0.7665
14900TIP3    H166115   2.754   3.860  11.911  0.3662 -1.8986 -2.1552
14900TIP3    H266116   2.610   3.868  11.867 -0.2722  1.6134  0.1340
14901TIP3   OH266117   5.311   5.832  14.407 -0.3617  0.0832 -0.1400
14901TIP3    H166118   5.252   5.836  14.331 -0.3993 -0.1375 -0.1228
14901TIP3    H266119   5.391   5.791  14.374  0.0967  1.1235 -0.3609
14902TIP3   OH266120   0.577   5.084  11.748 -0.7041  0.0309  0.0521
14902TIP3    H166121   0.653   5.077  11.690 -0.0900  0.6594  0.7479
14902TIP3    H266122   0.558   5.178  11.750 -0.5802  0.0443  1.0171
14903TIP3   OH266123   2.877   5.412  13.092 -0.4868 -0.3883 -0.2704
14903TIP3    H166124   2.966   5.446  13.098 -0.1284 -1.0201 -1.7350
14903TIP3    H266125   2.831   5.473  13.036 -1.1755  0.2630  0.9522
14904TIP3   OH266126   1.444   0.705   0.756 -0.0891  0.2267  0.0365
14904TIP3    H166127   1.522   0.653   0.736 -0.2053 -0.0845  0.3727
14904TIP3    H266128   1.440   0.771   0.686  1.3555  1.2448  0.8620
14905TIP3   OH266129   1.426   3.602   5.527 -0.6306 -0.1758  0.2240
14905TIP3    H166130   1.349   3.573   5.480 -1.6012 -0.6270  2.0029
14905TIP3    H266131   1.393   3.663   5.593  0.2882 -1.5146  2.0086
14906TIP3   OH266132   1.638   1.585  13.663  0.0342  0.2913 -0.7116
14906TIP3    H166133   1.713   1.532  13.690 -0.7267 -0.0256  0.8963
14906TIP3    H266134   1.676   1.668  13.637  0.8842  0.5963  1.3169
14907TIP3   OH266135   5.600   0.599   1.586  0.3874 -0.0423  0.0721
14907TIP3    H166136   5.622   0.586   1.678  0.6764 -0.7768 -0.0883
14907TIP3    H266137   5.549   0.521   1.563  2.2560 -1.0548 -0.9686
14908TIP3   OH266138   0.625   5.759  15.451 -0.0132  0.4052 -0.1652
14908TIP3    H166139   0.679   5.798  15.381 -1.4990  1.1316 -0.9588
14908TIP3    H266140   0.617   5.829  15.516 -0.6555  0.6023 -0.4430
14909TIP3   OH266141   3.259   1.401   1.300 -0.6706  0.3103 -0.4859
14909TIP3    H166142   3.318   1.346   1.352 -0.6716 -0.1119 -0.9224
14909TIP3    H266143   3.231   1.345   1.228 -0.0153  1.1295 -1.4125
14910TIP3   OH266144   1.597   6.532  15.153  0.0264 -0.3752 -0.3012
14910TIP3    H166145   1.656   6.463  15.121  1.2322  0.2487  0.5027
14910TIP3    H266146   1.511   6.508  15.118  0.5076 -2.0126 -0.4481
14911TIP3   OH266147   1.168   6.452  12.195  0.0631 -0.0455  0.7699
14911TIP3    H166148   1.231   6.426  12.128  1.3200  0.6372  1.6354
14911TIP3    H266149   1.139   6.539  12.168  0.5389  0.2125  1.0692
14912TIP3   OH266150   1.485   5.791  16.007  0.4829 -0.1758 -0.7125
14912TIP3    H166151   1.509   5.784  16.099  1.4047  1.0892 -0.8340
14912TIP3    H266152   1.391   5.812  16.009 -0.2558 -3.1119 -0.1858
14913TIP3   OH266153   5.806   0.538  15.380  0.0686  0.4783 -0.0940
14913TIP3    H166154   5.713   0.562  15.383 -0.3240 -0.9606  0.3622
14913TIP3    H266155   5.820   0.507  15.290 -0.6778 -2.0074  0.5683
14914TIP3   OH266156   1.444   1.196   2.642 -0.4499  0.6844 -0.3886
14914TIP3    H166157   1.505   1.233   2.578  0.1771  1.6460  0.7297
14914TIP3    H266158   1.369   1.255   2.641 -0.8407  0.1981 -0.8539
14915TIP3   OH266159   6.363   6.301   5.592  0.5584 -0.1792  0.1245
14915TIP3    H166160   6.286   6.320   5.647 -0.3427 -0.9670 -0.8207
14915TIP3    H266161   6.366   6.206   5.587  0.5198 -0.1307 -1.2834
14916TIP3   OH266162   4.618   4.903   1.163 -1.1024  0.1165  0.0936
14916TIP3    H166163   4.693   4.942   1.118 -0.9776  0.3080  0.4665
14916TIP3    H266164   4.595   4.827   1.109 -0.2453 -0.3099  0.3117
14917TIP3   OH266165   3.679   2.354  13.155  0.2771  0.4788 -0.2069
14917TIP3    H166166   3.686   2.286  13.088  1.1996 -0.1232  0.4710
14917TIP3    H266167   3.735   2.425  13.123 -0.5339  0.8511 -0.8230
14918TIP3   OH266168   6.235   5.726   2.374 -1.2192 -0.0991  0.0686
14918TIP3    H166169   6.329   5.727   2.357 -1.2252  0.6485  0.0624
14918TIP3    H266170   6.214   5.816   2.399 -1.8548 -0.3622  0.4956
14919TIP3   OH266171   0.891   6.321  14.605 -0.4977  0.3605  0.1153
14919TIP3    H166172   0.916   6.332  14.513  1.6015 -0.3705  0.5437
14919TIP3    H266173   0.974   6.319  14.653 -1.4424 -1.0736  1.8283
14920TIP3   OH266174   4.164   5.466   0.870 -0.7913 -0.0732  0.4490
14920TIP3    H166175   4.095   5.410   0.905  0.3614 -0.9711  1.4033
14920TIP3    H266176   4.208   5.501   0.948 -0.8836  1.4151 -0.1353
14921TIP3   OH266177   1.506   2.103  12.139 -0.3078  0.3577  0.3094
14921TIP3    H166178   1.596   2.082  12.113 -0.6178 -1.2283  0.3858
14921TIP3    H266179   1.515   2.176  12.200  0.7163  1.8946 -1.5422
14922TIP3   OH266180   3.576   5.496  14.626 -0.1297  0.2672  0.2293
14922TIP3    H166181   3.570   5.436  14.701 -0.0018  0.2561  0.2302
14922TIP3    H266182   3.669   5.512  14.616 -0.1840  0.7223  0.4340
14923TIP3   OH266183   2.453   3.498  16.083  0.7112 -0.0091  0.1091
14923TIP3    H166184   2.471   3.558  16.010 -0.7195 -0.9039 -1.0324
14923TIP3    H266185   2.501   3.419  16.062  2.8645  0.7589  1.7845
14924TIP3   OH266186   3.965   4.152   1.183  0.3589  0.3709 -0.1785
14924TIP3    H166187   3.974   4.225   1.244  0.9473  1.1974 -1.2193
14924TIP3    H266188   4.047   4.103   1.192 -0.4267 -0.7466  1.2183
14925TIP3   OH266189   4.433   5.789  13.596  0.2681  0.5108  0.4675
14925TIP3    H166190   4.471   5.776  13.509  1.5186 -0.2134  1.0949
14925TIP3    H266191   4.502   5.833  13.646  0.3749 -0.9702  1.6837
14926TIP3   OH266192   5.082   2.886  14.076 -0.2348  0.1835 -0.1854
14926TIP3    H166193   5.068   2.968  14.028 -1.3667  0.0355 -0.1425
14926TIP3    H266194   5.129   2.830  14.015  1.2908  1.1313  0.0695
14927TIP3   OH266195   2.034   2.151   5.968  0.4181 -0.3613  0.2242
14927TIP3    H166196   2.119   2.108   5.963  0.2449 -0.6679 -0.0443
14927TIP3    H266197   2.055   2.242   5.993  0.7988 -0.5133  0.4622
14928TIP3   OH266198   1.280   1.746  13.074 -0.2716 -0.2009  0.0034
14928TIP3    H166199   1.354   1.739  13.134 -0.6895  0.2166  0.5725
14928TIP3    H266200   1.288   1.833  13.036 -0.3504 -0.2392 -0.1029
14929TIP3   OH266201   1.097   0.243   0.316  0.2007 -0.5713 -0.1888
14929TIP3    H166202   1.025   0.249   0.253 -0.3782  0.7375  0.5601
14929TIP3    H266203   1.159   0.311   0.288 -0.3747  0.4861  0.9941
14930TIP3   OH266204   3.283   0.270  12.912 -0.4266  0.2870  0.8038
14930TIP3    H166205   3.242   0.301  12.993 -1.3714  0.0858  0.4143
14930TIP3    H266206   3.348   0.337  12.891 -0.8197  0.8115  1.2331
14931TIP3   OH266207   3.022   1.804  12.348  0.5470 -0.5283  0.0444
14931TIP3    H166208   3.102   1.837  12.389  0.9304  0.2872 -1.3129
14931TIP3    H266209   3.030   1.826  12.256 -0.7961 -1.3412 -0.3077
14932TIP3   OH266210   6.490   3.676   3.354 -0.2091 -0.3142  0.3227
14932TIP3    H166211   6.500   3.692   3.448  0.1340 -0.1131  0.2566
14932TIP3    H266212   6.508   3.582   3.344  2.9139  0.2022  0.0854
14933TIP3   OH266213   0.343   1.254  11.797 -0.3653  0.4180 -0.0382
14933TIP3    H166214   0.423   1.209  11.827 -0.3803  0.2548 -0.2407
14933TIP3    H266215   0.275   1.186  11.800 -0.5392  0.6028  0.3111
14934TIP3   OH266216   6.338   2.812   4.345 -0.8368  0.1331  0.2302
14934TIP3    H166217   6.313   2.740   4.287 -0.3761  1.2593 -1.4159
14934TIP3    H266218   6.339   2.890   4.289 -0.2400  1.2490  1.7187
14935TIP3   OH266219   4.418   3.911   2.160 -0.1257  0.3470  0.0057
14935TIP3    H166220   4.384   3.895   2.248 -1.7474  3.9606  0.2050
14935TIP3    H266221   4.347   3.958   2.115  1.7359  1.1922 -2.2398
14936TIP3   OH266222   4.995   1.474  13.569 -0.6684 -0.7469  0.4213
14936TIP3    H166223   5.024   1.523  13.493 -1.8705  0.2421  0.5665
14936TIP3    H266224   5.075   1.442  13.610  0.1388  0.9662  0.2330
14937TIP3   OH266225   5.826   6.439   2.403 -0.4840  0.0811  0.1556
14937TIP3    H166226   5.901   6.383   2.421 -0.2156  0.2902 -0.2960
14937TIP3    H266227   5.752   6.394   2.444 -0.4681 -1.1554 -1.0850
14938TIP3   OH266228   2.947   0.467  10.557  0.3856  0.0132  0.3003
14938TIP3    H166229   2.855   0.448  10.539  0.4544 -0.2373  0.2144
14938TIP3    H266230   2.945   0.551  10.603  0.0103 -0.6904  1.6175
14939TIP3   OH266231   4.970   3.967  12.119 -0.1608 -0.1205 -0.1998
14939TIP3    H166232   4.947   3.985  12.028  0.0043 -0.4180 -0.3023
14939TIP3    H266233   5.021   4.043  12.147  1.2094 -0.7654 -0.8718
14940TIP3   OH266234   5.640   0.074   0.076  0.4023  0.3298 -0.1341
14940TIP3    H166235   5.712   0.014   0.096  1.0418  1.2495  0.4010
14940TIP3    H266236   5.596   0.034   0.000  0.6004 -0.9702  0.4028
14941TIP3   OH266237   0.206   1.173  13.468  0.0926 -0.2873 -0.0774
14941TIP3    H166238   0.124   1.123  13.458  0.3862 -0.7550 -0.1580
14941TIP3    H266239   0.220   1.213  13.382 -0.9952  1.2743  0.4212
14942TIP3   OH266240   0.397   1.579   3.920  0.0374  0.5329 -0.0229
14942TIP3    H166241   0.437   1.494   3.935 -0.3378  0.2070 -0.8151
14942TIP3    H266242   0.318   1.560   3.870  0.1210  1.3768 -0.4976
14943TIP3   OH266243   0.950   1.239   2.707 -0.0745  0.2101 -0.1240
14943TIP3    H166244   1.005   1.162   2.694 -1.6997 -1.3321  1.5039
14943TIP3    H266245   0.877   1.227   2.646 -1.0029 -0.2835  1.0329
14944TIP3   OH266246   6.761   0.552   1.435 -0.0183 -0.4227  0.0244
14944TIP3    H166247   6.671   0.523   1.427 -1.0436  1.7392  2.1753
14944TIP3    H266248   6.758   0.645   1.413  1.8748 -0.4820 -0.6688
14945TIP3   OH266249   4.098   5.917  16.718  0.0522 -0.4536 -0.8223
14945TIP3    H166250   4.193   5.922  16.703  0.1359 -2.0956 -0.9753
14945TIP3    H266251   4.089   5.864  16.797 -0.6710  2.2889  1.1040
14946TIP3   OH266252   1.964   4.722  13.310 -0.0023 -0.2385  0.1901
14946TIP3    H166253   1.948   4.764  13.225 -1.7749  1.3395  1.2217
14946TIP3    H266254   2.045   4.673  13.297 -0.9642 -1.2655 -2.8328
14947TIP3   OH266255   4.590   3.555   2.985 -0.7543 -0.0284  0.2397
14947TIP3    H166256   4.587   3.598   3.070  0.5862  0.3601  0.1260
14947TIP3    H266257   4.675   3.581   2.949 -0.8018 -1.1259 -0.7109
14948TIP3   OH266258   2.742   3.531   5.867  0.2234  0.4972 -0.0850
14948TIP3    H166259   2.803   3.588   5.821  1.4111 -0.1638  0.6310
14948TIP3    H266260   2.687   3.590   5.919 -0.1746  1.1358 -1.2089
14949TIP3   OH266261   0.300   1.837   5.099 -0.2716  0.2875 -0.2990
14949TIP3    H166262   0.220   1.866   5.143 -0.9494  0.1637 -1.3861
14949TIP3    H266263   0.280   1.748   5.071  1.5876 -1.1727  2.5554
14950TIP3   OH266264   3.011   5.226  16.398  0.0255 -0.6455 -0.3843
14950TIP3    H166265   2.932   5.236  16.450  0.0731  0.3667 -0.4689
14950TIP3    H266266   3.049   5.314  16.396  2.2584 -1.4887  1.3969
14951TIP3   OH266267   2.123   5.382   4.245 -0.4404 -0.1529  0.0128
14951TIP3    H166268   2.154   5.309   4.298  0.7366 -0.8240 -1.4878
14951TIP3    H266269   2.096   5.449   4.308  1.0181 -0.8453  1.4502
14952TIP3   OH266270   1.434   3.847   1.116  0.5434  0.5711 -0.6162
14952TIP3    H166271   1.344   3.878   1.102  0.8858  2.2594  0.7081
14952TIP3    H266272   1.488   3.906   1.064  0.8759 -1.1530 -2.3610
14953TIP3   OH266273   3.717   3.382  16.830  0.1404  0.8598 -0.1734
14953TIP3    H166274   3.630   3.391  16.870 -0.0932  2.3036 -0.9154
14953TIP3    H266275   3.776   3.364  16.903 -1.0616 -2.5924  0.1065
14954TIP3   OH266276   4.632   5.266  13.420 -0.0457 -0.6196  0.0917
14954TIP3    H166277   4.692   5.330  13.458  0.5844 -1.2644  0.1916
14954TIP3    H266278   4.550   5.279  13.467  0.5291 -0.9570  1.2105
14955TIP3   OH266279   6.601   4.200  16.858 -0.2765  0.3988  0.2078
14955TIP3    H166280   6.659   4.134  16.822 -0.7089 -0.5546  1.2039
14955TIP3    H266281   6.653   4.244  16.926 -0.4053  0.1869  0.4464
14956TIP3   OH266282   5.397   1.116   3.571 -0.2372  0.2030 -0.3478
14956TIP3    H166283   5.404   1.139   3.664 -0.5488  1.2478 -0.5695
14956TIP3    H266284   5.487   1.097   3.544  0.0430  1.1981 -0.1469
14957TIP3   OH266285   2.974   0.345  16.028 -0.1759  0.0049 -0.2391
14957TIP3    H166286   2.920   0.272  16.058  0.3102 -0.3834 -0.3022
14957TIP3    H266287   2.994   0.395  16.108 -0.6798  0.1883 -0.2257
14958TIP3   OH266288   5.491   2.307  17.056 -0.1794  0.6067 -0.2916
14958TIP3    H166289   5.399   2.328  17.075 -0.4606 -0.5314 -0.3670
14958TIP3    H266290   5.497   2.212  17.067  1.4074  0.8567  1.4387
14959TIP3   OH266291   0.041   2.386  14.018 -0.2961  0.0039 -0.6145
14959TIP3    H166292  -0.002   2.452  14.072  1.0965  0.9422 -0.6055
14959TIP3    H266293   0.051   2.427  13.932  0.5294 -0.1982 -0.6286
14960TIP3   OH266294   0.226   6.726   2.394  0.4041 -0.6720  0.4904
14960TIP3    H166295   0.209   6.648   2.446 -1.7645 -0.5833 -0.0044
14960TIP3    H266296   0.271   6.692   2.316 -0.5972 -1.4586  0.2337
14961TIP3   OH266297   2.372   0.921  14.020  0.0134  1.0111  0.1696
14961TIP3    H166298   2.300   0.857  14.024 -0.1474  1.1934  0.1704
14961TIP3    H266299   2.442   0.880  14.071  0.6475 -0.0904 -1.5263
14962TIP3   OH266300   3.600   0.706  13.908 -0.0030  0.3350 -0.3166
14962TIP3    H166301   3.607   0.663  13.993  0.4443  0.2031 -0.4173
14962TIP3    H266302   3.668   0.664  13.855 -1.3071 -0.6944 -1.2227
14963TIP3   OH266303   3.271   3.551   5.795 -0.1785 -0.2266  0.3875
14963TIP3    H166304   3.266   3.466   5.839 -0.6672 -1.8035 -2.4685
14963TIP3    H266305   3.215   3.541   5.718  0.2973  2.4899 -0.4043
14964TIP3   OH266306   1.749   4.191   6.123 -0.1416 -0.2010 -0.6061
14964TIP3    H166307   1.731   4.191   6.217  0.2667  1.2762 -0.4947
14964TIP3    H266308   1.834   4.149   6.114 -0.6327 -1.2564 -0.4361
14965TIP3   OH266309   1.277   2.120  16.750  0.2160 -0.1057 -0.5140
14965TIP3    H166310   1.344   2.130  16.819  0.7076  2.1709 -1.2611
14965TIP3    H266311   1.203   2.079  16.795  0.7305  0.7995  1.2498
14966TIP3   OH266312   3.493   6.042  12.067  0.0478  0.5643 -0.3986
14966TIP3    H166313   3.450   6.097  12.133  0.2346  0.2953 -0.0473
14966TIP3    H266314   3.427   5.977  12.043  0.5148 -0.3734  0.7657
14967TIP3   OH266315   3.102   5.327  16.016  0.2970  0.1364 -0.6196
14967TIP3    H166316   3.146   5.271  16.080 -0.6316  0.1417  0.0498
14967TIP3    H266317   3.160   5.402  16.005  0.8393 -0.2431 -0.3788
14968TIP3   OH266318   4.476   4.379   5.211  0.0762  0.4582 -0.0644
14968TIP3    H166319   4.478   4.283   5.216 -1.7652  0.3720 -0.2015
14968TIP3    H266320   4.494   4.408   5.300 -1.4462 -0.1101  0.4690
14969TIP3   OH266321   1.114   2.422   3.619  0.0930  0.6428 -0.0491
14969TIP3    H166322   1.208   2.427   3.606  0.1871  0.1034  0.4100
14969TIP3    H266323   1.086   2.514   3.628  0.7498  0.7411  1.0635
14970TIP3   OH266324   1.774   2.234   6.003 -0.2491  0.0052  1.0606
14970TIP3    H166325   1.865   2.213   6.027 -0.5606  0.4842  2.7975
14970TIP3    H266326   1.772   2.329   5.996 -0.5612 -0.0240  0.7078
14971TIP3   OH266327   5.545   4.190   4.290 -0.0060  0.0947 -0.2388
14971TIP3    H166328   5.554   4.233   4.205 -0.2497  0.8954  0.1245
14971TIP3    H266329   5.630   4.149   4.307  0.2926  0.5993 -0.5140
14972TIP3   OH266330   5.099   6.299   6.051  0.1739  0.0357 -0.2132
14972TIP3    H166331   5.162   6.371   6.051  0.9565 -0.5658  2.2062
14972TIP3    H266332   5.151   6.222   6.075 -1.4198 -0.5004  1.7256
14973TIP3   OH266333   0.060   5.689  11.042 -0.8081 -0.0863 -0.2316
14973TIP3    H166334   0.121   5.717  10.974 -0.2599 -1.4908 -0.3439
14973TIP3    H266335   0.098   5.608  11.077 -0.9940  0.6781  1.8730
14974TIP3   OH266336   6.679   3.527   4.656 -0.1618 -0.0180 -0.1366
14974TIP3    H166337   6.773   3.513   4.663 -0.2855 -1.4837 -1.1102
14974TIP3    H266338   6.640   3.456   4.707 -0.7417 -0.2885 -0.9278
14975TIP3   OH266339   3.702   3.219  14.713 -0.2358  0.1261  0.7200
14975TIP3    H166340   3.678   3.178  14.796 -1.0667  0.5598  0.6972
14975TIP3    H266341   3.694   3.313  14.729  0.5118  0.2518  0.4199
14976TIP3   OH266342   4.719   5.048   5.875 -0.2408  0.3689  0.4027
14976TIP3    H166343   4.714   5.141   5.898  0.0473  0.3434  0.5714
14976TIP3    H266344   4.729   5.048   5.779  1.3006  0.5775  0.5376
14977TIP3   OH266345   0.810   3.299  14.946 -0.2845 -0.1020  0.3024
14977TIP3    H166346   0.809   3.260  14.859  3.3608  0.8446 -0.3093
14977TIP3    H266347   0.862   3.239  14.999 -2.4707 -0.6778  1.9302
14978TIP3   OH266348   4.129   0.010   2.078 -0.1396  0.1031 -0.4126
14978TIP3    H166349   4.089  -0.010   1.993 -0.3477  0.8054 -0.4882
14978TIP3    H266350   4.163  -0.074   2.109 -2.5687 -0.7414  0.1474
14979TIP3   OH266351   0.559   3.293  12.541 -0.5138 -0.8180  0.0447
14979TIP3    H166352   0.476   3.304  12.587 -0.7626 -0.9120 -0.3782
14979TIP3    H266353   0.562   3.366  12.479 -0.2139 -0.7342  0.1567
14980TIP3   OH266354   5.488   6.043  14.256 -0.1894 -0.1111  0.0337
14980TIP3    H166355   5.479   5.955  14.220  1.1936  0.1817 -1.1100
14980TIP3    H266356   5.417   6.093  14.216  1.1152  0.1232 -2.1318
14981TIP3   OH266357   1.152   1.802   6.283  0.0762  0.2760  0.4911
14981TIP3    H166358   1.114   1.715   6.292 -1.2339  0.7120 -0.5131
14981TIP3    H266359   1.209   1.811   6.359  0.6643 -1.6540  0.3229
14982TIP3   OH266360   6.655   5.126  10.809  0.0125 -0.1412  0.0745
14982TIP3    H166361   6.645   5.031  10.800 -0.8168 -0.0151 -0.4566
14982TIP3    H266362   6.573   5.154  10.850  0.2727  0.3465  0.2650
14983TIP3   OH266363   5.667   4.764  10.511  0.4745  0.2139  0.4756
14983TIP3    H166364   5.661   4.748  10.605 -0.4673 -1.1071  0.2184
14983TIP3    H266365   5.761   4.770  10.493  0.8548 -2.7207  1.0310
14984TIP3   OH266366   1.247   3.377  14.414  0.5119  0.5701  0.4342
14984TIP3    H166367   1.228   3.284  14.405  0.3375  0.7772 -2.1558
14984TIP3    H266368   1.185   3.408  14.480 -1.2837 -0.6768 -0.5667
14985TIP3   OH266369   6.660   2.255   3.846  0.0432 -0.5069  0.8255
14985TIP3    H166370   6.566   2.241   3.860 -0.1406  0.8552  1.1300
14985TIP3    H266371   6.702   2.183   3.893 -0.8335 -0.7916  1.1975
14986TIP3   OH266372   3.842   3.813   5.759  0.2675  0.4098  0.1626
14986TIP3    H166373   3.868   3.901   5.788  1.4657 -0.4336  1.8179
14986TIP3    H266374   3.751   3.804   5.788 -0.0480  1.2944 -0.5220
14987TIP3   OH266375   5.384   3.449   3.403  0.2324  0.0124  0.4067
14987TIP3    H166376   5.405   3.398   3.481  0.0874 -0.6055  0.0500
14987TIP3    H266377   5.373   3.539   3.435  1.8138  0.0784  0.8372
14988TIP3   OH266378   0.750   1.762  10.570  0.2763  0.0186  0.8111
14988TIP3    H166379   0.799   1.832  10.527 -0.6399  0.2614  0.1145
14988TIP3    H266380   0.659   1.781  10.548 -0.4192  0.9814  4.0589
14989TIP3   OH266381   1.121   3.263  15.731 -0.0299 -0.1026 -0.1020
14989TIP3    H166382   1.093   3.252  15.640  2.5381 -0.7117 -0.9321
14989TIP3    H266383   1.041   3.261  15.782 -1.5522  0.1154 -2.3376
14990TIP3   OH266384   1.519   5.756  12.071  0.1374 -0.0110  0.2739
14990TIP3    H166385   1.428   5.785  12.074 -0.7928 -2.6689  1.9013
14990TIP3    H266386   1.513   5.660  12.066  2.8402 -0.2849  0.8393
14991TIP3   OH266387   3.542   3.141   5.219 -0.3098 -0.2229  0.2638
14991TIP3    H166388   3.587   3.142   5.303  0.5558 -0.4128 -0.1812
14991TIP3    H266389   3.525   3.048   5.201 -1.4825 -0.1107  0.7309
14992TIP3   OH266390   1.011   0.159  11.624 -0.2172 -0.5408  1.0370
14992TIP3    H166391   1.086   0.196  11.577  0.7306 -1.3185  1.8870
14992TIP3    H266392   0.938   0.218  11.604  0.1528 -0.8237 -1.3409
14993TIP3   OH266393   3.102   0.992   2.212 -0.3207  0.2073  0.1355
14993TIP3    H166394   3.177   1.008   2.269 -0.5580 -2.3115  1.3037
14993TIP3    H266395   3.050   1.072   2.217  0.3368  0.5570  2.4119
14994TIP3   OH266396   5.453   5.756   5.960  0.2204 -0.2888  0.4985
14994TIP3    H166397   5.505   5.814   5.904  0.1112 -0.5575  0.1130
14994TIP3    H266398   5.501   5.752   6.043  0.7013 -0.3731  0.2150
14995TIP3   OH266399   4.906   1.890  13.504 -0.0895 -0.1045  0.3132
14995TIP3    H166400   4.986   1.846  13.531 -0.4787 -0.6763  0.5582
14995TIP3    H266401   4.849   1.819  13.474  0.2056  0.4597 -1.7374
14996TIP3   OH266402   6.597   6.106   1.862  0.1486 -0.4332 -0.0726
14996TIP3    H166403   6.676   6.061   1.892 -0.7793 -2.2368 -0.1981
14996TIP3    H266404   6.530   6.082   1.927 -0.3634  0.8655 -0.0991
14997TIP3   OH266405   5.755   2.634  16.888  0.3703  0.3215  0.0282
14997TIP3    H166406   5.781   2.643  16.979  1.4980 -1.9373 -0.0064
14997TIP3    H266407   5.750   2.540  16.873  0.0109  0.6262 -2.1977
14998TIP3   OH266408   2.676   0.729   1.998 -0.0137  0.8048  0.4458
14998TIP3    H166409   2.650   0.719   2.089 -0.8152 -0.3719  0.1092
14998TIP3    H266410   2.694   0.639   1.968  0.3983  1.1887 -0.5042
14999TIP3   OH266411   3.391   2.878   5.273  0.2102  0.6688  0.5443
14999TIP3    H166412   3.470   2.847   5.230 -0.9574  1.1559 -2.1075
14999TIP3    H266413   3.355   2.800   5.316  0.4556 -0.2939 -0.9465
15000TIP3   OH266414   2.759   2.668   1.335  0.4002  0.6826  0.3207
15000TIP3    H166415   2.759   2.576   1.360  0.9731  0.6133  0.0630
15000TIP3    H266416   2.666   2.692   1.334  0.2349  0.0569  0.1834
15001TIP3   OH266417   5.818   6.416  13.667  0.5450 -0.4261 -0.5813
15001TIP3    H166418   5.905   6.447  13.693  1.4006 -2.0397 -1.3782
15001TIP3    H266419   5.766   6.420  13.748  2.2420 -2.3294  0.7069
15002TIP3   OH266420   0.525   0.335  13.549 -0.1948 -0.4737 -0.3007
15002TIP3    H166421   0.511   0.410  13.607 -1.2454 -1.0944  0.2993
15002TIP3    H266422   0.603   0.357  13.499 -0.6168  1.1262 -0.3243
15003TIP3   OH266423   3.303   6.602   3.207 -0.3237 -0.5912  0.6398
15003TIP3    H166424   3.238   6.655   3.253 -0.1411  1.5804 -1.4205
15003TIP3    H266425   3.373   6.590   3.271  0.0295  2.5189  0.9998
15004TIP3   OH266426   5.706   5.352   1.270  0.3855  0.2875 -0.2312
15004TIP3    H166427   5.683   5.288   1.337  0.8899  0.5932  0.2458
15004TIP3    H266428   5.662   5.322   1.191 -1.1296  0.5227  0.4967
15005TIP3   OH266429   0.249   5.739   0.946 -0.9453 -0.2091  0.0711
15005TIP3    H166430   0.180   5.743   1.012 -1.3179 -1.4216 -0.2216
15005TIP3    H266431   0.229   5.662   0.894  0.9926 -0.9962  0.3925
15006TIP3   OH266432   1.467   5.119  11.416  0.1358  0.3513  0.5056
15006TIP3    H166433   1.444   5.212  11.425 -2.1097 -0.2750  1.9712
15006TIP3    H266434   1.420   5.091  11.337 -0.5679  0.1054  0.9999
15007TIP3   OH266435   5.866   5.922  15.834  0.3546  0.1129  0.1080
15007TIP3    H166436   5.937   5.898  15.774 -0.0287  0.7770 -0.6339
15007TIP3    H266437   5.789   5.878  15.799  0.1012  0.6147  0.0202
15008TIP3   OH266438   4.657   1.110  11.243  0.3901 -0.2466 -0.7950
15008TIP3    H166439   4.655   1.109  11.148 -0.2939  1.0322 -0.8289
15008TIP3    H266440   4.601   1.037  11.269  1.4197 -1.2503 -1.3489
15009TIP3   OH266441   5.829   6.588  15.927  0.1534 -0.1990  0.2059
15009TIP3    H166442   5.797   6.498  15.927  1.5448 -0.7238  1.0289
15009TIP3    H266443   5.893   6.590  15.856  0.0527  0.1711  0.1240
15010TIP3   OH266444   4.295   0.720  12.650  0.1556 -0.1823  0.0656
15010TIP3    H166445   4.208   0.717  12.610  0.0954  1.4129  0.0089
15010TIP3    H266446   4.291   0.795  12.710  1.8545  0.6667 -0.8335
15011TIP3   OH266447   2.654   2.715  16.545 -0.6910 -0.2195  0.7849
15011TIP3    H166448   2.676   2.625  16.568  1.1431  0.2370  1.0168
15011TIP3    H266449   2.737   2.752  16.512 -1.3946  1.3807  0.7195
15012TIP3   OH266450   4.202   3.293   3.760 -0.1408  0.9865  0.9460
15012TIP3    H166451   4.221   3.238   3.683 -2.8826  0.8155  0.2827
15012TIP3    H266452   4.287   3.306   3.802  1.3008  0.1739 -1.5116
15013TIP3   OH266453   2.287   2.229   0.598  0.8557 -0.0326  0.0628
15013TIP3    H166454   2.231   2.291   0.551  1.9669  0.3472 -0.8046
15013TIP3    H266455   2.226   2.167   0.638 -0.2751  1.5176  0.8142
15014TIP3   OH266456   1.270   1.719  16.554  0.9080  0.1029  0.5436
15014TIP3    H166457   1.221   1.797  16.579  0.5094  0.8413 -2.1818
15014TIP3    H266458   1.326   1.747  16.482  2.9788 -1.4982  1.4036
15015TIP3   OH266459   0.294   3.590  14.082 -0.8696  0.2502  0.0767
15015TIP3    H166460   0.329   3.666  14.037  0.9953  0.3406  1.5384
15015TIP3    H266461   0.202   3.611  14.096 -0.2854  2.5503  0.9821
15016TIP3   OH266462   2.634   1.675   2.394 -0.2595 -0.0009  0.0700
15016TIP3    H166463   2.650   1.713   2.480  0.2876  0.8004 -0.3657
15016TIP3    H266464   2.539   1.666   2.389 -0.3207  0.2580  0.6318
15017TIP3   OH266465   0.032   5.759   3.103 -0.1263  0.0791 -0.2346
15017TIP3    H166466   0.126   5.758   3.082 -0.0454  0.9095  0.0449
15017TIP3    H266467   0.018   5.677   3.150  0.8615  0.7227  1.3026
15018TIP3   OH266468   3.128   4.039   0.485  0.3469 -0.0140 -0.1808
15018TIP3    H166469   3.168   4.124   0.468  0.8624  0.1295  1.6111
15018TIP3    H266470   3.172   4.006   0.564 -1.3683 -0.9437  0.4457
15019TIP3   OH266471   1.832   3.583  15.574  0.1470 -0.0396 -0.5385
15019TIP3    H166472   1.826   3.665  15.623 -1.5905  0.5108 -1.5762
15019TIP3    H266473   1.876   3.607  15.492 -0.5469 -0.0712 -0.9310
15020TIP3   OH266474   5.750   6.728  15.271 -0.0872  0.5641 -0.3478
15020TIP3    H166475   5.820   6.791  15.253  1.3019 -0.4588  1.1832
15020TIP3    H266476   5.756   6.664  15.201  0.9673  0.1319  0.1242
15021TIP3   OH266477   4.085   6.430  14.310  0.0211  0.0563 -0.0088
15021TIP3    H166478   4.105   6.523  14.302 -0.4905  0.1802  0.1178
15021TIP3    H266479   4.093   6.396  14.221  0.6489  0.1285  0.0184
15022TIP3   OH266480   2.137   3.106  16.170  0.6891 -0.0578  0.2970
15022TIP3    H166481   2.148   3.016  16.139 -1.5899 -0.0526 -0.7136
15022TIP3    H266482   2.059   3.138  16.125  2.1570  2.9179 -0.4120
15023TIP3   OH266483   2.866   2.200   6.069  0.5359  0.3615  0.1925
15023TIP3    H166484   2.810   2.229   6.140  0.0894  1.0242 -0.4183
15023TIP3    H266485   2.825   2.120   6.036 -1.0498  1.7274 -1.3487
15024TIP3   OH266486   0.099   3.578  12.022  0.2159 -0.3441  0.7903
15024TIP3    H166487   0.183   3.610  12.056  0.4124  1.2857 -1.0579
15024TIP3    H266488   0.124   3.521  11.949 -0.2274  1.1257 -0.5765
15025TIP3   OH266489   5.332   5.039  15.320 -0.1844  0.3589  0.2004
15025TIP3    H166490   5.332   4.989  15.238  0.9329  0.5328  0.0728
15025TIP3    H266491   5.424   5.044  15.345 -0.5109  0.2285  1.5349
15026TIP3   OH266492   5.958   2.303   6.358 -0.0522  0.3700 -0.0827
15026TIP3    H166493   6.007   2.319   6.439  1.5956  0.2283 -1.0092
15026TIP3    H266494   6.025   2.291   6.291 -1.3739  1.3273 -1.6566
15027TIP3   OH266495   6.359   4.898   0.479 -0.6360 -0.7342  0.0279
15027TIP3    H166496   6.335   4.955   0.406  1.9099  1.6084  0.8756
15027TIP3    H266497   6.450   4.875   0.463 -0.2368 -0.7591  2.0786
15028TIP3   OH266498   3.656   1.408  11.062 -0.5151 -0.3095  0.6405
15028TIP3    H166499   3.736   1.363  11.036 -0.6742 -0.8533  1.0737
15028TIP3    H266500   3.685   1.476  11.123 -0.6474 -2.6138  3.4704
15029TIP3   OH266501   5.078   6.090   5.119  0.1424  0.2579 -0.5196
15029TIP3    H166502   5.096   6.052   5.033 -2.8283  0.7949 -1.4709
15029TIP3    H266503   5.041   6.018   5.170  0.9414  0.2115  0.0330
15030TIP3   OH266504   4.285   3.385   1.203 -0.1959  0.4011 -0.0120
15030TIP3    H166505   4.290   3.481   1.201 -1.4947  0.5569 -3.6398
15030TIP3    H266506   4.367   3.356   1.164 -0.0038  0.0108  0.6609
15031TIP3   OH266507   4.085   3.526   2.655  0.3975  0.0949  0.1702
15031TIP3    H166508   4.047   3.532   2.567  1.0275  0.3513 -0.0870
15031TIP3    H266509   4.091   3.616   2.685 -0.3930 -0.0269  0.7377
15032TIP3   OH266510   1.875   0.830   4.817  0.2884 -0.4909 -0.0180
15032TIP3    H166511   1.814   0.770   4.860  2.1680 -1.2944  1.6854
15032TIP3    H266512   1.865   0.813   4.724 -2.0331 -0.6143  0.2061
15033TIP3   OH266513   6.438   6.259   1.220  0.1038 -0.4465  0.0499
15033TIP3    H166514   6.369   6.280   1.283  1.7013 -1.7417  2.3889
15033TIP3    H266515   6.506   6.325   1.236  1.2137 -1.7424  0.9006
15034TIP3   OH266516   3.788   4.068   5.764  0.0113  0.5859 -0.3906
15034TIP3    H166517   3.872   4.109   5.743 -0.1565  1.8121  1.1615
15034TIP3    H266518   3.725   4.139   5.758 -0.5496  0.1975  0.6818
15035TIP3   OH266519   3.277   1.662   2.659 -0.2883 -0.3354 -0.4043
15035TIP3    H166520   3.204   1.690   2.604 -0.8497 -2.2324 -0.6672
15035TIP3    H266521   3.264   1.709   2.741 -1.8486 -0.6765 -0.4344
15036TIP3   OH266522   1.593   2.244   0.122 -0.5327 -0.6005 -0.0391
15036TIP3    H166523   1.686   2.255   0.100 -0.5756 -0.2640 -0.0601
15036TIP3    H266524   1.579   2.150   0.121 -0.7249 -0.5991 -2.2512
15037TIP3   OH266525   3.232   0.008  15.537 -0.2789 -0.0760  0.4555
15037TIP3    H166526   3.217   0.072  15.606 -2.0400 -0.2934  0.3296
15037TIP3    H266527   3.236   0.059  15.456  0.3424  0.0443  0.5580
15038TIP3   OH266528   4.742   5.805  12.527  0.1182 -0.2792  0.2014
15038TIP3    H166529   4.719   5.765  12.610 -1.8700  0.3687  0.0018
15038TIP3    H266530   4.759   5.897  12.548 -1.6919  0.1866 -0.2714
15039TIP3   OH266531   1.748   6.440   2.882 -0.4572 -0.2432  0.7070
15039TIP3    H166532   1.714   6.495   2.811  1.6074  0.0922 -0.1096
15039TIP3    H266533   1.762   6.355   2.841  1.8306  0.2604  0.3210
15040TIP3   OH266534   6.638   0.309   1.696  0.0779  0.3491  0.2614
15040TIP3    H166535   6.666   0.284   1.608  0.9672  0.8112  0.4067
15040TIP3    H266536   6.678   0.244   1.753 -1.6837 -0.8217  0.2252
15041TIP3   OH266537   1.119   6.141  12.836 -0.1893 -0.2214 -0.4681
15041TIP3    H166538   1.052   6.207  12.819  0.3631  0.4598 -0.0559
15041TIP3    H266539   1.166   6.133  12.752 -0.3085 -0.1417 -0.5431
15042TIP3   OH266540   5.964   5.435  10.969 -0.2836  0.6301 -0.5939
15042TIP3    H166541   6.042   5.386  10.995  0.0439  0.2380 -2.2328
15042TIP3    H266542   5.895   5.404  11.029  0.7679  0.9303  0.8214
15043TIP3   OH266543   1.472   6.530   3.534  0.3100 -0.4012 -0.4459
15043TIP3    H166544   1.407   6.461   3.523 -0.9797  0.5558  0.8769
15043TIP3    H266545   1.554   6.490   3.507 -0.5180 -2.2303 -0.3752
15044TIP3   OH266546   3.596   2.077  14.106  0.1056  0.0738  0.0807
15044TIP3    H166547   3.641   2.131  14.041 -0.9182 -1.0131 -1.6298
15044TIP3    H266548   3.660   2.066  14.176  1.0657  1.7704 -0.4626
15045TIP3   OH266549   3.838   4.469  16.615 -0.2144  0.6915  0.3191
15045TIP3    H166550   3.930   4.460  16.639  0.2243  5.0952  1.0996
15045TIP3    H266551   3.790   4.436  16.691  0.7198 -0.1657  0.5628
15046TIP3   OH266552   4.348   4.813   2.889  0.4144 -0.2614  0.2086
15046TIP3    H166553   4.427   4.802   2.836  2.6568  0.7908  3.0868
15046TIP3    H266554   4.335   4.908   2.893 -0.7522 -0.4044  0.1775
15047TIP3   OH266555   1.556   3.211  17.033  0.2376  0.0266  0.2697
15047TIP3    H166556   1.642   3.169  17.037  0.6260  0.4338 -2.0210
15047TIP3    H266557   1.506   3.173  17.106  1.4754 -2.2533  0.0142
15048TIP3   OH266558   1.974   4.979  13.732 -0.0018 -1.0147  0.3986
15048TIP3    H166559   2.022   4.919  13.675 -1.0160 -0.6411 -0.9042
15048TIP3    H266560   2.035   5.050  13.750  0.5519 -1.4676  0.3443
15049TIP3   OH266561   2.434   5.416   5.572  0.0018 -0.2563 -0.6573
15049TIP3    H166562   2.439   5.459   5.657  1.4943  1.8444 -1.7278
15049TIP3    H266563   2.356   5.361   5.578  0.2753 -0.4990  2.1743
15050TIP3   OH266564   6.449   5.262   0.272  0.9985  0.2234  0.3273
15050TIP3    H166565   6.383   5.231   0.334  0.6558  0.3165  0.0098
15050TIP3    H266566   6.403   5.326   0.217  0.6639 -1.4608 -1.4808
15051TIP3   OH266567   4.635   6.674   2.617 -0.0451  0.0796 -0.1071
15051TIP3    H166568   4.695   6.623   2.672 -2.8873 -0.9550  2.2997
15051TIP3    H266569   4.597   6.609   2.557 -0.2170  0.3299 -0.2688
15052TIP3   OH266570   2.508   5.378   4.023 -0.6271  0.3372  0.3240
15052TIP3    H166571   2.529   5.322   3.949  1.6109  1.3575  0.0697
15052TIP3    H266572   2.440   5.437   3.991 -1.5127 -0.8531 -0.0515
15053TIP3   OH266573   1.706   0.928   2.206 -0.0024  0.2593  0.6002
15053TIP3    H166574   1.711   0.847   2.155  0.5471  0.7394 -0.1270
15053TIP3    H266575   1.613   0.945   2.215 -0.1354 -0.6772  1.1287
15054TIP3   OH266576   1.866   4.053   4.993  0.4445 -0.3050  0.0358
15054TIP3    H166577   1.879   4.007   5.076 -0.1414 -0.6915 -0.0759
15054TIP3    H266578   1.772   4.043   4.975  0.6484 -0.6299 -0.9050
15055TIP3   OH266579   5.574   1.272  14.238 -0.2227  0.4730 -0.3604
15055TIP3    H166580   5.531   1.320  14.167 -0.8380  1.7819  0.8424
15055TIP3    H266581   5.667   1.293  14.227 -0.2610  0.3134 -1.0308
15056TIP3   OH266582   4.883   5.714   1.960 -0.7806 -0.0133 -0.7011
15056TIP3    H166583   4.958   5.722   1.901 -0.2078 -1.6681 -0.2507
15056TIP3    H266584   4.921   5.695   2.045 -1.6350  1.6779  0.0892
15057TIP3   OH266585   4.682   4.133   2.227 -0.0984  0.1011 -0.8929
15057TIP3    H166586   4.739   4.089   2.164 -0.2160  0.0146 -0.9384
15057TIP3    H266587   4.670   4.070   2.297 -0.7884 -0.1884 -1.2594
15058TIP3   OH266588   5.189   5.785   0.988  0.4958 -0.0401  0.0283
15058TIP3    H166589   5.213   5.871   1.021 -1.4380 -0.1339  1.9128
15058TIP3    H266590   5.152   5.802   0.901 -0.9061  1.2211  0.8273
15059TIP3   OH266591   0.957   2.835  15.771  0.1134 -0.2032  0.0970
15059TIP3    H166592   1.019   2.871  15.835  1.3446 -1.1553 -0.5203
15059TIP3    H266593   0.973   2.741  15.772 -1.6501 -0.5316  0.2239
15060TIP3   OH266594   1.824   6.278   0.502  0.2631  0.5792 -0.2224
15060TIP3    H166595   1.886   6.217   0.541  0.4013  1.6774  1.3339
15060TIP3    H266596   1.745   6.226   0.487  0.9381 -0.3811 -0.5223
15061TIP3   OH266597   0.623   3.878   3.622  0.2253 -0.2687 -0.1684
15061TIP3    H166598   0.584   3.908   3.540  0.2262 -0.0467 -0.0882
15061TIP3    H266599   0.716   3.898   3.613  0.5834 -2.0998 -0.9518
15062TIP3   OH266600   6.733   6.558  14.729 -0.4281  0.3513 -0.3273
15062TIP3    H166601   6.675   6.634  14.721  0.0460  0.6278 -1.3507
15062TIP3    H266602   6.684   6.496  14.783 -0.4505  1.7366  1.3163
15063TIP3   OH266603   6.384   4.458  11.379 -0.1538  0.1941  0.3468
15063TIP3    H166604   6.413   4.412  11.300 -0.1195 -0.5245  0.7613
15063TIP3    H266605   6.288   4.456  11.373 -0.1514  1.5669 -0.4629
15064TIP3   OH266606   2.881   0.139  14.762  0.6812  0.0132  0.0272
15064TIP3    H166607   2.920   0.129  14.676  1.0367 -0.1700  0.2080
15064TIP3    H266608   2.845   0.053  14.783 -1.3887  0.5932 -0.8749
15065TIP3   OH266609   2.300   0.378   1.080  0.3035 -0.1768  0.0882
15065TIP3    H166610   2.234   0.309   1.076 -0.3810  0.4895 -2.6084
15065TIP3    H266611   2.259   0.454   1.039  1.9887  0.9674  0.3784
15066TIP3   OH266612   1.606   1.663  16.862 -0.2515 -0.5008 -0.6423
15066TIP3    H166613   1.603   1.753  16.895  2.3251  0.0513 -1.7241
15066TIP3    H266614   1.673   1.664  16.795 -0.9363 -3.0280 -1.4739
15067TIP3   OH266615   5.103   3.484  15.860  0.1998 -0.0449  0.1902
15067TIP3    H166616   5.157   3.554  15.822 -0.6509  1.0764  0.9484
15067TIP3    H266617   5.145   3.464  15.943 -0.6703  1.0545  0.9303
15068TIP3   OH266618   4.770   3.163  10.648 -0.0351 -0.4031 -0.9903
15068TIP3    H166619   4.736   3.081  10.613  2.2640 -0.6824 -2.7885
15068TIP3    H266620   4.794   3.214  10.571  1.0525  0.8588  0.1335
15069TIP3   OH266621   2.446   3.002  13.472 -0.0722  0.5686 -0.3029
15069TIP3    H166622   2.363   3.011  13.424  1.4583  1.2598 -3.0284
15069TIP3    H266623   2.491   3.085  13.458  2.3130 -0.8304 -1.4488
15070TIP3   OH266624   6.323   6.257   0.767  0.5496  0.7122  0.3886
15070TIP3    H166625   6.283   6.335   0.804  0.9599  1.2317 -0.2308
15070TIP3    H266626   6.343   6.201   0.842 -1.6709  0.2479  0.6901
15071TIP3   OH266627   6.603   3.809  16.754 -0.1868 -0.1284  0.2265
15071TIP3    H166628   6.609   3.869  16.679  0.4418  0.1565  0.4969
15071TIP3    H266629   6.510   3.785  16.758  0.0430 -1.5488 -1.7203
15072TIP3   OH266630   0.256   4.267   0.992  0.4041  0.0125  0.2614
15072TIP3    H166631   0.290   4.277   0.903 -0.7200  1.3761 -0.0446
15072TIP3    H266632   0.257   4.172   1.008  3.2325 -0.1187 -0.1227
15073TIP3   OH266633   3.894   1.414   5.767  0.7204  0.5895 -0.4918
15073TIP3    H166634   3.812   1.461   5.778  1.1806  1.4990 -0.8461
15073TIP3    H266635   3.894   1.389   5.675  0.7112  0.3383 -0.4234
15074TIP3   OH266636   0.458   1.468   1.392 -0.0559  0.1258 -0.1332
15074TIP3    H166637   0.370   1.498   1.415  0.0983  0.9138 -0.5457
15074TIP3    H266638   0.487   1.419   1.468 -1.3659 -1.2950 -0.4856
15075TIP3   OH266639   1.479   2.875   2.012  0.2537 -0.2045  0.4998
15075TIP3    H166640   1.507   2.931   2.084  0.1806  0.4392  0.0337
15075TIP3    H266641   1.536   2.798   2.019 -1.2584 -1.2123  2.6020
15076TIP3   OH266642   0.740   3.436   3.631 -0.4496 -0.3299  0.1291
15076TIP3    H166643   0.791   3.504   3.588  2.6262 -1.5574  1.5423
15076TIP3    H266644   0.725   3.468   3.719 -2.4375  0.0856 -0.3022
15077TIP3   OH266645   3.716   1.368   2.684 -0.5086  0.4812 -0.3152
15077TIP3    H166646   3.785   1.325   2.735  0.6469  2.4761 -0.0904
15077TIP3    H266647   3.635   1.325   2.712  0.4054 -0.4283  1.0540
15078TIP3   OH266648   2.542   6.393  15.886 -0.3259 -0.3535  0.5265
15078TIP3    H166649   2.474   6.420  15.824 -0.3247 -0.1551  0.6144
15078TIP3    H266650   2.565   6.304  15.858 -1.8006 -1.0917  1.5123
15079TIP3   OH266651   1.517   5.549   0.899  0.2632  0.2116 -0.5619
15079TIP3    H166652   1.559   5.634   0.890 -1.6601  1.2981  0.2084
15079TIP3    H266653   1.424   5.568   0.906 -0.1503 -1.8840  0.7157
15080TIP3   OH266654   0.632   6.723  12.405 -0.3825  0.5775  0.4195
15080TIP3    H166655   0.675   6.809  12.412  0.1297  0.3414  0.1561
15080TIP3    H266656   0.684   6.666  12.461 -0.3896  0.3054  0.1493
15081TIP3   OH266657   5.526   2.647  17.187  0.2074 -0.0933 -0.4102
15081TIP3    H166658   5.494   2.677  17.102  0.5341  0.9119 -0.1889
15081TIP3    H266659   5.447   2.632  17.238 -0.0620 -1.9839 -1.2727
15082TIP3   OH266660   1.900   5.971  13.105  0.3633 -0.5443 -0.6485
15082TIP3    H166661   1.902   5.876  13.092  0.3038 -0.4396 -1.4538
15082TIP3    H266662   1.970   5.988  13.168  1.2728 -0.9778 -1.5120
15083TIP3   OH266663   2.190   6.539   1.641 -0.3152  0.4469 -0.1452
15083TIP3    H166664   2.102   6.543   1.680 -0.4026 -2.1303  0.0610
15083TIP3    H266665   2.207   6.446   1.628  0.7168  1.0015 -4.1043
15084TIP3   OH266666   2.457   0.545   0.670  0.4071 -0.0218  0.4158
15084TIP3    H166667   2.489   0.600   0.741  0.0515  0.1442  0.4488
15084TIP3    H266668   2.522   0.555   0.601  0.5540  0.1234  0.5747
15085TIP3   OH266669   5.584   0.358  15.087  0.1959  0.3762 -0.0370
15085TIP3    H166670   5.655   0.401  15.135  0.5925  1.1991 -1.3287
15085TIP3    H266671   5.506   0.411  15.107  0.0155 -0.2599  1.0108
15086TIP3   OH266672   0.127   1.651   4.142  0.7946  0.3045  0.1770
15086TIP3    H166673   0.079   1.642   4.224  0.8768  1.4740  0.3706
15086TIP3    H266674   0.172   1.567   4.132  0.6548  0.0809  1.2433
15087TIP3   OH266675   1.224   1.637  11.355  0.0833  0.3436 -0.2834
15087TIP3    H166676   1.300   1.595  11.394 -0.2714  0.9939  1.2024
15087TIP3    H266677   1.247   1.649  11.263  1.4510 -0.1785 -0.0310
15088TIP3   OH266678   4.909   6.806  13.299 -0.0822 -0.3888 -0.2265
15088TIP3    H166679   4.995   6.771  13.320  0.3599  0.6807 -0.1761
15088TIP3    H266680   4.923   6.901  13.293 -1.1358 -0.2563 -0.7955
15089TIP3   OH266681   6.010   1.151   2.624 -0.1095  0.6720 -0.2456
15089TIP3    H166682   5.961   1.229   2.599  1.1229  1.3638 -0.5826
15089TIP3    H266683   6.091   1.184   2.663 -0.7211 -0.4078  2.1459
15090TIP3   OH266684   6.794   3.779   4.715  0.0378 -0.4766 -0.3480
15090TIP3    H166685   6.725   3.722   4.682  0.6284 -0.6033 -1.4079
15090TIP3    H266686   6.843   3.725   4.777 -0.4986 -0.5406  0.0267
15091TIP3   OH266687   0.807   2.510   4.695  0.1030 -0.4635 -0.8603
15091TIP3    H166688   0.747   2.495   4.623  0.2283 -0.7775 -0.9001
15091TIP3    H266689   0.894   2.503   4.656  0.1795  1.1437 -1.0449
15092TIP3   OH266690   4.673   5.811  10.803 -0.2792 -0.3015  0.2384
15092TIP3    H166691   4.727   5.795  10.881 -0.5425 -0.4048  0.4021
15092TIP3    H266692   4.707   5.751  10.737 -0.8381 -1.0776  0.6477
15093TIP3   OH266693   0.352   5.726   0.032 -0.2877 -0.2426 -0.1484
15093TIP3    H166694   0.282   5.790   0.039  0.5478  0.9436 -1.9740
15093TIP3    H266695   0.309   5.645   0.003 -0.9106  0.4971 -1.3495
15094TIP3   OH266696   0.296   1.841  13.066 -0.2899 -0.4894 -0.3466
15094TIP3    H166697   0.293   1.926  13.021  0.5831 -0.4060 -0.2626
15094TIP3    H266698   0.387   1.813  13.057 -0.7426 -1.8050 -1.0725
15095TIP3   OH266699   4.842   0.338  16.084 -0.5082 -0.4525 -0.6062
15095TIP3    H166700   4.815   0.269  16.144 -1.2300  0.1191 -0.2620
15095TIP3    H266701   4.864   0.412  16.140  0.5717 -0.4844 -0.9553
15096TIP3   OH266702   5.430   5.910   3.200  0.1251 -0.1025 -0.1135
15096TIP3    H166703   5.469   5.884   3.116  0.6596 -0.0886  0.1324
15096TIP3    H266704   5.362   5.973   3.176  0.7837  0.4727 -0.4707
15097TIP3   OH266705   5.974   4.607  15.556  0.8333 -0.1986 -0.4103
15097TIP3    H166706   5.988   4.700  15.536 -0.4851  0.2963  0.7836
15097TIP3    H266707   5.968   4.604  15.652 -1.1699 -1.1777 -0.5088
15098TIP3   OH266708   5.892   3.471  13.611  0.5731 -0.3416 -0.6135
15098TIP3    H166709   5.930   3.383  13.610 -0.0292 -0.6105 -1.0276
15098TIP3    H266710   5.940   3.519  13.545 -0.5826 -1.0410 -2.0330
15099TIP3   OH266711   6.343   6.142  15.196 -0.5357  0.3920  0.3908
15099TIP3    H166712   6.399   6.188  15.132 -0.9564  1.7832  0.9862
15099TIP3    H266713   6.403   6.114  15.265 -0.2259 -0.2709 -0.1340
15100TIP3   OH266714   0.867   6.488   1.477  0.4595 -0.1702 -0.0233
15100TIP3    H166715   0.933   6.470   1.545 -0.6100 -1.0787  0.8145
15100TIP3    H266716   0.795   6.530   1.524  0.6704  1.3918 -1.0376
15101TIP3   OH266717   2.389   5.005  16.950 -0.2764 -0.6421  0.2464
15101TIP3    H166718   2.450   4.988  16.879 -1.6181 -2.1669 -0.6316
15101TIP3    H266719   2.430   5.074  17.002  2.7483 -2.4557  0.4486
15102TIP3   OH266720   4.713   0.484   5.136  0.1462 -0.2253  0.8092
15102TIP3    H166721   4.671   0.443   5.212  0.1284  0.4675  1.1886
15102TIP3    H266722   4.667   0.568   5.126  1.6981  0.7625  1.5163
15103TIP3   OH266723   2.773   5.203   1.533  0.2464 -0.3174  0.9107
15103TIP3    H166724   2.770   5.245   1.447  0.1782 -0.0455  1.0443
15103TIP3    H266725   2.770   5.276   1.595  1.5908 -0.4388  1.1441
15104TIP3   OH266726   4.129   3.030  10.987  0.1876 -0.0246 -0.4643
15104TIP3    H166727   4.174   3.094  10.933  0.9924 -0.1513  0.0400
15104TIP3    H266728   4.198   2.972  11.019 -0.4944 -1.0587 -0.7805
15105TIP3   OH266729   5.791   1.430  10.547  0.0484  0.1576  0.0164
15105TIP3    H166730   5.712   1.448  10.496  1.9135  1.3734 -2.6407
15105TIP3    H266731   5.844   1.510  10.539  2.2234 -1.1543  0.3902
15106TIP3   OH266732   1.859   0.972  17.045  0.1618  0.2123 -0.3632
15106TIP3    H166733   1.850   0.904  17.112 -0.5608  1.0088  0.3896
15106TIP3    H266734   1.954   0.981  17.032  0.2651 -2.5694 -2.2617
15107TIP3   OH266735   5.464   4.058  11.707 -0.0075  0.1548 -0.1471
15107TIP3    H166736   5.512   4.037  11.787 -1.0981 -0.6102  0.3335
15107TIP3    H266737   5.400   4.124  11.733 -1.7464 -1.5436  0.1468
15108TIP3   OH266738   3.646   0.446  13.604 -0.3124  0.0564  0.0342
15108TIP3    H166739   3.706   0.513  13.636  0.5877  0.9408 -3.0796
15108TIP3    H266740   3.591   0.425  13.679  1.7013  1.6675  2.1062
15109TIP3   OH266741   1.566   4.203   1.162 -0.4698  0.3534 -0.0425
15109TIP3    H166742   1.530   4.123   1.123 -0.6690  0.4183  0.0086
15109TIP3    H266743   1.632   4.232   1.099  0.9776 -0.8839  0.8232
15110TIP3   OH266744   3.152   0.073   3.868  0.6872  0.1956 -0.3386
15110TIP3    H166745   3.088   0.104   3.803  1.1590 -0.1628 -0.9869
15110TIP3    H266746   3.207   0.149   3.885 -0.2978  0.7072  0.7309
15111TIP3   OH266747   6.723   1.917  14.672 -0.6040 -0.2113  0.1949
15111TIP3    H166748   6.731   1.944  14.764 -1.2016  2.1688 -0.3766
15111TIP3    H266749   6.628   1.914  14.656 -0.5251 -1.4087 -0.1580
15112TIP3   OH266750   0.619   0.803  14.097 -0.0326  0.0626  0.3536
15112TIP3    H166751   0.692   0.815  14.157 -0.0616 -0.3015  0.4617
15112TIP3    H266752   0.610   0.888  14.053 -0.5855  0.6147  1.4974
15113TIP3   OH266753   1.151   4.795  14.723 -0.0648 -0.2516 -0.0435
15113TIP3    H166754   1.158   4.706  14.757  0.5277  0.3831  1.5766
15113TIP3    H266755   1.062   4.822  14.744  0.0160 -0.1770  0.2064
15114TIP3   OH266756   3.319   1.451   5.790  0.1365  0.1528 -0.6200
15114TIP3    H166757   3.385   1.517   5.810  0.2028 -0.2521  0.5445
15114TIP3    H266758   3.273   1.437   5.873  0.8352 -2.0579 -0.5381
15115TIP3   OH266759   1.861   6.592   4.529 -0.2048 -0.2379 -0.0422
15115TIP3    H166760   1.812   6.547   4.459 -1.7269 -1.0940  1.4992
15115TIP3    H266761   1.942   6.542   4.537 -0.5163 -0.8174 -0.4445
15116TIP3   OH266762   1.576   2.219   4.979  0.0375 -0.2734 -0.5142
15116TIP3    H166763   1.497   2.272   4.978  0.4648  0.3775 -1.1050
15116TIP3    H266764   1.591   2.199   5.071  0.2612  1.2522 -0.1966
15117TIP3   OH266765   4.085   1.046  13.165  0.0019 -0.6022 -0.3346
15117TIP3    H166766   4.004   1.031  13.215 -0.7211 -1.7563 -1.7702
15117TIP3    H266767   4.112   1.135  13.189 -3.7680  1.4037 -2.5145
15118TIP3   OH266768   0.180   6.055  15.720  0.4404  0.4989 -0.1485
15118TIP3    H166769   0.163   5.966  15.690  0.6289  0.0736  0.9387
15118TIP3    H266770   0.276   6.061  15.725  0.4236  0.7043 -0.0454
15119TIP3   OH266771   3.519   2.705  13.545  0.3029  0.2151  0.0479
15119TIP3    H166772   3.440   2.650  13.546  0.0897  0.4982 -0.4390
15119TIP3    H266773   3.572   2.670  13.473  0.3041  0.4539 -0.0683
15120TIP3   OH266774   2.365   5.019   0.074  0.4857 -0.1722  0.0064
15120TIP3    H166775   2.384   5.075  -0.001 -0.8074 -2.1158 -1.8917
15120TIP3    H266776   2.294   5.063   0.120 -0.2629 -0.0488 -1.2356
15121TIP3   OH266777   4.868   5.940   3.656 -0.5419 -0.7745  0.0917
15121TIP3    H166778   4.904   5.990   3.729 -1.0379  0.5132 -0.4944
15121TIP3    H266779   4.942   5.891   3.621  0.3585  0.7804 -0.2679
15122TIP3   OH266780   5.733   3.196  13.428 -0.1743  0.0822 -0.0394
15122TIP3    H166781   5.711   3.176  13.519  2.5178  0.8111  0.8430
15122TIP3    H266782   5.714   3.114  13.381 -0.6180 -0.6453  1.3403
15123TIP3   OH266783   3.225   1.568  13.982 -0.8009 -0.0710  0.7765
15123TIP3    H166784   3.308   1.606  14.010 -0.2008 -1.7410  1.3906
15123TIP3    H266785   3.159   1.626  14.017  0.0792  0.7155  1.1763
15124TIP3   OH266786   2.758   6.057   5.891 -0.5096  0.4579 -0.1051
15124TIP3    H166787   2.811   6.103   5.826  0.1661  1.0405  0.8384
15124TIP3    H266788   2.788   6.090   5.976 -1.0116 -0.6643  0.5423
15125TIP3   OH266789   1.314   6.394   4.134 -0.4317  0.2639  0.0072
15125TIP3    H166790   1.241   6.455   4.140 -2.0601 -1.5756 -0.0254
15125TIP3    H266791   1.374   6.421   4.204 -2.8270 -0.2597  2.4367
15126TIP3   OH266792   0.677   4.106  15.596  0.1108  0.5575  0.4384
15126TIP3    H166793   0.652   4.151  15.677  1.3776  0.0432  1.1421
15126TIP3    H266794   0.771   4.126  15.586  0.0341  0.3746 -0.7529
15127TIP3   OH266795   0.418   5.856  15.177  0.5186  0.5172  0.0770
15127TIP3    H166796   0.503   5.841  15.217  0.3856 -1.5430 -0.3144
15127TIP3    H266797   0.438   5.885  15.088  0.7871  1.4134  0.4152
15128TIP3   OH266798   0.138   0.143  16.123  0.4183  0.6600  0.2784
15128TIP3    H166799   0.113   0.233  16.103  1.3207  1.1473  1.2279
15128TIP3    H266800   0.083   0.118  16.197 -0.5942  0.0242 -0.6559
15129TIP3   OH266801   3.428   3.629  16.652 -0.2951 -0.1063  0.4381
15129TIP3    H166802   3.423   3.612  16.558  0.3442 -0.0127  0.3838
15129TIP3    H266803   3.347   3.676  16.672  0.5005  1.7667 -0.4662
15130TIP3   OH266804   1.820   6.587  14.299  0.2063 -0.5191  0.1604
15130TIP3    H166805   1.770   6.507  14.317 -1.1322  0.5936  1.6523
15130TIP3    H266806   1.777   6.625  14.223  0.9564 -1.2737 -0.6639
15131TIP3   OH266807   1.020   2.194  11.358  0.6598 -0.4459  0.3603
15131TIP3    H166808   1.082   2.137  11.402  0.2220 -1.0272  0.2312
15131TIP3    H266809   1.002   2.150  11.275  0.4754 -0.0154  0.1700
15132TIP3   OH266810   4.769   2.616  11.065 -0.1565  0.1856 -0.5859
15132TIP3    H166811   4.828   2.547  11.034 -0.1495  0.0793 -0.3380
15132TIP3    H266812   4.686   2.571  11.084 -0.5096  0.4313 -1.5013
15133TIP3   OH266813   2.554   3.954   0.239 -0.2840 -0.2832  0.4244
15133TIP3    H166814   2.463   3.984   0.233  0.2912  1.4941  0.0805
15133TIP3    H266815   2.564   3.928   0.331 -0.8003  0.6744  0.7646
15134TIP3   OH266816   1.641   4.274   5.647 -0.0260 -0.2662  0.4784
15134TIP3    H166817   1.565   4.314   5.688  0.6622  3.3246 -1.2759
15134TIP3    H266818   1.711   4.280   5.712 -0.3206  0.0425  0.7638
15135TIP3   OH266819   3.822   5.521  17.178 -0.5475  0.2250 -0.2865
15135TIP3    H166820   3.822   5.428  17.199 -0.2652 -0.2020 -2.0601
15135TIP3    H266821   3.735   5.552  17.205 -0.5336 -0.4743  0.5908
15136TIP3   OH266822   2.955   0.348   2.782  0.2061 -0.3496  0.8477
15136TIP3    H166823   2.903   0.324   2.859 -0.0105  0.2557  0.8948
15136TIP3    H266824   2.890   0.369   2.715  0.3744 -1.8332  0.1646
15137TIP3   OH266825   3.773   2.054   5.824  0.1227  0.0054  0.5703
15137TIP3    H166826   3.803   1.963   5.827  0.2444  0.0448  0.5775
15137TIP3    H266827   3.768   2.079   5.916  0.8200  0.2403  0.5510
15138TIP3   OH266828   2.825   0.241   4.785  1.0262 -0.7350  0.1058
15138TIP3    H166829   2.881   0.204   4.717  1.6674  0.7992 -0.2382
15138TIP3    H266830   2.884   0.259   4.858  0.8632  0.2266  0.0115
15139TIP3   OH266831   1.020   1.754  12.299 -0.6071  0.1887 -0.4730
15139TIP3    H166832   1.017   1.666  12.263 -0.3773 -1.1899  2.6327
15139TIP3    H266833   1.042   1.810  12.224  0.2963 -2.4709 -2.3160
15140TIP3   OH266834   4.872   1.564  12.991  0.1566  0.0464 -0.2132
15140TIP3    H166835   4.869   1.509  13.069  2.1989  1.1436  0.6869
15140TIP3    H266836   4.790   1.614  12.993 -0.8316 -1.5105 -0.0200
15141TIP3   OH266837   4.073   5.640   5.689 -0.4599  0.7979  0.6313
15141TIP3    H166838   4.018   5.602   5.758  0.0250  1.4730  1.4057
15141TIP3    H266839   4.152   5.586   5.688 -0.6798  0.4797  0.2517
15142TIP3   OH266840   2.472   0.251  14.980 -0.1831 -0.0547  0.3430
15142TIP3    H166841   2.518   0.324  14.939 -1.4485 -0.3606 -1.7541
15142TIP3    H266842   2.501   0.173  14.932 -1.8119 -0.4087 -0.1230
15143TIP3   OH266843   4.504   3.010  14.414 -0.0008 -0.1410 -0.1993
15143TIP3    H166844   4.505   3.102  14.386 -1.4744  0.0587  0.3376
15143TIP3    H266845   4.554   3.009  14.495  0.7618  0.0182 -0.6577
15144TIP3   OH266846   6.034   6.162   5.665 -0.0618  0.3699 -0.1851
15144TIP3    H166847   5.996   6.215   5.735 -2.3419 -0.3027 -0.8495
15144TIP3    H266848   6.119   6.134   5.700 -1.0845  0.1225  2.2830
15145TIP3   OH266849   6.714   5.832  13.907  0.3338 -0.0512 -0.3459
15145TIP3    H166850   6.692   5.851  13.999 -2.0414 -1.5934 -0.5030
15145TIP3    H266851   6.766   5.908  13.879  0.9926  0.5322  2.2065
15146TIP3   OH266852   1.438   1.246   2.938 -0.1745 -0.3535 -0.2465
15146TIP3    H166853   1.408   1.233   2.848  0.9179  0.1433 -0.7024
15146TIP3    H266854   1.528   1.213   2.938  0.2017  0.6192  0.3715
15147TIP3   OH266855   3.972   0.147   3.449 -0.0423  0.1349 -0.0830
15147TIP3    H166856   4.050   0.198   3.426  1.7283 -2.4449 -0.1855
15147TIP3    H266857   3.919   0.147   3.370  1.0664 -0.0959 -0.8501
15148TIP3   OH266858   6.567   1.957  15.852  0.3178 -0.3661 -0.3801
15148TIP3    H166859   6.576   1.925  15.942  0.7406 -1.5749 -0.8355
15148TIP3    H266860   6.492   2.016  15.855  0.4733 -0.2066  0.8163
15149TIP3   OH266861   4.340   0.541  12.025  0.0817 -0.1437 -0.7810
15149TIP3    H166862   4.265   0.526  11.968 -0.7951 -0.2199  0.3667
15149TIP3    H266863   4.385   0.457  12.028 -0.9115 -0.6673  0.0822
15150TIP3   OH266864   6.405   5.184  10.874 -0.0055 -0.4378  0.5216
15150TIP3    H166865   6.359   5.252  10.824  1.4111  0.5322  0.4864
15150TIP3    H266866   6.341   5.113  10.882 -1.2468  0.5594 -0.1530
15151TIP3   OH266867   0.194   4.878  14.994  0.1771  0.2047  0.1438
15151TIP3    H166868   0.280   4.837  14.983  0.6718  1.3482 -0.3031
15151TIP3    H266869   0.201   4.926  15.077  0.2005  0.8572 -0.2319
15152TIP3   OH266870   1.407   3.213  12.803  0.3347 -0.0531  0.2615
15152TIP3    H166871   1.342   3.142  12.806 -0.7163  0.5534 -3.4122
15152TIP3    H266872   1.362   3.288  12.841  0.4775 -0.6181  1.6223
15153TIP3   OH266873   0.373   6.016   1.270  0.2673 -0.7558  0.2862
15153TIP3    H166874   0.399   5.930   1.237  2.3559 -0.3546  0.7384
15153TIP3    H266875   0.408   6.019   1.359  1.0514  0.8945 -0.0461
15154TIP3   OH266876   6.234   4.723   4.012 -0.4345 -0.1735 -0.0945
15154TIP3    H166877   6.230   4.633   3.979 -0.5271 -0.6106  1.0634
15154TIP3    H266878   6.282   4.716   4.094 -2.2279  0.5022  1.0723
15155TIP3   OH266879   5.063   3.114  13.265 -1.0666  0.3631 -0.4299
15155TIP3    H166880   5.067   3.123  13.360 -1.7658 -0.1253 -0.3507
15155TIP3    H266881   5.154   3.102  13.238 -0.8814  0.3494  0.1880
15156TIP3   OH266882   3.653   1.851  16.315 -0.4630 -0.2146  0.2029
15156TIP3    H166883   3.662   1.806  16.231  4.5204  0.2218  0.2171
15156TIP3    H266884   3.631   1.782  16.378  1.8948 -1.7873 -0.5931
15157TIP3   OH266885   0.535   1.823  11.982  0.1745 -0.2548 -0.0054
15157TIP3    H166886   0.625   1.808  12.010 -0.3854 -0.7282  1.6427
15157TIP3    H266887   0.494   1.737  11.988 -1.1392  0.4460  2.2338
15158TIP3   OH266888   4.360   6.297   3.100 -0.0040  0.3456  0.0873
15158TIP3    H166889   4.415   6.372   3.119  0.7336 -0.0908 -0.2730
15158TIP3    H266890   4.388   6.267   3.013 -1.0723  0.3413 -0.2739
15159TIP3   OH266891   3.240   1.125   4.210 -0.6534 -0.6619  0.0026
15159TIP3    H166892   3.161   1.089   4.249  0.7502 -1.4495  2.2926
15159TIP3    H266893   3.298   1.050   4.198  0.8037  0.2226  1.1015
15160TIP3   OH266894   0.772   1.898   6.559  0.1177  0.3506  0.0721
15160TIP3    H166895   0.741   1.975   6.606 -0.7759 -0.0489  0.1707
15160TIP3    H266896   0.839   1.860   6.616 -0.2940  0.3897  0.5921
15161TIP3   OH266897   3.440   5.191   1.002 -0.7045 -0.4496  0.6108
15161TIP3    H166898   3.345   5.184   1.002 -0.6350 -2.3757 -1.3231
15161TIP3    H266899   3.471   5.103   0.981  1.4729  0.3713  0.0987
15162TIP3   OH266900   2.927   1.042   4.076  0.1436 -0.7308  0.0775
15162TIP3    H166901   2.849   1.025   4.023 -0.0421 -1.9019  0.6907
15162TIP3    H266902   2.907   1.123   4.123 -0.9897 -1.3710  0.7385
15163TIP3   OH266903   2.264   3.394   4.238  0.0272  0.0966  0.3585
15163TIP3    H166904   2.340   3.339   4.255  0.5382  0.4102 -0.8102
15163TIP3    H266905   2.190   3.334   4.243  0.0883  0.1043  3.3443
15164TIP3   OH266906   1.871   3.642  11.266 -0.5515 -0.2670 -0.1679
15164TIP3    H166907   1.846   3.688  11.186 -1.6709  2.9480  1.8230
15164TIP3    H266908   1.964   3.623  11.254 -0.4779  0.8918 -1.8845
15165TIP3   OH266909   5.077   1.435   1.646 -0.1366  0.1921  0.5002
15165TIP3    H166910   5.007   1.410   1.586  0.3286  2.9455 -1.3477
15165TIP3    H266911   5.044   1.512   1.692  1.2930  0.9654  0.2938
15166TIP3   OH266912   5.038   5.828   2.580 -0.1884 -0.2525 -0.1247
15166TIP3    H166913   4.999   5.756   2.630 -2.7187  1.1328  0.0716
15166TIP3    H266914   5.068   5.890   2.647 -0.9217  0.2864 -0.2817
15167TIP3   OH266915   0.285   2.455  14.563  0.8897  0.6628  0.6412
15167TIP3    H166916   0.326   2.510  14.496  0.3207  0.7899  0.3921
15167TIP3    H266917   0.281   2.512  14.640 -2.9578  2.3511 -0.5627
15168TIP3   OH266918   6.770   1.319   2.869 -0.4635  0.6752  0.7810
15168TIP3    H166919   6.730   1.248   2.819 -0.9482  2.7444 -1.9752
15168TIP3    H266920   6.863   1.317   2.843 -0.7120  1.7386 -0.2563
15169TIP3   OH266921   5.884   2.224   0.183  0.3280 -0.1898  0.2150
15169TIP3    H166922   5.832   2.298   0.214  0.5808 -0.4631  1.3178
15169TIP3    H266923   5.825   2.148   0.191  0.6687 -0.3941  0.8425
15170TIP3   OH266924   6.700   6.134  11.862  0.4089 -0.0011  0.2388
15170TIP3    H166925   6.750   6.093  11.791  0.9183  1.3268 -0.1895
15170TIP3    H266926   6.661   6.060  11.909  1.1302 -0.9662 -0.6315
15171TIP3   OH266927   5.722   4.246  14.213  0.3065  0.1938 -0.0728
15171TIP3    H166928   5.815   4.264  14.214  0.2493  0.5133 -0.4057
15171TIP3    H266929   5.716   4.151  14.201  0.5887  0.4815 -3.5757
15172TIP3   OH266930   0.678   0.571  14.432  0.3232  0.2357  0.6340
15172TIP3    H166931   0.629   0.599  14.509 -2.1929  0.1552 -0.8393
15172TIP3    H266932   0.755   0.526  14.468 -0.6326  0.3872  3.0709
15173TIP3   OH266933   2.125   5.583  16.096 -0.5877  0.0779  0.0776
15173TIP3    H166934   2.071   5.515  16.135 -0.3700 -1.0542 -1.4915
15173TIP3    H266935   2.196   5.598  16.159 -0.7720 -0.9803  0.5513
15174TIP3   OH266936   2.504   1.731   4.877  0.3445  0.0722 -0.5028
15174TIP3    H166937   2.514   1.762   4.967 -4.2303 -1.7729  0.9372
15174TIP3    H266938   2.564   1.657   4.870 -0.4681 -0.8966  1.7943
15175TIP3   OH266939   0.438   4.610  13.083  0.0818 -0.1988  0.2503
15175TIP3    H166940   0.411   4.643  13.169  0.3847  1.1824 -0.1597
15175TIP3    H266941   0.460   4.519  13.099 -1.1213 -0.3269  1.3698
15176TIP3   OH266942   1.824   0.772  14.519 -0.1532  0.5076 -0.4073
15176TIP3    H166943   1.831   0.867  14.524  3.0091  0.4035 -0.4257
15176TIP3    H266944   1.890   0.740  14.580  0.3708 -1.6192 -1.9466
15177TIP3   OH266945   3.763   5.988   5.994  0.0660 -0.1976  0.1290
15177TIP3    H166946   3.675   5.951   5.991 -0.0077 -0.1762  1.3530
15177TIP3    H266947   3.753   6.077   5.961 -0.5926  0.1660  1.2642
15178TIP3   OH266948   3.211   5.758   1.438  0.0035 -0.4836 -0.0932
15178TIP3    H166949   3.284   5.715   1.393 -0.7880 -1.5965 -0.3420
15178TIP3    H266950   3.158   5.687   1.473 -0.3957  0.3301  1.0279
15179TIP3   OH266951   5.797   6.030  17.097  0.1362 -0.7079  0.0789
15179TIP3    H166952   5.709   6.016  17.062  0.2125  0.4271 -0.5840
15179TIP3    H266953   5.855   6.019  17.022  0.4992 -0.6304  0.3443
15180TIP3   OH266954   5.376   3.733   5.220  0.2893 -0.7536  0.1976
15180TIP3    H166955   5.339   3.710   5.135  1.1582 -1.7918  0.0630
15180TIP3    H266956   5.340   3.819   5.241 -1.3308 -1.2623 -0.3923
15181TIP3   OH266957   5.157   4.323  12.836  0.1087  0.7480 -0.7790
15181TIP3    H166958   5.095   4.368  12.894  0.0616 -0.5013  0.1744
15181TIP3    H266959   5.241   4.330  12.880 -0.4262 -3.0535  1.3166
15182TIP3   OH266960   4.358   4.733   4.678 -0.1692  1.0109  0.2654
15182TIP3    H166961   4.305   4.716   4.756 -1.3272 -0.0311 -0.7119
15182TIP3    H266962   4.303   4.789   4.623 -0.0139  0.4591 -0.4713
15183TIP3   OH266963   5.983   2.664   3.649 -0.6527  0.4813 -0.4209
15183TIP3    H166964   5.908   2.639   3.595  0.2393 -0.3174 -1.3570
15183TIP3    H266965   6.004   2.753   3.622 -1.5805  0.9178  0.2455
15184TIP3   OH266966   0.076   1.253  11.335 -0.4031 -0.0504 -0.5032
15184TIP3    H166967   0.151   1.260  11.276 -0.9349  1.2405 -1.0750
15184TIP3    H266968   0.069   1.339  11.376 -1.4078 -0.2236 -0.2760
15185TIP3   OH266969   2.650   4.767   6.227  0.0918  0.8692 -0.4216
15185TIP3    H166970   2.642   4.693   6.167 -0.7024  0.6770 -0.0911
15185TIP3    H266971   2.697   4.732   6.303 -2.2911  0.0405  0.7541
15186TIP3   OH266972   1.565   4.540   2.386 -0.3218  0.0377  0.0626
15186TIP3    H166973   1.471   4.552   2.375 -0.0126  0.5604 -2.6906
15186TIP3    H266974   1.604   4.618   2.346  1.3102 -0.6819  0.1722
15187TIP3   OH266975   4.278   0.528   6.084 -0.3347  0.1100  0.5479
15187TIP3    H166976   4.288   0.469   6.009  1.6602  0.6073  0.3728
15187TIP3    H266977   4.361   0.521   6.131 -1.0413  0.8416  1.9670
15188TIP3   OH266978   4.970   6.589   5.472  1.0152 -0.8963  0.3105
15188TIP3    H166979   4.916   6.668   5.468  0.6661 -1.1574 -0.3943
15188TIP3    H266980   5.053   6.616   5.432  0.3081 -1.3157 -1.5739
15189TIP3   OH266981   5.033   0.429  16.612  0.5614  0.1047  0.2765
15189TIP3    H166982   5.119   0.470  16.626 -0.3175  2.3375 -0.3782
15189TIP3    H266983   4.972   0.486  16.660 -0.8726  0.2655 -1.6471
15190TIP3   OH266984   4.744   4.568  12.165  0.6147  0.0096 -0.1678
15190TIP3    H166985   4.678   4.498  12.163  1.3763 -0.7580  0.8000
15190TIP3    H266986   4.714   4.627  12.234  1.0110 -0.4321  0.3939
15191TIP3   OH266987   4.278   0.259  13.496 -0.0017  0.0034  0.6153
15191TIP3    H166988   4.205   0.246  13.556 -0.7903 -1.0040 -0.5271
15191TIP3    H266989   4.243   0.235  13.410  1.2056  1.0543 -0.2031
15192TIP3   OH266990   2.171   3.198   3.496 -0.3588 -0.1516  0.4377
15192TIP3    H166991   2.097   3.208   3.556 -0.4094 -3.5216  1.1477
15192TIP3    H266992   2.160   3.110   3.459  1.0190  0.8392 -2.7099
15193TIP3   OH266993   3.280   0.618   0.565  0.4740 -0.5389  0.1500
15193TIP3    H166994   3.328   0.562   0.505  0.8238  0.6287 -0.7000
15193TIP3    H266995   3.300   0.583   0.652 -0.0588 -2.2708 -0.3792
15194TIP3   OH266996   3.006   0.590  16.533  0.0779 -0.2500 -0.3346
15194TIP3    H166997   2.962   0.649  16.472 -0.6519 -1.8001 -1.3583
15194TIP3    H266998   2.940   0.573  16.601  0.9050  1.5177  1.0227
15195TIP3   OH266999   3.375   1.829   4.570 -0.3707 -0.1107  0.6162
15195TIP3    H167000   3.362   1.774   4.493  1.5026  0.2360 -0.0116
15195TIP3    H267001   3.455   1.794   4.610 -1.5236 -0.5345  2.6644
15196TIP3   OH267002   3.742   6.629   3.681  0.0257  0.1032 -0.5658
15196TIP3    H167003   3.728   6.550   3.733 -1.4770 -0.8571 -2.2832
15196TIP3    H267004   3.833   6.653   3.696  0.9097 -2.7250 -0.9681
15197TIP3   OH267005   6.513   1.559  10.261 -0.4184  0.1812  0.0838
15197TIP3    H167006   6.455   1.635  10.260 -0.4587  0.1877 -1.6389
15197TIP3    H267007   6.601   1.596  10.275 -0.2521  0.7772 -2.1035
15198TIP3   OH267008   0.974   3.620   2.475  0.0768  0.0396 -0.3992
15198TIP3    H167009   0.973   3.524   2.479  0.4263  0.0512  2.8811
15198TIP3    H267010   1.032   3.646   2.547  1.9454  2.7421 -2.6428
15199TIP3   OH267011   4.019   2.861   5.349  0.3895  0.6208 -0.4574
15199TIP3    H167012   3.980   2.944   5.378 -0.6488  0.8135 -2.2551
15199TIP3    H267013   4.022   2.868   5.254  2.0049 -0.6879 -0.5599
15200TIP3   OH267014   4.594   5.940  13.758  0.4458  0.3540 -0.9400
15200TIP3    H167015   4.540   6.016  13.739  0.6377  0.5315 -0.7753
15200TIP3    H267016   4.680   5.976  13.781  0.4931  0.0998 -0.7076
15201TIP3   OH267017   0.106   6.499   0.643  0.5391  0.1613  0.0800
15201TIP3    H167018   0.033   6.458   0.689 -1.3566  2.4507 -0.7117
15201TIP3    H267019   0.068   6.536   0.564  3.1485 -1.0313 -1.8951
15202TIP3   OH267020   3.747   5.172   3.510 -0.0201  0.0098 -0.8272
15202TIP3    H167021   3.666   5.193   3.556 -0.6687  0.4383 -2.1229
15202TIP3    H267022   3.816   5.214   3.562 -0.6972  0.2602 -0.1142
15203TIP3   OH267023   4.884   3.812  14.907  0.0224  0.0021  0.1423
15203TIP3    H167024   4.968   3.775  14.880  1.4693  2.8109  0.4536
15203TIP3    H267025   4.841   3.836  14.824 -0.9649 -2.2524 -0.0666
15204TIP3   OH267026   0.190   1.628  17.094 -0.0654 -0.5709  0.2813
15204TIP3    H167027   0.224   1.580  17.018  0.2845  0.5541 -0.3104
15204TIP3    H267028   0.260   1.622  17.159 -0.6881 -2.2089  0.8415
15205TIP3   OH267029   1.634   4.811   2.290 -0.3799  0.0471 -0.0753
15205TIP3    H167030   1.687   4.865   2.231 -0.8112  1.7028  0.9868
15205TIP3    H267031   1.547   4.850   2.287 -0.9479 -1.1675  0.0398
15206TIP3   OH267032   4.212   6.667  11.638 -0.7553 -0.7162  0.3278
15206TIP3    H167033   4.260   6.682  11.557 -0.8776 -1.2347  0.1512
15206TIP3    H267034   4.154   6.742  11.647 -2.7521 -1.9333 -1.5357
15207TIP3   OH267035   0.931   2.570   1.200 -0.0314  0.6773  0.0124
15207TIP3    H167036   0.996   2.535   1.261  1.0521  0.0216 -1.4807
15207TIP3    H267037   0.890   2.493   1.161  0.5212  1.0395 -1.3576
15208TIP3   OH267038   5.161   0.240  11.193  0.3279  0.9162  0.0004
15208TIP3    H167039   5.090   0.260  11.253  2.0061  1.7968  1.8271
15208TIP3    H267040   5.150   0.301  11.120 -1.9344 -0.3976 -0.8646
15209TIP3   OH267041   5.099   3.130  13.540  0.2261 -0.2322  0.2634
15209TIP3    H167042   5.107   3.039  13.566  0.4484  0.1867  1.7726
15209TIP3    H267043   5.024   3.163  13.589  0.3580  0.4788  0.0036
15210TIP3   OH267044   2.781   5.656   4.215 -0.0701  0.6257  0.1946
15210TIP3    H167045   2.758   5.638   4.124 -1.5325 -0.5335  0.7584
15210TIP3    H267046   2.825   5.740   4.213 -0.6146  0.8891 -1.5137
15211TIP3   OH267047   2.299   4.437   1.903 -0.1731 -0.0011 -0.0645
15211TIP3    H167048   2.385   4.455   1.940  0.6227 -1.4550 -1.1033
15211TIP3    H267049   2.238   4.451   1.975  1.2325 -1.8468  1.5719
15212TIP3   OH267050   1.529   2.447   0.939  0.0967  0.3195 -0.2293
15212TIP3    H167051   1.443   2.418   0.908 -1.6356  2.7724  1.8099
15212TIP3    H267052   1.552   2.385   1.008 -0.8865  0.5821  0.3495
15213TIP3   OH267053   1.837   3.126  16.768 -0.1431  0.3289 -0.0147
15213TIP3    H167054   1.810   3.113  16.677 -2.8991  0.3574  0.6862
15213TIP3    H267055   1.792   3.207  16.794  0.3704  0.1686  1.4427
15214TIP3   OH267056   5.844   3.509  14.082 -0.2744 -0.3190  0.0879
15214TIP3    H167057   5.918   3.449  14.089 -0.6540 -0.9389 -0.8970
15214TIP3    H267058   5.884   3.596  14.074  0.4254 -0.7489 -1.5906
15215TIP3   OH267059   0.089   5.517   0.870 -0.5343 -0.3478  0.0014
15215TIP3    H167060   0.014   5.562   0.907 -0.9468  0.1861 -1.4228
15215TIP3    H267061   0.099   5.438   0.923 -1.5835 -0.0208  0.7056
15216TIP3   OH267062   6.777   2.039  16.559  0.5448  0.2795  0.0217
15216TIP3    H167063   6.778   2.059  16.653  1.9401  1.8820 -0.2736
15216TIP3    H267064   6.733   2.114  16.519 -0.8651 -0.8224 -0.5500
15217TIP3   OH267065   2.531   0.350  11.706 -0.4692 -0.1306 -0.3589
15217TIP3    H167066   2.480   0.430  11.717 -1.0666 -0.4525 -0.7780
15217TIP3    H267067   2.618   0.381  11.682 -0.4182  0.4251  0.4629
15218TIP3   OH267068   1.976   4.703   3.096 -0.2126  0.5180 -0.1446
15218TIP3    H167069   1.896   4.750   3.074 -0.6550 -0.6366 -1.1152
15218TIP3    H267070   1.950   4.611   3.099  0.8440  0.2251  0.6590
15219TIP3   OH267071   2.651   5.535   6.045 -0.5859 -0.0095 -0.0628
15219TIP3    H167072   2.681   5.587   5.970 -0.5951 -0.6431 -0.5141
15219TIP3    H267073   2.568   5.576   6.071  1.0248  2.3774  1.8082
15220TIP3   OH267074   2.758   6.667  11.536 -0.0316 -0.1497 -0.2561
15220TIP3    H167075   2.835   6.611  11.526 -0.0986 -0.4516  0.8356
15220TIP3    H267076   2.783   6.749  11.493 -0.9533 -1.8296 -4.5726
15221TIP3   OH267077   5.306   1.977  11.319 -0.0123  0.3655  0.1196
15221TIP3    H167078   5.357   1.972  11.238 -0.1986  0.6100 -0.0110
15221TIP3    H267079   5.339   2.054  11.364  0.3438  0.0265  0.4502
15222TIP3   OH267080   4.572   4.043   4.593  0.4934 -0.6345 -0.4382
15222TIP3    H167081   4.634   3.992   4.540  0.0979 -0.1197 -1.4306
15222TIP3    H267082   4.504   3.981   4.618 -0.1989 -0.5442 -1.9831
15223TIP3   OH267083   4.289   2.442  14.546  0.9116 -0.6702 -0.3765
15223TIP3    H167084   4.373   2.462  14.586 -0.2527 -0.1199  1.9342
15223TIP3    H267085   4.254   2.369  14.597 -1.5059  1.3569  1.1119
15224TIP3   OH267086   4.196   5.185  13.238  0.0755  0.5595 -0.4309
15224TIP3    H167087   4.270   5.129  13.218  1.0836  1.6725  0.0210
15224TIP3    H267088   4.119   5.131  13.220  0.9861 -0.7076 -0.6704
15225TIP3   OH267089   4.828   2.395   3.583 -0.0440  0.5098 -0.2536
15225TIP3    H167090   4.904   2.442   3.616 -0.9390  1.0229  1.1547
15225TIP3    H267091   4.763   2.401   3.653 -0.8230 -1.3038 -0.7503
15226TIP3   OH267092   6.378   1.332   1.274 -0.0506 -0.0176 -0.0135
15226TIP3    H167093   6.380   1.401   1.206 -0.1201  0.2360  0.2391
15226TIP3    H267094   6.286   1.308   1.280 -0.0815  0.1494  0.1801
15227TIP3   OH267095   6.687   3.298  17.024  0.1829  0.3084  0.4199
15227TIP3    H167096   6.757   3.233  17.032 -1.2005 -1.1092  1.5348
15227TIP3    H267097   6.619   3.253  16.974 -0.0238  1.6105 -0.5085
15228TIP3   OH267098   6.495   3.133   1.909  0.2702  0.3748  0.5543
15228TIP3    H167099   6.543   3.057   1.876  0.7011  1.0371 -0.4022
15228TIP3    H267100   6.403   3.105   1.909  0.3699  0.0045 -0.2757
15229TIP3   OH267101   5.299   3.411  12.847 -0.8784  0.0859 -0.1904
15229TIP3    H167102   5.248   3.492  12.844 -1.3367 -0.1476  0.9208
15229TIP3    H267103   5.363   3.426  12.916  0.0705  0.0766 -1.0464
15230TIP3   OH267104   4.373   6.790  17.049  0.3181 -0.7324 -0.0969
15230TIP3    H167105   4.375   6.704  17.007 -1.0430 -0.8882  0.1176
15230TIP3    H267106   4.464   6.820  17.046  0.5801 -1.5772 -1.3994
15231TIP3   OH267107   3.098   4.738   5.040 -0.3956  0.1495 -0.6469
15231TIP3    H167108   3.143   4.715   4.959  0.2831  0.1545 -0.2736
15231TIP3    H267109   3.088   4.655   5.086  0.0626  0.2763 -0.3115
15232TIP3   OH267110   3.541   4.122  16.111 -0.3613  0.2795 -0.1274
15232TIP3    H167111   3.634   4.098  16.111 -0.7614 -1.5340  1.1558
15232TIP3    H267112   3.539   4.214  16.087  1.8204  0.5234  0.4704
15233TIP3   OH267113   0.371   0.897   0.713  0.1169  0.9313  0.0468
15233TIP3    H167114   0.382   0.867   0.623  0.1960  1.3176 -0.0756
15233TIP3    H267115   0.453   0.874   0.756 -0.5559 -0.8055  0.4822
15234TIP3   OH267116   0.840   0.923   4.085 -0.1404 -0.5456  0.0632
15234TIP3    H167117   0.824   0.921   4.179  0.3413 -0.0862  0.1640
15234TIP3    H267118   0.755   0.944   4.046 -0.2070 -0.0933  0.4440
15235TIP3   OH267119   5.081   5.334   0.097 -0.0525 -0.1420 -0.1536
15235TIP3    H167120   5.049   5.322   0.187  1.0485  0.9587  0.4092
15235TIP3    H267121   5.002   5.333   0.044 -0.7162 -0.9680  0.8009
15236TIP3   OH267122   1.955   5.330  12.894  0.3578  0.4171 -0.3014
15236TIP3    H167123   2.034   5.382  12.875 -1.2799  2.6439 -1.4827
15236TIP3    H267124   1.927   5.298  12.808 -2.0103  2.8116 -0.5533
15237TIP3   OH267125   5.336   1.119   3.911 -0.5155 -0.2745  0.3108
15237TIP3    H167126   5.393   1.069   3.851  0.0190 -0.7173  1.1743
15237TIP3    H267127   5.363   1.092   3.998 -1.5744  0.0565  0.7581
15238TIP3   OH267128   0.181   6.723  12.854  0.2853 -0.2307 -0.3076
15238TIP3    H167129   0.110   6.702  12.914  0.9342 -1.2027  0.1540
15238TIP3    H267130   0.139   6.771  12.782 -0.6973 -0.1228  0.3228
15239TIP3   OH267131   0.959   6.147   1.585  0.0525 -0.3551 -0.4079
15239TIP3    H167132   1.043   6.178   1.553 -1.3995  5.8265  0.4137
15239TIP3    H267133   0.912   6.120   1.506  0.8552  2.0264 -1.7888
15240TIP3   OH267134   2.790   4.875  16.553 -0.1740  1.0247 -0.3214
15240TIP3    H167135   2.757   4.843  16.637 -1.2353 -0.1365 -1.1455
15240TIP3    H267136   2.883   4.893  16.569  0.1551 -1.1989  0.5789
15241TIP3   OH267137   4.983   5.338   5.674  0.4607 -0.3700 -0.1900
15241TIP3    H167138   4.978   5.319   5.768  1.5725 -0.3999 -0.1263
15241TIP3    H267139   5.031   5.421   5.669 -3.5922  2.2802 -0.4938
15242TIP3   OH267140   4.685   1.007   3.906  0.0861  0.2475 -0.3402
15242TIP3    H167141   4.683   0.960   3.989  0.7313  1.1163  0.1815
15242TIP3    H267142   4.768   0.981   3.865  0.3234  0.7169 -0.1678
15243TIP3   OH267143   5.071   3.833   2.212 -0.0308  0.2473  0.3440
15243TIP3    H167144   5.005   3.858   2.147 -0.8711 -0.5688  0.8516
15243TIP3    H267145   5.106   3.916   2.243  0.8060  0.6466 -1.5420
15244TIP3   OH267146   2.206   6.276  14.868  0.3942  0.2074 -0.3356
15244TIP3    H167147   2.192   6.341  14.799 -0.4710 -0.8000 -1.1540
15244TIP3    H267148   2.199   6.192  14.823  0.9383 -0.4597  0.7955
15245TIP3   OH267149   1.767   2.638  14.387 -0.3038  0.2037  0.2646
15245TIP3    H167150   1.846   2.641  14.442 -0.7240  0.0073  0.8954
15245TIP3    H267151   1.723   2.557  14.412  0.8377 -1.3345 -2.3259
15246TIP3   OH267152   6.631   3.075   3.102  0.3184 -0.5798 -0.5209
15246TIP3    H167153   6.619   3.050   3.193  0.0700  1.5496  0.0964
15246TIP3    H267154   6.581   3.157   3.093 -0.4727 -1.2243 -2.8358
15247TIP3   OH267155   5.896   3.708  15.107  0.2251 -0.2057 -0.6439
15247TIP3    H167156   5.812   3.706  15.061 -1.4418 -2.0455  2.2063
15247TIP3    H267157   5.884   3.773  15.176  1.4156  0.0082 -0.6233
15248TIP3   OH267158   0.760   4.000  15.343  0.2727  0.0196  0.1339
15248TIP3    H167159   0.801   3.917  15.318  1.7367  0.9616 -0.6866
15248TIP3    H267160   0.738   3.989  15.435 -0.5731 -1.6711 -0.2222
15249TIP3   OH267161   1.253   4.258   2.981  0.5193 -0.4441  0.8857
15249TIP3    H167162   1.337   4.213   2.988  0.1283 -1.3596 -0.0711
15249TIP3    H267163   1.206   4.233   3.061  0.5980 -1.1426  0.7225
15250TIP3   OH267164   3.431   2.530  11.517 -0.2659 -0.2724 -0.4593
15250TIP3    H167165   3.342   2.500  11.535  0.3547 -2.0027 -0.1379
15250TIP3    H267166   3.443   2.516  11.423 -0.6388  0.8995 -0.7053
15251TIP3   OH267167   0.205   2.768  12.351 -0.7233 -0.4712  0.0344
15251TIP3    H167168   0.165   2.854  12.356  0.4372  0.1258 -0.5027
15251TIP3    H267169   0.260   2.772  12.272  0.8244 -1.0492  1.0451
15252TIP3   OH267170   0.719   6.264  15.173  0.1995  0.0542  0.3682
15252TIP3    H167171   0.642   6.232  15.125  1.2848 -1.4710 -0.4503
15252TIP3    H267172   0.781   6.290  15.105  1.0049 -0.2386  0.9767
15253TIP3   OH267173   1.819   4.447   0.991  0.6544 -0.2818  0.1396
15253TIP3    H167174   1.735   4.456   1.036  0.0456  0.2834 -1.0762
15253TIP3    H267175   1.851   4.537   0.982  0.7012 -0.3776 -0.6696
15254TIP3   OH267176   3.772   3.110  12.078  0.5459  0.2769  0.0739
15254TIP3    H167177   3.695   3.095  12.134 -0.6301 -0.5257 -1.6609
15254TIP3    H267178   3.846   3.108  12.138 -0.7841  1.1923  1.8310
15255TIP3   OH267179   1.767   3.581   1.672  0.1596  0.7478  0.0316
15255TIP3    H167180   1.753   3.486   1.667 -0.0603  0.7242  0.8331
15255TIP3    H267181   1.735   3.615   1.589 -0.2215  0.1654 -0.0666
15256TIP3   OH267182   1.367   1.029   0.633 -0.0369 -0.2637 -0.0220
15256TIP3    H167183   1.302   1.084   0.590  0.5723  0.4117 -0.1036
15256TIP3    H267184   1.377   0.953   0.576 -1.9934 -1.2341  0.8479
15257TIP3   OH267185   1.572   4.819   3.563  0.4072  0.1271 -0.6712
15257TIP3    H167186   1.483   4.851   3.547 -0.1653 -0.7001  0.6752
15257TIP3    H267187   1.629   4.887   3.527 -0.7611  1.0540 -0.8376
15258TIP3   OH267188   3.987   2.730  14.912  0.2182  0.3448 -0.5327
15258TIP3    H167189   3.971   2.736  14.818  1.6308  0.7115 -0.7744
15258TIP3    H267190   4.072   2.686  14.919  0.0754  0.2179  0.5768
15259TIP3   OH267191   1.752   0.084  12.349 -0.0310 -0.2963  0.5266
15259TIP3    H167192   1.665   0.095  12.389  0.9022  3.2985  1.9239
15259TIP3    H267193   1.781   0.173  12.330  2.6798 -1.4972 -1.5643
15260TIP3   OH267194   4.591   0.073  12.637 -0.3790 -0.0845 -0.0167
15260TIP3    H167195   4.602   0.149  12.580 -0.2146 -0.2326 -0.1842
15260TIP3    H267196   4.511   0.091  12.686 -0.6589 -0.0709 -0.4738
15261TIP3   OH267197   3.064   4.192   0.769  0.3383 -0.7467 -0.2636
15261TIP3    H167198   3.159   4.198   0.781  0.3150  2.8147 -0.6725
15261TIP3    H267199   3.032   4.148   0.848  2.2991 -2.5940 -0.3930
15262TIP3   OH267200   2.463   4.721   0.827  0.1257  0.0166 -0.5379
15262TIP3    H167201   2.421   4.805   0.844  1.2900  0.5626 -0.2304
15262TIP3    H267202   2.543   4.743   0.779 -0.3375 -1.0630 -1.8517
15263TIP3   OH267203   4.616   0.939  14.714 -0.3344 -0.0421  0.0106
15263TIP3    H167204   4.627   0.883  14.637 -1.8718  0.4873 -0.6179
15263TIP3    H267205   4.590   1.024  14.678 -0.2976  0.4298  1.0786
15264TIP3   OH267206   3.509   1.829   1.255 -0.4250  0.0033  0.5478
15264TIP3    H167207   3.439   1.779   1.212 -0.2550 -1.6386  2.0440
15264TIP3    H267208   3.467   1.869   1.331  0.4208 -2.0110  2.1708
15265TIP3   OH267209   1.619   0.437  15.747  0.1068 -0.1385 -0.1160
15265TIP3    H167210   1.714   0.444  15.756  0.0767  1.3188 -0.6464
15265TIP3    H267211   1.600   0.344  15.755  1.7798 -0.6805 -1.8957
15266TIP3   OH267212   1.126   1.552   1.840 -0.0313 -0.3292  0.3491
15266TIP3    H167213   1.209   1.521   1.805  0.0870 -0.4926  0.7740
15266TIP3    H267214   1.131   1.647   1.832  0.2266 -0.3338  0.4453
15267TIP3   OH267215   6.104   1.149   3.957 -0.1295 -0.1254  0.4042
15267TIP3    H167216   6.050   1.214   3.914  1.0556  1.2211  0.8917
15267TIP3    H267217   6.187   1.151   3.910  0.1203 -0.8999  0.7866
15268TIP3   OH267218   4.152   2.455   0.945  0.1395  0.3862  0.2165
15268TIP3    H167219   4.203   2.377   0.923 -0.8350 -0.5134  1.0558
15268TIP3    H267220   4.193   2.489   1.024  0.1187  0.2852  0.2722
15269TIP3   OH267221   4.484   2.500  12.948 -0.0883  0.8798 -0.4327
15269TIP3    H167222   4.446   2.418  12.918 -1.0494  0.7595  0.9848
15269TIP3    H267223   4.456   2.507  13.040  1.2731  2.0257 -0.0696
15270TIP3   OH267224   5.042   0.333  15.693 -0.7160 -0.2937  0.1176
15270TIP3    H167225   4.949   0.351  15.709 -1.1134  0.0399 -2.1967
15270TIP3    H267226   5.082   0.419  15.685 -0.6913 -0.4104 -1.2121
15271TIP3   OH267227   6.062   6.163  14.645 -0.9680  0.5789 -0.1421
15271TIP3    H167228   6.149   6.169  14.605  1.2821 -0.3802  4.0555
15271TIP3    H267229   6.046   6.069  14.654 -2.4441  0.7496 -0.6588
15272TIP3   OH267230   0.419   6.023   4.732  0.1831 -0.2064 -0.5180
15272TIP3    H167231   0.329   6.053   4.746  0.5447  1.1351 -0.8762
15272TIP3    H267232   0.433   6.036   4.638  0.4070 -1.4626 -0.6779
15273TIP3   OH267233   3.362   6.628  12.287  0.1791 -0.0557 -0.1857
15273TIP3    H167234   3.420   6.690  12.243 -0.2835  1.5770  1.3829
15273TIP3    H267235   3.421   6.570  12.336  0.5938 -0.4080 -1.0932
15274TIP3   OH267236   2.237   4.305  14.215 -0.2056 -0.2163  0.3777
15274TIP3    H167237   2.246   4.221  14.169 -2.4362  0.1448 -0.8935
15274TIP3    H267238   2.295   4.365  14.167 -0.5238 -0.4670 -0.3471
15275TIP3   OH267239   4.422   2.206  13.946  0.1034  0.0398 -0.0172
15275TIP3    H167240   4.493   2.270  13.944  1.2442 -1.1515  0.4465
15275TIP3    H267241   4.359   2.237  13.881  2.3858 -0.3340 -2.5480
15276TIP3   OH267242   5.056   2.477  11.395 -0.7193  0.0261  0.7783
15276TIP3    H167243   4.995   2.526  11.341 -1.0230  2.2664  2.9727
15276TIP3    H267244   5.140   2.486  11.351 -1.3361 -0.2925 -0.5349
15277TIP3   OH267245   6.348   3.115  16.229 -0.3661  0.6006  0.1693
15277TIP3    H167246   6.253   3.128  16.230 -0.5679 -0.7885  0.7922
15277TIP3    H267247   6.367   3.090  16.138 -0.5709  0.9993  0.0129
15278TIP3   OH267248   4.962   1.113   1.648 -0.2448  0.2117 -0.4238
15278TIP3    H167249   4.998   1.094   1.735 -0.7574 -0.4109 -0.3355
15278TIP3    H267250   4.898   1.182   1.664  0.0379  0.4718 -0.3952
15279TIP3   OH267251   5.879   4.901   1.513  0.2093 -0.5617 -0.0301
15279TIP3    H167252   5.863   4.819   1.466 -2.0431  0.0900 -0.5229
15279TIP3    H267253   5.841   4.887   1.600 -0.7508  0.1568 -0.3240
15280TIP3   OH267254   6.345   3.993   0.349 -0.4094  0.1122  0.1172
15280TIP3    H167255   6.325   3.964   0.260 -3.2136  2.0020 -0.0147
15280TIP3    H267256   6.420   4.051   0.340 -0.4729  0.0359 -0.9820
15281TIP3   OH267257   6.133   5.820  14.046 -0.1772  0.5123  0.5541
15281TIP3    H167258   6.229   5.813  14.038 -0.2236  1.2946 -1.0761
15281TIP3    H267259   6.112   5.904  14.006 -1.6841 -0.3024 -0.4434
15282TIP3   OH267260   6.286   0.663  16.095 -0.2476 -0.7773  0.6390
15282TIP3    H167261   6.256   0.612  16.020  0.5777 -1.1432  0.5476
15282TIP3    H267262   6.282   0.601  16.168 -0.0373 -0.7323  0.6891
15283TIP3   OH267263   1.932   3.697   4.116  0.0544 -0.2252 -0.3232
15283TIP3    H167264   1.956   3.781   4.157  0.5867 -1.5836  2.3703
15283TIP3    H267265   2.014   3.648   4.111 -0.6471 -1.5726  0.6952
15284TIP3   OH267266   3.797   0.302  15.388  0.1556  0.2781  0.3351
15284TIP3    H167267   3.849   0.300  15.308 -0.6645  0.4149 -0.2138
15284TIP3    H267268   3.797   0.394  15.414 -0.9264  0.5119 -0.4272
15285TIP3   OH267269   5.415   2.243  14.466  0.5633 -0.0315  0.2708
15285TIP3    H167270   5.462   2.291  14.535 -1.4410  0.8217  1.1219
15285TIP3    H267271   5.323   2.248  14.492 -0.2438  0.0704 -2.3414
15286TIP3   OH267272   4.353   5.851  15.889 -0.3717  0.3408  0.4434
15286TIP3    H167273   4.349   5.870  15.983 -0.3681  2.3457  0.0783
15286TIP3    H267274   4.412   5.917  15.854 -0.2916 -0.4540 -0.9709
15287TIP3   OH267275   3.626   1.419   0.587 -0.1089  0.1487  0.2077
15287TIP3    H167276   3.574   1.469   0.651 -1.2763  3.8642 -3.2020
15287TIP3    H267277   3.562   1.369   0.537  0.7697 -2.5937  1.6439
15288TIP3   OH267278   4.413   0.129  11.484  0.8845  0.3491 -0.6449
15288TIP3    H167279   4.462   0.165  11.410 -0.0356 -0.1156 -1.5049
15288TIP3    H267280   4.478   0.124  11.555  1.8291  0.6537 -1.4587
15289TIP3   OH267281   6.491   1.193   1.707  0.0527 -0.3293  0.1097
15289TIP3    H167282   6.518   1.120   1.762 -2.0464 -1.3304 -0.0904
15289TIP3    H267283   6.443   1.153   1.635 -0.3798  1.1871 -0.4834
15290TIP3   OH267284   2.781   5.298   6.052  0.3803  0.2943 -0.0577
15290TIP3    H167285   2.717   5.227   6.039  1.6881 -0.8107 -0.7646
15290TIP3    H267286   2.728   5.376   6.063 -1.1080 -0.2358 -2.5650
15291TIP3   OH267287   0.667   4.245  15.279  0.1258 -0.2860 -0.1090
15291TIP3    H167288   0.677   4.155  15.311 -0.6504 -0.6602 -0.8879
15291TIP3    H267289   0.685   4.299  15.356 -0.5840 -1.1381  0.6841
15292TIP3   OH267290   5.614   4.950  15.365  0.3878 -0.2810  0.0130
15292TIP3    H167291   5.642   4.989  15.448  1.7066 -1.2998  0.0850
15292TIP3    H267292   5.668   4.993  15.299  0.2254 -0.3513 -0.1650
15293TIP3   OH267293   6.542   6.506   4.416  0.0220 -0.2396 -0.1806
15293TIP3    H167294   6.475   6.558   4.462 -1.2480 -0.3399 -1.8050
15293TIP3    H267295   6.608   6.569   4.390 -1.2367  0.5481 -1.6508
15294TIP3   OH267296   1.038   1.854  15.081  0.2899 -0.4576 -0.4555
15294TIP3    H167297   0.946   1.829  15.070  0.0200 -0.4677  1.4473
15294TIP3    H267298   1.036   1.949  15.094  0.8386 -0.0577 -2.9173
15295TIP3   OH267299   1.703   3.421  11.643  0.1044 -0.0289  0.2540
15295TIP3    H167300   1.789   3.402  11.604 -0.2862 -0.1937 -0.5543
15295TIP3    H267301   1.664   3.486  11.585 -0.7471 -0.7430 -0.0015
15296TIP3   OH267302   3.030   4.989  16.526 -0.3807 -0.0742 -0.1392
15296TIP3    H167303   3.021   5.039  16.607  0.1811 -0.4699  0.1739
15296TIP3    H267304   3.021   5.054  16.456 -0.6587  0.3004  0.2418
15297TIP3   OH267305   0.472   1.064  16.550  0.5215  0.0416 -0.7119
15297TIP3    H167306   0.542   1.004  16.575 -0.3418 -0.5131  0.5040
15297TIP3    H267307   0.483   1.139  16.608  0.2516  0.0499 -0.6688
15298TIP3   OH267308   4.258   3.745  15.013 -0.3546  0.0831  0.0467
15298TIP3    H167309   4.190   3.763  14.949 -0.5380  1.9841  0.7240
15298TIP3    H267310   4.291   3.658  14.989 -0.8990  0.4211 -2.1702
15299TIP3   OH267311   2.833   6.449  10.999 -0.1596 -0.0908 -0.2048
15299TIP3    H167312   2.859   6.449  11.091 -1.8834  1.7850  0.3439
15299TIP3    H267313   2.763   6.383  10.994 -1.6621  1.3988  0.3843
15300TIP3   OH267314   3.450   1.009  15.942 -0.3445  0.2174  0.3080
15300TIP3    H167315   3.433   1.098  15.976  0.9959  0.2141  1.0233
15300TIP3    H267316   3.518   1.021  15.876 -0.7636 -0.1864 -0.2082
15301TIP3   OH267317   3.691   3.944  11.257  0.2218  0.7181 -0.1011
15301TIP3    H167318   3.638   3.996  11.196 -0.2142 -0.6751 -0.9733
15301TIP3    H267319   3.781   3.967  11.236  0.2939 -1.7240 -3.3718
15302TIP3   OH267320   3.733   3.557   0.607  0.9159 -0.2709 -0.0921
15302TIP3    H167321   3.664   3.538   0.671  0.0178  2.2304 -0.2153
15302TIP3    H267322   3.720   3.648   0.584  3.0386 -0.2949 -1.6960
15303TIP3   OH267323   4.801   6.548   5.896  0.2020  0.3500 -0.3825
15303TIP3    H167324   4.852   6.503   5.829  0.9969  1.1675 -0.3407
15303TIP3    H267325   4.799   6.488   5.970 -0.3952 -0.4187 -1.0121
15304TIP3   OH267326   0.555   6.404   2.732  0.2452  0.3707 -0.0548
15304TIP3    H167327   0.589   6.493   2.719  1.6776  0.2939  2.4873
15304TIP3    H267328   0.489   6.413   2.800 -1.0225 -0.2750 -1.1677
15305TIP3   OH267329   3.772   2.930   1.038 -0.6294  0.4650  0.7894
15305TIP3    H167330   3.791   2.844   1.076 -1.7786 -0.7184 -1.1610
15305TIP3    H267331   3.837   2.940   0.968 -0.5362  1.1674  0.9726
15306TIP3   OH267332   3.767   1.685  11.485 -0.5724 -0.3274  0.3505
15306TIP3    H167333   3.691   1.728  11.523 -1.1190 -0.2045 -0.8404
15306TIP3    H267334   3.739   1.660  11.397  0.1997 -1.8438  0.4984
15307TIP3   OH267335   6.047   0.032   5.352  0.1821 -0.0545  0.0043
15307TIP3    H167336   6.086   0.115   5.378  4.9573 -1.8020 -0.5852
15307TIP3    H267337   6.032  -0.015   5.434  4.3229 -1.1658  0.3206
15308TIP3   OH267338   3.294   2.842   1.394 -0.0517  0.2290 -0.2516
15308TIP3    H167339   3.201   2.858   1.381 -0.5553 -3.3812 -2.4318
15308TIP3    H267340   3.297   2.772   1.460  1.1723  0.5884  0.1001
15309TIP3   OH267341   0.960   5.699  13.561  0.3684  0.3101  0.1216
15309TIP3    H167342   0.991   5.721  13.473 -1.2420  1.1766 -0.2591
15309TIP3    H267343   0.900   5.769  13.583 -1.8405 -1.6010  0.5482
15310TIP3   OH267344   6.669   4.717  11.738 -0.2659  0.1054 -0.2470
15310TIP3    H167345   6.641   4.660  11.666 -1.1223  0.2048 -0.0042
15310TIP3    H267346   6.706   4.657  11.803 -2.7849 -0.4375  0.7955
15311TIP3   OH267347   1.966   0.608   0.284  0.3596 -0.7480 -0.5151
15311TIP3    H167348   2.024   0.676   0.253 -0.0428 -0.3904 -0.4994
15311TIP3    H267349   1.987   0.531   0.231 -0.1740 -0.2119 -1.5341
15312TIP3   OH267350   6.217   3.213   1.697 -0.7224  0.1669  0.0619
15312TIP3    H167351   6.126   3.221   1.666 -0.8169  1.3824  0.6003
15312TIP3    H267352   6.255   3.300   1.681 -0.4910  0.5664  2.4216
15313TIP3   OH267353   4.924   1.164  14.014  0.5107 -0.7690 -0.5797
15313TIP3    H167354   5.000   1.221  14.013  1.4560 -1.8298  2.1731
15313TIP3    H267355   4.959   1.076  14.027 -1.1358 -1.2612  1.0527
15314TIP3   OH267356   5.060   0.216   0.083 -0.8843  0.2456  0.5397
15314TIP3    H167357   5.032   0.162   0.157 -1.7963 -1.5046 -0.9814
15314TIP3    H267358   5.147   0.183   0.060 -2.1959 -2.1102 -1.5934
15315TIP3   OH267359   1.817   6.525   2.273  0.0495 -0.0918  0.0778
15315TIP3    H167360   1.724   6.503   2.282 -0.0686  0.4978  0.3386
15315TIP3    H267361   1.817   6.618   2.253  0.3990 -0.7051 -3.5008
15316TIP3   OH267362   5.460   0.166  15.230 -0.3156 -0.5249  0.4121
15316TIP3    H167363   5.519   0.212  15.171  0.3559  0.0979  1.5383
15316TIP3    H267364   5.418   0.099  15.175 -0.3745  0.5994 -0.9529
15317TIP3   OH267365   4.187   3.646   1.460 -0.2083 -0.4497 -0.0571
15317TIP3    H167366   4.157   3.575   1.518  0.5547 -2.1117 -1.5855
15317TIP3    H267367   4.139   3.633   1.379  0.8642  0.0028 -0.7920
15318TIP3   OH267368   0.606   4.056  17.054 -0.0411  0.5435  0.0889
15318TIP3    H167369   0.582   4.122  17.119  0.5845  0.6593  0.2126
15318TIP3    H267370   0.617   3.975  17.104 -1.8785  0.0660 -0.2112
15319TIP3   OH267371   1.700   2.912  15.340  0.1894  0.5884 -0.5957
15319TIP3    H167372   1.771   2.857  15.306  0.5425 -0.2442  1.3390
15319TIP3    H267373   1.621   2.875  15.301  0.6407  0.2176 -1.1820
15320TIP3   OH267374   4.751   6.605  12.654 -0.1035 -0.7980  0.2912
15320TIP3    H167375   4.689   6.670  12.620 -0.0244 -1.2147 -0.6925
15320TIP3    H267376   4.837   6.644  12.640 -0.1131 -0.0207  2.0754
15321TIP3   OH267377   6.741   0.700  16.407  0.1516  0.2993  0.6394
15321TIP3    H167378   6.693   0.758  16.466  0.9508  1.7338 -0.0695
15321TIP3    H267379   6.832   0.730  16.412  0.7806 -1.5381  0.9907
15322TIP3   OH267380   3.261   0.701  16.130 -0.0098  0.5904  0.4038
15322TIP3    H167381   3.257   0.793  16.157  0.4678  1.0290 -0.9156
15322TIP3    H267382   3.218   0.699  16.044 -0.0693 -0.4326  0.4451
15323TIP3   OH267383   0.955   1.574   1.181 -0.2157  0.3958  0.3138
15323TIP3    H167384   1.042   1.602   1.152 -0.7739 -0.2107 -2.1534
15323TIP3    H267385   0.969   1.488   1.221  0.0966 -0.7471 -2.0985
15324TIP3   OH267386   2.664   6.055  12.207 -0.4901  0.0866 -0.0752
15324TIP3    H167387   2.630   6.025  12.291 -0.2031 -2.1464 -0.6715
15324TIP3    H267388   2.654   5.979  12.149 -1.4274  1.7875 -2.3019
15325TIP3   OH267389   3.175   5.765  16.405  0.0855 -0.1515 -0.0459
15325TIP3    H167390   3.140   5.830  16.465  0.7772  0.1431  0.0449
15325TIP3    H267391   3.267   5.756  16.429  0.3286 -0.1735 -0.9277
15326TIP3   OH267392   4.818   6.034  14.130  0.1633  0.4211 -0.0635
15326TIP3    H167393   4.743   6.046  14.188 -0.0824 -1.1343 -0.0103
15326TIP3    H267394   4.797   5.955  14.080  2.5568 -1.2295  1.3186
15327TIP3   OH267395   4.648   3.073  14.634  0.2460  0.1691  0.1910
15327TIP3    H167396   4.729   3.061  14.682  0.9070 -0.1008 -0.9557
15327TIP3    H267397   4.666   3.146  14.574 -0.1587 -0.2771 -0.4904
15328TIP3   OH267398   1.609   4.913  11.563 -0.3951 -0.3691 -0.3043
15328TIP3    H167399   1.594   4.831  11.516  1.2174 -0.2173 -1.1641
15328TIP3    H267400   1.583   4.981  11.501 -0.4667 -0.2019 -0.0906
15329TIP3   OH267401   4.325   4.987   6.151 -0.0779  0.1590  0.2886
15329TIP3    H167402   4.245   4.939   6.132 -0.2145  0.3802  0.3033
15329TIP3    H267403   4.371   4.934   6.216 -1.1751  1.0405  1.8314
15330TIP3   OH267404   1.018   2.050   4.117  0.5818  0.2200  1.0746
15330TIP3    H167405   1.100   2.011   4.089  1.5946  1.7671  1.7586
15330TIP3    H267406   0.977   1.984   4.172  1.0807 -0.7864  0.2726
15331TIP3   OH267407   6.425   6.195  12.233  0.0883  0.0061  0.4736
15331TIP3    H167408   6.464   6.209  12.319 -0.6141  0.2971  0.7447
15331TIP3    H267409   6.334   6.223  12.242  0.2829  1.0837 -0.6527
15332TIP3   OH267410   4.665   0.286   4.115 -0.5338  0.1053  0.5202
15332TIP3    H167411   4.697   0.196   4.108 -2.1080 -0.5005  0.7573
15332TIP3    H267412   4.570   0.279   4.105 -0.5833  1.8984 -0.8103
15333TIP3   OH267413   2.768   5.378   0.056  0.2074 -0.1945  0.1456
15333TIP3    H167414   2.769   5.343  -0.033 -0.7547 -0.0687  0.0694
15333TIP3    H267415   2.824   5.318   0.106 -0.4974 -1.2028 -0.2246
15334TIP3   OH267416   1.094   2.625   2.403  0.1158  0.3689 -0.7369
15334TIP3    H167417   1.015   2.574   2.384 -0.3709  0.7957  0.0782
15334TIP3    H267418   1.163   2.581   2.354  0.1294 -2.3549  1.5274
15335TIP3   OH267419   1.511   0.166   0.549  0.1064  0.3989  0.0710
15335TIP3    H167420   1.594   0.163   0.596 -0.3586  0.5867  0.9177
15335TIP3    H267421   1.505   0.082   0.504  1.9429  1.3280 -2.1022
15336TIP3   OH267422   0.119   0.982   1.009  0.0934 -0.2288  0.2923
15336TIP3    H167423   0.078   1.030   0.936 -0.9731 -2.1287 -0.4395
15336TIP3    H267424   0.213   0.995   0.997 -0.1390  0.9364 -0.3807
15337TIP3   OH267425   2.017   3.287  14.311 -0.2084 -0.3968 -0.1697
15337TIP3    H167426   1.953   3.335  14.259  0.3236 -1.1522 -1.5740
15337TIP3    H267427   2.032   3.342  14.388 -3.5458 -0.8050  0.9493
15338TIP3   OH267428   3.709   1.973   3.793 -0.7625 -0.2058 -0.0943
15338TIP3    H167429   3.751   1.940   3.872 -1.1462 -0.1666  0.1276
15338TIP3    H267430   3.752   2.057   3.776  0.9039 -1.2384 -1.2179
15339TIP3   OH267431   2.206   2.464   1.332  0.4394  0.3299 -0.0931
15339TIP3    H167432   2.219   2.552   1.367 -0.6901  0.3346  0.3645
15339TIP3    H267433   2.159   2.418   1.402  1.1012 -0.6720 -0.2873
15340TIP3   OH267434   5.703   4.985  12.388 -0.3678  0.6839 -0.3189
15340TIP3    H167435   5.655   4.910  12.422 -0.4893  0.4999 -0.8850
15340TIP3    H267436   5.783   4.988  12.440  0.0471 -0.3752 -0.8553
15341TIP3   OH267437   0.990   5.389  17.033 -0.0350  0.5783  0.1918
15341TIP3    H167438   0.974   5.303  17.071  0.5543 -0.3402 -1.5289
15341TIP3    H267439   0.947   5.450  17.093 -0.2913 -0.8820  1.5624
15342TIP3   OH267440   5.809   4.520  13.283  0.4458 -0.0547  0.1347
15342TIP3    H167441   5.868   4.504  13.357  2.7258 -1.6632 -1.8528
15342TIP3    H267442   5.847   4.596  13.238 -0.9582  0.9552  0.5936
15343TIP3   OH267443   5.111   3.841  11.776 -0.1161 -0.3485 -0.3581
15343TIP3    H167444   5.159   3.836  11.693 -2.2906  0.1058 -1.7114
15343TIP3    H267445   5.066   3.756  11.782  0.6523 -0.6968  0.7969
15344TIP3   OH267446   0.657   6.726  16.511 -0.0257  0.0047 -0.0891
15344TIP3    H167447   0.663   6.804  16.567  1.2545  0.1862 -0.4498
15344TIP3    H267448   0.739   6.679  16.527  0.2366 -0.0924 -1.5991
15345TIP3   OH267449   0.421   2.783  15.059 -0.4847 -0.4775 -0.1941
15345TIP3    H167450   0.466   2.860  15.026 -0.1432 -0.0249  1.2721
15345TIP3    H267451   0.442   2.714  14.996 -2.0096  0.9152 -2.3755
15346TIP3   OH267452   0.299   2.350  12.416 -0.1920 -0.1476 -0.1814
15346TIP3    H167453   0.386   2.346  12.456 -0.0447 -1.6453 -0.5620
15346TIP3    H267454   0.315   2.380  12.327 -0.5381  3.3543  0.7987
15347TIP3   OH267455   5.125   5.703   3.795  0.2630 -0.1900  0.7907
15347TIP3    H167456   5.135   5.608   3.791  1.9026 -0.0139 -0.6327
15347TIP3    H267457   5.203   5.733   3.842  0.1772  0.5002  0.4982
15348TIP3   OH267458   5.154   6.780   2.613  0.5590 -0.1877 -0.6202
15348TIP3    H167459   5.155   6.741   2.701 -0.7635 -3.8116 -1.9841
15348TIP3    H267460   5.089   6.850   2.619 -0.3590 -1.1079  1.0559
15349TIP3   OH267461   1.428   2.038  11.361 -0.6824 -0.0891 -0.1443
15349TIP3    H167462   1.482   2.076  11.431  0.5015  0.1286 -1.1484
15349TIP3    H267463   1.457   1.947  11.355  1.7453  0.6922 -2.5854
15350TIP3   OH267464   4.021   4.911   3.846 -0.3212 -0.5974 -0.5517
15350TIP3    H167465   3.938   4.872   3.818  0.6067 -2.1198 -1.3055
15350TIP3    H267466   4.086   4.877   3.785  1.0258 -0.1906  0.5914
15351TIP3   OH267467   1.100   5.636   0.281 -0.4271  0.3275 -0.0411
15351TIP3    H167468   1.186   5.624   0.240 -0.0705 -0.5738  0.9133
15351TIP3    H267469   1.064   5.714   0.239  0.5332  0.2782 -1.0017
15352TIP3   OH267470   4.469   6.760   2.840 -0.6115 -0.2671  0.4823
15352TIP3    H167471   4.454   6.668   2.860  2.1825 -1.1106 -0.8935
15352TIP3    H267472   4.517   6.760   2.757 -2.0687  2.5417 -0.5250
15353TIP3   OH267473   1.651   5.468  11.279 -0.1967  0.1165 -0.1437
15353TIP3    H167474   1.639   5.494  11.370 -0.1051  3.4620 -0.9357
15353TIP3    H267475   1.736   5.505  11.255 -0.2451 -0.6553 -1.5993
15354TIP3   OH267476   3.163   0.664   0.858 -0.0019 -0.0846 -0.1028
15354TIP3    H167477   3.245   0.705   0.882  0.1644  0.1703 -1.0773
15354TIP3    H267478   3.116   0.731   0.807 -1.2112  0.1053  1.1847
15355TIP3   OH267479   3.529   3.707   0.019 -0.0860  0.4588  0.6704
15355TIP3    H167480   3.604   3.753   0.058 -0.0170  0.3865  0.6235
15355TIP3    H267481   3.559   3.617   0.010  0.6736  0.8618 -1.4593
15356TIP3   OH267482   3.140   3.632  16.654 -0.0459 -0.5617 -0.0615
15356TIP3    H167483   3.148   3.649  16.748  0.4830  0.6254 -0.3005
15356TIP3    H267484   3.046   3.622  16.640 -0.3619  1.4791  0.2726
15357TIP3   OH267485   3.816   6.055  15.651 -0.2357 -0.3711 -0.3298
15357TIP3    H167486   3.872   6.062  15.573  0.0663  0.1582 -0.0658
15357TIP3    H267487   3.830   5.965  15.681  1.0600 -0.0281  0.1609
15358TIP3   OH267488   2.968   5.439  11.386  0.0070  0.0481 -0.1278
15358TIP3    H167489   2.919   5.359  11.368  0.9884 -0.9611  1.5032
15358TIP3    H267490   2.916   5.485  11.451  0.6674 -0.5002  0.8010
15359TIP3   OH267491   0.900   5.949  11.023  0.1700  0.2617  0.5747
15359TIP3    H167492   0.933   5.982  11.106 -1.4143 -0.7024  1.6398
15359TIP3    H267493   0.948   5.867  11.010  0.9504  0.7802  0.1520
15360TIP3   OH267494   6.060   0.678  12.805  0.1596  0.0116 -0.1640
15360TIP3    H167495   6.087   0.764  12.772  1.7238 -0.4380 -0.1340
15360TIP3    H267496   6.136   0.646  12.853 -0.8523 -0.8568  0.9231
15361TIP3   OH267497   4.633   4.413  15.723  0.4630 -0.0917 -0.1466
15361TIP3    H167498   4.602   4.474  15.789  0.5745 -1.3149  1.0783
15361TIP3    H267499   4.636   4.464  15.642  0.2189  1.4051  0.7637
15362TIP3   OH267500   1.222   3.791  11.944  0.1234 -0.2241  0.8115
15362TIP3    H167501   1.147   3.732  11.938 -0.2439  0.3942 -1.4966
15362TIP3    H267502   1.289   3.751  11.890 -0.0169  1.2586 -0.5274
15363TIP3   OH267503   6.320   4.950   5.685 -0.0868  0.5394 -0.1672
15363TIP3    H167504   6.277   4.876   5.727  1.4407 -0.0917  0.3586
15363TIP3    H267505   6.282   5.027   5.727 -2.9649  0.2216 -1.9109
15364TIP3   OH267506   0.335   2.739   1.502 -0.0128 -0.3713  0.0563
15364TIP3    H167507   0.338   2.668   1.438 -2.2667  0.1363 -0.6982
15364TIP3    H267508   0.410   2.722   1.559  0.3738 -2.5128 -0.9651
15365TIP3   OH267509   4.876   6.031   0.538 -0.0698  0.0758 -0.3453
15365TIP3    H167510   4.842   6.120   0.546  0.5322  0.2867 -0.0646
15365TIP3    H267511   4.886   6.018   0.444 -2.8070 -0.7343 -0.6089
15366TIP3   OH267512   1.405   3.681  14.960  0.3828 -0.2184 -0.4665
15366TIP3    H167513   1.421   3.775  14.952 -0.1598 -0.0911 -0.0854
15366TIP3    H267514   1.462   3.653  15.032 -0.6955  0.1429  0.5584
15367TIP3   OH267515   6.453   1.529   5.495 -0.8707  0.9219  0.0325
15367TIP3    H167516   6.428   1.516   5.586 -1.3702  0.5015 -0.1543
15367TIP3    H267517   6.372   1.513   5.446 -0.6012  1.1110 -0.4839
15368TIP3   OH267518   1.679   5.514   5.012 -0.8764 -0.0065 -0.3700
15368TIP3    H167519   1.610   5.448   5.020  0.4208 -1.2697  0.8793
15368TIP3    H267520   1.637   5.595   5.041 -2.5354 -0.1781 -2.0350
15369TIP3   OH267521   1.726   3.532   5.180  0.3570 -0.3777 -0.4769
15369TIP3    H167522   1.781   3.602   5.216  0.3316  0.1998 -1.5522
15369TIP3    H267523   1.637   3.564   5.191  0.2931 -0.6650 -0.1145
15370TIP3   OH267524   6.136   6.514   1.536 -0.2090  0.3359 -0.2805
15370TIP3    H167525   6.192   6.475   1.604 -1.7949 -2.7716 -0.6055
15370TIP3    H267526   6.059   6.545   1.584  0.3030  1.6138 -0.2477
15371TIP3   OH267527   6.189   0.915   1.346  0.0914 -0.1200  0.3960
15371TIP3    H167528   6.098   0.920   1.315  0.5859  0.6329 -1.0585
15371TIP3    H267529   6.208   0.822   1.349  0.4878 -0.3143 -3.2995
15372TIP3   OH267530   0.901   2.346  15.947 -0.0284  0.3802  0.3597
15372TIP3    H167531   0.929   2.255  15.943  2.8902  1.2318 -1.1459
15372TIP3    H267532   0.954   2.384  16.018 -0.2584  1.2097  0.0994
15373TIP3   OH267533   2.634   3.463  11.188  0.0262 -0.1042 -0.3456
15373TIP3    H167534   2.542   3.446  11.207 -0.2516  0.9515 -0.6657
15373TIP3    H267535   2.658   3.396  11.124 -0.3539 -0.7188  0.1367
15374TIP3   OH267536   6.774   3.748   3.208  0.0795 -0.1812  0.7665
15374TIP3    H167537   6.683   3.740   3.237  0.3252 -0.7093  1.3972
15374TIP3    H267538   6.768   3.755   3.113 -0.6670  0.5268  0.8551
15375TIP3   OH267539   1.100   0.717   3.164 -0.1588  0.2495  0.8335
15375TIP3    H167540   1.027   0.778   3.150  0.8146  1.1563 -0.6165
15375TIP3    H267541   1.117   0.679   3.078  1.0439  0.0424  1.1375
15376TIP3   OH267542   0.456   4.919  14.740  0.1032 -0.9223  0.2269
15376TIP3    H167543   0.448   4.966  14.823 -0.0745  1.3540 -0.9918
15376TIP3    H267544   0.393   4.962  14.683  2.1752 -0.5064 -1.9020
15377TIP3   OH267545   4.371   6.288   2.486  0.2965 -0.0181  0.0251
15377TIP3    H167546   4.438   6.220   2.499  1.0102  0.4395 -1.1078
15377TIP3    H267547   4.301   6.264   2.546 -0.2686 -2.7847 -1.5625
15378TIP3   OH267548   2.174   1.023  13.326  0.5427 -0.0617 -0.1359
15378TIP3    H167549   2.191   0.933  13.354 -3.1704 -0.3862  1.8275
15378TIP3    H267550   2.156   1.016  13.232  1.3741 -1.1676 -0.2291
15379TIP3   OH267551   5.613   3.904  13.952  0.1236  0.4372 -0.8118
15379TIP3    H167552   5.622   3.822  14.002  1.5878 -0.2237 -2.0632
15379TIP3    H267553   5.702   3.940  13.951 -0.2973  1.4689 -1.2216
15380TIP3   OH267554   2.022   2.581   1.710  0.1060  0.4287 -0.4654
15380TIP3    H167555   2.006   2.586   1.616  0.6639 -0.9352 -0.6555
15380TIP3    H267556   2.074   2.659   1.730  1.7740 -0.3050 -1.6964
15381TIP3   OH267557   4.127   6.133   0.022 -0.6683 -0.6525 -0.4566
15381TIP3    H167558   4.210   6.086   0.024  0.2403  0.8853  0.1162
15381TIP3    H267559   4.080   6.102   0.100 -0.2242 -0.8433 -0.2605
15382TIP3   OH267560   3.985   4.377   3.961 -0.0047 -0.2991 -0.0936
15382TIP3    H167561   4.042   4.311   3.920 -0.5958 -0.9954  0.1843
15382TIP3    H267562   4.014   4.460   3.924  0.6282 -0.7382 -0.6022
15383TIP3   OH267563   5.724   2.778  11.325 -0.3194 -0.1861  1.0181
15383TIP3    H167564   5.732   2.827  11.243 -3.7469 -1.4543 -0.2256
15383TIP3    H267565   5.748   2.842  11.393  0.8295  1.4511 -0.8170
15384TIP3   OH267566   5.719   5.764  14.001  0.3572 -0.0481 -0.3493
15384TIP3    H167567   5.698   5.850  14.036 -0.7393  0.2709 -1.6810
15384TIP3    H267568   5.760   5.782  13.916 -0.7472 -0.8128 -1.0775
15385TIP3   OH267569   1.287   4.075   6.127  0.2922 -0.3051  0.1410
15385TIP3    H167570   1.219   4.072   6.194  0.6542 -0.0600  0.5229
15385TIP3    H267571   1.334   4.157   6.143  0.9540 -0.6788  0.1627
15386TIP3   OH267572   0.693   4.197   0.075  0.0591  0.2000  0.7534
15386TIP3    H167573   0.675   4.158   0.161  3.1029 -1.8003  0.6256
15386TIP3    H267574   0.788   4.205   0.072 -0.0738  1.9086 -1.7916
15387TIP3   OH267575   5.133   0.931   3.091  0.6541  0.4100 -0.3483
15387TIP3    H167576   5.116   0.840   3.066 -0.9162  0.6868 -0.4036
15387TIP3    H267577   5.172   0.925   3.178  0.2952 -0.3171 -0.2273
15388TIP3   OH267578   2.539   4.135   0.647  0.7807  0.2479  0.0114
15388TIP3    H167579   2.480   4.156   0.719  0.5643 -1.4652  0.3706
15388TIP3    H267580   2.574   4.220   0.619  1.0307  0.9333  2.2427
15389TIP3   OH267581   3.344   2.629   5.397  0.2061 -0.2462 -0.8661
15389TIP3    H167582   3.277   2.607   5.333  0.7254 -0.7055 -1.2623
15389TIP3    H267583   3.314   2.590   5.479 -0.9364  1.1524 -0.5764
15390TIP3   OH267584   1.057   2.657   5.021 -0.1643  0.6583  0.2343
15390TIP3    H167585   1.086   2.667   5.112 -0.7337  2.2874  0.2665
15390TIP3    H267586   1.030   2.745   4.994  2.1012  0.7211 -2.2571
15391TIP3   OH267587   1.538   3.719   2.842  0.3775  0.1464  0.0818
15391TIP3    H167588   1.556   3.812   2.832  2.3454 -0.1792  0.2096
15391TIP3    H267589   1.537   3.685   2.752  0.5531  0.1437  0.0809
15392TIP3   OH267590   6.654   1.277   3.102 -0.4544 -0.2884 -0.1333
15392TIP3    H167591   6.692   1.267   3.015 -1.4643 -1.0699 -0.5078
15392TIP3    H267592   6.609   1.361   3.099 -1.0124 -0.5890 -0.6005
15393TIP3   OH267593   5.843   4.015  16.408  0.7242 -0.5129  0.0701
15393TIP3    H167594   5.771   4.019  16.346  2.0560 -0.0064 -1.5036
15393TIP3    H267595   5.833   4.094  16.461 -0.4792 -0.9997  0.6010
15394TIP3   OH267596   4.047   0.343   5.225 -0.3263 -0.2862  0.2401
15394TIP3    H167597   3.998   0.283   5.170 -2.3150  2.4688 -1.2281
15394TIP3    H267598   4.009   0.429   5.207  2.5281  1.5104  1.9729
15395TIP3   OH267599   3.222   2.902   0.070  0.0284  0.3668  0.3984
15395TIP3    H167600   3.243   2.935   0.157 -0.3498  0.6514  0.3858
15395TIP3    H267601   3.166   2.825   0.086  1.5380 -0.7527  0.4459
15396TIP3   OH267602   1.186   4.049  12.476 -0.1924 -0.0182 -0.1695
15396TIP3    H167603   1.264   4.063  12.422  0.6364 -1.2219  0.6636
15396TIP3    H267604   1.217   3.995  12.549 -1.8646 -0.7604  0.0338
15397TIP3   OH267605   5.661   5.018   5.897 -0.5747 -0.3073  0.6501
15397TIP3    H167606   5.723   4.961   5.851  1.0319  1.5608  0.3948
15397TIP3    H267607   5.700   5.031   5.984 -1.1017  0.1492  0.8246
15398TIP3   OH267608   6.353   5.363   0.657 -0.2547  0.0941  0.0646
15398TIP3    H167609   6.293   5.387   0.727 -1.6610  0.3735 -1.1660
15398TIP3    H267610   6.440   5.369   0.696 -0.8638  2.0257  1.2796
15399TIP3   OH267611   3.272   3.207   5.148 -0.7848  0.8826  0.2633
15399TIP3    H167612   3.284   3.121   5.190  0.2403  0.9705  0.1827
15399TIP3    H267613   3.339   3.262   5.188 -1.0016  1.4649 -0.1743
15400TIP3   OH267614   6.092   0.247   1.659 -0.1720  0.0970 -0.1919
15400TIP3    H167615   6.150   0.244   1.734 -1.7471  0.4175  1.0902
15400TIP3    H267616   6.083   0.155   1.632 -0.4103 -0.1433  0.6782
15401TIP3   OH267617   1.463   2.233  10.532 -0.1442  0.2853  0.3433
15401TIP3    H167618   1.556   2.220  10.553 -0.0741 -0.8893 -0.5720
15401TIP3    H267619   1.459   2.322  10.498  0.3909  0.8342  1.6426
15402TIP3   OH267620   6.507   1.703  15.433 -0.1146  0.3144  0.2563
15402TIP3    H167621   6.469   1.713  15.520  0.8156 -0.2603  0.7371
15402TIP3    H267622   6.587   1.754  15.434  0.4916 -0.6060  0.1202
15403TIP3   OH267623   2.036   5.600   2.078 -0.5104  0.0747  0.0992
15403TIP3    H167624   2.020   5.590   1.984 -1.2360 -0.6923  0.2928
15403TIP3    H267625   2.112   5.658   2.083  1.5497 -2.2807 -1.0507
15404TIP3   OH267626   3.989   3.964  13.760 -0.5561 -0.7346  0.1120
15404TIP3    H167627   4.015   4.041  13.810  0.4336 -1.3719  0.6198
15404TIP3    H267628   4.071   3.924  13.731 -1.0893 -0.8894 -1.2707
15405TIP3   OH267629   0.592   3.206  11.830  0.1539  0.0915 -0.5014
15405TIP3    H167630   0.646   3.203  11.752  0.1063 -2.9985 -0.5520
15405TIP3    H267631   0.651   3.179  11.901 -0.5769 -0.3345 -0.0437
15406TIP3   OH267632   1.155   0.701   3.433 -0.1684 -0.1738 -0.3201
15406TIP3    H167633   1.146   0.687   3.339 -3.1220  0.0560 -0.1646
15406TIP3    H267634   1.191   0.789   3.441 -1.6409  0.5507 -1.2765
15407TIP3   OH267635   1.098   0.721  11.742  0.3085 -0.2752 -0.1898
15407TIP3    H167636   1.044   0.800  11.733  0.8499  0.0092 -1.0815
15407TIP3    H267637   1.057   0.672  11.814 -1.0664 -0.0007 -0.7390
15408TIP3   OH267638   1.497   0.138   2.178  0.3183 -0.8949 -0.1719
15408TIP3    H167639   1.495   0.044   2.161  1.8236 -0.8858 -0.5758
15408TIP3    H267640   1.504   0.177   2.091 -1.7814 -0.3042 -0.1213
15409TIP3   OH267641   3.426   5.313   5.547  0.2182 -0.5687  0.2619
15409TIP3    H167642   3.439   5.219   5.534  1.1410 -0.3922 -0.2024
15409TIP3    H267643   3.419   5.349   5.459  0.2468 -0.1481  0.4286
15410TIP3   OH267644   5.729   5.259   0.459 -0.3762  0.5808  0.0131
15410TIP3    H167645   5.820   5.264   0.430  0.0750 -1.1169  0.9735
15410TIP3    H267646   5.689   5.192   0.403  0.0206 -1.4064  1.9635
15411TIP3   OH267647   3.503   6.391  12.976 -0.0086  0.6113 -0.0674
15411TIP3    H167648   3.444   6.456  12.939 -0.8992  0.2876  0.7475
15411TIP3    H267649   3.483   6.310  12.928 -3.8168 -0.7854  3.3752
15412TIP3   OH267650   0.795   0.791  16.000 -0.0635 -0.0243  0.0587
15412TIP3    H167651   0.851   0.858  16.038  1.2348 -1.4580  0.8106
15412TIP3    H267652   0.782   0.819  15.909  0.5948  1.1393  0.3033
15413TIP3   OH267653   4.118   4.427  16.297  0.3070 -0.0470 -0.4248
15413TIP3    H167654   4.024   4.412  16.287  0.3814 -1.2296  0.3537
15413TIP3    H267655   4.138   4.498  16.236 -1.0757  0.1951 -0.6333
15414TIP3   OH267656   5.269   1.528  12.408  0.2063  0.0939  0.3661
15414TIP3    H167657   5.349   1.512  12.458  0.1382 -0.1481  0.3978
15414TIP3    H267658   5.201   1.538  12.474  0.1561 -0.0000  0.3284
15415TIP3   OH267659   4.070   2.387  16.164 -0.3118 -0.0055  0.1111
15415TIP3    H167660   4.141   2.449  16.180 -0.0145 -0.3396  0.0957
15415TIP3    H267661   4.114   2.303  16.154 -0.5971 -0.0338 -1.0780
15416TIP3   OH267662   3.809   4.697   6.306  0.2657  0.5811  0.4521
15416TIP3    H167663   3.827   4.641   6.382  1.7141  0.1947 -0.1551
15416TIP3    H267664   3.757   4.770   6.342 -0.4118 -0.3898  1.5105
15417TIP3   OH267665   3.267   0.292   1.916  0.0184  0.4612 -0.6681
15417TIP3    H167666   3.355   0.305   1.950 -1.1042 -0.2314  2.9473
15417TIP3    H267667   3.227   0.379   1.918  0.2183  0.5622 -1.0511
15418TIP3   OH267668   4.978   2.403  10.980  0.0669 -0.4848 -0.5288
15418TIP3    H167669   4.899   2.350  10.990  0.7489 -1.4526 -0.0652
15418TIP3    H267670   5.046   2.351  11.023  0.9098  0.4309 -0.7402
15419TIP3   OH267671   1.930   4.599  16.481  0.1663  0.6803 -0.4422
15419TIP3    H167672   1.927   4.689  16.449  3.0312  0.8265 -0.5520
15419TIP3    H267673   2.008   4.562  16.440 -1.0221 -1.9620 -0.5450
15420TIP3   OH267674   0.369   6.145  16.832 -0.2507 -0.3646  0.1336
15420TIP3    H167675   0.444   6.204  16.839 -0.9441  0.3968  1.4775
15420TIP3    H267676   0.403   6.069  16.785  1.4182 -0.1515  0.9292
15421TIP3   OH267677   5.347   2.407  12.065  0.1988 -0.3998  0.5331
15421TIP3    H167678   5.437   2.385  12.088  0.4798  2.4428  2.6385
15421TIP3    H267679   5.354   2.490  12.017 -1.2788 -0.1756  0.6690
15422TIP3   OH267680   0.410   5.252   2.542 -0.1805  0.0098 -0.4187
15422TIP3    H167681   0.505   5.243   2.544 -0.0889  0.3116  3.2119
15422TIP3    H267682   0.393   5.339   2.578 -1.8727  0.3564 -1.8762
15423TIP3   OH267683   5.416   5.179   0.129 -0.0370  0.1135  0.9482
15423TIP3    H167684   5.396   5.269   0.103 -0.8605  0.2251  1.9640
15423TIP3    H267685   5.345   5.127   0.092  0.6266 -0.1960  0.0490
15424TIP3   OH267686   3.101   2.726  17.016  0.4092 -0.2561 -0.4316
15424TIP3    H167687   3.183   2.704  17.060  0.7942 -0.4843 -1.2407
15424TIP3    H267688   3.088   2.655  16.953 -0.4093 -0.2189 -0.3150
15425TIP3   OH267689   3.099   5.304  13.449  0.2813 -0.5277 -0.5966
15425TIP3    H167690   3.134   5.241  13.386 -1.6944 -2.1830 -0.1110
15425TIP3    H267691   3.004   5.301  13.437 -0.0076  0.8173  0.9081
15426TIP3   OH267692   4.833   4.820   2.479  0.7412 -0.2079  0.1331
15426TIP3    H167693   4.833   4.828   2.574 -1.5357  0.5867  0.1175
15426TIP3    H267694   4.751   4.861   2.451  2.0035  0.8786 -2.2900
15427TIP3   OH267695   3.813   4.652   0.656  0.6499  1.0009 -0.4382
15427TIP3    H167696   3.893   4.631   0.608  0.2651  0.7749 -0.9907
15427TIP3    H267697   3.843   4.687   0.740  1.3324 -1.5060  0.4540
15428TIP3   OH267698   4.232   4.099   0.666  0.2205  0.2497 -0.8758
15428TIP3    H167699   4.321   4.069   0.647  0.5405  0.4400  0.2730
15428TIP3    H267700   4.231   4.191   0.638  0.3104  0.1898 -1.0812
15429TIP3   OH267701   2.371   1.402  13.824  0.6067 -0.2576  0.0650
15429TIP3    H167702   2.355   1.359  13.741 -3.1748  0.4876  0.2438
15429TIP3    H267703   2.335   1.490  13.813  3.0206  1.0493  1.5281
15430TIP3   OH267704   3.212   2.284  14.693 -0.7916 -0.1166  0.7633
15430TIP3    H167705   3.168   2.228  14.629  0.3792 -0.1283 -0.0633
15430TIP3    H267706   3.264   2.223  14.745  1.1757  0.2356 -0.7006
15431TIP3   OH267707   1.868   4.801  13.060 -0.1278 -0.5816  0.6528
15431TIP3    H167708   1.798   4.762  13.112 -0.0347 -1.5013  0.1129
15431TIP3    H267709   1.824   4.832  12.981 -0.0377 -0.5339  0.6208
15432TIP3   OH267710   0.565   2.765  12.460  0.2509  0.1507  0.5781
15432TIP3    H167711   0.510   2.840  12.485  0.6273  0.6634 -0.0977
15432TIP3    H267712   0.612   2.795  12.382  0.0040 -0.9814 -0.0247
15433TIP3   OH267713   6.123   5.364  14.961  0.2867 -0.2448 -0.2715
15433TIP3    H167714   6.154   5.420  14.889  0.7432 -1.8636 -1.3929
15433TIP3    H267715   6.179   5.388  15.035  0.7506  0.4824 -0.8387
15434TIP3   OH267716   3.988   3.468   0.947 -0.0733 -0.0549 -0.4088
15434TIP3    H167717   3.973   3.518   0.867  0.8179  1.8042  0.5226
15434TIP3    H267718   4.082   3.449   0.947  0.0594  0.5299  0.4883
15435TIP3   OH267719   4.468   4.539   0.241 -0.0370  0.0066 -0.4511
15435TIP3    H167720   4.488   4.445   0.240 -1.2745 -0.2808  0.0659
15435TIP3    H267721   4.515   4.574   0.165 -0.1210 -1.1572 -1.0658
15436TIP3   OH267722   2.110   2.273  16.777 -0.0837 -0.2288 -0.1436
15436TIP3    H167723   2.169   2.222  16.832 -0.9506 -0.7517  0.3209
15436TIP3    H267724   2.125   2.364  16.805  0.9356 -0.2786 -0.4712
15437TIP3   OH267725   0.138   4.795  16.535 -0.2679 -0.6457  0.1732
15437TIP3    H167726   0.176   4.883  16.540 -1.1315 -0.1926 -0.7966
15437TIP3    H267727   0.123   4.781  16.442 -1.2655 -1.3278  0.4234
15438TIP3   OH267728   6.524   1.856  16.116 -0.1486  0.6811 -0.6110
15438TIP3    H167729   6.583   1.782  16.129  0.0989  0.8890 -0.5523
15438TIP3    H267730   6.575   1.933  16.140 -0.5549  0.8349 -0.2153
15439TIP3   OH267731   2.678   0.711  14.443 -0.4839  0.7003  0.0642
15439TIP3    H167732   2.727   0.685  14.520  0.4706  0.7187 -0.5143
15439TIP3    H267733   2.715   0.797  14.419  0.8331 -0.2827 -1.6835
15440TIP3   OH267734   3.063   5.513  16.331  0.1923  0.0624 -0.1718
15440TIP3    H167735   3.054   5.514  16.236 -0.4748  3.3887 -0.2048
15440TIP3    H267736   3.127   5.582  16.350  0.0844 -0.3156  1.8158
15441TIP3   OH267737   2.197   5.664   1.510 -0.0280 -0.0189  0.1007
15441TIP3    H167738   2.214   5.621   1.426  2.2909  0.1402  0.4200
15441TIP3    H267739   2.273   5.721   1.524 -2.2532  3.1332  0.4027
15442TIP3   OH267740   0.266   2.954   0.968  0.3608 -0.2390  0.7992
15442TIP3    H167741   0.195   2.905   1.009 -0.3403 -0.6330 -0.8029
15442TIP3    H267742   0.346   2.906   0.992 -0.2054 -1.5253  0.1840
15443TIP3   OH267743   2.172   6.736   5.219  0.6856  0.2555 -0.0335
15443TIP3    H167744   2.259   6.726   5.257  0.3848 -0.1187  0.5726
15443TIP3    H267745   2.120   6.775   5.288  0.1829 -0.2292 -0.1285
15444TIP3   OH267746   4.218   5.841  11.851  0.4368  0.3535  0.1470
15444TIP3    H167747   4.146   5.893  11.888  0.4620  0.5532 -0.0760
15444TIP3    H267748   4.185   5.813  11.765 -0.2095 -1.3916  0.9375
15445TIP3   OH267749   2.360   4.630  16.954 -0.1390  0.1624  0.4399
15445TIP3    H167750   2.402   4.692  17.013  0.5199 -0.1313  0.2987
15445TIP3    H267751   2.427   4.563  16.938 -1.0500 -0.9532  1.1293
15446TIP3   OH267752   1.304   6.433  11.968 -0.3216  0.1588  0.1528
15446TIP3    H167753   1.371   6.381  12.013  0.7223  0.2809 -1.2296
15446TIP3    H267754   1.333   6.438  11.877 -1.0992  2.0295 -0.0385
15447TIP3   OH267755   2.112   5.329   2.480 -0.3012  0.2419  0.3112
15447TIP3    H167756   2.154   5.299   2.399 -0.1010  2.0689 -0.2859
15447TIP3    H267757   2.185   5.355   2.537 -0.5354  1.2685  0.1444
15448TIP3   OH267758   0.216   2.328   2.059  0.0637 -0.2648 -0.3749
15448TIP3    H167759   0.123   2.313   2.078  0.0454  1.8755  1.6401
15448TIP3    H267760   0.262   2.289   2.133  0.5329  1.4302  0.2559
15449TIP3   OH267761   0.465   0.177   3.087 -0.7436 -0.5352 -0.1139
15449TIP3    H167762   0.508   0.257   3.056 -0.8194 -0.2171  0.5757
15449TIP3    H267763   0.427   0.137   3.008  0.3252 -0.5255 -0.6418
15450TIP3   OH267764   5.785   1.801  11.843 -0.5728 -0.3845  0.0727
15450TIP3    H167765   5.770   1.726  11.785 -0.4341 -0.9211  0.7245
15450TIP3    H267766   5.822   1.868  11.785  2.0295 -1.7800 -0.0096
15451TIP3   OH267767   1.158   1.878  12.093 -0.4131  0.2312  0.0161
15451TIP3    H167768   1.134   1.873  12.001  1.9373  1.7915 -0.7680
15451TIP3    H267769   1.175   1.971  12.109  3.2642 -0.3831  0.7760
15452TIP3   OH267770   0.538   3.076  15.939  0.5523 -0.0874 -0.2488
15452TIP3    H167771   0.624   3.089  15.901  0.8150 -0.3518  0.2419
15452TIP3    H267772   0.507   3.165  15.958  0.9054 -0.0077 -0.0229
15453TIP3   OH267773   5.602   1.815  14.371  0.5783 -0.1574 -0.5115
15453TIP3    H167774   5.680   1.779  14.330  0.7458 -0.4107  0.0218
15453TIP3    H267775   5.633   1.857  14.451  0.0235 -1.3909  0.3809
15454TIP3   OH267776   4.646   2.086   3.392 -0.2345  0.4241 -0.1717
15454TIP3    H167777   4.584   2.158   3.405  1.3587  2.0237 -1.0754
15454TIP3    H267778   4.656   2.048   3.479 -1.8397  0.6270  0.1454
15455TIP3   OH267779   1.433   3.429  15.389  0.4388 -0.1705  0.0995
15455TIP3    H167780   1.502   3.394  15.334 -0.4004 -0.8481 -0.5450
15455TIP3    H267781   1.378   3.354  15.411  0.7205  0.0811  1.8439
15456TIP3   OH267782   1.404   6.570  11.704  0.1222  0.3050  0.1429
15456TIP3    H167783   1.344   6.533  11.639 -1.7859 -0.2247  2.0687
15456TIP3    H267784   1.422   6.658  11.673  0.1041 -0.2668 -1.6025
15457TIP3   OH267785   2.073   1.731   0.026 -0.4616  0.3182  0.1055
15457TIP3    H167786   2.031   1.768  -0.052 -1.0715 -0.2357  0.1632
15457TIP3    H267787   2.116   1.651  -0.005 -1.2458 -0.2500  0.4440
15458TIP3   OH267788   4.286   5.338  15.766  0.5862  0.0682  0.5110
15458TIP3    H167789   4.267   5.431  15.779  0.3621  0.1372 -0.3038
15458TIP3    H267790   4.282   5.325  15.672 -0.5272 -1.0174  0.6873
15459TIP3   OH267791   3.353   0.249  14.827  0.0229  0.3749  0.1241
15459TIP3    H167792   3.430   0.196  14.808 -0.8938 -1.1816  0.5871
15459TIP3    H267793   3.341   0.304  14.749  0.6144 -0.5741 -0.6451
15460TIP3   OH267794   2.230   0.059   3.194  0.2755 -0.1345  0.5366
15460TIP3    H167795   2.172   0.094   3.262 -0.3988  1.1790 -0.6614
15460TIP3    H267796   2.174   0.003   3.141 -0.3053  2.0199 -1.3025
15461TIP3   OH267797   2.918   2.365   2.723 -0.0848 -0.0881 -0.0738
15461TIP3    H167798   2.830   2.397   2.744 -0.2017  0.6261 -1.5501
15461TIP3    H267799   2.939   2.306   2.795 -1.6936 -0.1174  0.4228
15462TIP3   OH267800   4.109   6.783  12.234 -0.3765  0.2950  0.1558
15462TIP3    H167801   4.193   6.747  12.204 -0.7568  1.3809 -2.5037
15462TIP3    H267802   4.049   6.709  12.230  0.2020 -0.2484  1.0876
15463TIP3   OH267803   5.677   0.140   3.211  0.5106 -0.1931 -0.0391
15463TIP3    H167804   5.679   0.101   3.123 -0.1363 -2.0046  0.6974
15463TIP3    H267805   5.769   0.155   3.232  0.7625 -0.9668 -0.5249
15464TIP3   OH267806   5.643   5.894  12.942 -0.1424  0.5498  0.6078
15464TIP3    H167807   5.738   5.897  12.929 -0.0954 -0.1067  0.7456
15464TIP3    H267808   5.607   5.946  12.870  0.2352 -0.8242 -0.6253
15465TIP3   OH267809   2.134   1.093   0.474  0.2399 -0.0600 -0.5182
15465TIP3    H167810   2.152   1.127   0.386  0.3671  0.7908 -0.1709
15465TIP3    H267811   2.178   1.008   0.476  3.9977  1.6868  0.1269
15466TIP3   OH267812   1.721   1.935  13.304 -0.0777  0.7052 -0.1145
15466TIP3    H167813   1.802   1.981  13.284  0.9298 -1.8496 -2.7338
15466TIP3    H267814   1.652   2.001  13.295  1.5212  2.4847  0.1842
15467TIP3   OH267815   0.248   3.989   1.041  0.7391  0.5302 -0.1114
15467TIP3    H167816   0.303   3.937   1.100  1.1128  1.3677  0.2956
15467TIP3    H267817   0.229   3.930   0.968 -0.3322 -0.7816  1.1553
15468TIP3   OH267818   3.965   6.293  12.029 -0.5071  0.0205 -0.1603
15468TIP3    H167819   3.936   6.380  12.002 -2.3954 -0.8170 -1.0017
15468TIP3    H267820   3.888   6.238  12.021  0.2608 -1.4771  1.7282
15469TIP3   OH267821   5.415   4.974   3.650 -0.6229 -0.1160 -0.2412
15469TIP3    H167822   5.479   5.045   3.644 -0.9388  0.0582 -3.2033
15469TIP3    H267823   5.438   4.927   3.730  0.7375  2.2182  0.8477
15470TIP3   OH267824   2.770   2.583  10.703 -0.0281  0.8030 -0.7168
15470TIP3    H167825   2.742   2.496  10.731 -1.7697  1.2893 -0.8732
15470TIP3    H267826   2.864   2.585  10.722 -0.1465 -0.7511  0.1847
15471TIP3   OH267827   2.271   6.801  16.320 -0.3061  0.1217 -0.0008
15471TIP3    H167828   2.205   6.733  16.315  1.7900 -2.0558  0.2268
15471TIP3    H267829   2.250   6.860  16.248 -3.5475  0.6437  1.1803
15472TIP3   OH267830   3.640   1.491   2.436  0.2860 -0.6735  0.5691
15472TIP3    H167831   3.554   1.474   2.475  0.5372 -0.7643  1.0880
15472TIP3    H267832   3.702   1.461   2.502  0.7177 -0.5611  0.2135
15473TIP3   OH267833   0.654   2.118   1.148  0.0210  0.0021 -0.1676
15473TIP3    H167834   0.566   2.114   1.186 -0.3828 -0.6753 -1.1259
15473TIP3    H267835   0.646   2.072   1.064  1.2777 -0.0084 -0.3015
15474TIP3   OH267836   2.220   5.441   1.661 -0.0792 -0.6488 -0.9741
15474TIP3    H167837   2.143   5.394   1.694 -1.1646  0.7625 -1.3680
15474TIP3    H267838   2.184   5.521   1.622  1.5207 -0.3800 -1.9997
15475TIP3   OH267839   0.268   6.435  10.692  0.5736  0.1202 -0.2997
15475TIP3    H167840   0.360   6.455  10.674  0.3820  0.4034 -0.9762
15475TIP3    H267841   0.259   6.343  10.670  0.1424  0.6496 -2.5573
15476TIP3   OH267842   0.714   3.472   5.866 -0.4636 -0.2117  0.2196
15476TIP3    H167843   0.706   3.399   5.805  1.4924 -0.2231 -0.0860
15476TIP3    H267844   0.762   3.436   5.940  0.7932  0.8096 -0.0701
15477TIP3   OH267845   2.320   1.218  12.336 -0.4591 -0.3708  1.2055
15477TIP3    H167846   2.394   1.243  12.281 -0.2692 -0.1380  1.5628
15477TIP3    H267847   2.360   1.191  12.419 -0.6548 -1.7514  0.8859
15478TIP3   OH267848   1.077   3.154   0.350  0.0464 -0.0967  0.1420
15478TIP3    H167849   1.117   3.070   0.372  0.3782 -0.0925 -0.4129
15478TIP3    H267850   1.074   3.202   0.433 -0.3512 -0.7358  0.5007
15479TIP3   OH267851   2.913   1.232   1.409 -0.6890 -0.2741  0.1413
15479TIP3    H167852   2.886   1.140   1.402 -1.8641 -0.1218  2.0339
15479TIP3    H267853   2.831   1.281   1.405 -0.2422  0.5581  0.9331
15480TIP3   OH267854   3.105   4.248   4.652 -0.1367  0.4371 -0.1049
15480TIP3    H167855   3.077   4.183   4.717  1.8064 -0.5197 -0.1649
15480TIP3    H267856   3.102   4.202   4.568 -0.5561  1.0178 -0.4193
15481TIP3   OH267857   6.054   5.743  16.111 -0.0113 -0.6747  0.0934
15481TIP3    H167858   6.053   5.787  16.026 -1.4845  0.8584  0.8551
15481TIP3    H267859   6.143   5.756  16.144 -0.1024  0.7892 -0.1888
15482TIP3   OH267860   2.832   1.544   2.837 -0.7657 -0.0695 -0.2088
15482TIP3    H167861   2.884   1.547   2.757  0.2775 -0.4590  0.4366
15482TIP3    H267862   2.897   1.542   2.907 -1.4919 -3.7344  0.5568
15483TIP3   OH267863   4.062   6.594  14.042  0.0586  0.5265  0.0622
15483TIP3    H167864   4.152   6.581  14.072 -0.7323 -0.0989  2.3678
15483TIP3    H267865   4.055   6.687  14.024  0.5895  1.0078  2.0880
15484TIP3   OH267866   0.309   1.421  16.866  0.3137  0.0987  0.3705
15484TIP3    H167867   0.264   1.346  16.903 -1.7958  0.1512 -1.7869
15484TIP3    H267868   0.239   1.473  16.826  2.1058  1.1126 -1.6720
15485TIP3   OH267869   6.404   5.049  11.659 -0.0766  0.0089 -0.1060
15485TIP3    H167870   6.352   5.114  11.611  1.0868 -0.6573 -2.4372
15485TIP3    H267871   6.490   5.090  11.669 -0.1536 -0.0712  1.0400
15486TIP3   OH267872   1.000   4.398  11.473 -0.2343 -0.3283 -0.1917
15486TIP3    H167873   1.012   4.433  11.385 -2.2964 -1.9394 -1.2093
15486TIP3    H267874   0.922   4.443  11.506  1.8051  1.9765  1.8468
15487TIP3   OH267875   4.045   2.059  13.997 -0.6621  0.0407 -0.1345
15487TIP3    H167876   3.984   2.109  13.943 -2.1623  0.4448  1.8300
15487TIP3    H267877   4.129   2.104  13.987 -1.9910  3.2340  1.7432
15488TIP3   OH267878   5.856   1.213   1.485  0.4241  0.1351  0.0016
15488TIP3    H167879   5.896   1.255   1.561  2.0015 -0.9334 -0.1771
15488TIP3    H267880   5.800   1.280   1.447  0.4033  1.0248  1.5075
15489TIP3   OH267881   5.332   3.631  16.401  0.2087  0.3598 -0.5086
15489TIP3    H167882   5.266   3.638  16.332 -0.3642  0.9902  0.0903
15489TIP3    H267883   5.281   3.611  16.480  0.9020 -0.9020 -0.3588
15490TIP3   OH267884   4.441   4.962  11.428  0.0537  0.4044  0.3129
15490TIP3    H167885   4.393   4.963  11.345  1.1618 -1.1743 -0.4130
15490TIP3    H267886   4.474   5.051  11.437 -0.8236  0.8348 -0.4895
15491TIP3   OH267887   6.295   4.487   0.082  0.1754  0.0831 -0.1469
15491TIP3    H167888   6.380   4.485   0.038  0.0964  0.0534 -0.2988
15491TIP3    H267889   6.274   4.580   0.089  0.2686  0.0945 -0.0156
15492TIP3   OH267890   5.094   4.038  11.382  0.2876  0.0021  0.3370
15492TIP3    H167891   5.025   3.999  11.436  0.0940  0.0881  0.1562
15492TIP3    H267892   5.150   3.964  11.357  0.5807  0.0079  0.9370
15493TIP3   OH267893   4.536   3.660  15.805 -0.0173 -0.0625  0.3858
15493TIP3    H167894   4.553   3.569  15.781  1.7522  0.1117  0.8245
15493TIP3    H267895   4.470   3.690  15.742  1.6197 -0.7614 -1.8005
15494TIP3   OH267896   5.489   2.232   3.304  0.2259  0.4248 -0.3342
15494TIP3    H167897   5.553   2.162   3.292  1.0866  1.2647 -0.7997
15494TIP3    H267898   5.468   2.229   3.398 -0.7175 -1.2454 -0.5595
15495TIP3   OH267899   5.375   0.893   4.514 -0.0461  0.0332  0.0562
15495TIP3    H167900   5.400   0.894   4.607 -1.3976  0.6597  0.4389
15495TIP3    H267901   5.456   0.912   4.467  0.4608  0.7122  1.1710
15496TIP3   OH267902   4.166   0.322  15.568 -0.4266  0.3717  0.4309
15496TIP3    H167903   4.087   0.268  15.574 -0.4643  0.4288  0.4479
15496TIP3    H267904   4.170   0.368  15.652  0.0263 -0.1857  0.7246
15497TIP3   OH267905   6.495   3.451  16.873 -0.2407 -0.3811 -0.4815
15497TIP3    H167906   6.573   3.505  16.882 -1.4772  1.5867 -1.1441
15497TIP3    H267907   6.517   3.390  16.802 -0.6105  2.7480 -3.5194
15498TIP3   OH267908   2.494   0.025   1.119 -0.7280 -0.5381  0.5043
15498TIP3    H167909   2.475   0.089   1.050 -1.4148  0.2251  1.3892
15498TIP3    H267910   2.433  -0.047   1.103  0.5479 -1.3621 -0.9460
15499TIP3   OH267911   1.013   2.812  16.182  0.2125  0.1731 -0.4259
15499TIP3    H167912   1.007   2.723  16.219  0.2793 -0.2458 -1.4001
15499TIP3    H267913   0.933   2.855  16.213 -0.0827 -0.3951 -0.3783
15500TIP3   OH267914   2.004   3.414   3.393  0.0355  0.1413  0.4430
15500TIP3    H167915   1.954   3.410   3.475 -0.0800  0.7953  0.4151
15500TIP3    H267916   2.054   3.332   3.391 -0.1573 -0.0001  1.0386
15501TIP3   OH267917   5.849   4.424   4.470  0.1322 -0.0411  0.1516
15501TIP3    H167918   5.925   4.394   4.520  0.7993  2.4146  0.7705
15501TIP3    H267919   5.799   4.477   4.533 -0.6878  0.5349 -0.9467
15502TIP3   OH267920   5.579   5.086   0.325 -0.0023  0.1354  0.1571
15502TIP3    H167921   5.574   4.990   0.327  1.2412  0.0739  2.0106
15502TIP3    H267922   5.520   5.111   0.254 -1.0167 -1.9558  0.1930
15503TIP3   OH267923   6.359   4.754  14.706  0.2457 -0.7972 -0.2295
15503TIP3    H167924   6.286   4.722  14.653  1.2256 -1.5414 -1.1703
15503TIP3    H267925   6.320   4.821  14.763 -0.9692 -0.4713 -1.4019
15504TIP3   OH267926   1.708   3.803   5.606 -0.3549 -0.1102 -0.5741
15504TIP3    H167927   1.620   3.824   5.575 -0.3559 -0.3647 -0.7423
15504TIP3    H267928   1.716   3.851   5.688 -0.3003  0.6814 -1.0310
15505TIP3   OH267929   5.008   3.259   3.401 -0.3327  0.8371  0.6412
15505TIP3    H167930   5.092   3.299   3.422  0.9587 -2.3396  2.2115
15505TIP3    H267931   5.024   3.206   3.324 -0.4189 -0.8865  1.7440
15506TIP3   OH267932   6.254   6.749   4.784  0.5036  0.0591 -0.6923
15506TIP3    H167933   6.217   6.807   4.851  1.8039 -0.9724  0.9897
15506TIP3    H267934   6.201   6.670   4.789  2.3758 -1.1846  1.2993
15507TIP3   OH267935   0.143   5.029  11.974 -0.2248  0.4113 -0.4057
15507TIP3    H167936   0.094   4.950  11.997 -0.8967  1.2246  1.1441
15507TIP3    H267937   0.115   5.050  11.885  2.7522 -3.1043 -2.4539
15508TIP3   OH267938   5.615   6.781   3.628  0.5018 -0.4082 -0.2902
15508TIP3    H167939   5.643   6.872   3.632 -1.0380  0.0416  0.7627
15508TIP3    H267940   5.668   6.737   3.694  0.4178 -0.0457  0.0179
15509TIP3   OH267941   1.037   2.348   3.878 -0.4450  0.6531 -0.1619
15509TIP3    H167942   0.998   2.435   3.888  1.3677  1.5726 -0.6113
15509TIP3    H267943   1.065   2.345   3.787 -0.8232 -0.5595 -0.2455
15510TIP3   OH267944   1.143   4.506   4.644  0.6958  0.5360  0.9071
15510TIP3    H167945   1.208   4.532   4.709  2.6621  1.0493 -1.1224
15510TIP3    H267946   1.180   4.428   4.603  2.0378  2.7937 -2.7213
15511TIP3   OH267947   6.116   0.456   5.119 -0.0930  0.1540 -0.2377
15511TIP3    H167948   6.085   0.541   5.087 -0.3252  0.1070 -0.1382
15511TIP3    H267949   6.199   0.476   5.164 -1.3814  0.7349  2.0453
15512TIP3   OH267950   5.378   1.617  14.557  0.3523  0.1909  0.1460
15512TIP3    H167951   5.297   1.613  14.506  0.5219 -1.5748 -0.0508
15512TIP3    H267952   5.426   1.538  14.532  1.6468  0.6428  1.0890
15513TIP3   OH267953   5.921   2.745   5.818  0.3984 -0.0148  0.1336
15513TIP3    H167954   5.963   2.676   5.869 -0.2643 -0.6777 -0.1933
15513TIP3    H267955   5.946   2.727   5.727  0.5333  0.4063  0.0834
15514TIP3   OH267956   4.871   3.320  10.471 -0.0452  0.3582  0.5604
15514TIP3    H167957   4.952   3.273  10.452  0.1332  0.6432  0.6070
15514TIP3    H267958   4.870   3.392  10.409 -0.3361  0.2717  0.4646
15515TIP3   OH267959   4.410   2.179   2.779 -0.7507 -0.2629  0.2817
15515TIP3    H167960   4.323   2.200   2.814 -0.3584  2.5158 -0.2375
15515TIP3    H267961   4.471   2.225   2.836  0.1704  0.3265 -1.1276
15516TIP3   OH267962   3.942   5.811   3.923  0.6779 -0.1399 -0.6491
15516TIP3    H167963   3.873   5.750   3.896 -0.5786  0.8234  0.2802
15516TIP3    H267964   3.914   5.896   3.889  0.5272  0.5647  1.1143
15517TIP3   OH267965   5.209   4.779  16.034  0.2631  0.1176  0.1894
15517TIP3    H167966   5.197   4.693  16.074  0.8534 -0.7921 -1.4892
15517TIP3    H267967   5.277   4.766  15.968 -0.6907  1.4881 -1.1501
15518TIP3   OH267968   6.722   6.201  14.123 -0.4947  0.4097 -0.3256
15518TIP3    H167969   6.639   6.160  14.147  0.1739 -1.2653 -0.7739
15518TIP3    H267970   6.696   6.284  14.081 -1.8354  1.0377  1.5631
15519TIP3   OH267971   1.743   2.609   4.159  0.5923  0.5545 -0.2681
15519TIP3    H167972   1.711   2.528   4.198 -0.3164  1.6021  1.2658
15519TIP3    H267973   1.676   2.634   4.096  0.0734  0.9014  0.3998
15520TIP3   OH267974   5.746   6.325   2.018  0.3951 -0.8364  0.7085
15520TIP3    H167975   5.799   6.250   2.044 -1.9764 -2.5707  0.9653
15520TIP3    H267976   5.671   6.323   2.077  1.7711  3.9329  3.1282
15521TIP3   OH267977   1.278   5.210  13.976 -0.1597  0.4884 -0.0763
15521TIP3    H167978   1.365   5.177  13.995 -0.1729 -0.1795 -1.1270
15521TIP3    H267979   1.269   5.287  14.032  0.6425 -0.1132  0.9070
15522TIP3   OH267980   0.890   4.148   1.106 -0.2725 -0.1440 -0.5405
15522TIP3    H167981   0.844   4.193   1.177 -0.0703 -0.0078 -0.4965
15522TIP3    H267982   0.901   4.058   1.138 -0.6915 -0.2360 -0.6359
15523TIP3   OH267983   1.860   6.121   6.161 -0.4411 -0.1205 -0.3357
15523TIP3    H167984   1.924   6.176   6.115  2.6615 -1.8408  1.5870
15523TIP3    H267985   1.791   6.182   6.188  0.9031  2.0896 -1.5922
15524TIP3   OH267986   2.651   6.206   3.346 -0.2060  0.3172  0.2122
15524TIP3    H167987   2.721   6.188   3.410  1.6556  0.3713 -1.7043
15524TIP3    H267988   2.617   6.292   3.372 -0.7939 -0.4291  2.1667
15525TIP3   OH267989   3.157   4.406   2.701 -0.1611 -0.1984 -0.2517
15525TIP3    H167990   3.208   4.328   2.722  2.6480  1.4327 -0.4830
15525TIP3    H267991   3.217   4.462   2.651 -2.6570  1.3410 -1.7557
15526TIP3   OH267992   6.375   0.606   4.944  0.2924 -0.0375 -0.4019
15526TIP3    H167993   6.391   0.579   5.035  0.6816 -1.0892 -0.7641
15526TIP3    H267994   6.444   0.563   4.894 -0.7722 -0.6485 -1.3812
15527TIP3   OH267995   2.253   5.906  13.275 -0.6375  0.0471 -0.3376
15527TIP3    H167996   2.170   5.902  13.321 -1.0150  1.0007 -0.9048
15527TIP3    H267997   2.230   5.926  13.184  0.1588 -0.5923 -0.6982
15528TIP3   OH267998   2.772   6.044  13.263  0.0375  0.3415 -0.0738
15528TIP3    H167999   2.716   6.103  13.212  1.9268 -0.9823 -4.1371
15528TIP3    H268000   2.716   5.967  13.280 -0.6859  0.8818  0.0365
15529TIP3   OH268001   2.790   1.525  15.815  0.0915  0.4812 -0.0090
15529TIP3    H168002   2.792   1.553  15.724  1.3657  1.3026  0.2395
15529TIP3    H268003   2.697   1.521  15.838 -0.2428  0.0978 -1.3849
15530TIP3   OH268004   0.997   2.868   2.583 -0.7360  0.3786  0.0909
15530TIP3    H168005   0.980   2.864   2.489 -0.4950 -0.1587  0.0650
15530TIP3    H268006   1.082   2.911   2.591  0.8692 -2.5231 -0.1505
15531TIP3   OH268007   0.991   3.077   2.845 -0.1832  0.0741  0.5859
15531TIP3    H168008   0.929   3.112   2.780 -1.5627 -0.8924  1.3311
15531TIP3    H268009   1.051   3.149   2.862  0.9881  0.0274 -2.6282
15532TIP3   OH268010   1.282   3.880  16.777 -0.2981 -0.6515  0.3840
15532TIP3    H168011   1.295   3.866  16.870  1.9744 -1.2019  0.0585
15532TIP3    H268012   1.298   3.795  16.737 -2.2042 -0.6561 -0.4800
15533TIP3   OH268013   6.351   0.986  15.438 -0.9539  0.4714  0.2557
15533TIP3    H168014   6.303   0.947  15.511 -1.8306  1.9175  0.5016
15533TIP3    H268015   6.293   0.976  15.363  1.0234 -3.4409 -1.0172
15534TIP3   OH268016   4.783   1.631  15.547  0.1483 -0.0271  0.5275
15534TIP3    H168017   4.806   1.723  15.557  0.3162 -0.0633  0.4703
15534TIP3    H268018   4.788   1.615  15.453 -0.6927  0.1172  0.4487
15535TIP3   OH268019   0.496   1.683   0.503  0.3076 -0.4120 -0.1380
15535TIP3    H168020   0.448   1.687   0.420 -0.2337 -0.6701  0.1555
15535TIP3    H268021   0.477   1.766   0.546  3.0632  1.1390 -1.5657
15536TIP3   OH268022   4.645   5.702   2.191 -0.4087 -0.9613 -0.3872
15536TIP3    H168023   4.598   5.618   2.192 -0.4730 -0.9840  2.2104
15536TIP3    H268024   4.725   5.685   2.241  1.3925 -0.3475 -2.8694
15537TIP3   OH268025   0.435   6.624  11.512 -0.4737  0.0034 -0.2920
15537TIP3    H168026   0.353   6.591  11.549 -0.0896 -0.5840  0.0656
15537TIP3    H268027   0.411   6.703  11.464 -1.2022 -0.0136  0.0423
15538TIP3   OH268028   1.132   0.677   0.600  0.3388 -0.3736 -0.2598
15538TIP3    H168029   1.111   0.587   0.628 -1.9290  0.0613 -0.3504
15538TIP3    H268030   1.147   0.724   0.682  1.2462 -0.7475 -0.1973
15539TIP3   OH268031   0.703   1.220  17.010  0.3255  0.3602  0.0619
15539TIP3    H168032   0.662   1.292  17.058  1.9501  1.5582 -0.2337
15539TIP3    H268033   0.703   1.248  16.919 -1.2642 -1.1794 -0.4755
15540TIP3   OH268034   5.389   3.361   1.254 -0.0851  0.1890  0.6164
15540TIP3    H168035   5.314   3.388   1.307 -0.4309 -0.1783  0.3178
15540TIP3    H268036   5.368   3.272   1.226  1.5722 -0.9249  2.6117
15541TIP3   OH268037   2.631   0.855   0.537  0.2110  0.4143 -0.2552
15541TIP3    H168038   2.683   0.781   0.570 -3.2108 -1.9529  0.4394
15541TIP3    H268039   2.638   0.849   0.442 -0.1349 -0.9594 -0.2141
15542TIP3   OH268040   1.525   1.173   5.432 -0.4168 -0.1099  0.5235
15542TIP3    H168041   1.617   1.148   5.441  0.3837  1.8707 -1.2202
15542TIP3    H268042   1.527   1.268   5.421 -2.6173 -0.0900 -0.1994
15543TIP3   OH268043   4.099   1.211   6.549 -0.5472  0.7486  0.2620
15543TIP3    H168044   4.168   1.276   6.569  0.1327  0.4144 -0.9206
15543TIP3    H268045   4.116   1.140   6.610 -0.6101  1.2018  0.8184
15544TIP3   OH268046   1.260   4.471   6.068 -0.3371 -0.0849  0.5580
15544TIP3    H168047   1.191   4.457   6.133 -0.9026  2.2222  0.5686
15544TIP3    H268048   1.213   4.496   5.989  0.4452  0.1884  0.1687
15545TIP3   OH268049   1.824   4.400   5.445 -0.3637 -0.1546 -0.1374
15545TIP3    H168050   1.787   4.331   5.499  1.7457  0.0488  1.7466
15545TIP3    H268051   1.749   4.442   5.404 -1.8605 -2.0110  0.5725
15546TIP3   OH268052   6.762   3.153  14.966  0.5279  0.1230 -0.1033
15546TIP3    H168053   6.667   3.161  14.962  0.7126  3.7113 -1.1262
15546TIP3    H268054   6.787   3.202  15.044  1.5840 -0.2430 -0.1926
15547TIP3   OH268055   1.473   2.519  16.814  0.0224 -0.1674  0.5783
15547TIP3    H168056   1.523   2.479  16.885  1.9841 -2.2053 -1.7681
15547TIP3    H268057   1.403   2.457  16.796  1.1854 -1.1097 -0.9818
15548TIP3   OH268058   6.062   6.385   3.164 -0.5393 -0.1779  0.0814
15548TIP3    H168059   6.017   6.329   3.227  0.0481 -1.1140 -0.3050
15548TIP3    H268060   6.114   6.446   3.217  0.5872 -1.4787  0.5344
15549TIP3   OH268061   5.397   3.765   3.267  0.0525 -0.8265  0.0832
15549TIP3    H168062   5.374   3.848   3.224  0.8760 -0.1833  0.8589
15549TIP3    H268063   5.446   3.717   3.201  0.1705 -0.4027 -0.1414
15550TIP3   OH268064   5.113   4.860   1.199  0.4108  0.0633 -0.0370
15550TIP3    H168065   5.203   4.869   1.166 -0.0598  0.7406 -1.1728
15550TIP3    H268066   5.114   4.778   1.248  1.8431  0.4430  0.6319
15551TIP3   OH268067   5.152   5.333  10.947 -0.1250 -0.3508  0.3342
15551TIP3    H168068   5.108   5.332  11.032 -0.0188  0.0829  0.3974
15551TIP3    H268069   5.233   5.283  10.962 -0.5061 -1.0047  0.2605
15552TIP3   OH268070   0.955   5.753   0.552 -0.0535 -0.3613 -0.6935
15552TIP3    H168071   0.979   5.664   0.527  0.2501 -0.5170  0.1201
15552TIP3    H268072   0.869   5.766   0.512 -0.6186 -1.4456  0.1058
15553TIP3   OH268073   0.626   2.969   4.909  0.6054 -0.4214 -0.6515
15553TIP3    H168074   0.648   3.054   4.870 -1.0400  0.6500  0.5880
15553TIP3    H268075   0.577   2.992   4.988 -0.5755 -2.5541 -0.7113
15554TIP3   OH268076   6.479   4.312   0.648  0.4131  0.4271 -0.1112
15554TIP3    H168077   6.558   4.340   0.694  0.9711  0.1797 -0.9018
15554TIP3    H268078   6.486   4.217   0.645 -0.6756  0.2749  1.1338
15555TIP3   OH268079   1.251   4.858  12.236 -0.5189  0.0776 -0.7516
15555TIP3    H168080   1.171   4.861  12.183 -1.2313  0.0885  0.2953
15555TIP3    H268081   1.252   4.770  12.273 -0.2241  0.1948 -0.4838
15556TIP3   OH268082   4.179   3.416   3.158 -0.1484 -0.4447 -0.5496
15556TIP3    H168083   4.195   3.331   3.117 -0.1925 -1.1949  0.8948
15556TIP3    H268084   4.130   3.395   3.238  0.5179  0.8508  0.2406
15557TIP3   OH268085   0.874   3.118  10.573  0.1434 -0.1874  0.0973
15557TIP3    H168086   0.819   3.189  10.541  0.0069  0.0096  0.7667
15557TIP3    H268087   0.933   3.099  10.500 -0.0767  0.3499 -0.2223
15558TIP3   OH268088   5.465   1.227  15.933  0.2982  0.1755  0.5686
15558TIP3    H168089   5.388   1.171  15.921  0.1321  0.2002  1.4997
15558TIP3    H268090   5.535   1.168  15.958  0.2748  0.3081  0.9508
15559TIP3   OH268091   0.965   6.183   5.671 -0.3022 -0.4378 -0.2300
15559TIP3    H168092   1.049   6.223   5.649  0.7453 -1.2239  2.0129
15559TIP3    H268093   0.934   6.145   5.589  0.2628  1.9954 -1.6843
15560TIP3   OH268094   5.298   4.858   1.723 -0.3502 -0.0364  0.3833
15560TIP3    H168095   5.241   4.934   1.715  0.1841  0.3522  0.2549
15560TIP3    H268096   5.250   4.798   1.780 -1.7440 -0.5090 -1.2041
15561TIP3   OH268097   4.305   3.511   6.010 -0.1118 -0.3358 -0.2833
15561TIP3    H168098   4.329   3.566   5.935  2.2161 -1.1277 -0.1896
15561TIP3    H268099   4.315   3.569   6.086 -2.3293  0.4236 -0.4990
15562TIP3   OH268100   5.792   0.392  14.371 -0.2508 -0.4834  0.0921
15562TIP3    H168101   5.785   0.487  14.360  0.1793 -0.5919 -1.3544
15562TIP3    H268102   5.759   0.356  14.288  0.3355 -1.5591  0.3068
15563TIP3   OH268103   5.410   6.702   4.894  0.0944 -0.3625 -0.2280
15563TIP3    H168104   5.472   6.642   4.853  0.4483  0.4152 -0.8543
15563TIP3    H268105   5.422   6.785   4.847  0.5390  0.5810  1.4790
15564TIP3   OH268106   4.627   6.015  11.079  0.1075  0.0770  0.5171
15564TIP3    H168107   4.668   6.087  11.030  1.7551 -0.1843  1.4500
15564TIP3    H268108   4.671   6.016  11.164 -1.6548 -0.4232  1.4689
15565TIP3   OH268109   6.318   3.492   0.319  0.0137 -0.4910 -0.4774
15565TIP3    H168110   6.339   3.579   0.353 -0.0473 -0.6459 -0.0359
15565TIP3    H268111   6.224   3.495   0.301 -0.1882 -0.7710  0.4722
15566TIP3   OH268112   0.887   5.288  15.949  0.3752 -0.1180  0.3531
15566TIP3    H168113   0.803   5.245  15.963 -0.5317  1.5182  0.2066
15566TIP3    H268114   0.952   5.222  15.971 -0.9476 -1.0840  1.5221
15567TIP3   OH268115   6.637   4.809  11.304  0.7645  0.2252 -0.4942
15567TIP3    H168116   6.640   4.876  11.373 -2.6231  0.8955 -0.7724
15567TIP3    H268117   6.623   4.727  11.351  1.8619  0.1428 -0.2845
15568TIP3   OH268118   3.929   5.518  16.265  0.5343  0.6591 -0.0544
15568TIP3    H168119   3.926   5.613  16.255 -0.8408  0.4374 -2.4163
15568TIP3    H268120   3.838   5.492  16.279  1.2340 -0.0417  5.7172
15569TIP3   OH268121   4.524   1.802   0.788 -0.0450 -0.1320 -0.1048
15569TIP3    H168122   4.451   1.816   0.727 -0.2226  0.5364  0.2567
15569TIP3    H268123   4.523   1.707   0.803 -0.0563 -0.3005 -1.0606
15570TIP3   OH268124   3.914   3.727  15.905 -0.7772 -0.4955 -0.2219
15570TIP3    H168125   3.838   3.669  15.897 -1.7352  0.8916 -1.7936
15570TIP3    H268126   3.903   3.790  15.834  0.5680  1.2182  1.0133
15571TIP3   OH268127   0.453   1.604  10.484 -0.4087 -0.0763  0.1706
15571TIP3    H168128   0.380   1.592  10.425 -0.3209 -1.4379  0.3078
15571TIP3    H268129   0.438   1.690  10.524 -0.0634  1.2231 -2.3385
15572TIP3   OH268130   6.539   0.288  14.928  0.1607 -0.2384 -0.4010
15572TIP3    H168131   6.450   0.260  14.951 -0.1334  0.1676 -1.0178
15572TIP3    H268132   6.594   0.211  14.943 -0.5620 -1.0223 -1.6765
15573TIP3   OH268133   1.312   6.430  12.835  0.1208  0.6438 -0.0958
15573TIP3    H168134   1.331   6.344  12.872  1.4561  1.4465  1.1773
15573TIP3    H268135   1.250   6.412  12.764  1.3444 -1.5028 -0.7234
15574TIP3   OH268136   0.402   1.985  12.264  0.1116  1.3176  0.4744
15574TIP3    H168137   0.408   1.931  12.186 -1.7478  0.0651  1.1346
15574TIP3    H268138   0.396   1.922  12.336 -0.9752  2.4024  1.3663
15575TIP3   OH268139   4.542   1.133  15.711 -0.3076 -0.3530  0.4067
15575TIP3    H168140   4.566   1.042  15.694  0.5955 -0.0861  0.2024
15575TIP3    H268141   4.602   1.160  15.781 -1.1582 -0.1691  1.0815
15576TIP3   OH268142   6.804   2.579  12.348 -0.0113 -0.5703  0.1867
15576TIP3    H168143   6.832   2.497  12.307  0.0787 -0.5059  0.1184
15576TIP3    H268144   6.883   2.634  12.347  0.2512 -0.8978  1.2739
15577TIP3   OH268145   5.669   1.702  15.645  0.1408 -0.0399 -0.0678
15577TIP3    H168146   5.605   1.698  15.717 -0.9525 -0.6940 -1.0394
15577TIP3    H268147   5.752   1.678  15.686  0.2097  2.7155  1.6603
15578TIP3   OH268148   6.166   6.578  10.917 -0.3759  0.1624 -0.1523
15578TIP3    H168149   6.086   6.563  10.867 -0.0599 -1.2177 -0.2955
15578TIP3    H268150   6.147   6.654  10.972 -1.7839 -0.1506 -0.1832
15579TIP3   OH268151   0.593   1.752   4.068  0.1331 -0.1407 -0.0789
15579TIP3    H168152   0.592   1.847   4.062 -1.5113 -0.2038 -1.9248
15579TIP3    H268153   0.685   1.729   4.082  0.9610  1.6429 -2.0657
15580TIP3   OH268154   1.572   4.190  11.281 -0.0588 -0.3350  0.1700
15580TIP3    H168155   1.533   4.162  11.198 -0.9455  1.0211  0.0978
15580TIP3    H268156   1.535   4.277  11.297  1.1908  0.0292  1.2782
15581TIP3   OH268157   2.647   3.298  13.168  0.1264 -0.1760 -0.4740
15581TIP3    H168158   2.695   3.224  13.132  0.4774 -0.6917  0.9630
15581TIP3    H268159   2.555   3.270  13.167  0.2625 -0.6478  0.0923
15582TIP3   OH268160   6.182   1.335   0.206  0.3753  0.1032 -0.2030
15582TIP3    H168161   6.221   1.412   0.165  0.2841 -0.4803 -1.4525
15582TIP3    H268162   6.092   1.362   0.226  1.3013  1.4156  2.5937
15583TIP3   OH268163   5.640   5.261   0.740  0.4034 -0.3947 -0.2227
15583TIP3    H168164   5.586   5.340   0.744  1.4928  0.4443 -1.2061
15583TIP3    H268165   5.676   5.261   0.651 -0.9983 -3.0088 -0.8923
15584TIP3   OH268166   4.468   1.313  12.838 -0.0651 -0.1718  0.6563
15584TIP3    H168167   4.547   1.267  12.812  1.7477  1.0522  3.5148
15584TIP3    H268168   4.439   1.269  12.918 -1.4034  0.3535  0.4979
15585TIP3   OH268169   4.719   0.801   0.701 -0.2692  0.1386  0.2378
15585TIP3    H168170   4.749   0.800   0.792 -0.0204 -0.3886  0.1497
15585TIP3    H268171   4.640   0.856   0.703 -0.9091 -0.7600  0.9734
15586TIP3   OH268172   3.963   5.400   4.876  0.3177 -0.7599  0.5871
15586TIP3    H168173   3.984   5.475   4.931  0.7610  0.5934 -1.3259
15586TIP3    H268174   4.048   5.357   4.860  0.5045  0.0252 -0.6288
15587TIP3   OH268175   6.737   0.466  14.911  0.4553 -0.0904 -0.6704
15587TIP3    H168176   6.809   0.409  14.937 -1.3249 -2.1859 -0.0460
15587TIP3    H268177   6.658   0.414  14.926 -1.1848  1.8823 -1.8960
15588TIP3   OH268178   3.320   2.083   3.771  0.6318 -0.5906  0.1205
15588TIP3    H168179   3.251   2.046   3.826  0.0013 -0.3139 -0.4760
15588TIP3    H268180   3.399   2.035   3.797  0.4496 -0.1491  1.5911
15589TIP3   OH268181   3.957   4.136  15.547 -0.3640 -0.3441  0.0082
15589TIP3    H168182   3.885   4.116  15.488 -2.7621  2.3538  1.7310
15589TIP3    H268183   4.011   4.198  15.498  0.2705 -1.5781 -0.9128
15590TIP3   OH268184   2.205   6.727   3.486  0.5281  0.1363 -0.1500
15590TIP3    H168185   2.125   6.779   3.492  1.4150  1.5331 -0.1299
15590TIP3    H268186   2.214   6.707   3.393 -0.5999 -1.3190  0.0005
15591TIP3   OH268187   4.756   5.190   2.586  0.4056 -0.9559 -0.7138
15591TIP3    H168188   4.738   5.124   2.520  2.3421  0.1617 -2.4875
15591TIP3    H268189   4.750   5.273   2.539 -1.6248  0.1970  1.3552
15592TIP3   OH268190   1.286   4.605   2.388  0.7036 -0.4921  0.0363
15592TIP3    H168191   1.286   4.699   2.407  3.9807 -0.4913  0.5823
15592TIP3    H268192   1.237   4.597   2.306  2.0663  2.0058 -1.1304
15593TIP3   OH268193   3.805   4.350  16.894  0.1100  0.4174  0.7014
15593TIP3    H168194   3.886   4.366  16.943 -1.4229  0.6532  3.3013
15593TIP3    H268195   3.736   4.387  16.948 -2.2368 -3.2743  0.5752
15594TIP3   OH268196   4.003   5.562   5.117  0.5114  0.0353 -0.1299
15594TIP3    H168197   3.953   5.638   5.144  0.9443 -0.2111  1.4398
15594TIP3    H268198   4.089   5.596   5.093 -0.1116  0.3604 -2.1269
15595TIP3   OH268199   6.043   2.512  13.703 -0.1480  0.4054 -0.3860
15595TIP3    H168200   6.127   2.479  13.669  0.3031 -0.7496  1.6667
15595TIP3    H268201   6.068   2.581  13.765 -0.7802  0.6161 -0.3574
15596TIP3   OH268202   0.301   0.407  11.316 -0.1423  0.0449 -0.3674
15596TIP3    H168203   0.282   0.332  11.259  2.8177 -0.7605 -0.4668
15596TIP3    H268204   0.329   0.476  11.257  1.1479 -0.1851 -0.0570
15597TIP3   OH268205   1.691   2.832  10.757  0.1444  0.1109 -0.4050
15597TIP3    H168206   1.645   2.906  10.798 -1.5566  0.2770 -2.4317
15597TIP3    H268207   1.769   2.870  10.717  0.3044  0.4467  0.2238
15598TIP3   OH268208   1.143   1.065   5.741 -0.3590  0.4459 -0.0247
15598TIP3    H168209   1.070   1.010   5.712 -0.7635  0.5684  0.7256
15598TIP3    H268210   1.213   1.047   5.678 -0.5239 -0.8359  0.1156
15599TIP3   OH268211   1.639   4.327   0.265  0.0506 -0.0683  0.0146
15599TIP3    H168212   1.734   4.331   0.276  0.0948 -2.2010  0.8842
15599TIP3    H268213   1.610   4.418   0.273  1.8990  0.4903  0.8698
15600TIP3   OH268214   0.221   4.681  15.827 -0.0909  0.5368  0.0475
15600TIP3    H168215   0.214   4.585  15.828  0.2661  0.3801 -2.8674
15600TIP3    H268216   0.153   4.709  15.766 -0.3593  2.1901  1.0638
15601TIP3   OH268217   1.353   3.070   5.534  0.2391 -0.0514 -0.7338
15601TIP3    H168218   1.427   3.081   5.475  0.5633 -0.9300 -0.5111
15601TIP3    H268219   1.322   2.981   5.518  0.4633 -0.3784  0.5491
15602TIP3   OH268220   2.393   4.483  14.097 -0.2429 -0.1480 -0.6466
15602TIP3    H168221   2.419   4.529  14.017 -3.5525 -0.1577 -1.8964
15602TIP3    H268222   2.365   4.553  14.156  1.6785 -0.1832  0.3915
15603TIP3   OH268223   0.314   1.579  15.530 -0.1704 -0.1796  0.8600
15603TIP3    H168224   0.301   1.625  15.447  0.9001  0.1746  0.8739
15603TIP3    H268225   0.321   1.649  15.595  1.7970 -0.3059  0.8349
15604TIP3   OH268226   5.832   3.125   1.111  0.8640  0.1993 -0.3930
15604TIP3    H168227   5.786   3.149   1.191  0.3331 -0.1606 -0.5867
15604TIP3    H268228   5.825   3.029   1.106  3.8174 -0.2117  0.9096
15605TIP3   OH268229   4.551   1.210  12.367  0.7425 -0.5979  0.4175
15605TIP3    H168230   4.627   1.242  12.415  0.8689 -0.9326  0.4433
15605TIP3    H268231   4.577   1.124  12.335 -0.2889 -1.5380  2.0053
15606TIP3   OH268232   3.305   3.284  15.149  0.1032  0.0987 -0.3049
15606TIP3    H168233   3.238   3.296  15.216 -1.2055  1.4526 -1.7711
15606TIP3    H268234   3.384   3.323  15.187 -0.7397  1.3201  0.2738
15607TIP3   OH268235   5.966   2.748   4.297  0.7341 -0.1365 -0.4650
15607TIP3    H168236   5.923   2.774   4.215  0.1397 -0.4334 -0.2545
15607TIP3    H268237   5.992   2.657   4.282 -0.2672 -0.5146  0.0239
15608TIP3   OH268238   2.908   6.129   0.673 -0.6634 -0.3589 -0.2483
15608TIP3    H168239   2.980   6.093   0.620  1.5908  0.1033  2.2549
15608TIP3    H268240   2.842   6.061   0.673  0.6233 -1.6821 -1.0336
15609TIP3   OH268241   4.746   4.570   3.303  0.0522  0.1491 -0.3490
15609TIP3    H168242   4.662   4.547   3.262  0.1948 -1.1404  0.0322
15609TIP3    H268243   4.772   4.651   3.260 -0.7340 -0.1519 -1.4367
15610TIP3   OH268244   1.340   0.467   0.585  0.0011  0.9250  0.8192
15610TIP3    H168245   1.372   0.452   0.496  0.1814 -0.3802  1.0802
15610TIP3    H268246   1.370   0.555   0.607 -0.7222  1.5932 -0.6862
15611TIP3   OH268247   5.654   6.223  14.026 -0.2070 -0.1929  0.3358
15611TIP3    H168248   5.677   6.162  14.096  0.1726 -0.1118  0.2826
15611TIP3    H268249   5.734   6.233  13.975 -0.5114 -0.3400 -0.1845
15612TIP3   OH268250   2.850   0.433  13.003  0.2869 -0.1953 -0.2854
15612TIP3    H168251   2.823   0.367  12.939 -0.3703 -0.5968  0.3916
15612TIP3    H268252   2.788   0.424  13.075  0.4305  0.8936  0.0020
15613TIP3   OH268253   4.289   0.745  10.476  0.6395 -0.1182  0.0699
15613TIP3    H168254   4.380   0.715  10.475  0.5640 -0.3878  0.8302
15613TIP3    H268255   4.273   0.775  10.387  1.1979 -0.8903 -0.3027
15614TIP3   OH268256   3.959   3.101   5.646  0.1198  0.2032 -0.5744
15614TIP3    H168257   3.936   3.142   5.563  0.3634  0.0563 -0.7143
15614TIP3    H268258   3.992   3.173   5.700  0.2478  0.2457 -0.7096
15615TIP3   OH268259   5.086   3.222  11.865 -0.1759  0.3077  0.6487
15615TIP3    H168260   5.063   3.192  11.777  1.2123  1.2372 -0.0654
15615TIP3    H268261   5.003   3.253  11.902 -0.7043  0.3247 -0.4984
15616TIP3   OH268262   5.583   5.639   1.418 -0.6163 -0.5467  0.1887
15616TIP3    H168263   5.491   5.648   1.444 -1.1123  0.3647 -1.6954
15616TIP3    H268264   5.581   5.583   1.340  0.5955 -1.6639  0.9322
15617TIP3   OH268265   1.226   1.967  15.442  0.1710 -0.9031  0.0976
15617TIP3    H168266   1.290   1.958  15.513 -0.0287 -1.8744  0.1570
15617TIP3    H268267   1.143   1.939  15.481 -0.5391  1.2573  0.3228
15618TIP3   OH268268   6.167   1.652   5.209 -0.1540  0.0504  0.2806
15618TIP3    H168269   6.203   1.720   5.266  0.5883 -0.3061  0.2622
15618TIP3    H268270   6.240   1.629   5.151 -0.3555 -0.8292  0.3588
15619TIP3   OH268271   6.774   4.976   5.180 -0.2335 -0.6595 -0.1266
15619TIP3    H168272   6.712   4.927   5.126 -0.5366  0.9238 -1.3048
15619TIP3    H268273   6.855   4.975   5.130 -0.4588  0.6475 -0.5654
15620TIP3   OH268274   2.788   1.745  16.047  0.2738 -0.4981  0.2039
15620TIP3    H168275   2.757   1.661  16.081  1.1200 -0.3337  1.4207
15620TIP3    H268276   2.757   1.747  15.956  1.3362 -2.7158 -0.2772
15621TIP3   OH268277   0.771   0.120   2.819 -0.7462 -0.5509 -0.5132
15621TIP3    H168278   0.815   0.157   2.742 -1.3259 -0.9555 -1.0505
15621TIP3    H268279   0.830   0.140   2.892  0.7268 -1.6828 -1.3083
15622TIP3   OH268280   3.668   6.186   2.217 -0.2366 -0.0445  0.2726
15622TIP3    H168281   3.595   6.178   2.155 -1.1097  0.4941  1.1914
15622TIP3    H268282   3.627   6.171   2.302  0.7166  0.4050  0.8117
15623TIP3   OH268283   0.115   1.595   1.201 -0.5199 -0.6892  0.3203
15623TIP3    H168284   0.128   1.606   1.296 -0.7344 -0.1869  0.2926
15623TIP3    H268285   0.102   1.684   1.168 -1.7419 -0.9690  0.0045
15624TIP3   OH268286   0.968   1.965   4.745  0.1952 -0.0752  0.1562
15624TIP3    H168287   1.036   1.981   4.810  0.5609  0.9382 -0.4411
15624TIP3    H268288   0.897   2.025   4.768  0.5191  0.6343 -0.6260
15625TIP3   OH268289   3.748   0.395  10.837  0.1326 -0.2881 -0.2023
15625TIP3    H168290   3.750   0.490  10.834 -1.9320 -0.2194 -1.5047
15625TIP3    H268291   3.715   0.374  10.924  1.5339  0.1211  0.4477
15626TIP3   OH268292   3.583   1.138  14.029 -0.0921 -0.1762  0.4901
15626TIP3    H168293   3.652   1.097  13.977  0.2843 -1.0101  1.6123
15626TIP3    H268294   3.568   1.222  13.986 -1.6579 -1.8202 -2.5818
15627TIP3   OH268295   1.465   0.906   2.548 -0.1336  0.2449  0.0124
15627TIP3    H168296   1.492   0.928   2.459  1.3273  0.0663  0.3993
15627TIP3    H268297   1.473   0.987   2.597 -0.0537  0.1320  0.1879
15628TIP3   OH268298   3.734   0.404   0.024  0.0294  0.4874 -0.1563
15628TIP3    H168299   3.639   0.415   0.033 -0.0618 -0.3036 -0.1226
15628TIP3    H268300   3.750   0.417  -0.070 -0.3747 -1.1490 -0.4916
15629TIP3   OH268301   3.149   3.003   1.180 -0.1160 -0.4513  0.0574
15629TIP3    H168302   3.191   3.083   1.148 -1.2347  0.7283  1.3704
15629TIP3    H268303   3.209   2.969   1.246  0.8881 -1.3652 -1.2661
15630TIP3   OH268304   4.878   4.513  14.884  0.4054 -0.4570 -0.0221
15630TIP3    H168305   4.820   4.443  14.855  1.3966 -1.0033 -0.7603
15630TIP3    H268306   4.934   4.472  14.950  0.3311 -0.1015  0.2601
15631TIP3   OH268307   0.058   6.047  13.339  0.1839  0.9878 -0.2342
15631TIP3    H168308   0.028   6.131  13.372 -0.1669  1.5297 -1.8875
15631TIP3    H268309   0.152   6.045  13.360  0.0573  1.4845  0.4029
15632TIP3   OH268310   0.630   5.181  15.990 -0.3847 -0.1215 -0.1375
15632TIP3    H168311   0.558   5.206  15.932  0.1975  0.3110 -0.6914
15632TIP3    H268312   0.597   5.104  16.037 -0.0730 -2.0875 -2.8232
15633TIP3   OH268313   5.155   2.259  14.586 -0.0207  0.1159 -0.1501
15633TIP3    H168314   5.070   2.255  14.541  0.9142 -0.9397 -1.9433
15633TIP3    H268315   5.144   2.204  14.663 -0.9259 -0.1525 -0.4572
15634TIP3   OH268316   4.855   4.941  16.691 -0.3654  0.0545 -0.4160
15634TIP3    H168317   4.917   4.956  16.763  1.0079 -1.2365 -1.2831
15634TIP3    H268318   4.867   5.015  16.632 -1.1012  0.8319  0.3791
15635TIP3   OH268319   4.411   2.010  12.949 -0.0535 -0.4639  0.2703
15635TIP3    H168320   4.329   1.975  12.912 -0.1600 -1.6674  1.5587
15635TIP3    H268321   4.479   1.976  12.891 -0.4009 -0.0961 -0.3666
15636TIP3   OH268322   0.831   0.452   4.523  0.0523  0.1406  0.9413
15636TIP3    H168323   0.884   0.444   4.443 -0.7749 -2.2960  0.5548
15636TIP3    H268324   0.896   0.453   4.594  0.7840  2.0888  0.3137
15637TIP3   OH268325   3.522   2.699   1.590  0.1772  0.1421  0.3692
15637TIP3    H168326   3.553   2.729   1.505  1.4426  1.4362  1.2551
15637TIP3    H268327   3.439   2.655   1.571 -0.6585  2.2763 -1.2660
15638TIP3   OH268328   2.216   0.392   4.275 -0.1218  0.0036 -0.7133
15638TIP3    H168329   2.162   0.420   4.202 -1.1641  0.5944  0.2395
15638TIP3    H268330   2.155   0.387   4.349  1.0881  0.4934  0.3531
15639TIP3   OH268331   0.647   3.937   4.887  0.0656  0.2881  0.3661
15639TIP3    H168332   0.730   3.928   4.934  0.2446 -0.1394 -0.0291
15639TIP3    H268333   0.594   3.864   4.916  0.1718  0.0285 -0.0815
15640TIP3   OH268334   2.052   6.632   0.788 -0.0489 -0.4245 -0.0715
15640TIP3    H168335   2.103   6.607   0.865 -0.1210  3.3454  1.3790
15640TIP3    H268336   1.967   6.659   0.822 -0.1277  1.2373 -1.4697
15641TIP3   OH268337   1.590   5.994   2.864 -0.2083  0.5881  0.2745
15641TIP3    H168338   1.523   6.053   2.830  0.3868  1.0577 -0.1068
15641TIP3    H268339   1.611   5.935   2.791 -1.8786 -1.1254  1.0965
15642TIP3   OH268340   3.745   6.203   4.819  0.6951 -0.4369 -0.4918
15642TIP3    H168341   3.651   6.204   4.799  0.0763 -0.3792  2.0968
15642TIP3    H268342   3.768   6.110   4.826  0.5031 -0.4312  0.2287
15643TIP3   OH268343   6.000   3.980   0.857  0.6503  0.2490  0.2901
15643TIP3    H168344   6.039   3.944   0.936  1.2437 -1.3735 -0.6967
15643TIP3    H268345   5.936   3.915   0.829 -1.0876  1.7694  0.5534
15644TIP3   OH268346   4.036   6.635   4.026  0.1618  0.4234 -0.2717
15644TIP3    H168347   3.984   6.710   3.999 -0.3253  0.5895  1.0770
15644TIP3    H268348   4.127   6.662   4.009 -0.0680  0.8627 -0.8545
15645TIP3   OH268349   1.704   4.655   3.378 -0.0933 -0.4026  0.3125
15645TIP3    H168350   1.774   4.716   3.357 -0.0414 -0.5111  0.1717
15645TIP3    H268351   1.650   4.702   3.442 -2.1275  1.2442 -2.4235
15646TIP3   OH268352   3.983   0.065  13.447 -0.5121 -0.3917  0.5780
15646TIP3    H168353   4.016   0.087  13.360 -0.6201  2.3854  1.1367
15646TIP3    H268354   3.892   0.095  13.445 -0.1491  0.9229  1.9970
15647TIP3   OH268355   3.348   3.368  14.753  0.4079  0.2369  0.0836
15647TIP3    H168356   3.360   3.379  14.658  2.1889  1.2459  0.3804
15647TIP3    H268357   3.269   3.418  14.772  0.8505  1.2727 -0.6738
15648TIP3   OH268358   0.115   6.489   4.449  0.2027 -0.2353 -0.2190
15648TIP3    H168359   0.038   6.477   4.503  0.3421 -1.0285 -0.1805
15648TIP3    H268360   0.100   6.432   4.373  0.6712 -0.2673 -0.2904
15649TIP3   OH268361   6.635   3.858  13.085  0.3164  0.4012  0.5865
15649TIP3    H168362   6.643   3.949  13.055  0.7801  0.7350  1.6679
15649TIP3    H268363   6.723   3.822  13.076 -0.2341 -0.5810 -1.6676
15650TIP3   OH268364   3.047   3.672   2.586  0.0906  0.3728 -0.0988
15650TIP3    H168365   3.106   3.624   2.528 -0.5844  0.2436 -0.6860
15650TIP3    H268366   2.960   3.659   2.549 -0.5419 -0.7250  1.6207
15651TIP3   OH268367   0.910   5.224   4.666  0.2562  0.1036 -0.1444
15651TIP3    H168368   0.982   5.175   4.626 -0.9759 -0.5622 -1.6964
15651TIP3    H268369   0.933   5.316   4.654  0.7280 -0.1016 -0.9003
15652TIP3   OH268370   3.839   5.625  12.746 -0.4469  0.4886  0.9996
15652TIP3    H168371   3.843   5.597  12.837  0.0382  0.6644  1.0337
15652TIP3    H268372   3.905   5.571  12.701 -0.6273  0.4576  0.7682
15653TIP3   OH268373   2.361   1.247   1.680  0.3564 -0.5043 -0.6175
15653TIP3    H168374   2.357   1.240   1.585 -1.5361 -2.0710 -0.5027
15653TIP3    H268375   2.295   1.313   1.702  2.5466  1.7576 -0.4569
15654TIP3   OH268376   3.487   5.945  16.470 -0.6843  0.0445  0.0405
15654TIP3    H168377   3.443   6.016  16.518 -0.4635 -0.0616  0.4037
15654TIP3    H268378   3.579   5.969  16.472 -0.8788  1.3692 -2.5186
15655TIP3   OH268379   4.420   6.085   3.649  0.2990 -0.0545  0.1398
15655TIP3    H168380   4.364   6.015   3.682 -0.9258  0.0729 -1.5902
15655TIP3    H268381   4.498   6.040   3.616  0.3997 -0.3939  0.8132
15656TIP3   OH268382   3.456   5.228   2.363  0.3754 -0.1063 -0.1104
15656TIP3    H168383   3.396   5.196   2.430  0.5413 -1.3804 -0.5495
15656TIP3    H268384   3.412   5.209   2.280 -0.1108  2.0131 -0.3939
15657TIP3   OH268385   5.558   2.652  12.284 -0.2633 -0.3238 -0.0046
15657TIP3    H168386   5.606   2.695  12.355  0.5076 -0.0163 -0.7141
15657TIP3    H268387   5.510   2.724  12.241  0.8555 -0.1771 -1.0525
15658TIP3   OH268388   2.897   3.997  11.935 -0.0909 -0.1559  0.4396
15658TIP3    H168389   2.909   4.040  11.850 -0.9330  0.7160  0.7446
15658TIP3    H268390   2.986   3.974  11.963  0.1486 -1.2080 -1.0340
15659TIP3   OH268391   0.358   3.293   2.730  0.0497 -0.9520  0.5897
15659TIP3    H168392   0.278   3.245   2.753  0.7773 -2.1694  0.6778
15659TIP3    H268393   0.414   3.284   2.808 -0.0981  0.7451  0.9207
15660TIP3   OH268394   4.648   4.341   4.611 -0.0198 -0.5059  0.3405
15660TIP3    H168395   4.603   4.259   4.593 -0.6974 -0.9901  3.5467
15660TIP3    H268396   4.615   4.402   4.545 -0.6979 -2.3791 -1.1346
15661TIP3   OH268397   1.525   4.576   4.453 -0.0839 -0.4427 -0.0906
15661TIP3    H168398   1.557   4.536   4.534 -1.8490 -1.4956  0.1364
15661TIP3    H268399   1.579   4.654   4.442  0.4087 -0.4434  1.9309
15662TIP3   OH268400   4.069   0.944   5.065  0.4004  0.0116 -0.1032
15662TIP3    H168401   4.023   0.912   4.987  1.5024  0.4925 -0.9758
15662TIP3    H268402   4.127   0.872   5.090 -0.5955 -0.4957  0.8471
15663TIP3   OH268403   6.676   6.421   4.068 -0.4848 -0.1643  0.4725
15663TIP3    H168404   6.617   6.472   4.123 -0.4619  0.6938 -0.2755
15663TIP3    H268405   6.681   6.470   3.986 -0.1052 -1.1423 -0.1058
15664TIP3   OH268406   1.978   1.771   4.936  0.1636  0.3062  0.2113
15664TIP3    H168407   1.989   1.827   4.859  1.8116  1.2281  1.0684
15664TIP3    H268408   1.917   1.820   4.992  0.4782  0.5535  0.3368
15665TIP3   OH268409   4.691   2.221  12.785  0.4267 -0.0193 -0.2442
15665TIP3    H168410   4.720   2.129  12.786  2.0234  0.4466 -0.1599
15665TIP3    H268411   4.704   2.251  12.875  1.8913  0.8355 -0.7053
15666TIP3   OH268412   2.894   0.984   5.083  0.0226 -0.0639  0.3648
15666TIP3    H168413   2.812   0.935   5.082  1.2818 -2.2705  0.1550
15666TIP3    H268414   2.931   0.968   5.169  0.8085 -0.0785  0.0274
15667TIP3   OH268415   4.388   4.772  14.592 -1.0512 -0.3840 -0.2625
15667TIP3    H168416   4.333   4.705  14.635  0.0613 -1.3454 -0.2954
15667TIP3    H268417   4.359   4.854  14.631 -4.1656 -0.5221 -1.9628
15668TIP3   OH268418   2.156   0.787   2.427  0.0746  0.1024 -0.2873
15668TIP3    H168419   2.139   0.881   2.429 -0.2363  0.0546 -0.7665
15668TIP3    H268420   2.251   0.781   2.415  0.5211  0.3605  2.5102
15669TIP3   OH268421   2.217   6.276  11.235 -0.1661 -0.6715 -0.2117
15669TIP3    H168422   2.189   6.198  11.187  0.2315  0.0356 -1.6401
15669TIP3    H268423   2.140   6.334  11.232  0.7909  0.6212 -2.7515
15670TIP3   OH268424   1.842   3.234   1.201  0.4388  0.1974 -0.1342
15670TIP3    H168425   1.892   3.269   1.127  1.3884 -1.5583 -0.3739
15670TIP3    H268426   1.752   3.263   1.185  0.9536  1.4087 -0.9727
15671TIP3   OH268427   5.234   1.104  17.001  0.0464 -0.1451  0.4406
15671TIP3    H168428   5.255   1.188  17.042 -1.7767 -0.4025  2.0325
15671TIP3    H268429   5.202   1.128  16.914  1.3209  0.6395  0.1680
15672TIP3   OH268430   1.207   4.001   1.115  0.1218  0.2472 -0.0412
15672TIP3    H168431   1.113   4.015   1.126  0.4382  3.2974 -0.1984
15672TIP3    H268432   1.245   4.088   1.126  2.7801 -0.6047 -1.5633
15673TIP3   OH268433   5.553   5.553  14.844  0.3540  0.0239  0.0193
15673TIP3    H168434   5.521   5.616  14.778  1.6154 -0.5959 -1.2340
15673TIP3    H268435   5.496   5.477  14.833  0.6596 -0.1386 -0.4879
15674TIP3   OH268436   1.707   6.198  13.131 -0.6729  0.4098 -0.3147
15674TIP3    H168437   1.748   6.111  13.136 -0.6150  0.5110  2.5315
15674TIP3    H268438   1.773   6.252  13.087  0.8837 -0.2204  1.1024
15675TIP3   OH268439   4.902   0.438  16.332 -0.3372 -0.2991  0.2938
15675TIP3    H168440   4.935   0.527  16.320 -0.5318  0.0615  2.1061
15675TIP3    H268441   4.952   0.404  16.407 -2.1571 -0.6832  1.4174
15676TIP3   OH268442   1.508   4.017  11.500 -0.0699  0.3355  0.0561
15676TIP3    H168443   1.455   4.069  11.561 -0.1001 -0.3954  0.6793
15676TIP3    H268444   1.544   4.080  11.438 -0.6073  1.0094  0.4200
15677TIP3   OH268445   0.520   3.503  14.275  0.3372  0.0766 -0.4279
15677TIP3    H168446   0.445   3.563  14.274  0.5575  0.3553 -1.0985
15677TIP3    H268447   0.541   3.490  14.182  1.5061  0.4948 -0.2401
15678TIP3   OH268448   2.545   2.697  15.355 -0.1505  0.3787  0.2184
15678TIP3    H168449   2.545   2.605  15.382  1.2359 -0.9588 -3.6052
15678TIP3    H268450   2.638   2.722  15.354 -0.5629  2.2773  2.2446
15679TIP3   OH268451   0.803   3.578  13.525  0.0144  0.3745  0.1740
15679TIP3    H168452   0.810   3.633  13.603 -2.5973 -0.2691  0.9345
15679TIP3    H268453   0.743   3.508  13.549  0.5747 -0.9022 -1.8602
15680TIP3   OH268454   6.720   4.204   2.050  0.4698  0.2269 -0.2888
15680TIP3    H168455   6.635   4.210   2.006  0.5683  0.7782 -0.4142
15680TIP3    H268456   6.763   4.130   2.009 -0.1219 -0.3280  0.0792
15681TIP3   OH268457   4.288   2.061   2.571 -0.2521  0.0685 -0.0251
15681TIP3    H168458   4.357   2.013   2.526  1.4711  2.3272  0.0427
15681TIP3    H268459   4.330   2.096   2.650 -0.8863  2.9347 -0.8320
15682TIP3   OH268460   1.747   1.239   4.880 -0.3060  0.4483  0.3871
15682TIP3    H168461   1.680   1.255   4.813 -0.8800  0.6903  0.9992
15682TIP3    H268462   1.698   1.236   4.962  0.2739 -0.7364  0.7050
15683TIP3   OH268463   5.914   0.310  16.623 -0.6405 -0.5286  0.1383
15683TIP3    H168464   5.972   0.367  16.674  1.5934 -0.9256 -1.8081
15683TIP3    H268465   5.882   0.246  16.686  0.7864 -0.0792  1.3844
15684TIP3   OH268466   3.921   4.290   0.727 -0.0352  0.9274 -0.0729
15684TIP3    H168467   3.896   4.236   0.802 -0.2299  2.0727  0.7257
15684TIP3    H268468   3.855   4.360   0.726 -0.3534  0.6344 -1.6604
15685TIP3   OH268469   1.046   2.670  12.903 -0.4459 -0.1435  0.4684
15685TIP3    H168470   1.000   2.723  12.839 -0.6012  0.2214  0.8794
15685TIP3    H268471   1.104   2.731  12.949 -0.3408 -0.3959  0.6797
15686TIP3   OH268472   3.890   0.202   1.486  0.2698 -0.1756  0.2917
15686TIP3    H168473   3.816   0.170   1.538 -1.1310  0.4980 -1.1968
15686TIP3    H268474   3.889   0.297   1.498  0.5867 -0.1172 -0.1306
15687TIP3   OH268475   4.398   0.765  14.835 -0.3358  0.3525 -0.2001
15687TIP3    H168476   4.425   0.856  14.818  1.8999 -0.1634  0.2208
15687TIP3    H268477   4.479   0.721  14.862 -1.2292 -1.9363 -1.0213
15688TIP3   OH268478   4.748   1.290   2.921 -0.0330  0.6896 -0.6254
15688TIP3    H168479   4.715   1.200   2.927 -0.2120  0.7737 -0.3636
15688TIP3    H268480   4.684   1.336   2.867 -0.2675  0.8123 -0.2496
15689TIP3   OH268481   0.653   1.632  13.701  0.3418  0.3073 -0.1047
15689TIP3    H168482   0.567   1.625  13.658 -0.8610  0.5801  2.0882
15689TIP3    H268483   0.699   1.700  13.652 -1.1168  0.9195 -0.6791
15690TIP3   OH268484   5.848   4.544  11.949 -0.1130 -0.4804 -0.0950
15690TIP3    H168485   5.763   4.508  11.977 -0.5315 -0.0885 -0.8408
15690TIP3    H268486   5.879   4.594  12.024 -1.2687  0.6357 -0.3311
15691TIP3   OH268487   2.303   1.404  15.872  0.6000 -0.2543 -0.2050
15691TIP3    H168488   2.342   1.322  15.841 -0.1018 -0.9487  0.7173
15691TIP3    H268489   2.220   1.378  15.913 -1.1089  1.2114 -2.4673
15692TIP3   OH268490   1.015   5.491  16.771  0.1142 -0.0846  0.4187
15692TIP3    H168491   1.018   5.456  16.860 -3.2099 -2.0213 -0.0908
15692TIP3    H268492   0.993   5.584  16.783  2.2632  0.3311  1.6080
15693TIP3   OH268493   2.002   3.109   2.619 -0.0526  0.1044 -0.3368
15693TIP3    H168494   2.090   3.110   2.581  0.3831  0.5225  0.6313
15693TIP3    H268495   1.976   3.201   2.622 -0.0769  0.0836  0.3432
15694TIP3   OH268496   1.168   2.141  12.123 -0.4098 -0.1579 -0.5083
15694TIP3    H168497   1.235   2.209  12.124  0.0813 -0.6286 -0.7678
15694TIP3    H268498   1.108   2.167  12.054 -0.5892  0.3564 -0.1590
15695TIP3   OH268499   1.156   5.643   2.796 -0.8561 -0.2300  0.5657
15695TIP3    H168500   1.117   5.698   2.728  0.0926  1.0102  0.9861
15695TIP3    H268501   1.240   5.684   2.816 -1.1905 -0.4062  2.6420
15696TIP3   OH268502   3.150   3.638  16.919 -0.1908 -0.3051  0.3117
15696TIP3    H168503   3.240   3.653  16.949 -0.4814  1.3458  0.4572
15696TIP3    H268504   3.099   3.628  16.999  0.1606 -3.9320  0.2773
15697TIP3   OH268505   4.764   1.774  13.754 -0.2761  0.2854 -0.1082
15697TIP3    H168506   4.820   1.813  13.821 -1.1418  1.1535  0.1344
15697TIP3    H268507   4.790   1.817  13.673 -0.0416  0.1007 -0.1311
15698TIP3   OH268508   4.259   1.128  11.921 -0.6266 -0.2765  0.1466
15698TIP3    H168509   4.195   1.200  11.915  0.2696  0.4495 -1.1847
15698TIP3    H268510   4.291   1.132  12.011  0.0720  1.6136 -0.1395
15699TIP3   OH268511   3.058   4.086   6.177 -0.0052  0.1067  0.0909
15699TIP3    H168512   3.051   4.042   6.262  1.2937  1.3439  0.8681
15699TIP3    H268513   3.151   4.081   6.155 -0.0316  1.4407 -0.3569
15700TIP3   OH268514   1.081   3.516  14.691  0.4817  0.1430  0.8459
15700TIP3    H168515   0.997   3.561  14.701 -0.1209 -1.2185  2.3843
15700TIP3    H268516   1.076   3.441  14.750  1.9666 -1.1974 -0.5892
15701TIP3   OH268517   0.278   3.580  13.549  0.0605  0.6129  0.3559
15701TIP3    H168518   0.290   3.630  13.468 -0.2577 -0.3847 -0.3202
15701TIP3    H268519   0.366   3.566  13.582  0.3690 -0.7473 -0.9311
15702TIP3   OH268520   5.662   0.519  16.406  0.0247 -0.0637 -0.5947
15702TIP3    H168521   5.571   0.545  16.410  0.0879  0.3119 -1.4091
15702TIP3    H268522   5.711   0.601  16.396  0.4525 -0.2576 -0.1504
15703TIP3   OH268523   6.510   3.661   2.829 -0.2243 -0.1663 -0.1630
15703TIP3    H168524   6.515   3.568   2.806 -3.2749 -0.1204 -1.5996
15703TIP3    H268525   6.516   3.706   2.745 -1.9334  0.6669  0.1134
15704TIP3   OH268526   4.009   2.281  14.867  0.1514  0.2201 -0.9611
15704TIP3    H168527   4.099   2.309  14.883  0.3906 -0.2305 -1.4951
15704TIP3    H268528   3.974   2.346  14.807  0.1555  0.3301 -0.8459
15705TIP3   OH268529   0.600   6.058  15.480  0.0930 -0.2448  0.3626
15705TIP3    H168530   0.688   6.066  15.443 -0.2724 -0.1811 -0.5294
15705TIP3    H268531   0.548   6.123  15.432 -0.1470  0.7361  1.8600
15706TIP3   OH268532   4.859   3.631  15.622  0.0662  0.5845 -0.1598
15706TIP3    H168533   4.873   3.547  15.665 -1.2617  0.8529  0.8710
15706TIP3    H268534   4.858   3.695  15.694 -1.1566  1.1823 -0.6859
15707TIP3   OH268535   1.074   1.765   1.608 -0.4889 -0.6696 -0.2262
15707TIP3    H168536   1.074   1.838   1.546  1.0518  0.0359  0.5512
15707TIP3    H268537   0.984   1.762   1.642 -0.6043  0.8047 -0.3557
15708TIP3   OH268538   6.435   0.490  13.413  0.4385 -0.0466 -0.1549
15708TIP3    H168539   6.482   0.415  13.375  1.3639  0.5705 -0.2511
15708TIP3    H268540   6.377   0.451  13.479  0.5282 -0.8931 -0.5559
15709TIP3   OH268541   6.319   1.017  16.367  0.2234 -0.1915  0.4791
15709TIP3    H168542   6.410   1.044  16.379 -0.2368  1.8532 -0.2568
15709TIP3    H268543   6.275   1.044  16.448 -0.3205  1.8489 -0.4212
15710TIP3   OH268544   1.686   1.845  13.559 -0.3625 -0.4124 -0.0206
15710TIP3    H168545   1.709   1.912  13.624  1.9975 -1.3386  0.1940
15710TIP3    H268546   1.728   1.875  13.479  1.0184 -1.7746  0.1620
15711TIP3   OH268547   5.313   0.286   2.936  0.2947  0.1250 -0.2295
15711TIP3    H168548   5.370   0.210   2.925  0.9315  0.6137 -0.3896
15711TIP3    H268549   5.313   0.328   2.850  0.3165  0.5603 -0.0156
15712TIP3   OH268550   1.978   3.452  15.004  0.1953  0.5055 -0.4609
15712TIP3    H168551   1.959   3.524  15.064 -1.2332 -0.3902  0.2276
15712TIP3    H268552   1.897   3.400  15.002 -0.2156  1.0306 -3.9640
15713TIP3   OH268553   3.725   0.807   3.355  0.1339 -0.1838  0.3141
15713TIP3    H168554   3.794   0.808   3.288  0.9303 -1.2093  1.0852
15713TIP3    H268555   3.680   0.891   3.344  1.1594  0.2760 -0.5701
15714TIP3   OH268556   1.878   1.962   2.397  0.0621  0.4621 -0.2183
15714TIP3    H168557   1.878   1.867   2.411 -0.6986  0.5816  0.7089
15714TIP3    H268558   1.867   1.972   2.303  0.0875 -0.3693 -0.3234
15715TIP3   OH268559   6.561   5.755   3.692 -0.1544  0.0463  0.4790
15715TIP3    H168560   6.506   5.683   3.662  1.7670 -1.4121  0.2393
15715TIP3    H268561   6.651   5.723   3.679  0.8134  0.7365  4.4066
15716TIP3   OH268562   2.804   1.229  15.795  0.2523 -0.7075  0.3120
15716TIP3    H168563   2.752   1.179  15.858  0.8835 -2.1155 -0.2486
15716TIP3    H268564   2.846   1.298  15.847  0.7047 -1.8016  1.4208
15717TIP3   OH268565   6.380   4.252  13.159  0.5038 -0.0167 -0.1829
15717TIP3    H168566   6.385   4.341  13.194 -1.6844  0.9920 -2.1816
15717TIP3    H268567   6.409   4.260  13.068  0.9457 -1.4969 -0.2030
15718TIP3   OH268568   4.620   3.507  12.053 -0.1858 -0.4727 -0.3784
15718TIP3    H168569   4.714   3.506  12.035 -0.2486 -1.4474 -0.6859
15718TIP3    H268570   4.610   3.457  12.134 -0.3303  0.5756  0.2729
15719TIP3   OH268571   2.176   3.818  16.938  0.2862  0.1739  0.2400
15719TIP3    H168572   2.189   3.724  16.951 -0.8343 -0.1348 -0.7046
15719TIP3    H268573   2.183   3.855  17.025 -1.6482 -1.1110  1.0144
15720TIP3   OH268574   0.187   5.729  15.510 -0.0668  0.3639  0.2125
15720TIP3    H168575   0.228   5.698  15.591 -0.8482 -0.1704  0.4216
15720TIP3    H268576   0.244   5.697  15.440 -1.1779 -2.2381  0.3784
15721TIP3   OH268577   0.372   3.830   4.889  0.1135  0.2514 -0.1515
15721TIP3    H168578   0.354   3.800   4.978  1.4127 -0.7718 -0.2001
15721TIP3    H268579   0.387   3.749   4.840  1.5795  0.8912 -0.7924
15722TIP3   OH268580   1.195   5.789   5.705  0.2631 -0.3443  0.3467
15722TIP3    H168581   1.215   5.819   5.794  3.2908  0.2538 -0.4325
15722TIP3    H268582   1.236   5.854   5.648 -1.1053 -1.0341 -1.5073
15723TIP3   OH268583   0.166   4.504  17.116  0.2022 -0.0031  0.7081
15723TIP3    H168584   0.206   4.589  17.097  0.0546 -0.0696  0.0818
15723TIP3    H268585   0.241   4.445  17.126  0.2838  0.0119  0.2160
15724TIP3   OH268586   3.271   2.298   3.568  0.4655  0.2944 -0.7327
15724TIP3    H168587   3.317   2.249   3.636 -1.0561  0.6675  0.6176
15724TIP3    H268588   3.275   2.241   3.491  2.5402  0.0251 -0.4651
15725TIP3   OH268589   2.720   0.923   1.832 -0.3388 -0.5183 -0.3558
15725TIP3    H168590   2.695   0.858   1.898 -1.1324 -0.2206 -0.3527
15725TIP3    H268591   2.796   0.967   1.869 -0.6822 -0.4630  0.3004
15726TIP3   OH268592   6.225   4.977   0.256  0.8801 -0.1194  0.4343
15726TIP3    H168593   6.230   5.071   0.272  2.1446  0.4479 -2.7379
15726TIP3    H268594   6.155   4.947   0.314  2.0045  2.2845  3.2937
15727TIP3   OH268595   4.365   0.879   3.463  0.4231  0.2217  0.9654
15727TIP3    H168596   4.397   0.799   3.420  0.0096  0.1226  0.8369
15727TIP3    H268597   4.432   0.945   3.445  0.0811  0.2868 -0.1649
15728TIP3   OH268598   4.677   3.342   4.123 -0.1389  0.4011 -0.1680
15728TIP3    H168599   4.712   3.254   4.115 -0.8264  0.2706 -2.5221
15728TIP3    H268600   4.742   3.398   4.079  0.4603  1.1596  1.5973
15729TIP3   OH268601   3.362   2.731  12.239  0.3327 -0.0884 -0.5676
15729TIP3    H168602   3.382   2.819  12.272 -1.8763 -0.1065  1.0818
15729TIP3    H268603   3.267   2.732  12.226 -0.0515 -2.7391  1.2946
15730TIP3   OH268604   1.942   3.816   6.277  0.5003  0.3795  0.3449
15730TIP3    H168605   1.876   3.773   6.222  0.2627  1.9981 -0.7211
15730TIP3    H268606   1.964   3.752   6.344 -1.2900 -0.6316  0.0185
15731TIP3   OH268607   3.948   4.397   1.329  0.4122  0.1158  0.1602
15731TIP3    H168608   3.983   4.484   1.312 -1.1621  0.6279 -0.6896
15731TIP3    H268609   3.862   4.413   1.367  0.2832 -1.0699  0.3992
15732TIP3   OH268610   1.353   6.611  16.678  0.7224  0.0026  0.1189
15732TIP3    H168611   1.270   6.568  16.696 -0.0169  0.9331 -0.9408
15732TIP3    H268612   1.397   6.615  16.763 -0.1711 -0.7686  0.6334
15733TIP3   OH268613   5.868   4.055  16.970  0.5792 -0.0813  0.4953
15733TIP3    H168614   5.933   4.123  16.990  1.9416 -0.9616 -0.7622
15733TIP3    H268615   5.905   3.976  17.009 -1.5069  0.0131  2.8949
15734TIP3   OH268616   3.767   0.703  16.903  0.6744 -0.2133  0.0688
15734TIP3    H168617   3.767   0.696  16.808  1.6326  1.8528 -0.1514
15734TIP3    H268618   3.676   0.686  16.929 -0.0666  1.1197 -1.4425
15735TIP3   OH268619   2.407   5.510   2.188  0.1972 -0.0321  0.5216
15735TIP3    H168620   2.355   5.562   2.127  0.9825  2.1695  1.5901
15735TIP3    H268621   2.362   5.519   2.272  0.8233 -0.3499  0.8997
15736TIP3   OH268622   1.552   3.701  13.254  0.9081 -0.0101  0.0306
15736TIP3    H168623   1.539   3.795  13.240 -1.3288 -0.4399 -1.4097
15736TIP3    H268624   1.487   3.677  13.319  1.8727 -0.4925  0.8430
15737TIP3   OH268625   2.230   2.595   3.758  0.2853 -0.2150 -0.5200
15737TIP3    H168626   2.188   2.679   3.738  1.7737  0.3441 -1.4437
15737TIP3    H268627   2.212   2.582   3.851  0.2561  1.2721 -0.2871
15738TIP3   OH268628   5.387   3.709   1.547  0.4868  0.1041 -0.0868
15738TIP3    H168629   5.460   3.727   1.607 -0.9560 -0.5770  1.9596
15738TIP3    H268630   5.405   3.765   1.471  2.9465  0.2145  0.4747
15739TIP3   OH268631   2.519   4.503   2.087 -0.1193  0.6137  0.2980
15739TIP3    H168632   2.571   4.429   2.119  0.5052  0.9380  0.0587
15739TIP3    H268633   2.448   4.513   2.151  1.0162  1.1638  1.5165
15740TIP3   OH268634   6.482   4.913   3.643 -0.1999 -0.2706  0.4028
15740TIP3    H168635   6.405   4.968   3.632  0.4446  0.5909  0.1481
15740TIP3    H268636   6.543   4.967   3.693  0.3941 -0.8048  0.2670
15741TIP3   OH268637   3.916   3.077  12.640 -0.1077  0.0354  0.1394
15741TIP3    H168638   3.934   3.091  12.733  1.2289 -1.4509  0.1498
15741TIP3    H268639   3.975   3.138  12.595  0.8912 -0.8177  0.2598
15742TIP3   OH268640   5.156   0.670   2.977  0.5608  0.1595  0.0795
15742TIP3    H168641   5.170   0.667   2.882  0.1660  0.2633  0.0152
15742TIP3    H268642   5.079   0.614   2.991  1.9886 -1.7624  0.6080
15743TIP3   OH268643   5.370   6.450   5.529  0.1138  0.4130  0.1241
15743TIP3    H168644   5.333   6.377   5.480 -1.1140  0.5229  0.8358
15743TIP3    H268645   5.458   6.422   5.552 -0.3328 -0.8433  0.3690
15744TIP3   OH268646   2.371   0.976  16.864 -0.0863 -0.4789  0.6695
15744TIP3    H168647   2.437   0.972  16.795 -1.3034  0.6531 -0.6315
15744TIP3    H268648   2.412   1.029  16.933  0.3538  0.2308 -0.1221
15745TIP3   OH268649   0.183   6.418   2.345 -0.8187  0.2250 -0.5868
15745TIP3    H168650   0.115   6.387   2.405  0.1368  0.7970  0.8509
15745TIP3    H268651   0.232   6.340   2.321 -0.0743  0.2140  0.8842
15746TIP3   OH268652   3.088   2.906  15.863 -0.5734  0.3260  0.0515
15746TIP3    H168653   3.032   2.866  15.930 -0.4108  1.0466  0.6283
15746TIP3    H268654   3.177   2.898  15.897 -0.5249  1.0423  0.1197
15747TIP3   OH268655   4.852   3.849  12.512  0.2593  0.4253 -0.2517
15747TIP3    H168656   4.805   3.776  12.472  0.6015 -1.1167  1.9125
15747TIP3    H268657   4.815   3.855  12.601  1.0212  2.1871 -0.0089
15748TIP3   OH268658   0.574   2.712  14.190 -0.4875 -0.0188 -0.4223
15748TIP3    H168659   0.527   2.795  14.191  0.1562  0.3491 -0.3317
15748TIP3    H268660   0.659   2.733  14.153 -0.2212 -0.5902 -0.1517
15749TIP3   OH268661   6.447   4.163  11.506  0.4718 -0.0687 -0.0332
15749TIP3    H168662   6.372   4.202  11.551  1.3770  1.4968  0.1782
15749TIP3    H268663   6.439   4.192  11.416  0.1822 -0.9068 -0.2884
15750TIP3   OH268664   5.497   0.377  17.053 -0.1568 -0.4391  0.1497
15750TIP3    H168665   5.426   0.431  17.089  1.1422  0.9087  0.8184
15750TIP3    H268666   5.555   0.361  17.128  1.8194  1.1288 -0.9530
15751TIP3   OH268667   3.772   5.276   0.046 -0.9576 -0.0119 -0.1738
15751TIP3    H168668   3.687   5.248   0.012 -1.1385 -0.1907  0.3988
15751TIP3    H268669   3.761   5.274   0.141 -0.2798 -0.1470 -0.0905
15752TIP3   OH268670   5.259   3.102  14.640 -0.0966 -0.5036  0.3455
15752TIP3    H168671   5.206   3.175  14.609 -0.6655 -0.4147  1.4706
15752TIP3    H268672   5.316   3.140  14.706  0.4243 -0.8611  0.1036
15753TIP3   OH268673   0.069   5.676   1.153  0.3829 -0.0825  0.1352
15753TIP3    H168674  -0.019   5.637   1.145  0.5531 -0.2213 -1.6825
15753TIP3    H268675   0.117   5.617   1.210 -0.2073 -0.9957 -0.2903
15754TIP3   OH268676   1.619   5.414  13.876 -0.0405  0.1891 -0.4962
15754TIP3    H168677   1.538   5.393  13.828  0.8585 -0.1344 -1.9165
15754TIP3    H268678   1.687   5.367  13.829  1.1223  1.2207  0.1193
15755TIP3   OH268679   3.757   0.173  17.044  0.4330 -0.0842 -0.0336
15755TIP3    H168680   3.729   0.260  17.017 -1.3183 -1.0354 -1.5318
15755TIP3    H268681   3.814   0.142  16.973 -2.2425 -1.6553 -1.6863
15756TIP3   OH268682   4.505   4.753  13.448  0.0581 -0.0775 -0.3900
15756TIP3    H168683   4.583   4.766  13.393 -0.1362 -1.3116 -0.9870
15756TIP3    H268684   4.522   4.807  13.526  1.1274  0.3371 -0.8850
15757TIP3   OH268685   2.067   2.191  11.674 -0.2012  0.4813 -0.4574
15757TIP3    H168686   2.054   2.217  11.583  0.5117 -0.3200 -0.8069
15757TIP3    H268687   1.980   2.196  11.714 -0.8751 -0.9027 -1.6631
15758TIP3   OH268688   2.903   2.897  13.188 -0.0714  0.8390  0.6709
15758TIP3    H168689   2.851   2.911  13.268  0.6358  0.1955  1.2560
15758TIP3    H268690   2.978   2.846  13.217 -1.3364 -2.1454 -0.9394
15759TIP3   OH268691   2.118   5.322  11.452 -0.0238 -0.0285  0.2705
15759TIP3    H168692   2.109   5.396  11.512  1.5007 -0.0378  0.5502
15759TIP3    H268693   2.084   5.247  11.502  1.4495 -0.0804  1.2630
15760TIP3   OH268694   1.563   6.242  16.990  0.6630  0.1060 -0.2486
15760TIP3    H168695   1.565   6.186  16.912 -1.4639 -0.7564  0.2425
15760TIP3    H268696   1.613   6.194  17.056  0.5324 -0.2727 -0.4227
15761TIP3   OH268697   4.178   6.266   2.695  0.4124 -0.2439 -0.1692
15761TIP3    H168698   4.144   6.292   2.610 -0.1340 -1.9774 -0.5123
15761TIP3    H268699   4.109   6.289   2.757  0.3960  0.1037 -0.3148
15762TIP3   OH268700   0.522   3.421  16.300 -0.3308 -0.2333 -0.0808
15762TIP3    H168701   0.432   3.452  16.301 -0.5327 -0.7058  2.1980
15762TIP3    H268702   0.549   3.426  16.208 -0.7586  5.3444 -0.2472
15763TIP3   OH268703   5.193   3.981  14.715 -0.3447  0.2011 -0.0746
15763TIP3    H168704   5.110   4.020  14.686  0.6597  2.1266 -0.5798
15763TIP3    H268705   5.251   4.057  14.728  1.3703 -1.0959  0.1489
15764TIP3   OH268706   3.507   5.413  10.472  0.3388 -0.1731 -0.2630
15764TIP3    H168707   3.596   5.410  10.507  0.8742 -0.6594 -1.6115
15764TIP3    H268708   3.490   5.506  10.459  0.7185 -0.0874 -0.1708
15765TIP3   OH268709   0.683   6.132  16.287 -0.2360  0.0479  0.2312
15765TIP3    H168710   0.662   6.152  16.196  0.9647 -1.4426 -0.4252
15765TIP3    H268711   0.670   6.037  16.294 -2.2268  0.3882  2.1769
15766TIP3   OH268712   5.889   1.669  12.859 -0.1883 -0.1865  0.1064
15766TIP3    H168713   5.865   1.704  12.945  2.0177  1.5532  0.0752
15766TIP3    H268714   5.962   1.609  12.877  0.8752  0.8595 -0.6096
15767TIP3   OH268715   2.432   4.335   4.515  0.1516  0.2672  0.5752
15767TIP3    H168716   2.407   4.242   4.513  1.0378 -0.0816  2.7673
15767TIP3    H268717   2.396   4.371   4.434 -1.5899 -1.6354  0.4201
15768TIP3   OH268718   0.598   4.035   3.862 -0.4963 -0.4145  0.5767
15768TIP3    H168719   0.673   4.090   3.839 -0.6151 -0.6477 -0.4294
15768TIP3    H268720   0.579   3.986   3.782  0.4287 -2.9181  1.7673
15769TIP3   OH268721   4.636   3.639  11.176  0.4497 -0.1705 -0.1641
15769TIP3    H168722   4.586   3.720  11.161  2.6629  1.1322 -0.9166
15769TIP3    H268723   4.569   3.572  11.187 -1.4769  1.6444 -0.1193
15770TIP3   OH268724   0.945   2.771  13.731 -0.5959  0.0649  0.3080
15770TIP3    H168725   0.852   2.792  13.740 -0.5629 -0.0894  0.9977
15770TIP3    H268726   0.951   2.728  13.646 -1.2308 -0.3652  0.4757
15771TIP3   OH268727   2.146   5.174  13.554 -0.6007  1.1734  0.3702
15771TIP3    H168728   2.166   5.170  13.648 -1.8318 -0.6014  0.6101
15771TIP3    H268729   2.220   5.131  13.512 -1.4391 -0.8341  0.8299
15772TIP3   OH268730   4.175   3.565  16.317 -0.2783 -0.2897 -0.4677
15772TIP3    H168731   4.120   3.630  16.274 -1.3993 -0.4130  0.7289
15772TIP3    H268732   4.242   3.543  16.252  0.0281  1.9140 -0.9844
15773TIP3   OH268733   6.733   4.537   4.560  0.3139  0.4679 -0.1167
15773TIP3    H168734   6.786   4.460   4.580  0.1313  0.9635  2.7724
15773TIP3    H268735   6.645   4.515   4.590  0.0034  1.3810 -0.3043
15774TIP3   OH268736   6.073   6.542   4.818 -0.3635 -0.3250 -0.7324
15774TIP3    H168737   6.080   6.473   4.884 -3.0034 -1.8030 -1.8512
15774TIP3    H268738   6.051   6.496   4.737 -0.0730  1.6836 -2.0181
15775TIP3   OH268739   0.391   4.246  12.425  0.4345  0.2120 -0.1954
15775TIP3    H168740   0.402   4.233  12.331 -1.0274  1.4163 -0.5602
15775TIP3    H268741   0.386   4.157  12.461  2.7422 -0.3101 -0.9733
15776TIP3   OH268742   2.849   1.683  14.585 -0.5621 -0.0399  0.2681
15776TIP3    H168743   2.837   1.589  14.598 -1.3818 -0.1421 -1.0315
15776TIP3    H268744   2.761   1.716  14.570 -0.3150  1.0090  1.0073
15777TIP3   OH268745   2.702   0.953   3.947 -0.1150  0.2288 -0.1684
15777TIP3    H168746   2.659   0.889   4.004 -0.4263  1.7324  1.3726
15777TIP3    H268747   2.702   0.912   3.860  1.4121 -2.6787  1.0368
15778TIP3   OH268748   5.912   0.436   2.933  0.0643 -0.1478 -0.1327
15778TIP3    H168749   5.930   0.489   2.855  1.4525  0.4900  0.5850
15778TIP3    H268750   5.823   0.462   2.959 -0.0560  0.3218 -0.9669
15779TIP3   OH268751   4.271   0.518  16.110  0.4223  0.1133  0.0142
15779TIP3    H168752   4.252   0.484  16.197  0.4876 -0.3258 -0.1417
15779TIP3    H268753   4.245   0.610  16.114  1.6454  0.4426  0.9001
15780TIP3   OH268754   5.126   1.950   1.190 -0.2139 -0.4202  0.1726
15780TIP3    H168755   5.129   2.045   1.190 -0.5841 -0.3796 -1.4115
15780TIP3    H268756   5.073   1.927   1.113 -1.2248 -1.8833  1.2353
15781TIP3   OH268757   4.225   5.932   6.117  0.3784  0.2328  0.4140
15781TIP3    H168758   4.150   5.896   6.069  1.4199 -0.0001 -1.1096
15781TIP3    H268759   4.261   5.858   6.166  0.0593  0.1834  0.5780
15782TIP3   OH268760   6.381   6.677  13.670 -0.3485  0.2535 -0.0260
15782TIP3    H168761   6.447   6.640  13.729 -1.3436 -1.1649  0.2525
15782TIP3    H268762   6.379   6.619  13.595 -0.6277  0.8196 -0.4701
15783TIP3   OH268763   0.978   4.455   2.951  0.2238 -0.1809  0.3051
15783TIP3    H168764   0.927   4.396   3.006  1.5024 -1.7029 -0.0935
15783TIP3    H268765   0.915   4.522   2.924 -1.0902 -0.9465  1.3593
15784TIP3   OH268766   2.478   4.940   3.185 -0.4007  1.0317  0.3069
15784TIP3    H168767   2.415   5.011   3.189 -1.4114  0.1135  2.1572
15784TIP3    H268768   2.527   4.947   3.268 -1.3739 -1.0947  1.1429
15785TIP3   OH268769   3.151   1.281   1.536 -0.0378  0.7540 -0.5217
15785TIP3    H168770   3.218   1.294   1.469  0.5069 -2.2691 -0.7023
15785TIP3    H268771   3.074   1.249   1.488  0.0796 -0.6119  0.1337
15786TIP3   OH268772   1.592   1.925  15.886 -0.5250  0.4437 -0.0143
15786TIP3    H168773   1.592   2.019  15.867 -0.7187  0.2137 -1.2470
15786TIP3    H268774   1.527   1.889  15.825  0.2647 -0.6218 -0.2505
15787TIP3   OH268775   1.825   5.150  16.909 -0.1513 -0.2176  0.0827
15787TIP3    H168776   1.778   5.069  16.933 -0.1723  0.3597  2.1813
15787TIP3    H268777   1.916   5.123  16.903 -0.2828 -0.5986 -0.2982
15788TIP3   OH268778   5.727   0.228   1.798  0.1982 -0.0275 -0.1480
15788TIP3    H168779   5.691   0.157   1.851  2.8487 -1.6971 -0.3859
15788TIP3    H268780   5.821   0.222   1.811  0.6112  2.6831 -1.2209
15789TIP3   OH268781   1.632   5.231  14.767  0.4047  0.7058 -0.2094
15789TIP3    H168782   1.624   5.309  14.823  1.3523  1.3921 -0.9973
15789TIP3    H268783   1.726   5.221  14.752  0.3317 -0.8790  0.2381
15790TIP3   OH268784   1.567   2.392  13.779  0.3851  0.0694  0.3583
15790TIP3    H168785   1.556   2.487  13.780 -1.9506 -0.1435  1.0808
15790TIP3    H268786   1.635   2.375  13.845  0.7640  1.2082  0.2816
15791TIP3   OH268787   3.511   5.168  15.707 -0.0496 -0.5909  0.0247
15791TIP3    H168788   3.550   5.225  15.774  0.8189 -2.0960  0.8389
15791TIP3    H268789   3.420   5.195  15.704 -0.0794 -0.3818  1.7300
15792TIP3   OH268790   4.835   4.705  16.540  0.1934 -0.2725  0.2779
15792TIP3    H168791   4.843   4.786  16.589 -1.7058  1.6312 -2.2671
15792TIP3    H268792   4.849   4.730  16.449  2.2900 -3.3735 -0.4330
15793TIP3   OH268793   0.428   5.321   4.476 -0.2983  0.6038  0.3558
15793TIP3    H168794   0.357   5.288   4.530 -0.8307  1.3503  0.1285
15793TIP3    H268795   0.387   5.340   4.391  0.3162  0.3829  0.0007
15794TIP3   OH268796   2.570   6.655   3.949  0.2007  0.0995  0.2225
15794TIP3    H168797   2.646   6.681   4.002  0.1121 -1.7020  1.3352
15794TIP3    H268798   2.513   6.732   3.949  1.3775  1.0006  0.5735
15795TIP3   OH268799   6.428   4.535  16.169  0.4096  0.3138  0.0448
15795TIP3    H168800   6.444   4.457  16.222  0.7957  0.0858 -0.4003
15795TIP3    H268801   6.494   4.598  16.199 -0.2164  0.6540  0.7499
15796TIP3   OH268802   3.777   6.659   2.073 -0.4592  0.3434  0.0173
15796TIP3    H168803   3.685   6.634   2.081 -0.1428 -1.0162 -0.2584
15796TIP3    H268804   3.816   6.588   2.023  0.7689  0.8312  0.2586
15797TIP3   OH268805   2.071   6.163  14.296 -0.3509 -0.6218  0.3668
15797TIP3    H168806   2.162   6.159  14.268 -0.5258  0.6265 -0.4562
15797TIP3    H268807   2.051   6.074  14.325  0.6498 -1.3177 -0.9523
15798TIP3   OH268808   6.168   6.091   1.409  0.3224  0.4326  0.0515
15798TIP3    H168809   6.130   6.007   1.384  1.9547 -0.5647  0.8098
15798TIP3    H268810   6.099   6.155   1.388 -1.4046 -1.1824  0.5385
15799TIP3   OH268811   2.968   2.702   5.010 -0.0280 -0.3035 -0.0946
15799TIP3    H168812   3.047   2.663   5.047 -0.0615  0.8246  1.2439
15799TIP3    H268813   2.896   2.669   5.064 -0.5220 -1.3815 -1.3478
15800TIP3   OH268814   1.415   4.102  16.039 -0.0464  0.5086  0.5934
15800TIP3    H168815   1.431   4.030  15.978  0.2446  0.1294  1.1022
15800TIP3    H268816   1.320   4.104  16.051 -0.7360  3.6138 -3.4837
15801TIP3   OH268817   3.286   5.930  14.370  0.6850 -0.0580 -0.0517
15801TIP3    H168818   3.227   6.004  14.388  2.0886  1.6329 -1.9993
15801TIP3    H268819   3.347   5.931  14.443 -0.6208 -0.7550  1.1014
15802TIP3   OH268820   0.754   0.164   1.021  0.3172 -0.4030 -0.3356
15802TIP3    H168821   0.702   0.124   0.950 -0.3522  0.1263 -0.1596
15802TIP3    H268822   0.845   0.146   0.997  0.1299  0.1409 -1.5745
15803TIP3   OH268823   4.915   4.985  12.589  0.7208  0.0989 -0.2087
15803TIP3    H168824   4.981   4.979  12.658 -0.7714  0.3329  1.3115
15803TIP3    H268825   4.895   5.079  12.584  1.0209  0.1193 -1.1987
15804TIP3   OH268826   6.531   3.499   3.748 -0.5127 -0.2638 -0.4542
15804TIP3    H168827   6.502   3.583   3.713  2.6902  0.9507 -0.6033
15804TIP3    H268828   6.616   3.484   3.705 -1.0483 -3.7189 -0.5819
15805TIP3   OH268829   5.853   5.479  15.509  0.2684  0.0378 -0.1821
15805TIP3    H168830   5.825   5.468  15.600  0.0256  0.3216 -0.2191
15805TIP3    H268831   5.780   5.526  15.467  1.0783  1.4012 -0.1230
15806TIP3   OH268832   1.524   0.203   1.883  0.4654  0.5126  0.4332
15806TIP3    H168833   1.613   0.221   1.853  0.7483  0.2935  1.1067
15806TIP3    H268834   1.497   0.127   1.832  1.3939 -0.6086  1.5370
15807TIP3   OH268835   6.073   5.552   5.748  0.1027  0.3981 -0.1941
15807TIP3    H168836   6.034   5.613   5.810  1.7152  0.4172  0.8469
15807TIP3    H268837   6.005   5.486   5.733 -0.0834 -0.0125  2.1542
15808TIP3   OH268838   6.135   4.017   5.024  0.1667  0.5403  0.3617
15808TIP3    H168839   6.172   3.930   5.038 -0.5307  0.0171 -0.8295
15808TIP3    H268840   6.071   4.027   5.094  1.0638  0.5884  1.1932
15809TIP3   OH268841   0.585   2.022   2.139 -0.4288 -0.8039  0.6368
15809TIP3    H168842   0.631   1.962   2.198 -0.0005 -0.9983  0.1126
15809TIP3    H268843   0.644   2.096   2.128 -0.9194 -0.3126  1.2087
15810TIP3   OH268844   3.407   0.020  12.998 -0.5120 -0.4728 -0.9776
15810TIP3    H168845   3.353   0.097  12.979  0.3205  0.4089  0.0668
15810TIP3    H268846   3.485   0.031  12.944  0.2428  0.1914  0.1807
15811TIP3   OH268847   2.595   3.744  11.228 -0.2934  0.4318  0.2054
15811TIP3    H168848   2.580   3.667  11.174  0.4165 -0.5394  1.3435
15811TIP3    H268849   2.689   3.758  11.224 -0.0207 -0.4660  2.1886
15812TIP3   OH268850   4.701   6.746   0.465  0.2743  0.2994  0.3472
15812TIP3    H168851   4.741   6.765   0.380  0.7584 -0.2699  0.4411
15812TIP3    H268852   4.667   6.831   0.495 -1.1983  0.2478 -1.0538
15813TIP3   OH268853   2.365   4.916  13.862 -0.2174  0.9136  0.5405
15813TIP3    H168854   2.297   4.984  13.852 -2.3486 -0.8809  1.8363
15813TIP3    H268855   2.386   4.918  13.956  0.2224  0.2529  0.4599
15814TIP3   OH268856   5.124   0.918  15.651 -0.1464  0.1736  0.6158
15814TIP3    H168857   5.047   0.966  15.620  0.3841 -0.4093 -1.7972
15814TIP3    H268858   5.105   0.826  15.632  1.7758  0.1527 -1.8246
15815TIP3   OH268859   4.496   4.418   3.233 -0.0949  0.9004  0.2580
15815TIP3    H168860   4.461   4.472   3.162 -1.2595  0.0436  0.1643
15815TIP3    H268861   4.427   4.416   3.298  0.6887  1.0801  1.1064
15816TIP3   OH268862   6.455   0.952  14.096 -0.0677  0.4081 -0.3411
15816TIP3    H168863   6.544   0.965  14.066  0.8785 -1.2380  1.5286
15816TIP3    H268864   6.422   0.878  14.045 -0.0001  0.3408 -0.2860
15817TIP3   OH268865   2.489   4.973  11.081  0.4785  0.1020  0.3283
15817TIP3    H168866   2.446   5.035  11.022  1.3908  1.2773  0.8649
15817TIP3    H268867   2.573   4.955  11.039  0.9822  0.6717  1.0690
15818TIP3   OH268868   1.830   2.044   5.024 -0.7459  0.0365 -0.2234
15818TIP3    H168869   1.807   2.111   5.089  0.2352  1.0456 -0.8798
15818TIP3    H268870   1.749   2.028   4.977 -0.9743  0.8643 -0.1318
15819TIP3   OH268871   0.347   2.589   2.817 -0.4655  0.5348  0.2098
15819TIP3    H168872   0.356   2.524   2.887  0.4054  0.3957 -0.0183
15819TIP3    H268873   0.350   2.673   2.863  1.4110  0.4899  0.2594
15820TIP3   OH268874   1.167   2.129   0.153 -0.0330 -0.3965  0.4992
15820TIP3    H168875   1.166   2.036   0.178 -0.4805  0.1139  2.5952
15820TIP3    H268876   1.080   2.145   0.118  0.5266 -1.0811 -1.3071
15821TIP3   OH268877   4.300   1.853   5.769  0.1156 -0.2509 -0.2544
15821TIP3    H168878   4.223   1.802   5.794  1.9522 -2.0544  2.1617
15821TIP3    H268879   4.323   1.903   5.847 -0.0233  2.3419 -1.7416
15822TIP3   OH268880   0.994   5.999  14.295 -0.5432 -0.1680  0.3464
15822TIP3    H168881   0.978   5.966  14.384 -0.2794 -0.6874  0.2080
15822TIP3    H268882   1.050   5.932  14.255 -2.6359 -1.2000 -1.0509
15823TIP3   OH268883   4.739   6.498  17.154 -0.1839 -0.1792 -0.3836
15823TIP3    H168884   4.720   6.560  17.085  1.4100  0.9775  0.1531
15823TIP3    H268885   4.753   6.415  17.109 -2.7807 -0.3217 -1.0730
15824TIP3   OH268886   4.502   1.745   5.590  0.3997  0.2483 -0.6439
15824TIP3    H168887   4.430   1.744   5.654  1.0202 -1.3825  0.0677
15824TIP3    H268888   4.580   1.760   5.643  0.6916  1.4048 -1.3493
15825TIP3   OH268889   4.376   4.520  14.141  0.0859 -0.2740  0.1746
15825TIP3    H168890   4.381   4.425  14.128 -1.5649 -0.1902 -1.5726
15825TIP3    H268891   4.461   4.553  14.110  1.5224 -1.2784  2.7550
15826TIP3   OH268892   0.176   1.647  16.754  0.1495  0.4129  0.0351
15826TIP3    H168893   0.103   1.648  16.691  0.5841  0.7806 -0.4711
15826TIP3    H268894   0.252   1.673  16.702  0.4935  0.8475  0.7471
15827TIP3   OH268895   5.202   5.534  12.404  0.3737  0.2841 -0.6013
15827TIP3    H168896   5.203   5.522  12.309  1.4700 -0.5487 -0.5099
15827TIP3    H268897   5.109   5.537  12.427 -0.0771  3.9534 -2.0678
15828TIP3   OH268898   2.084   5.630   2.997 -0.5785  0.0699 -0.2069
15828TIP3    H168899   2.052   5.557   3.050 -4.6325  1.1930 -0.7638
15828TIP3    H268900   2.132   5.686   3.059 -2.7955 -0.0255  1.7453
15829TIP3   OH268901   2.545   4.812  15.445  0.1735  0.1109 -0.9054
15829TIP3    H168902   2.636   4.839  15.452 -0.1855  1.5150 -1.3165
15829TIP3    H268903   2.528   4.810  15.350  0.5165 -2.8580 -0.9895
15830TIP3   OH268904   4.702   5.708  12.789  0.4001 -0.0815 -0.2653
15830TIP3    H168905   4.623   5.761  12.783  0.0138 -0.6587 -0.3191
15830TIP3    H268906   4.747   5.741  12.867 -0.0366  0.0509 -0.0675
15831TIP3   OH268907   4.325   4.385   1.629 -0.1272  0.1506 -0.1206
15831TIP3    H168908   4.381   4.456   1.662  2.9633 -0.1086 -4.0595
15831TIP3    H268909   4.240   4.426   1.616  0.2857  1.8381  1.8887
15832TIP3   OH268910   3.592   6.374  16.976  0.7340  0.4024 -0.5044
15832TIP3    H168911   3.646   6.445  16.942  1.0064 -0.2061 -1.4001
15832TIP3    H268912   3.570   6.322  16.898  0.8450 -0.6928  0.1836
15833TIP3   OH268913   2.912   3.598   1.708 -0.3317 -0.4209 -0.0380
15833TIP3    H168914   2.995   3.578   1.664  0.5272  1.4876  0.5964
15833TIP3    H268915   2.854   3.625   1.636  0.3424  0.4507 -0.2828
15834TIP3   OH268916   6.690   2.368   0.964  0.3042  0.6115  0.0295
15834TIP3    H168917   6.662   2.459   0.952 -0.4931  0.3359 -0.2934
15834TIP3    H268918   6.680   2.352   1.057  0.9783  1.0153  0.1794
15835TIP3   OH268919   6.103   2.267  16.163  0.3035  0.1983  0.5822
15835TIP3    H168920   6.171   2.314  16.116 -0.9112  1.6266  0.1999
15835TIP3    H268921   6.126   2.174  16.153  0.9041  0.5414 -1.5216
15836TIP3   OH268922   1.688   2.809   0.536 -0.3286  0.3772  0.5016
15836TIP3    H168923   1.612   2.845   0.582  0.3136  0.8035  1.2750
15836TIP3    H268924   1.744   2.774   0.606 -0.3087 -0.9209 -0.1430
15837TIP3   OH268925   1.437   1.575   1.931  0.2192 -0.5300 -0.2553
15837TIP3    H168926   1.450   1.558   1.838  2.1829 -0.8513  0.0224
15837TIP3    H268927   1.390   1.498   1.963  1.3659 -1.4203 -0.6302
15838TIP3   OH268928   5.959   6.377   3.431 -0.0676 -0.7966 -0.0436
15838TIP3    H168929   6.033   6.333   3.475 -0.4805 -1.8607 -0.3750
15838TIP3    H268930   5.884   6.355   3.486 -0.5666 -2.0135 -1.1818
15839TIP3   OH268931   2.923   3.961  16.552  0.1685 -0.0103 -0.5287
15839TIP3    H168932   2.827   3.959  16.547  0.2050 -1.7588 -1.6564
15839TIP3    H268933   2.942   3.964  16.645 -1.0429 -1.5771 -0.1718
15840TIP3   OH268934   1.942   5.548  14.787 -0.1443  0.0630 -0.5900
15840TIP3    H168935   1.852   5.523  14.805  0.2334 -0.9118  0.0002
15840TIP3    H268936   1.989   5.465  14.779  1.0085  0.5526  0.7372
15841TIP3   OH268937   2.584   4.819   1.077  0.7783  0.1556  0.3673
15841TIP3    H168938   2.555   4.886   1.140  2.1867  0.9373  0.2294
15841TIP3    H268939   2.607   4.869   0.999  2.7150 -0.3469  0.5597
15842TIP3   OH268940   0.181   1.335   1.893  0.2360  0.0404  0.8837
15842TIP3    H168941   0.247   1.396   1.926  1.1446 -0.4194 -0.0228
15842TIP3    H268942   0.198   1.331   1.799 -0.8531 -0.3832  0.6886
15843TIP3   OH268943   2.753   4.951   0.543  0.0948 -0.0626 -0.8932
15843TIP3    H168944   2.845   4.931   0.525  0.2051 -0.5277  0.0730
15843TIP3    H268945   2.750   5.046   0.552  0.9632 -0.1739  1.2703
15844TIP3   OH268946   6.494   4.157   2.805  0.0251  0.3983 -0.1290
15844TIP3    H168947   6.501   4.115   2.891  1.0534  1.5240  0.3545
15844TIP3    H268948   6.443   4.236   2.821 -1.1852 -0.1935 -0.8855
15845TIP3   OH268949   0.492   0.568   1.769  0.5248  0.2368 -0.1727
15845TIP3    H168950   0.436   0.490   1.768 -0.9167  1.2291 -1.3383
15845TIP3    H268951   0.490   0.599   1.678  1.4674  1.3603  0.1786
15846TIP3   OH268952   4.206   3.294  13.290  0.0631  0.4527 -0.0776
15846TIP3    H168953   4.258   3.361  13.333 -0.1222  0.1701  0.5998
15846TIP3    H268954   4.269   3.225  13.268  0.2171  0.7490 -0.5852
15847TIP3   OH268955   3.446   2.122  11.679  0.2015  0.1203  0.0254
15847TIP3    H168956   3.435   2.111  11.774  0.9999 -1.2918 -0.0224
15847TIP3    H268957   3.506   2.195  11.670 -1.3426  1.5050  0.5379
15848TIP3   OH268958   5.694   4.491  16.822 -0.2300 -0.2226 -0.1883
15848TIP3    H168959   5.746   4.412  16.813 -0.8239 -0.8720  1.6873
15848TIP3    H268960   5.610   4.461  16.858 -0.5062  1.2324  0.4547
15849TIP3   OH268961   5.945   3.223  13.707  0.1265 -0.0470 -0.2117
15849TIP3    H168962   5.983   3.143  13.669  0.8230 -0.2291  0.8529
15849TIP3    H268963   5.851   3.204  13.711  0.3137 -0.9481  0.3121
15850TIP3   OH268964   1.851   3.611  14.541  0.0546 -0.0794 -0.2716
15850TIP3    H168965   1.820   3.663  14.615  0.1261 -0.2367 -0.1335
15850TIP3    H268966   1.811   3.525  14.553  0.0240 -0.0900 -0.4442
15851TIP3   OH268967   3.687   4.217   3.879 -0.0865  0.2081  0.3423
15851TIP3    H168968   3.746   4.242   3.951  0.7871 -0.0377 -0.2691
15851TIP3    H268969   3.733   4.243   3.800 -0.6192 -0.3641 -0.1694
15852TIP3   OH268970   0.326   0.322  13.313  0.6387  0.2179 -0.3340
15852TIP3    H168971   0.291   0.380  13.246 -0.1485  0.3634  0.1957
15852TIP3    H268972   0.393   0.374  13.358 -1.8749  1.7740  1.9339
15853TIP3   OH268973   4.535   0.352  13.191 -0.5208 -0.2524 -0.3077
15853TIP3    H168974   4.449   0.351  13.149 -1.7437  3.5066  1.5798
15853TIP3    H268975   4.522   0.305  13.274 -0.1501 -1.3501 -0.8514
15854TIP3   OH268976   4.824   0.239  14.831 -0.5832 -0.5653 -0.1125
15854TIP3    H168977   4.752   0.285  14.789  0.2841 -0.1956 -1.2500
15854TIP3    H268978   4.900   0.294  14.815 -0.0120 -1.0210  0.9362
15855TIP3   OH268979   0.423   0.742  10.966  0.6767  0.3218  0.4459
15855TIP3    H168980   0.354   0.754  10.901  0.4681  2.1107  0.9577
15855TIP3    H268981   0.423   0.648  10.983 -0.1560 -0.0074 -1.1530
15856TIP3   OH268982   6.633   1.688   0.255 -0.5104 -0.2576 -0.7597
15856TIP3    H168983   6.564   1.739   0.298  0.6306  0.8567 -0.1997
15856TIP3    H268984   6.608   1.688   0.162 -0.5326  1.3520 -0.7809
15857TIP3   OH268985   1.395   1.900  13.504 -0.0724 -0.0361 -0.2818
15857TIP3    H168986   1.458   1.853  13.558 -0.1380  1.2303  0.9572
15857TIP3    H268987   1.446   1.931  13.429  0.6384  0.4331  0.3826
15858TIP3   OH268988   0.575   2.039  12.662  0.7625 -0.0125 -0.7031
15858TIP3    H168989   0.491   2.021  12.620  0.2368  0.5525  0.0866
15858TIP3    H268990   0.639   1.990  12.610 -0.0521 -0.4534 -1.3047
15859TIP3   OH268991   1.417   0.790  13.066 -0.0195  0.0734  0.1822
15859TIP3    H168992   1.329   0.805  13.101 -0.4319  0.3216 -0.8969
15859TIP3    H268993   1.420   0.846  12.987  0.9640 -0.2302 -0.0036
15860TIP3   OH268994   4.293   3.446  11.307 -0.4643  0.2959  0.2414
15860TIP3    H168995   4.379   3.412  11.285 -0.0999  0.1605  1.7901
15860TIP3    H268996   4.270   3.403  11.390 -1.2364  1.6515  0.7617
15861TIP3   OH268997   4.206   0.006  15.236 -0.3633 -0.0331 -0.1846
15861TIP3    H168998   4.247   0.015  15.149  2.1661 -1.6189  0.7241
15861TIP3    H268999   4.230   0.086  15.282 -1.6841  0.7989 -0.8797
15862TIP3   OH269000   1.071   4.750  11.369  0.1926 -0.1962 -0.7997
15862TIP3    H169001   1.099   4.745  11.278 -0.7408  2.4647 -1.3359
15862TIP3    H269002   1.145   4.717  11.420  1.8438  0.8813 -2.4218
15863TIP3   OH269003   5.207   0.099   3.882 -0.0730 -0.3905 -0.0571
15863TIP3    H169004   5.189   0.103   3.789  0.4767  1.0165 -0.1225
15863TIP3    H269005   5.285   0.044   3.890  0.1134 -0.1873 -0.4737
15864TIP3   OH269006   2.584   5.011  12.761  0.4279 -0.3382 -0.0317
15864TIP3    H169007   2.512   5.059  12.802  0.2273 -0.2836 -0.4469
15864TIP3    H269008   2.605   4.942  12.824 -0.2103 -0.5585 -0.0568
15865TIP3   OH269009   5.283   5.678   3.316  0.5752  0.3558 -0.2493
15865TIP3    H169010   5.351   5.746   3.314  0.4079  0.5127 -0.5967
15865TIP3    H269011   5.226   5.704   3.389 -0.6082  1.6919 -1.5757
15866TIP3   OH269012   4.271   5.681  14.716  0.9566  0.1839  0.2631
15866TIP3    H169013   4.327   5.658  14.790  0.0123 -1.2902  0.5570
15866TIP3    H269014   4.208   5.610  14.711 -0.5068  1.4769 -0.4508
15867TIP3   OH269015   1.672   1.900  11.540 -0.0365  0.2349 -0.4142
15867TIP3    H169016   1.755   1.926  11.579 -0.7554  0.1729  1.2146
15867TIP3    H269017   1.686   1.809  11.515  0.5712  0.4012 -0.7168
15868TIP3   OH269018   5.745   6.679  12.796  0.0999 -0.4990 -0.0781
15868TIP3    H169019   5.830   6.721  12.784 -0.2907  0.1325 -0.6545
15868TIP3    H269020   5.681   6.748  12.781 -0.5139 -0.2685  3.0639
15869TIP3   OH269021   4.278   3.840   0.861  0.0041  0.0767  0.1887
15869TIP3    H169022   4.297   3.748   0.846 -1.9678 -0.2767 -0.3655
15869TIP3    H269023   4.361   3.876   0.894  0.5859 -2.0507  1.2312
15870TIP3   OH269024   4.864   3.954   2.064 -0.0249 -0.1817 -0.0327
15870TIP3    H169025   4.806   3.886   2.100  0.3901 -1.1348 -1.0786
15870TIP3    H269026   4.845   3.953   1.970 -0.3325  1.5042 -0.0245
15871TIP3   OH269027   4.830   2.394   3.064  0.4569  0.6207 -0.1761
15871TIP3    H169028   4.738   2.416   3.048  0.4550  0.3668 -0.5434
15871TIP3    H269029   4.835   2.381   3.159 -0.6408 -2.5248 -0.4141
15872TIP3   OH269030   1.261   6.542  14.038  0.1622  0.3799 -0.0300
15872TIP3    H169031   1.216   6.490  14.104 -0.6737  1.0731 -0.0326
15872TIP3    H269032   1.292   6.477  13.974  0.7652 -0.2715  0.8982
15873TIP3   OH269033   0.835   3.168   1.551 -0.7460 -0.2520 -0.0079
15873TIP3    H169034   0.911   3.118   1.520 -1.5753 -0.9628 -0.9508
15873TIP3    H269035   0.871   3.227   1.618  0.5420 -0.9368 -0.0610
15874TIP3   OH269036   5.045   5.039  12.347  0.4218 -0.3264 -0.2195
15874TIP3    H169037   4.980   5.039  12.418  1.8359 -0.2195  1.1210
15874TIP3    H269038   5.034   5.124  12.305  1.8675  1.1532  2.1373
15875TIP3   OH269039   5.479   2.474  10.987  0.0539 -0.3125 -0.4293
15875TIP3    H169040   5.500   2.384  11.012  0.7242 -0.4509 -1.4207
15875TIP3    H269041   5.453   2.468  10.895 -2.1252  0.2106  0.0870
15876TIP3   OH269042   1.752   2.934   2.678 -0.2733  0.5194 -0.0865
15876TIP3    H169043   1.758   3.013   2.731  1.4625  0.2148  0.2254
15876TIP3    H269044   1.804   2.869   2.725 -0.1184 -0.2541 -1.2884
15877TIP3   OH269045   5.460   2.349  13.577 -0.3013  0.0464  0.2614
15877TIP3    H169046   5.461   2.290  13.653 -0.3936 -1.9633 -1.1918
15877TIP3    H269047   5.403   2.421  13.603 -1.6277 -1.3848  1.5637
15878TIP3   OH269048   3.790   0.585  12.442 -0.6353 -0.0346  0.0071
15878TIP3    H169049   3.708   0.633  12.455  0.1830  0.8059  2.6812
15878TIP3    H269050   3.832   0.628  12.368 -2.2961 -0.0960 -1.0250
15879TIP3   OH269051   4.247   1.635   2.544 -0.6408  0.3625 -0.4088
15879TIP3    H169052   4.273   1.673   2.460 -1.5618  2.2661  0.1169
15879TIP3    H269053   4.329   1.630   2.594 -0.4126  1.1545 -0.6916
15880TIP3   OH269054   1.389   5.154   3.778  0.6845 -0.2483  0.2574
15880TIP3    H169055   1.426   5.124   3.861 -0.2432  0.6794  1.0187
15880TIP3    H269056   1.427   5.240   3.765  0.1331 -0.0157  0.1692
15881TIP3   OH269057   2.177   3.092   1.941 -0.3528 -0.0901 -0.0738
15881TIP3    H169058   2.264   3.060   1.915 -0.0534  0.5144  0.1785
15881TIP3    H269059   2.193   3.178   1.980 -1.3405  1.1502 -2.2472
15882TIP3   OH269060   2.261   5.500   4.599  0.5997 -0.6834  0.0710
15882TIP3    H169061   2.173   5.471   4.577  0.8604 -1.2630 -0.1987
15882TIP3    H269062   2.318   5.426   4.580  1.2796  0.0006 -0.6839
15883TIP3   OH269063   2.279   6.029  14.112  0.1744 -0.3604 -0.2214
15883TIP3    H169064   2.370   6.044  14.087  0.4162 -1.4986 -0.1068
15883TIP3    H269065   2.281   5.948  14.163 -1.1113 -1.3215 -1.5888
15884TIP3   OH269066   5.030   3.406   4.066 -0.0077  0.3266  0.7925
15884TIP3    H169067   4.964   3.430   4.001  0.3652 -1.0412 -0.1093
15884TIP3    H269068   5.100   3.469   4.054  0.5605 -0.5913 -0.9222
15885TIP3   OH269069   2.911   0.868  13.528  0.5573 -0.4496  0.4428
15885TIP3    H169070   2.914   0.823  13.444 -0.6744  1.7311 -0.8817
15885TIP3    H269071   2.818   0.885  13.543  0.9485  1.8114  0.6925
15886TIP3   OH269072   4.959   6.380   4.669 -0.5048  0.1372 -0.5374
15886TIP3    H169073   4.940   6.451   4.730 -1.6828  0.3536 -1.1172
15886TIP3    H269074   4.945   6.419   4.583  0.5109 -0.3383 -0.9244
15887TIP3   OH269075   2.354   5.225  14.113  0.6913  0.2543 -0.4653
15887TIP3    H169076   2.361   5.320  14.119 -0.5491  0.4689 -1.8380
15887TIP3    H269077   2.297   5.210  14.038  0.3958 -1.5701  0.0799
15888TIP3   OH269078   1.446   3.373   5.734  0.4062  0.2005 -0.0469
15888TIP3    H169079   1.490   3.371   5.649  0.2267 -0.3924 -0.1285
15888TIP3    H269080   1.429   3.466   5.749  1.1095  0.3821 -0.3098
15889TIP3   OH269081   4.431   4.387   2.749  0.4881  0.1860  0.1127
15889TIP3    H169082   4.493   4.358   2.682  1.8556  0.4905  1.2072
15889TIP3    H269083   4.422   4.311   2.806  1.2612  0.7059  0.9523
15890TIP3   OH269084   4.290   5.284  12.537  0.1239  0.2211  0.4228
15890TIP3    H169085   4.346   5.288  12.459 -0.0006 -0.4382  0.2985
15890TIP3    H269086   4.248   5.199  12.532  0.8975 -0.2634  1.7540
15891TIP3   OH269087   0.973   3.099  12.852 -0.1169 -0.3879 -0.1747
15891TIP3    H169088   0.881   3.128  12.852 -0.1291 -0.3828 -1.3855
15891TIP3    H269089   0.971   3.015  12.806  0.4818 -0.3973 -0.1816
15892TIP3   OH269090   0.317   6.442   0.041  0.2970  0.2987  0.4291
15892TIP3    H169091   0.404   6.431   0.002  0.5027 -1.1726  1.2353
15892TIP3    H269092   0.326   6.517   0.100  0.4281  1.4756 -1.0132
15893TIP3   OH269093   4.120   0.039   5.986 -0.0078  0.1380  0.0535
15893TIP3    H169094   4.213   0.055   5.970 -0.1224  0.4776 -0.2980
15893TIP3    H269095   4.108  -0.054   5.965  0.1112  0.2637 -0.6153
15894TIP3   OH269096   6.481   4.244   0.273  0.1098  1.1387  0.0243
15894TIP3    H169097   6.563   4.194   0.278 -0.1597  0.5989 -0.7246
15894TIP3    H269098   6.458   4.244   0.180 -0.4982  1.6871  0.1645
15895TIP3   OH269099   1.780   1.194  13.683 -0.2017 -0.3024  0.1755
15895TIP3    H169100   1.815   1.277  13.716 -2.2647  0.9904 -0.6967
15895TIP3    H269101   1.833   1.174  13.607  1.2508 -0.5869  1.2224
15896TIP3   OH269102   5.347   4.841  13.856  0.3077  0.5360  0.7572
15896TIP3    H169103   5.293   4.892  13.796 -0.3725 -0.0873  0.8264
15896TIP3    H269104   5.411   4.904  13.890 -0.0355  1.1594  0.2730
15897TIP3   OH269105   3.935   1.815  12.333 -0.3465  0.2698 -0.3241
15897TIP3    H169106   3.960   1.819  12.241 -0.7316  0.5053 -0.4214
15897TIP3    H269107   4.001   1.870  12.378  0.7146 -1.0207 -0.2502
15898TIP3   OH269108   6.803   5.915   3.492 -0.1061  0.0951  0.3612
15898TIP3    H169109   6.710   5.926   3.473  0.1803  0.1469 -1.0533
15898TIP3    H269110   6.813   5.821   3.510 -0.2792 -0.0570 -0.3285
15899TIP3   OH269111   6.566   4.489   3.823  0.3180  0.0454 -0.4732
15899TIP3    H169112   6.560   4.429   3.898  0.8037 -0.2013 -0.6274
15899TIP3    H269113   6.660   4.501   3.810  0.2686 -0.6966 -1.6667
15900TIP3   OH269114   5.025   3.439   4.917 -0.6246 -0.3639  0.1950
15900TIP3    H169115   5.100   3.381   4.904  0.3019 -0.0185  3.1275
15900TIP3    H269116   4.967   3.390   4.975 -1.9234  0.0048 -0.7646
15901TIP3   OH269117   2.509   2.554   3.724  0.3467 -0.3040  0.5248
15901TIP3    H169118   2.414   2.557   3.721  0.3590 -0.4988 -0.4669
15901TIP3    H269119   2.531   2.461   3.722  0.5676 -0.2463 -0.5583
15902TIP3   OH269120   3.425   4.560  12.253  0.0387  0.6193 -0.2005
15902TIP3    H169121   3.345   4.573  12.303  1.2036 -0.0008  1.9485
15902TIP3    H269122   3.478   4.637  12.272  1.3907 -0.6231  1.4508
15903TIP3   OH269123   1.538   2.758   2.751  0.2615  0.2513 -0.4551
15903TIP3    H169124   1.499   2.693   2.691  0.0036 -1.1858  1.1899
15903TIP3    H269125   1.621   2.782   2.709  0.6673 -1.6424 -0.8304
15904TIP3   OH269126   5.164   0.790  11.338  0.1446  0.6496  0.2718
15904TIP3    H169127   5.189   0.801  11.246  0.4976 -2.6213 -0.1670
15904TIP3    H269128   5.247   0.774  11.383 -0.2450 -0.6890  0.5691
15905TIP3   OH269129   0.298   4.314  15.558  0.4383 -0.3232 -0.1448
15905TIP3    H169130   0.240   4.352  15.493 -2.4010 -1.3856  1.5742
15905TIP3    H269131   0.321   4.228  15.522 -0.9057 -0.7978  0.0566
15906TIP3   OH269132   3.104   3.044   3.865  0.1042  0.2131 -0.1435
15906TIP3    H169133   3.062   2.967   3.826  1.6005 -0.4958 -0.4341
15906TIP3    H269134   3.041   3.076   3.929 -0.4001 -1.4975  0.2602
15907TIP3   OH269135   3.821   3.879   5.498  0.4643  0.5840  0.0582
15907TIP3    H169136   3.798   3.870   5.591 -0.8207 -0.5500 -0.3396
15907TIP3    H269137   3.757   3.824   5.452  1.8740  0.1102 -1.4097
15908TIP3   OH269138   0.294   2.646   1.073  0.0839  0.6948  0.0424
15908TIP3    H169139   0.340   2.610   1.149  0.3789 -0.6657 -0.7537
15908TIP3    H269140   0.203   2.619   1.086 -0.1110  1.5501  0.5333
15909TIP3   OH269141   4.547   0.209  13.479 -0.1938  0.9710 -0.2316
15909TIP3    H169142   4.585   0.288  13.517  0.0226  0.2559  1.1125
15909TIP3    H269143   4.453   0.222  13.485 -0.1777  0.6302  1.1692
15910TIP3   OH269144   4.104   0.604   4.610  0.9338 -0.4023  0.4133
15910TIP3    H169145   4.055   0.579   4.532 -0.8232  0.0632  1.3060
15910TIP3    H269146   4.166   0.532   4.624 -0.1063 -1.4707 -0.2834
15911TIP3   OH269147   6.159   0.707  15.412  0.1734 -0.2822  0.8917
15911TIP3    H169148   6.244   0.679  15.378  0.3995 -0.2682  1.4219
15911TIP3    H269149   6.135   0.783  15.358 -0.2656 -1.2477 -0.2987
15912TIP3   OH269150   5.976   5.621   4.389  0.1659  0.0670 -0.5872
15912TIP3    H169151   5.938   5.596   4.305 -0.4143 -0.1968 -0.2530
15912TIP3    H269152   6.068   5.637   4.370 -0.1387  0.8486 -1.4358
15913TIP3   OH269153   3.970   1.908   1.664  0.2893  0.4455  0.1398
15913TIP3    H169154   3.884   1.902   1.623  0.5675  0.3328 -0.4352
15913TIP3    H269155   4.015   1.979   1.617  0.0940  1.3291  1.2256
15914TIP3   OH269156   3.911   3.722  10.901  0.5578  0.1720 -0.1950
15914TIP3    H169157   3.932   3.775  10.978  0.6062  0.5745 -0.4833
15914TIP3    H269158   3.887   3.786  10.833  0.5812 -0.1753 -0.5352
15915TIP3   OH269159   4.773   2.865  16.471 -0.4225  0.2322  0.1394
15915TIP3    H169160   4.807   2.784  16.432  0.7687  0.0240  1.5354
15915TIP3    H269161   4.760   2.923  16.396  1.4663 -0.2649 -0.6437
15916TIP3   OH269162   4.698   5.188  12.628  0.3045 -0.3115 -0.4578
15916TIP3    H169163   4.633   5.119  12.615  0.2612  0.0056 -2.1517
15916TIP3    H269164   4.725   5.212  12.540  2.3013 -0.0204  0.1832
15917TIP3   OH269165   5.062   5.830  12.977 -0.2304  0.1064  0.4105
15917TIP3    H169166   5.057   5.759  13.040  2.2748  3.7601  5.3749
15917TIP3    H269167   5.151   5.826  12.942 -0.5764 -0.0417 -0.4780
15918TIP3   OH269168   1.370   5.943  17.238  0.1521 -0.1705  0.6914
15918TIP3    H169169   1.310   5.994  17.182 -2.2640 -1.8103  1.6261
15918TIP3    H269170   1.399   5.871  17.182 -2.3488 -1.8714  1.4251
15919TIP3   OH269171   5.718   5.367   4.200  0.0510  0.4892 -0.3742
15919TIP3    H169172   5.746   5.455   4.175  0.7176  0.4237  0.1233
15919TIP3    H269173   5.677   5.332   4.121  2.2889  0.1987 -1.4589
15920TIP3   OH269174   1.802   2.341   1.575  0.2934 -0.5523  0.1620
15920TIP3    H169175   1.774   2.270   1.517  1.1815 -1.4656  0.8174
15920TIP3    H269176   1.740   2.339   1.648  0.4120 -0.7571  0.2569
15921TIP3   OH269177   0.573   5.854  16.693  0.5172  0.1559  0.3510
15921TIP3    H169178   0.648   5.803  16.664  0.1834  0.0282 -0.3058
15921TIP3    H269179   0.497   5.802  16.667  0.1466  1.3445 -1.0902
15922TIP3   OH269180   3.795   4.694   1.151 -0.1961  0.0638  0.2078
15922TIP3    H169181   3.795   4.599   1.138  0.2956  0.3160 -1.8886
15922TIP3    H269182   3.707   4.714   1.184 -1.3451 -0.8179 -2.1140
15923TIP3   OH269183   5.655   3.698  16.162 -0.0024 -0.1855 -0.4136
15923TIP3    H169184   5.632   3.615  16.120  0.3466  0.3704 -1.7395
15923TIP3    H269185   5.730   3.676  16.217  2.0866 -0.2355 -3.0769
15924TIP3   OH269186   2.547   3.305  16.608  0.1387 -1.0349 -0.2113
15924TIP3    H169187   2.505   3.295  16.523  1.1520  0.8630 -1.0007
15924TIP3    H269188   2.475   3.302  16.671 -0.6770 -2.0073 -1.1654
15925TIP3   OH269189   4.836   5.516  15.423  0.0449  0.0764 -0.2129
15925TIP3    H169190   4.821   5.607  15.448  0.6712  0.3827 -0.9252
15925TIP3    H269191   4.921   5.494  15.461  0.9474  0.5029 -1.8716
15926TIP3   OH269192   4.655   0.044   1.694  0.4229 -0.0628 -0.1996
15926TIP3    H169193   4.651   0.101   1.771 -1.1628 -2.2725  1.4909
15926TIP3    H269194   4.600   0.088   1.629  1.4353  1.6337  0.0267
15927TIP3   OH269195   1.046   5.362   0.167 -0.0634  0.5586 -0.2255
15927TIP3    H169196   0.961   5.342   0.129  0.3719  0.2359 -1.0518
15927TIP3    H269197   1.038   5.453   0.196 -0.2861  0.9664 -1.4827
15928TIP3   OH269198   4.906   6.454  16.085  0.4570 -0.5242 -0.0538
15928TIP3    H169199   4.883   6.538  16.045 -0.9572 -0.8033  0.1561
15928TIP3    H269200   4.990   6.431  16.043  1.5387  1.5692  0.7877
15929TIP3   OH269201   3.197   6.025  15.865  0.7292 -0.1046  0.2913
15929TIP3    H169202   3.134   6.037  15.936  0.3585  1.0234 -0.2058
15929TIP3    H269203   3.265   6.089  15.883  1.2384 -0.6351  0.2742
15930TIP3   OH269204   5.113   0.093   1.722  0.6509 -0.1798  0.2079
15930TIP3    H169205   5.038   0.073   1.665  1.1287  1.3950 -1.0498
15930TIP3    H269206   5.142   0.007   1.753 -3.5826 -0.8166  3.4528
15931TIP3   OH269207   0.704   0.866  12.610  0.8683 -0.4026 -0.2920
15931TIP3    H169208   0.694   0.947  12.661  0.8016  0.1645 -1.1794
15931TIP3    H269209   0.738   0.802  12.673  2.9991  0.8849 -0.0063
15932TIP3   OH269210   1.010   3.780   5.887 -0.3226 -0.1852  0.1927
15932TIP3    H169211   1.082   3.835   5.858 -0.6973  0.5059  0.5442
15932TIP3    H269212   0.975   3.824   5.965 -0.5232 -1.0097  0.5878
15933TIP3   OH269213   4.901   3.887  16.735 -0.0516  0.2302  0.2246
15933TIP3    H169214   4.942   3.900  16.821 -0.8532 -1.4712  0.9027
15933TIP3    H269215   4.810   3.912  16.748 -0.1754 -0.0249 -0.1271
15934TIP3   OH269216   0.831   5.079  11.906 -0.1231 -0.1860  0.3128
15934TIP3    H169217   0.738   5.058  11.912 -0.0324 -1.0406 -0.9282
15934TIP3    H269218   0.850   5.078  11.812  0.9510  0.8578  0.4915
15935TIP3   OH269219   6.598   5.057   4.233 -0.7344  0.2133  0.1460
15935TIP3    H169220   6.574   5.103   4.314 -0.9222  0.0474  0.1845
15935TIP3    H269221   6.691   5.077   4.221 -0.1351 -1.4889  1.5422
15936TIP3   OH269222   1.104   6.490   5.135  0.3293 -0.0296 -0.2488
15936TIP3    H169223   1.161   6.483   5.211 -0.3246  0.0814  0.2667
15936TIP3    H269224   1.151   6.547   5.074  1.5725 -1.3938 -0.6102
15937TIP3   OH269225   2.941   2.004   3.027 -0.5140 -0.0094 -0.0115
15937TIP3    H169226   2.874   2.032   3.089 -1.6335  1.3683 -1.7314
15937TIP3    H269227   3.000   2.079   3.020  0.5721 -0.7746  0.5967
15938TIP3   OH269228   1.176   6.222   6.324  0.1574  0.2442 -0.2999
15938TIP3    H169229   1.229   6.162   6.377  0.8752  1.0042 -0.1356
15938TIP3    H269230   1.214   6.217   6.237  1.9374  2.3408  0.2471
15939TIP3   OH269231   1.555   3.032   1.246 -0.1532  0.1126  0.2961
15939TIP3    H169232   1.546   2.995   1.334  1.1398 -0.3354  0.2704
15939TIP3    H269233   1.637   3.082   1.250  1.0698 -1.6545 -1.2092
15940TIP3   OH269234   4.613   4.301  12.124  0.5170  0.0729 -0.0217
15940TIP3    H169235   4.552   4.230  12.143 -1.4761  1.3690 -1.1477
15940TIP3    H269236   4.662   4.272  12.047 -1.5194  0.5443 -1.5677
15941TIP3   OH269237   5.138   6.267   3.621  0.6448  0.0036 -0.1161
15941TIP3    H169238   5.209   6.218   3.580  1.0665 -0.0848  0.7131
15941TIP3    H269239   5.090   6.306   3.547  2.4924  1.3879 -0.6624
15942TIP3   OH269240   1.785   3.358  15.418 -0.3685  0.0789 -0.2590
15942TIP3    H169241   1.820   3.406  15.493 -0.4847 -0.3110  0.0533
15942TIP3    H269242   1.722   3.296  15.457 -0.6524  0.0775 -0.7080
15943TIP3   OH269243   4.766   3.082   4.139 -0.1502  0.0172 -0.1913
15943TIP3    H169244   4.742   2.989   4.145  2.0561 -0.5675  0.8504
15943TIP3    H269245   4.805   3.102   4.225  2.4836  0.9165 -1.4790
15944TIP3   OH269246   1.795   3.768  11.000 -0.5392 -0.2330 -0.0286
15944TIP3    H169247   1.842   3.844  11.034 -0.1594 -1.1354  1.5921
15944TIP3    H269248   1.725   3.805  10.946 -1.1428  1.3477  1.7080
15945TIP3   OH269249   5.825   6.193  13.524  0.1362 -0.5537  0.1015
15945TIP3    H169250   5.804   6.217  13.434  1.5163 -0.0187 -0.1028
15945TIP3    H269251   5.822   6.276  13.572 -0.5523 -0.8307  0.5463
15946TIP3   OH269252   2.270   3.096   2.530 -0.4392  0.0652  1.2467
15946TIP3    H169253   2.313   3.181   2.519 -0.6311 -0.0045 -0.2573
15946TIP3    H269254   2.342   3.033   2.534 -0.3135 -0.0481 -1.2367
15947TIP3   OH269255   1.246   0.023  13.962  0.0577 -0.2163  0.3013
15947TIP3    H169256   1.219   0.086  14.028 -0.6028  0.4530 -0.5772
15947TIP3    H269257   1.224  -0.063  13.999  1.2617  0.0208  1.6427
15948TIP3   OH269258   5.090   2.900  16.634 -0.0435  0.4164 -0.8652
15948TIP3    H169259   5.035   2.913  16.711 -0.1850  1.9127 -1.1946
15948TIP3    H269260   5.042   2.835  16.582 -0.9684  0.8960 -0.6431
15949TIP3   OH269261   4.118   3.494   1.707 -0.0783  0.2586 -0.2596
15949TIP3    H169262   4.122   3.439   1.785  2.6504  0.7104  0.0310
15949TIP3    H269263   4.119   3.583   1.740  1.8388  0.4603 -0.7644
15950TIP3   OH269264   2.756   4.377  15.871 -0.0919 -0.0735 -0.1010
15950TIP3    H169265   2.786   4.380  15.962 -1.8336  0.7123  0.4887
15950TIP3    H269266   2.693   4.305  15.869 -0.0133 -0.1289 -0.7034
15951TIP3   OH269267   2.973   2.499  11.054 -0.8523  0.8711 -0.1508
15951TIP3    H169268   3.046   2.560  11.041  1.6735 -1.3616  2.3193
15951TIP3    H269269   2.973   2.444  10.975  0.8893  0.2484  0.2419
15952TIP3   OH269270   1.002   3.253   3.101  0.1859 -0.2656 -0.0298
15952TIP3    H169271   1.087   3.292   3.120  0.2411  0.5675 -1.8159
15952TIP3    H269272   0.965   3.307   3.031 -1.0339 -1.6609 -0.5223
15953TIP3   OH269273   1.739   1.883  13.932 -0.4609 -0.5300 -0.0309
15953TIP3    H169274   1.809   1.923  13.984 -0.8791 -0.5253  0.5405
15953TIP3    H269275   1.719   1.949  13.866 -0.1740 -0.3816  0.0268
15954TIP3   OH269276   4.156   5.787   0.104  0.4653  0.2582  0.0976
15954TIP3    H169277   4.112   5.755   0.025 -0.2258 -2.1505  1.3461
15954TIP3    H269278   4.243   5.747   0.100  0.0305 -0.8484  1.0634
15955TIP3   OH269279   1.365   0.652  15.479  0.0074  0.1845 -0.3963
15955TIP3    H169280   1.372   0.676  15.571  0.5259  1.2493 -0.6914
15955TIP3    H269281   1.404   0.726  15.432 -0.4442 -0.2380 -1.4789
15956TIP3   OH269282   6.737   0.060  17.078 -0.0311  0.1808  0.3261
15956TIP3    H169283   6.674   0.053  17.006 -1.5131  1.2495  1.4290
15956TIP3    H269284   6.752   0.154  17.087  1.1779 -0.0247  0.5650
15957TIP3   OH269285   2.978   6.288   3.243 -0.1087  0.4804 -0.4311
15957TIP3    H169286   3.053   6.339   3.274 -0.9024  0.9199  0.8771
15957TIP3    H269287   2.936   6.257   3.324  0.3111 -2.2255 -1.1554
15958TIP3   OH269288   3.838   4.891  15.829  0.3363  0.8311 -0.2583
15958TIP3    H169289   3.893   4.829  15.782  1.2896  0.8335  0.8153
15958TIP3    H269290   3.868   4.977  15.799  2.3860  0.9218  1.7888
15959TIP3   OH269291   3.197   0.224   2.645  0.1302 -0.1751  0.0776
15959TIP3    H169292   3.277   0.246   2.693  0.6806 -0.5247 -0.6491
15959TIP3    H269293   3.132   0.286   2.677  0.7491  0.2482  0.5412
15960TIP3   OH269294   5.634   0.831   0.662 -0.4709 -0.3812  0.7913
15960TIP3    H169295   5.660   0.899   0.600 -1.6689 -0.9849 -0.4283
15960TIP3    H269296   5.701   0.834   0.730  0.8831  0.3441 -0.4996
15961TIP3   OH269297   0.392   1.547   4.907  0.0684  0.4138 -0.1994
15961TIP3    H169298   0.467   1.598   4.877  0.2110 -0.4894 -1.4583
15961TIP3    H269299   0.425   1.458   4.914 -0.4538  0.2933  0.9280
15962TIP3   OH269300   6.186   3.050  12.325 -0.4753 -0.1107  0.5072
15962TIP3    H169301   6.257   3.026  12.384 -0.2254 -0.2697  0.1445
15962TIP3    H269302   6.214   3.132  12.285 -0.4728 -0.1972  0.3300
15963TIP3   OH269303   3.727   1.870   0.198  0.5263 -0.3532 -0.1469
15963TIP3    H169304   3.728   1.865   0.102  1.2596 -2.8572 -0.0607
15963TIP3    H269305   3.635   1.860   0.222  0.5196 -1.2847 -0.5442
15964TIP3   OH269306   3.085   0.038   1.473 -0.0188  0.1942 -0.2555
15964TIP3    H169307   3.010   0.020   1.530  0.6738 -2.1755 -0.0016
15964TIP3    H269308   3.052   0.023   1.384 -0.4598  1.5962 -0.3622
15965TIP3   OH269309   4.178   5.318  11.187 -0.1814 -0.2009 -0.0725
15965TIP3    H169310   4.094   5.339  11.145 -0.3559 -0.6904  0.0182
15965TIP3    H269311   4.187   5.224  11.174  1.7185  0.2237 -2.5910
15966TIP3   OH269312   0.113   5.205  13.672  0.2335  0.6529 -0.2285
15966TIP3    H169313   0.034   5.151  13.676  0.8582 -0.2766  0.0398
15966TIP3    H269314   0.082   5.294  13.686 -0.7149  0.2578  0.3169
15967TIP3   OH269315   0.125   1.434   5.784 -0.2561  0.1508 -0.2437
15967TIP3    H169316   0.070   1.365   5.747 -0.3214 -0.4439  0.8986
15967TIP3    H269317   0.133   1.411   5.877  1.3931  0.5644 -0.2360
15968TIP3   OH269318   1.680   6.495   0.319 -0.2686 -0.0691  0.2012
15968TIP3    H169319   1.742   6.550   0.272 -2.0714  0.8977 -1.1518
15968TIP3    H269320   1.705   6.405   0.297  1.3115  0.2484  0.6130
15969TIP3   OH269321   5.876   0.817  10.863 -0.0256 -0.0146 -0.2707
15969TIP3    H169322   5.907   0.856  10.781 -3.4943  2.6039 -0.5700
15969TIP3    H269323   5.839   0.733  10.837 -1.2332  0.8469 -1.5562
15970TIP3   OH269324   3.878   2.107   5.310  0.1516 -0.0100  0.0580
15970TIP3    H169325   3.933   2.122   5.388  0.2578  0.0441 -0.0264
15970TIP3    H269326   3.851   2.195   5.283  0.8337  0.0498 -0.4812
15971TIP3   OH269327   0.020   1.278   5.159 -0.1998 -0.2507  0.2359
15971TIP3    H169328   0.109   1.312   5.155 -0.0560 -0.7413 -1.4374
15971TIP3    H269329  -0.017   1.318   5.238  2.2956 -2.0803  2.5357
15972TIP3   OH269330   1.116   1.375   5.223  0.6934 -0.4145 -0.0935
15972TIP3    H169331   1.150   1.353   5.136  1.2891 -0.6674  0.2028
15972TIP3    H269332   1.038   1.321   5.232  0.5443 -0.2815 -0.5284
15973TIP3   OH269333   5.113   6.513   3.070  0.5023  0.1483  0.1386
15973TIP3    H169334   5.030   6.470   3.094  0.6193 -0.7600 -0.9935
15973TIP3    H269335   5.176   6.481   3.134  0.4411 -0.8875 -0.2974
15974TIP3   OH269336   1.092   3.541  15.127 -0.4126  0.2688  0.4021
15974TIP3    H169337   1.168   3.566  15.180  0.8035 -2.8905  0.3486
15974TIP3    H269338   1.129   3.515  15.042 -1.8396  0.8548 -0.4420
15975TIP3   OH269339   0.369   1.967  13.970 -0.1267  0.3762 -0.3317
15975TIP3    H169340   0.289   1.941  13.923  0.6292 -1.2144 -0.8246
15975TIP3    H269341   0.424   2.006  13.902 -0.2169  0.8582 -0.1292
15976TIP3   OH269342   3.175   6.769  12.660 -0.1019 -0.0602 -0.5435
15976TIP3    H169343   3.136   6.789  12.575  0.2276 -0.5077 -0.8035
15976TIP3    H269344   3.162   6.675  12.670 -0.4120  0.0442  0.0401
15977TIP3   OH269345   2.377   4.363   6.093 -0.3268 -0.1346 -0.1548
15977TIP3    H169346   2.284   4.351   6.109 -0.6834  0.4347 -1.6107
15977TIP3    H269347   2.406   4.281   6.055 -0.4669  0.0410 -0.6435
15978TIP3   OH269348   1.582   5.036  12.784 -0.2633  0.1962  0.1857
15978TIP3    H169349   1.675   5.023  12.763 -0.2831 -1.1621  0.7786
15978TIP3    H269350   1.544   4.948  12.778 -1.4643  0.6933  0.1857
15979TIP3   OH269351   5.683   5.606  16.005  0.1948  0.2090  0.2365
15979TIP3    H169352   5.745   5.558  16.060  0.2293 -0.3214 -0.2584
15979TIP3    H269353   5.667   5.688  16.053  0.8048  0.0869  0.6619
15980TIP3   OH269354   0.881   4.454   4.928 -0.2625 -0.3753 -0.0907
15980TIP3    H169355   0.853   4.379   4.874 -0.8452  0.6516 -1.2668
15980TIP3    H269356   0.885   4.527   4.866  0.7924  0.4648  0.9371
15981TIP3   OH269357   4.379   0.343   4.151  0.3738  0.1510  0.4786
15981TIP3    H169358   4.303   0.356   4.094 -0.7147 -1.1799  1.5358
15981TIP3    H269359   4.388   0.248   4.156  1.4619  0.2794  1.2269
15982TIP3   OH269360   3.942   3.155   0.437 -0.2271 -0.0418  0.3627
15982TIP3    H169361   3.866   3.183   0.488 -0.2446 -0.4908  0.5900
15982TIP3    H269362   3.912   3.160   0.346 -0.6093 -0.4242  0.4594
15983TIP3   OH269363   6.798   5.149   1.008 -0.3588 -0.0326  0.5999
15983TIP3    H169364   6.850   5.229   1.011 -2.0358  1.2333 -1.2232
15983TIP3    H269365   6.862   5.079   0.994  0.8965  1.5396 -2.3445
15984TIP3   OH269366   2.362   2.259   2.481  0.5824  0.2488  0.5456
15984TIP3    H169367   2.349   2.349   2.451  1.2995 -0.5019 -2.3049
15984TIP3    H269368   2.273   2.225   2.492  0.1759  0.2743 -2.0056
15985TIP3   OH269369   0.501   1.533   4.585 -0.5717  0.5714  0.6232
15985TIP3    H169370   0.539   1.445   4.579 -1.3611  0.1787  1.1519
15985TIP3    H269371   0.558   1.580   4.645  0.8481  0.9807 -0.9761
15986TIP3   OH269372   4.100   1.855   1.278  0.1419  0.1580 -0.1841
15986TIP3    H169373   4.012   1.855   1.316  0.5026  2.2728  0.8021
15986TIP3    H269374   4.130   1.765   1.287 -0.7127  0.0607  2.4906
15987TIP3   OH269375   3.018   3.238   3.387  0.2204 -0.4420  0.0993
15987TIP3    H169376   2.980   3.169   3.333 -0.0309 -0.3398  0.1434
15987TIP3    H269377   3.000   3.210   3.477 -1.8711  0.7501  0.1208
15988TIP3   OH269378   4.693   4.406  11.294  0.0504 -0.0909  1.2927
15988TIP3    H169379   4.735   4.491  11.306 -1.3242  0.7293  0.5613
15988TIP3    H269380   4.750   4.360  11.232  0.7913  0.2964  1.6786
15989TIP3   OH269381   5.852   1.275  11.050 -0.6660  0.1680  0.0844
15989TIP3    H169382   5.771   1.272  11.101 -0.9695 -0.1309 -0.4106
15989TIP3    H269383   5.824   1.292  10.960 -0.0090  2.6048  0.2659
15990TIP3   OH269384   3.972   4.068   0.472  0.1092 -0.4129  0.2975
15990TIP3    H169385   3.898   4.029   0.518  0.1629 -1.0853 -0.1657
15990TIP3    H269386   4.049   4.037   0.521  0.0948  0.1349  0.6699
15991TIP3   OH269387   1.614   5.821  13.020 -0.0457 -0.2592 -0.1237
15991TIP3    H169388   1.615   5.835  13.115 -0.9495 -0.0932 -0.1271
15991TIP3    H269389   1.695   5.863  12.989 -0.3573  0.8025  0.4317
15992TIP3   OH269390   0.848   2.435  13.613  0.2708 -0.1675  0.2642
15992TIP3    H169391   0.906   2.361  13.632 -1.3254 -1.6599 -0.3558
15992TIP3    H269392   0.805   2.454  13.696  3.2072  2.4973  1.3268
15993TIP3   OH269393   2.519   0.125  13.379  0.6326 -0.1193 -0.4072
15993TIP3    H169394   2.587   0.059  13.370  0.1008 -0.5979 -1.0196
15993TIP3    H269395   2.498   0.124  13.472  1.5115  0.0929 -0.1985
15994TIP3   OH269396   4.137   0.790  16.207 -0.3475 -0.1403 -0.0687
15994TIP3    H169397   4.090   0.828  16.133 -0.7686  0.6954  0.6058
15994TIP3    H269398   4.219   0.838  16.211  0.4772 -1.4029 -1.0667
15995TIP3   OH269399   3.990   1.306   4.198  0.6152 -0.1239  0.0051
15995TIP3    H169400   3.901   1.340   4.186  0.9840  0.4035 -1.5984
15995TIP3    H269401   3.989   1.221   4.153  1.0019  0.0393 -0.3161
15996TIP3   OH269402   3.287   6.467  16.127 -0.2416  0.0970 -0.2380
15996TIP3    H169403   3.362   6.513  16.092 -0.0041  0.4832  0.7438
15996TIP3    H269404   3.288   6.487  16.221 -2.3612  1.2562 -0.4006
15997TIP3   OH269405   6.171   3.964  14.866  0.2128  0.4087  0.5166
15997TIP3    H169406   6.236   3.990  14.931  1.7120  0.8986 -1.1012
15997TIP3    H269407   6.220   3.909  14.805 -0.9634  0.5723 -0.6112
15998TIP3   OH269408   6.783   0.645  17.203  0.1268  0.3106 -0.2713
15998TIP3    H169409   6.870   0.614  17.230 -0.0457 -1.9764 -2.0461
15998TIP3    H269410   6.789   0.740  17.210  3.7062  0.4747 -2.7770
15999TIP3   OH269411   3.623   2.324   2.533  0.7490  0.0476  0.4923
15999TIP3    H169412   3.675   2.356   2.606  1.2311 -2.1331  1.1690
15999TIP3    H269413   3.627   2.229   2.540 -1.5438 -0.2179 -0.7164
16000TIP3   OH269414   0.936   1.555   2.085  0.0245  0.1200 -0.4269
16000TIP3    H169415   0.924   1.465   2.115 -2.3890  0.4418 -0.1972
16000TIP3    H269416   1.007   1.550   2.021  0.6275 -1.7578  0.3261
16001TIP3   OH269417   6.353   5.460   6.565  0.0460  0.7690 -0.0749
16001TIP3    H169418   6.315   5.522   6.503 -0.4122  1.1321  0.5476
16001TIP3    H269419   6.342   5.374   6.525  0.9491  1.1070 -1.0873
16002TIP3   OH269420   5.575   5.699  13.272 -0.0400  0.1483  0.0895
16002TIP3    H169421   5.539   5.647  13.201 -2.2437  2.6967 -0.8108
16002TIP3    H269422   5.665   5.718  13.245 -0.8678  1.1994 -2.1606
16003TIP3   OH269423   3.655   6.528  15.751  0.0138  0.0352  0.0465
16003TIP3    H169424   3.634   6.556  15.841  0.0043  3.9804 -0.9765
16003TIP3    H269425   3.591   6.574  15.697  1.7905  0.0404 -2.1561
16004TIP3   OH269426   4.786   5.685   3.710  0.6890  0.0806 -0.3646
16004TIP3    H169427   4.690   5.677   3.715  0.3643  1.5365 -2.6296
16004TIP3    H269428   4.803   5.778   3.724  1.3649  0.4983 -3.2516
16005TIP3   OH269429   6.458   5.264   5.423  0.5482  0.0158 -0.6985
16005TIP3    H169430   6.451   5.171   5.403 -1.5372  0.3698 -1.9532
16005TIP3    H269431   6.444   5.269   5.518 -0.7875 -0.8581 -0.8278
16006TIP3   OH269432   3.256   5.825   3.231  0.3321 -0.0977 -0.0530
16006TIP3    H169433   3.165   5.854   3.222  0.4884 -0.0393 -1.7637
16006TIP3    H269434   3.298   5.854   3.150  1.2016 -2.5510 -0.5499
16007TIP3   OH269435   5.957   1.120  14.844  0.4566  0.7374 -0.4358
16007TIP3    H169436   6.045   1.146  14.869  0.8187 -1.0462  0.3728
16007TIP3    H269437   5.955   1.127  14.749  1.1516  1.6863 -0.3875
16008TIP3   OH269438   2.807   0.968  14.439 -0.0611 -0.5889 -0.8079
16008TIP3    H169439   2.827   1.036  14.374  1.4038 -1.0225 -0.8514
16008TIP3    H269440   2.863   0.989  14.513 -1.1297 -0.5691  0.0238
16009TIP3   OH269441   0.747   3.318   2.910  0.1873 -0.5387  0.2203
16009TIP3    H169442   0.671   3.263   2.892 -1.0259  1.2665 -0.5485
16009TIP3    H269443   0.716   3.383   2.973  1.5322 -0.6354  1.0248
16010TIP3   OH269444   2.450   5.121  11.310  0.2931  0.2269 -0.3459
16010TIP3    H169445   2.437   5.079  11.225  1.6105 -0.3143 -0.2962
16010TIP3    H269446   2.460   5.214  11.289 -2.7705  0.6269 -0.4413
16011TIP3   OH269447   1.302   4.521  13.749 -0.4869  0.1238 -0.1629
16011TIP3    H169448   1.373   4.545  13.689  0.8028 -0.9775  0.8578
16011TIP3    H269449   1.304   4.426  13.751  0.1857  0.1168  2.3503
16012TIP3   OH269450   2.200   5.712   3.228 -0.3871 -0.2373  0.8388
16012TIP3    H169451   2.201   5.806   3.243 -2.0576 -0.0054 -0.2822
16012TIP3    H269452   2.281   5.681   3.268  0.3697  1.7075  0.9342
16013TIP3   OH269453   2.199   3.133  13.662 -0.0825 -0.0752  0.1518
16013TIP3    H169454   2.183   3.216  13.706  1.9311  0.8114 -0.6511
16013TIP3    H269455   2.268   3.092  13.714  0.5383 -0.1700 -0.7282
16014TIP3   OH269456   6.156   4.307   2.343 -0.1218  0.2770  0.0495
16014TIP3    H169457   6.203   4.236   2.387 -0.9129 -0.7906 -0.7658
16014TIP3    H269458   6.208   4.385   2.362  1.4359 -0.6985  0.0012
16015TIP3   OH269459   4.551   1.631  12.128 -0.0317 -0.4847  0.9059
16015TIP3    H169460   4.465   1.670  12.111  0.4423  0.6953  1.1696
16015TIP3    H269461   4.613   1.699  12.103  0.8818 -1.6981 -0.3142
16016TIP3   OH269462   5.778   0.351  16.088 -0.2743  0.2537 -0.2235
16016TIP3    H169463   5.792   0.305  16.171 -1.3910  1.1198  0.4789
16016TIP3    H269464   5.847   0.417  16.086  0.4694 -0.5135 -0.5614
16017TIP3   OH269465   1.383   1.748  14.338  0.3056 -0.6177  0.3517
16017TIP3    H169466   1.334   1.809  14.283  1.1416  0.2016  0.4834
16017TIP3    H269467   1.324   1.674  14.351 -0.7433  0.1625  0.1791
16018TIP3   OH269468   0.731   1.195   2.519  0.0343 -0.2857  0.6742
16018TIP3    H169469   0.713   1.240   2.436 -1.1886  1.0882  1.6401
16018TIP3    H269470   0.655   1.214   2.573  0.7095 -1.3585  2.0478
16019TIP3   OH269471   6.376   6.686   4.552  0.1002 -0.2365  0.6664
16019TIP3    H169472   6.312   6.737   4.502  0.8180 -0.7336 -0.8172
16019TIP3    H269473   6.344   6.689   4.642 -1.5272  0.2609  0.1089
16020TIP3   OH269474   6.690   1.995   1.317 -0.1896  0.4969  0.3228
16020TIP3    H169475   6.690   1.919   1.375 -0.4393  0.6811  0.5660
16020TIP3    H269476   6.627   2.055   1.356 -2.1050 -0.2973 -1.3463
16021TIP3   OH269477   3.932   6.749   4.828 -0.0994 -0.2707 -0.2480
16021TIP3    H169478   3.936   6.657   4.854 -1.2731 -0.4641 -0.6692
16021TIP3    H269479   4.010   6.762   4.774  1.8638 -0.1195  2.3812
16022TIP3   OH269480   4.096   4.505   1.628 -0.5416 -0.4012 -0.5279
16022TIP3    H169481   4.116   4.544   1.544  1.6356  0.6769  0.4007
16022TIP3    H269482   4.000   4.503   1.632 -0.8129 -2.6615 -3.9270
16023TIP3   OH269483   3.919   6.504  15.602 -0.5887 -0.0276 -0.3137
16023TIP3    H169484   3.825   6.517  15.604 -0.6454 -0.5015  0.3539
16023TIP3    H269485   3.956   6.592  15.594 -1.0735  0.1874 -0.1900
16024TIP3   OH269486   4.834   6.368   4.072  0.1487 -0.1414  0.1809
16024TIP3    H169487   4.907   6.305   4.072  1.3949  1.2179 -1.6406
16024TIP3    H269488   4.770   6.330   4.012  0.3305 -0.2909  0.0769
16025TIP3   OH269489   5.382   4.250   1.799  0.0351  0.2705 -0.2243
16025TIP3    H169490   5.302   4.209   1.765 -0.8600  2.3987 -0.8681
16025TIP3    H269491   5.377   4.340   1.768  2.1096  0.7736  0.7647
16026TIP3   OH269492   0.190   1.582  12.351 -0.1963  0.2618  0.2677
16026TIP3    H169493   0.164   1.499  12.311 -0.3173 -0.0427  0.9686
16026TIP3    H269494   0.273   1.604  12.310 -1.3024  1.0201 -1.7023
16027TIP3   OH269495   1.548   3.096   1.539  0.0207  0.1504 -0.0902
16027TIP3    H169496   1.603   3.099   1.617  0.2749 -1.0843 -0.1910
16027TIP3    H269497   1.468   3.051   1.568 -0.3962  0.7754 -0.2547
16028TIP3   OH269498   4.158   2.119  16.148  0.4838 -0.5183 -0.0730
16028TIP3    H169499   4.083   2.079  16.192 -1.3175  1.5701 -1.0152
16028TIP3    H269500   4.192   2.050  16.091 -0.3801 -1.6871  0.7742
16029TIP3   OH269501   2.924   2.186  14.077 -0.2013 -0.2563 -0.1715
16029TIP3    H169502   2.936   2.274  14.112  1.7690 -0.6841  0.2965
16029TIP3    H269503   2.880   2.200  13.993 -0.4401  1.1183  0.1583
16030TIP3   OH269504   2.276   0.106  11.128 -0.3469 -0.1925  0.4377
16030TIP3    H169505   2.353   0.124  11.074  0.3935 -2.8624  0.4433
16030TIP3    H269506   2.213   0.174  11.105  1.1137  0.5948 -1.4199
16031TIP3   OH269507   1.628   2.275   1.783 -0.1176  0.7234 -0.0419
16031TIP3    H169508   1.700   2.232   1.829 -0.3356 -2.0134 -1.9937
16031TIP3    H269509   1.554   2.269   1.842 -0.0239 -1.3114 -0.0737
16032TIP3   OH269510   6.714   1.410  15.471  0.0325  0.3719  0.8008
16032TIP3    H169511   6.647   1.367  15.418  0.1760  0.2228  0.7389
16032TIP3    H269512   6.797   1.380  15.433  0.1375  1.3847  0.1878
16033TIP3   OH269513   3.303   4.560  11.100 -0.3995 -0.4674 -0.2650
16033TIP3    H169514   3.218   4.524  11.075 -0.6562  0.2105 -0.3969
16033TIP3    H269515   3.343   4.493  11.155  0.0602 -1.9070 -2.2370
16034TIP3   OH269516   1.753   4.061  14.565  0.2038  0.7699  0.2640
16034TIP3    H169517   1.776   4.154  14.561  0.8209  0.5809 -1.4456
16034TIP3    H269518   1.834   4.015  14.541  0.3142 -0.3090  2.4449
16035TIP3   OH269519   1.554   1.890   5.052  0.3587 -0.1859 -0.5585
16035TIP3    H169520   1.513   1.812   5.016 -0.6666  0.5696 -1.0852
16035TIP3    H269521   1.481   1.948   5.073  1.1031  2.0500 -3.4208
16036TIP3   OH269522   6.280   4.269   6.645 -0.0590  0.7763  0.0704
16036TIP3    H169523   6.333   4.192   6.622  1.1187  1.1655  1.3677
16036TIP3    H269524   6.298   4.332   6.576 -0.9540 -0.0444 -0.9516
16037TIP3   OH269525   4.407   5.506  13.449 -0.4939 -0.1343  0.3226
16037TIP3    H169526   4.371   5.462  13.372 -2.4385 -0.3684  1.2974
16037TIP3    H269527   4.475   5.564  13.415  0.1563 -1.7654 -1.3113
16038TIP3   OH269528   6.538   1.329  13.125 -0.5687  0.0259 -0.2592
16038TIP3    H169529   6.625   1.365  13.146 -0.4711 -0.4858  0.2279
16038TIP3    H269530   6.477   1.392  13.164 -0.4486  0.8923 -1.4057
16039TIP3   OH269531   3.605   3.113  14.149  0.0405  0.5616 -0.0320
16039TIP3    H169532   3.673   3.130  14.213  0.9075 -0.6046 -0.6061
16039TIP3    H269533   3.543   3.186  14.159  0.6363  0.8918  1.4564
16040TIP3   OH269534   4.113   4.822   2.722 -0.0606  0.1531  0.5238
16040TIP3    H169535   4.152   4.789   2.641 -2.1953 -1.4062  0.0665
16040TIP3    H269536   4.167   4.784   2.792  0.9047  0.3151 -0.1150
16041TIP3   OH269537   1.724   5.366  12.138 -0.2056 -0.0144  0.9912
16041TIP3    H169538   1.713   5.284  12.090 -1.6896 -0.1872  1.5907
16041TIP3    H269539   1.645   5.416  12.121  0.8499  1.4988  0.3125
16042TIP3   OH269540   6.171   3.824   0.150 -0.1534 -0.7005  0.3653
16042TIP3    H169541   6.210   3.798   0.066 -0.5694  0.4933 -0.2250
16042TIP3    H269542   6.171   3.744   0.202  0.3929 -1.4010 -0.6660
16043TIP3   OH269543   2.157   2.744  13.656 -0.1545 -0.4438  0.1914
16043TIP3    H169544   2.072   2.740  13.701 -1.1536 -1.3300 -1.6579
16043TIP3    H269545   2.153   2.825  13.606  0.1471 -0.4375  0.1788
16044TIP3   OH269546   4.078   1.724   4.452  0.4597 -0.1170  0.4747
16044TIP3    H169547   4.160   1.675   4.444 -0.4725 -1.8645  1.1065
16044TIP3    H269548   4.010   1.657   4.460 -1.2207  1.2292 -1.3403
16045TIP3   OH269549   0.572   1.425  16.463 -0.6709 -0.1046  0.1197
16045TIP3    H169550   0.498   1.481  16.442 -0.9319  0.0558  1.4068
16045TIP3    H269551   0.537   1.361  16.525  0.3908  0.3611  1.2369
16046TIP3   OH269552   3.273   4.234   4.370 -0.7111  0.2514  0.6802
16046TIP3    H169553   3.298   4.262   4.458 -1.4252 -0.1469  1.0217
16046TIP3    H269554   3.337   4.167   4.347 -2.5638 -2.3262  2.4092
16047TIP3   OH269555   6.337   1.304   0.976  0.1504  0.3480  0.3092
16047TIP3    H169556   6.430   1.282   0.974  0.3882  1.2975 -2.1851
16047TIP3    H269557   6.336   1.400   0.983 -0.5328  0.5464 -1.8779
16048TIP3   OH269558   5.200   4.266  11.993 -0.4415  0.1409  0.0482
16048TIP3    H169559   5.149   4.326  12.047  0.0979  1.7249 -1.1435
16048TIP3    H269560   5.277   4.245  12.047 -0.2388  1.1642  0.1687
16049TIP3   OH269561   0.848   3.088  15.125  0.2232 -0.0945 -0.2188
16049TIP3    H169562   0.797   3.007  15.116 -0.4213  0.3130 -0.3059
16049TIP3    H269563   0.934   3.059  15.153 -0.5984 -0.6715  1.9290
16050TIP3   OH269564   6.095   6.589   5.905 -0.0969 -0.3442  0.6535
16050TIP3    H169565   6.175   6.542   5.883  0.8764  1.1575  0.8629
16050TIP3    H269566   6.116   6.681   5.889 -1.5442  0.1476  1.4209
16051TIP3   OH269567   6.384   5.018  13.534  0.2399  0.0725  0.0460
16051TIP3    H169568   6.466   5.027  13.583 -0.1156 -0.4811  0.7653
16051TIP3    H269569   6.390   4.932  13.494  0.3413  0.3496 -0.5384
16052TIP3   OH269570   5.041   3.996  15.161  0.2696  0.1814 -0.3008
16052TIP3    H169571   5.035   3.922  15.221 -1.1580 -0.7560 -1.5371
16052TIP3    H269572   5.073   3.958  15.079 -0.4684  0.9115 -0.9485
16053TIP3   OH269573   6.454   0.753   0.925  0.1294 -0.5486  0.2787
16053TIP3    H169574   6.451   0.826   0.863  2.5378 -0.4486  0.1593
16053TIP3    H269575   6.422   0.790   1.007  3.1230  1.3483  0.7532
16054TIP3   OH269576   3.634   0.429   5.663 -0.3813  0.0790  0.3278
16054TIP3    H169577   3.711   0.399   5.614 -0.0858  1.3047 -0.0035
16054TIP3    H269578   3.669   0.460   5.746 -0.6213 -0.1149  0.5013
16055TIP3   OH269579   3.448   6.088  11.202  0.5124 -0.1145 -0.3206
16055TIP3    H169580   3.489   6.047  11.278  2.1127  1.4847 -0.2469
16055TIP3    H269581   3.498   6.054  11.127  1.9811  1.7023 -0.2440
16056TIP3   OH269582   2.251   2.808   5.551  0.3593 -0.6057  0.2285
16056TIP3    H169583   2.280   2.857   5.474 -0.1014  0.5633  0.7631
16056TIP3    H269584   2.298   2.725   5.546  0.0522 -0.7272 -1.5095
16057TIP3   OH269585   2.023   2.622  11.542 -0.4621  0.6559  0.3609
16057TIP3    H169586   2.094   2.558  11.540  0.4187  1.6237 -0.3532
16057TIP3    H269587   2.020   2.651  11.633 -0.7412 -0.2277  0.6498
16058TIP3   OH269588   5.601   5.379  10.978 -0.3276 -0.2499  0.1368
16058TIP3    H169589   5.610   5.449  10.913 -1.2547 -0.0353  0.2294
16058TIP3    H269590   5.570   5.304  10.927 -0.5405 -0.2339  0.2430
16059TIP3   OH269591   4.481   0.660   3.699  0.5205  0.0043 -0.2980
16059TIP3    H169592   4.533   0.590   3.737  1.0184  0.7261  0.3909
16059TIP3    H269593   4.545   0.725   3.670  0.0482  0.4871 -0.2888
16060TIP3   OH269594   2.410   1.691   0.478 -0.4228 -0.2495 -0.1090
16060TIP3    H169595   2.418   1.777   0.520 -0.2327 -0.3959  0.1553
16060TIP3    H269596   2.327   1.656   0.511  1.0094 -1.5782  2.4239
16061TIP3   OH269597   5.381   3.459  11.366 -0.1237 -0.1791  0.0857
16061TIP3    H169598   5.349   3.373  11.336 -1.8987  0.5140 -0.1148
16061TIP3    H269599   5.312   3.491  11.424  0.4740  1.1650  0.0820
16062TIP3   OH269600   5.074   4.963  15.713  0.2615  0.5784 -0.0048
16062TIP3    H169601   5.053   4.968  15.620  1.2362 -1.1753 -0.3533
16062TIP3    H269602   4.993   4.989  15.757 -0.8688 -0.4996 -1.3435
16063TIP3   OH269603   2.734   0.049   2.049 -0.0965 -0.0274  0.1350
16063TIP3    H169604   2.725  -0.033   2.001 -1.3865 -0.1280  0.4995
16063TIP3    H269605   2.778   0.108   1.988  0.3637 -0.8267 -0.3248
16064TIP3   OH269606   0.143   5.237   0.431  0.1479  0.6442 -0.0031
16064TIP3    H169607   0.208   5.293   0.475  0.5529 -0.1007  0.3785
16064TIP3    H269608   0.092   5.199   0.503 -0.8854  1.4234 -0.3168
16065TIP3   OH269609   3.055   0.451  12.274 -0.0609  0.0737 -0.6229
16065TIP3    H169610   3.016   0.365  12.289  0.3639  0.1801  1.3337
16065TIP3    H269611   2.992   0.513  12.310  0.5801  0.4281 -0.0766
16066TIP3   OH269612   2.537   3.810  11.635  0.2230 -0.7397  0.1598
16066TIP3    H169613   2.558   3.722  11.604  2.2070 -0.1029 -0.4776
16066TIP3    H269614   2.492   3.851  11.561 -0.4626 -1.1234  0.3597
16067TIP3   OH269615   5.271   5.973  12.535 -0.0630  0.1740 -0.7534
16067TIP3    H169616   5.236   5.981  12.447 -1.0304 -1.5450 -0.5764
16067TIP3    H269617   5.194   5.965  12.591  0.5435  1.0558  0.2323
16068TIP3   OH269618   3.269   1.090  14.674 -0.7954  1.2316  0.1746
16068TIP3    H169619   3.305   1.115  14.758 -0.2417  0.4673  0.1764
16068TIP3    H269620   3.324   1.134  14.609  1.3255 -1.2359  0.1187
16069TIP3   OH269621   0.140   5.729   1.496  0.4536  0.2114  0.6660
16069TIP3    H169622   0.158   5.710   1.404  0.5313  0.9956  0.5172
16069TIP3    H269623   0.048   5.753   1.499  1.1473  3.2294  0.2696
16070TIP3   OH269624   3.346   2.009   2.760 -0.1041  0.2141  0.2900
16070TIP3    H169625   3.406   1.948   2.716 -0.5428  0.8404 -1.2494
16070TIP3    H269626   3.283   1.953   2.804  0.0377 -0.4591 -0.3402
16071TIP3   OH269627   1.703   0.090  16.680 -0.1971 -0.2888 -0.1058
16071TIP3    H169628   1.718   0.050  16.766  1.8602 -0.2494 -0.4037
16071TIP3    H269629   1.750   0.034  16.619  0.7733  1.2591 -0.8322
16072TIP3   OH269630   4.602   1.563   0.391  0.3697  0.2813 -0.6920
16072TIP3    H169631   4.680   1.560   0.446 -0.7822  1.7330  1.1398
16072TIP3    H269632   4.577   1.656   0.389 -1.4557 -0.1627 -0.9826
16073TIP3   OH269633   3.528   5.930   0.220 -0.0857  0.1598  0.5719
16073TIP3    H169634   3.546   5.836   0.224 -0.5381  0.0867  4.1079
16073TIP3    H269635   3.614   5.971   0.225  0.0707 -0.0385 -0.3065
16074TIP3   OH269636   1.706   0.367   0.834  0.1335  0.1281 -0.5674
16074TIP3    H169637   1.671   0.346   0.920  1.8768  1.7865  0.6124
16074TIP3    H269638   1.731   0.282   0.797  1.0518 -0.4692  1.3230
16075TIP3   OH269639   4.482   0.144   1.495  0.3537  0.0421 -0.3894
16075TIP3    H169640   4.443   0.078   1.438 -1.2046  0.1382  0.4916
16075TIP3    H269641   4.450   0.228   1.462  0.3946  0.1840 -0.0816
16076TIP3   OH269642   3.329   3.876  13.642 -0.1444 -0.2668 -0.1921
16076TIP3    H169643   3.277   3.833  13.574  2.8226 -2.1632 -1.4743
16076TIP3    H269644   3.308   3.828  13.722 -0.5344 -0.8879 -0.6572
16077TIP3   OH269645   5.424   1.052  12.553  0.4179  0.0559  0.6861
16077TIP3    H169646   5.401   1.110  12.625 -0.9682 -1.5956  1.6642
16077TIP3    H269647   5.345   1.047  12.499  1.5539  1.5622 -1.2234
16078TIP3   OH269648   3.744   5.495  11.880  0.1572  0.5053 -0.2255
16078TIP3    H169649   3.687   5.511  11.955  1.2815  1.2389  0.4903
16078TIP3    H269650   3.688   5.449  11.817 -1.6481  2.4673 -0.1627
16079TIP3   OH269651   0.171   5.138  14.131  0.3013  0.5234  0.0056
16079TIP3    H169652   0.113   5.103  14.198 -0.0049  1.9376  0.5048
16079TIP3    H269653   0.135   5.105  14.049  0.7132 -1.2781  0.5009
16080TIP3   OH269654   0.468   4.437   5.265  0.4703  0.0778 -0.2397
16080TIP3    H169655   0.508   4.496   5.329  0.9929 -1.2038  0.6619
16080TIP3    H269656   0.533   4.430   5.196  0.5812  0.2441 -0.1545
16081TIP3   OH269657   6.496   2.154   5.091 -0.0021 -0.2881  0.3488
16081TIP3    H169658   6.441   2.077   5.111  0.4385 -0.8191 -0.4259
16081TIP3    H269659   6.441   2.207   5.033 -0.8740  0.7345  2.0332
16082TIP3   OH269660   1.524   5.338   2.174 -0.1208 -0.1747 -0.6040
16082TIP3    H169661   1.466   5.377   2.240  1.8458 -0.6196  1.5251
16082TIP3    H269662   1.520   5.244   2.190  2.4406 -0.1499  0.8838
16083TIP3   OH269663   6.414   4.609  15.888  0.5050 -0.9166 -0.6657
16083TIP3    H169664   6.498   4.578  15.855  0.6816 -1.9308  0.6570
16083TIP3    H269665   6.409   4.574  15.977  0.1124  1.7762  0.4724
16084TIP3   OH269666   2.093   6.605  13.372  0.1323  0.3725 -0.0235
16084TIP3    H169667   2.101   6.593  13.467  0.1939 -0.1510 -0.0962
16084TIP3    H269668   2.047   6.528  13.342  2.4330 -0.7855 -0.7802
16085TIP3   OH269669   2.521   5.016   1.234 -0.2251  0.4848  0.4632
16085TIP3    H169670   2.522   4.977   1.322  0.2581  1.0320  0.7041
16085TIP3    H269671   2.517   5.110   1.250 -1.5826  0.5483 -0.1137
16086TIP3   OH269672   5.449   0.301   4.935  0.3336  0.2124  0.2701
16086TIP3    H169673   5.437   0.244   5.011  2.1755  1.5892  1.6784
16086TIP3    H269674   5.369   0.354   4.932 -0.0363 -0.3037  0.8420
16087TIP3   OH269675   0.319   1.277   0.149  0.1322 -0.6277 -0.8584
16087TIP3    H169676   0.383   1.248   0.214 -0.4041  1.5905  0.7794
16087TIP3    H269677   0.234   1.265   0.192 -0.1931  1.7016 -0.7166
16088TIP3   OH269678   6.732   3.264   3.863  0.1157 -0.1859  0.1529
16088TIP3    H169679   6.700   3.184   3.903 -0.3257  0.1740  0.5278
16088TIP3    H269680   6.677   3.333   3.899  1.8655  0.5782  1.5342
16089TIP3   OH269681   4.511   4.310  15.413 -0.9068 -0.0713 -0.2064
16089TIP3    H169682   4.535   4.396  15.449 -0.6312  0.7824 -2.2749
16089TIP3    H269683   4.594   4.271  15.386 -1.0790 -0.8274  0.3173
16090TIP3   OH269684   1.699   6.017   4.991 -0.9862  0.3433 -0.6528
16090TIP3    H169685   1.791   5.992   4.998 -1.0938  0.3533  1.2181
16090TIP3    H269686   1.695   6.105   5.028 -1.9169 -0.1032  0.3562
16091TIP3   OH269687   2.986   2.041  11.658  0.8881  0.1708  0.0321
16091TIP3    H169688   2.950   1.955  11.681 -1.7437  0.9578 -0.7523
16091TIP3    H269689   3.035   2.026  11.577 -2.2254 -0.2141 -1.9738
16092TIP3   OH269690   4.648   5.620  11.146 -0.7773 -0.3406 -0.1951
16092TIP3    H169691   4.654   5.655  11.235  0.8919 -0.9226 -0.0364
16092TIP3    H269692   4.649   5.525  11.156  1.5435 -0.4602 -0.8534
16093TIP3   OH269693   4.644   3.886  15.902 -0.9413 -0.2879 -0.2798
16093TIP3    H169694   4.600   3.808  15.869 -0.3146 -0.7306 -0.1028
16093TIP3    H269695   4.617   3.891  15.994 -0.1142 -0.9378  0.0054
16094TIP3   OH269696   3.700   0.432   3.772  0.1504  0.2321 -0.5536
16094TIP3    H169697   3.651   0.366   3.723  0.3617  0.1222 -0.6168
16094TIP3    H269698   3.641   0.457   3.844  1.5678 -2.9891  1.9907
16095TIP3   OH269699   0.264   4.227  16.509 -0.2744 -0.0392 -0.1570
16095TIP3    H169700   0.305   4.272  16.583 -0.3777  1.0860 -0.7551
16095TIP3    H269701   0.315   4.147  16.498  0.1402  0.0876  0.7212
16096TIP3   OH269702   2.453   2.216  16.747 -0.6148 -0.1774 -0.4382
16096TIP3    H169703   2.415   2.139  16.789  0.4459  0.0011  0.9154
16096TIP3    H269704   2.505   2.181  16.674 -1.4599 -0.5873 -0.8570
16097TIP3   OH269705   2.887   3.759  16.868 -0.4172 -0.6924 -0.0246
16097TIP3    H169706   2.963   3.813  16.889 -1.4605  0.3561  1.2474
16097TIP3    H269707   2.814   3.820  16.867 -1.3572 -1.7863 -0.5263
16098TIP3   OH269708   1.218   0.485   5.433  0.1638 -0.0945  0.6042
16098TIP3    H169709   1.141   0.436   5.463 -1.9217  2.1287 -0.7941
16098TIP3    H269710   1.199   0.576   5.456  1.6187  0.7365 -1.2154
16099TIP3   OH269711   4.908   3.392  10.772 -0.3282  0.6805 -0.1357
16099TIP3    H169712   5.000   3.401  10.747 -0.1543  0.1831  0.3067
16099TIP3    H269713   4.876   3.319  10.719  0.2491 -0.9023  1.5789
16100TIP3   OH269714   2.547   5.829  12.088 -0.7926  0.1402 -0.5634
16100TIP3    H169715   2.541   5.734  12.090 -2.6274  0.2075 -1.1333
16100TIP3    H269716   2.456   5.859  12.080 -0.1644  1.8746 -1.9221
16101TIP3   OH269717   3.400   5.453  16.218  0.5186 -0.2688  0.5483
16101TIP3    H169718   3.385   5.509  16.294 -1.8128  0.1987 -0.1684
16101TIP3    H269719   3.356   5.371  16.239 -0.1985 -0.1119 -0.2884
16102TIP3   OH269720   5.376   2.187   4.949 -0.1521  0.2509  0.4369
16102TIP3    H169721   5.375   2.276   4.913  1.6323 -0.4246 -1.4557
16102TIP3    H269722   5.415   2.133   4.880  2.4701 -1.3478  2.9375
16103TIP3   OH269723   3.952   3.474   4.754 -0.5080 -0.5816 -0.2795
16103TIP3    H169724   3.919   3.511   4.836  0.6159  0.8746 -0.4422
16103TIP3    H269725   3.992   3.548   4.708  3.8489 -2.2248  0.3210
16104TIP3   OH269726   2.907   1.693  16.553  0.2082 -0.1558  0.2653
16104TIP3    H169727   2.951   1.763  16.504  0.0817 -0.1909  0.1002
16104TIP3    H269728   2.819   1.727  16.569 -0.3349 -0.8615 -1.0995
16105TIP3   OH269729   0.677   5.861  12.577 -0.2990  0.2576 -0.0245
16105TIP3    H169730   0.594   5.893  12.612 -1.3057 -0.0021 -2.0377
16105TIP3    H269731   0.664   5.767  12.568  0.5732  0.0774  0.5153
16106TIP3   OH269732   4.855   4.970   1.032 -0.3172 -0.4413 -0.2278
16106TIP3    H169733   4.888   4.972   0.942 -0.2843 -1.3162 -0.2457
16106TIP3    H269734   4.922   4.921   1.080 -0.6057 -0.4556  0.1623
16107TIP3   OH269735   1.736   1.339   0.144 -0.5867 -0.2133  0.2769
16107TIP3    H169736   1.736   1.266   0.082 -1.4258 -0.6525  0.7655
16107TIP3    H269737   1.756   1.416   0.091 -0.7245 -0.6563 -0.4345
16108TIP3   OH269738   3.537   4.997   2.791  0.0299  0.4884 -0.3139
16108TIP3    H169739   3.570   4.986   2.702 -0.6325  1.0259 -0.6299
16108TIP3    H269740   3.443   4.980   2.784 -0.0147  0.4589  0.3002
16109TIP3   OH269741   3.068   4.425  13.114 -0.1491  0.0797  0.0267
16109TIP3    H169742   3.016   4.371  13.174  1.1409 -0.5102  0.6712
16109TIP3    H269743   3.110   4.490  13.171 -1.5747  1.7098 -0.7258
16110TIP3   OH269744   1.435   1.324   2.057 -0.2018 -1.1038  0.6621
16110TIP3    H169745   1.529   1.314   2.043 -0.1955  0.7545 -1.0369
16110TIP3    H269746   1.395   1.252   2.007  0.2422 -0.4254 -0.6954
16111TIP3   OH269747   0.274   2.223   3.878 -0.0475  0.0761 -0.2438
16111TIP3    H169748   0.219   2.165   3.826 -1.1340 -0.4441  1.4100
16111TIP3    H269749   0.214   2.288   3.914  0.7571  0.7149 -0.0334
16112TIP3   OH269750   2.337   5.521  14.166  0.4439 -0.8891  0.3530
16112TIP3    H169751   2.291   5.532  14.083 -0.8598 -2.4470  0.8015
16112TIP3    H269752   2.417   5.572  14.157  0.4059 -1.1307 -1.9070
16113TIP3   OH269753   3.512   2.349   5.723  0.2836 -0.7411 -0.3472
16113TIP3    H169754   3.576   2.382   5.786 -1.3724 -0.4676  1.2517
16113TIP3    H269755   3.502   2.257   5.745 -1.1685 -0.3804  0.6101
16114TIP3   OH269756   0.139   3.924  11.957 -0.1773  0.8687 -0.3893
16114TIP3    H169757   0.126   3.857  12.024 -0.4425 -0.3843 -1.6595
16114TIP3    H269758   0.098   3.888  11.878  0.2135  2.2634 -1.2688
16115TIP3   OH269759   3.011   2.116  16.581 -0.2563  0.8286  0.0789
16115TIP3    H169760   3.017   2.191  16.640 -1.7973  0.2706  0.9976
16115TIP3    H269761   3.033   2.040  16.636  1.0022  0.5453 -0.7655
16116TIP3   OH269762   4.063   3.546  14.318  0.2099  0.3591 -0.2281
16116TIP3    H169763   4.149   3.517  14.288 -0.2791 -1.0993 -0.2828
16116TIP3    H269764   4.009   3.467  14.318 -0.8655  1.0563  0.7738
16117TIP3   OH269765   5.360   2.705  13.439  0.6280  0.2488 -0.3031
16117TIP3    H169766   5.365   2.624  13.388  2.1828 -0.0984  0.3433
16117TIP3    H269767   5.450   2.738  13.440  0.3986  0.9004  1.1343
16118TIP3   OH269768   6.813   2.032  13.491  0.0082 -0.4150 -0.4372
16118TIP3    H169769   6.900   2.025  13.453 -0.1580 -0.5127 -0.7999
16118TIP3    H269770   6.825   2.091  13.566  0.6140 -1.3702  0.2345
16119TIP3   OH269771   5.179   5.815  13.763  0.5410  0.3909 -0.1274
16119TIP3    H169772   5.271   5.821  13.788 -0.0098  0.6103  1.9848
16119TIP3    H269773   5.168   5.723  13.737  1.2851  0.2975 -0.1378
16120TIP3   OH269774   2.837   6.111  11.102  0.0129 -0.2648  0.4409
16120TIP3    H169775   2.762   6.155  11.062  2.2808  1.9975 -1.6876
16120TIP3    H269776   2.860   6.041  11.041 -0.1377 -0.7262  0.9066
16121TIP3   OH269777   5.675   1.469  12.865 -0.5190 -0.1990  0.1083
16121TIP3    H169778   5.642   1.417  12.792  0.1830  0.1667 -0.4885
16121TIP3    H269779   5.730   1.536  12.823 -1.2810  0.9223  0.8628
16122TIP3   OH269780   6.094   1.924  12.999 -0.4809  0.1847 -0.0933
16122TIP3    H169781   6.098   1.991  13.068  0.3323  0.5782 -0.5149
16122TIP3    H269782   6.006   1.933  12.962 -0.8239  0.1673  0.6849
16123TIP3   OH269783   5.692   2.852  12.773  0.4036 -0.0708  0.1424
16123TIP3    H169784   5.638   2.778  12.804  2.6884 -1.5497  0.8373
16123TIP3    H269785   5.658   2.928  12.820  1.1889 -1.5792  3.4219
16124TIP3   OH269786   1.877   2.863   4.501 -0.2474 -0.4968 -0.4723
16124TIP3    H169787   1.843   2.868   4.411 -0.6043 -1.3256 -0.3957
16124TIP3    H269788   1.932   2.785   4.502 -0.9071 -0.9688  0.2341
16125TIP3   OH269789   1.286   6.086  15.010  0.2349 -0.4429  0.7458
16125TIP3    H169790   1.274   6.057  14.920  2.2540  1.5816 -0.2898
16125TIP3    H269791   1.199   6.113  15.039 -0.2540  0.0727 -1.0770
16126TIP3   OH269792   2.899   6.124  12.039  0.0473 -0.1049 -0.5524
16126TIP3    H169793   2.856   6.073  12.108 -0.4047  3.2579  1.8981
16126TIP3    H269794   2.867   6.086  11.957 -3.9116 -0.7920  1.0931
16127TIP3   OH269795   6.351   2.747   1.361  0.4220  0.3897  0.2144
16127TIP3    H169796   6.308   2.778   1.441  1.1527 -0.7629  1.0830
16127TIP3    H269797   6.407   2.675   1.390 -1.2163 -1.7977 -1.6942
16128TIP3   OH269798   5.891   6.795   0.449  0.6040  0.2560 -0.1562
16128TIP3    H169799   5.891   6.872   0.392 -2.3629  1.0236  0.7055
16128TIP3    H269800   5.978   6.794   0.488  1.1409  2.4455 -1.1317
16129TIP3   OH269801   0.309   2.613   3.488 -0.0484 -0.2490 -0.0599
16129TIP3    H169802   0.376   2.664   3.444 -0.7854  0.4268 -0.4201
16129TIP3    H269803   0.251   2.583   3.418  0.3713 -1.6072  0.1355
16130TIP3   OH269804   0.449   1.378  13.839  0.3734 -0.1816 -0.4311
16130TIP3    H169805   0.387   1.307  13.822  0.2508  0.1429 -1.4185
16130TIP3    H269806   0.394   1.456  13.848  0.4930 -0.2201  0.8206
16131TIP3   OH269807   5.944   6.793  10.573  0.0072 -0.3609  0.6962
16131TIP3    H169808   5.851   6.772  10.580 -0.2999  0.7149  0.1626
16131TIP3    H269809   5.970   6.817  10.662 -0.4022  0.0046  0.7200
16132TIP3   OH269810   6.031   3.577  11.482 -0.6926 -0.7391 -0.7582
16132TIP3    H169811   5.982   3.496  11.481  0.0878 -1.2657  0.5794
16132TIP3    H269812   6.109   3.559  11.429 -1.4043 -0.2485 -1.9954
16133TIP3   OH269813   1.912   1.131  16.531 -0.1322 -0.7653  0.1667
16133TIP3    H169814   1.925   1.204  16.469  2.0703 -1.2855 -0.0631
16133TIP3    H269815   1.992   1.130  16.583 -1.9757 -0.2282  3.2684
16134TIP3   OH269816   6.212   5.408   4.346  0.5427 -0.9037  0.2495
16134TIP3    H169817   6.269   5.331   4.353  0.6202 -0.7722  1.0754
16134TIP3    H269818   6.272   5.483   4.351  0.6259 -0.7586 -1.8043
16135TIP3   OH269819   3.661   5.129  15.470  0.4124  0.5200  0.3007
16135TIP3    H169820   3.647   5.158  15.380 -0.6402  1.4113  0.7284
16135TIP3    H269821   3.715   5.050  15.462 -0.7836 -0.1935 -1.1858
16136TIP3   OH269822   2.695   6.426  15.115  0.6714 -0.4725  1.3626
16136TIP3    H169823   2.655   6.344  15.143 -0.4589  0.2957  2.1155
16136TIP3    H269824   2.785   6.403  15.092  0.0156 -2.1308  0.3157
16137TIP3   OH269825   2.529   4.114  11.268  0.4010 -0.4118  0.0795
16137TIP3    H169826   2.509   4.022  11.289  0.6551 -0.4179  0.2971
16137TIP3    H269827   2.443   4.154  11.253  0.2049 -0.3991  1.1847
16138TIP3   OH269828   5.892   5.309   4.848 -0.1387 -0.4323 -0.0726
16138TIP3    H169829   5.955   5.239   4.833  0.7785  0.6106 -1.3253
16138TIP3    H269830   5.852   5.326   4.763 -0.3785  0.5341  0.2111
16139TIP3   OH269831   5.268   4.593   2.983 -0.3191 -0.5225 -0.2743
16139TIP3    H169832   5.303   4.521   3.036  0.4359 -0.1725 -0.2951
16139TIP3    H269833   5.264   4.667   3.043 -1.6285 -0.7117 -0.1016
16140TIP3   OH269834   0.425   1.223   0.533  0.4860 -0.0474  0.0978
16140TIP3    H169835   0.501   1.272   0.565  0.1187  1.4935 -1.2410
16140TIP3    H269836   0.350   1.266   0.574  0.1981  0.1273 -0.5909
16141TIP3   OH269837   5.291   3.698  13.409 -0.0541 -0.1522 -0.3295
16141TIP3    H169838   5.220   3.763  13.412  0.1727  0.0692  0.7922
16141TIP3    H269839   5.336   3.715  13.327 -1.6167 -0.6472 -1.3505
16142TIP3   OH269840   2.418   2.443  14.893  0.9929  0.2126 -0.1260
16142TIP3    H169841   2.384   2.462  14.981  1.6057  2.0405 -0.2413
16142TIP3    H269842   2.484   2.510  14.878  1.3564 -0.4636 -1.7518
16143TIP3   OH269843   1.965   4.137  15.431 -0.0424  0.2410 -0.2581
16143TIP3    H169844   1.921   4.077  15.491  0.1347  0.5379  0.1671
16143TIP3    H269845   1.893   4.185  15.389 -0.1934 -0.3795 -0.7230
16144TIP3   OH269846   6.546   0.334  12.207  0.1941 -0.0327  0.5523
16144TIP3    H169847   6.493   0.261  12.174  1.0690 -1.7102  2.6446
16144TIP3    H269848   6.605   0.294  12.270  0.8314  2.4993  1.6732
16145TIP3   OH269849   1.623   6.014   3.171 -0.0580  0.0258 -0.4393
16145TIP3    H169850   1.668   5.929   3.174 -1.3991 -0.7009 -0.3582
16145TIP3    H269851   1.602   6.026   3.078  0.1933  0.3182 -0.4614
16146TIP3   OH269852   2.810   2.246  13.825  0.1169 -0.7562  0.1759
16146TIP3    H169853   2.794   2.280  13.737  0.8358  0.5726  0.5237
16146TIP3    H269854   2.796   2.322  13.882  0.9273 -1.2762  1.0902
16147TIP3   OH269855   0.612   4.163  11.523 -0.5265 -0.1994  0.8589
16147TIP3    H169856   0.681   4.190  11.584  0.5216 -0.0832 -0.3134
16147TIP3    H269857   0.611   4.068  11.528 -0.3558 -0.1956  0.9739
16148TIP3   OH269858   4.279   1.497  15.805 -0.2624  0.5156 -0.0489
16148TIP3    H169859   4.362   1.543  15.792 -0.3868  0.6011 -0.5893
16148TIP3    H269860   4.260   1.506  15.898  0.5140  0.1901  0.1441
16149TIP3   OH269861   4.350   0.758   0.576 -0.7340 -0.3301  0.0024
16149TIP3    H169862   4.332   0.743   0.669  0.8966  1.1035  0.5964
16149TIP3    H269863   4.440   0.729   0.564 -1.6654 -2.9384 -1.7955
16150TIP3   OH269864   5.772   6.709  11.541 -0.3832  0.3609 -0.3055
16150TIP3    H169865   5.706   6.769  11.507 -0.8526  0.4660  0.7385
16150TIP3    H269866   5.761   6.629  11.490 -0.0768  0.9810 -1.3820
16151TIP3   OH269867   2.451   3.562  13.347  0.1158 -0.1252  0.1521
16151TIP3    H169868   2.403   3.574  13.429 -0.8861 -0.0901 -0.4192
16151TIP3    H269869   2.382   3.552  13.281  0.8970 -1.3919 -0.5141
16152TIP3   OH269870   5.125   0.982   0.280  0.0951  0.7626 -0.0681
16152TIP3    H169871   5.104   0.904   0.331 -2.7402 -0.0202 -2.1894
16152TIP3    H269872   5.059   1.047   0.306  0.2544  1.2459 -0.8211
16153TIP3   OH269873   1.153   0.279  16.408 -0.6264  0.2370 -0.1661
16153TIP3    H169874   1.104   0.330  16.345 -0.3899  0.2993 -0.3026
16153TIP3    H269875   1.088   0.251  16.473 -0.8993  0.0319 -0.5280
16154TIP3   OH269876   2.686   1.674  11.520  0.5847  0.5144 -0.3083
16154TIP3    H169877   2.603   1.686  11.474 -0.4024 -0.3669  1.1497
16154TIP3    H269878   2.730   1.603  11.472 -0.1431  0.0353 -0.2891
16155TIP3   OH269879   4.538   0.112   3.902  0.8530 -0.2528  0.4467
16155TIP3    H169880   4.596   0.070   3.837  1.6577  1.8458 -0.2820
16155TIP3    H269881   4.460   0.135   3.852  0.6530 -0.3858  0.7016
16156TIP3   OH269882   3.041   1.669  15.288 -0.3305 -0.0641 -0.0729
16156TIP3    H169883   3.106   1.735  15.263 -0.2728  0.5224  1.5016
16156TIP3    H269884   3.089   1.587  15.289 -0.1985 -0.0127 -1.2437
16157TIP3   OH269885   6.216   5.447   4.784 -0.3332  0.2674  0.0927
16157TIP3    H169886   6.176   5.398   4.855 -0.5745  0.5389  0.1461
16157TIP3    H269887   6.279   5.386   4.745 -1.3142 -0.4201 -0.4571
16158TIP3   OH269888   3.949   3.966   6.596  0.1943 -0.3571  0.4013
16158TIP3    H169889   4.026   3.966   6.538  0.2058 -3.0731  0.3145
16158TIP3    H269890   3.985   3.958   6.684  0.0659  0.8289  0.5751
16159TIP3   OH269891   1.507   0.157  15.790 -0.1002 -0.2516 -0.1404
16159TIP3    H169892   1.577   0.116  15.842  0.6917  1.7182  0.4097
16159TIP3    H269893   1.426   0.123  15.829  0.4467  1.2512  2.5723
16160TIP3   OH269894   4.010   2.884  12.376 -0.2374 -0.4747 -0.4125
16160TIP3    H169895   4.095   2.902  12.417  0.6783 -0.1559 -2.3427
16160TIP3    H269896   3.976   2.970  12.353  0.0504 -0.7010 -1.7707
16161TIP3   OH269897   2.976   2.404   6.292  0.0774 -0.1657 -0.2944
16161TIP3    H169898   2.905   2.431   6.350 -1.3693 -2.1932 -1.0229
16161TIP3    H269899   2.978   2.470   6.223 -1.2922 -0.1900 -0.3848
16162TIP3   OH269900   5.372   4.157  16.402 -0.4920 -0.1330  0.5869
16162TIP3    H169901   5.328   4.235  16.370  0.3937  0.5084  0.8889
16162TIP3    H269902   5.433   4.133  16.333 -1.4816 -1.1838  0.0478
16163TIP3   OH269903   3.789   0.461  16.068  0.5922  0.1680 -0.3143
16163TIP3    H169904   3.810   0.368  16.061 -1.0350 -0.1819 -0.8437
16163TIP3    H269905   3.854   0.504  16.013  0.8236 -0.7299 -0.7586
16164TIP3   OH269906   3.656   0.900   0.214 -0.1147  0.2612 -0.0156
16164TIP3    H169907   3.701   0.943   0.286  1.2754 -0.9984 -0.0916
16164TIP3    H269908   3.706   0.820   0.199 -1.5094 -0.4403 -1.1183
16165TIP3   OH269909   5.377   1.859   4.930 -0.2902 -0.1663 -0.3530
16165TIP3    H169910   5.293   1.901   4.915 -0.1716  0.0463 -0.4228
16165TIP3    H269911   5.419   1.857   4.844 -0.7230 -1.3656 -0.5641
16166TIP3   OH269912   3.528   0.759  14.922  0.3815  0.1609  0.6284
16166TIP3    H169913   3.619   0.787  14.932  0.6563 -1.0307  1.7755
16166TIP3    H269914   3.531   0.663  14.931 -1.1072  0.1819  1.7651
16167TIP3   OH269915   3.568   5.992   3.198 -0.3187  0.1006  0.4708
16167TIP3    H169916   3.606   5.906   3.214 -0.9273 -0.2375  0.0868
16167TIP3    H269917   3.557   6.030   3.286 -0.5289 -0.4132  0.6687
16168TIP3   OH269918   6.750   0.350   3.184 -0.1077 -0.0659  0.3760
16168TIP3    H169919   6.704   0.386   3.107 -0.4500 -2.2762 -0.5188
16168TIP3    H269920   6.841   0.376   3.172 -0.5072  1.4210  0.3660
16169TIP3   OH269921   3.428   5.701  16.354  0.3440  0.0222  0.2920
16169TIP3    H169922   3.463   5.777  16.401 -0.4360  0.5475  0.0432
16169TIP3    H269923   3.455   5.714  16.264  1.6002 -0.8428  0.5243
16170TIP3   OH269924   3.148   0.571  13.613 -0.1506  0.5737  0.7694
16170TIP3    H169925   3.152   0.643  13.676  2.4128  0.9810  0.2793
16170TIP3    H269926   3.141   0.614  13.528 -2.9531  0.0464  0.6574
16171TIP3   OH269927   6.659   5.718   0.605 -0.7780  0.2444 -0.2240
16171TIP3    H169928   6.630   5.794   0.656 -2.3773  0.6330 -1.5847
16171TIP3    H269929   6.596   5.649   0.626 -0.0719 -0.3276  0.0591
16172TIP3   OH269930   2.189   5.918  16.560 -0.1472 -0.3160  0.8859
16172TIP3    H169931   2.220   5.828  16.573 -1.4962 -0.7668  1.2373
16172TIP3    H269932   2.238   5.950  16.485  0.4602 -1.3098  0.8368
16173TIP3   OH269933   4.140   2.248  15.770 -0.2867 -0.1273  0.3729
16173TIP3    H169934   4.210   2.221  15.710 -1.0639 -0.8188 -0.2675
16173TIP3    H269935   4.104   2.327  15.731 -1.6681 -1.2977 -0.8769
16174TIP3   OH269936   6.720   3.123   5.394  0.3477 -0.1354 -0.2080
16174TIP3    H169937   6.669   3.109   5.474 -0.5639 -3.0871 -1.1529
16174TIP3    H269938   6.792   3.061   5.400  0.2159 -0.4838 -1.6764
16175TIP3   OH269939   1.084   3.475  16.928  0.5112  0.4265 -0.1716
16175TIP3    H169940   1.137   3.531  16.873  0.5100 -1.5083 -2.2796
16175TIP3    H269941   1.145   3.408  16.961  0.0263  0.1133  0.1143
16176TIP3   OH269942   3.990   0.711  15.121 -0.2928  0.2228  0.3727
16176TIP3    H169943   4.050   0.698  15.047  0.8370 -0.0330  1.2927
16176TIP3    H269944   4.041   0.763  15.184 -0.9497 -0.2243  1.2929
16177TIP3   OH269945   5.701   0.681  14.322 -0.0339  0.2379 -0.0720
16177TIP3    H169946   5.630   0.713  14.266  0.2970  1.4713  0.1839
16177TIP3    H269947   5.751   0.760  14.345  0.8066 -0.4709  0.6072
16178TIP3   OH269948   2.495   4.352   3.841  0.0520 -0.0125  0.2453
16178TIP3    H169949   2.406   4.322   3.827 -2.0263  3.3897  4.0845
16178TIP3    H269950   2.525   4.303   3.917  2.1868 -2.1312 -1.8105
16179TIP3   OH269951   4.096   2.537   1.993  0.3073 -0.3078 -0.1751
16179TIP3    H169952   4.128   2.520   1.905 -2.0050  0.0046 -1.1586
16179TIP3    H269953   4.030   2.469   2.008  1.1780 -0.8063  1.6366
16180TIP3   OH269954   5.568   0.977   1.753 -0.4975 -0.1833  0.3966
16180TIP3    H169955   5.492   0.993   1.697 -2.0526 -1.5003  1.9981
16180TIP3    H269956   5.619   0.910   1.707 -1.6022 -1.0404  0.3631
16181TIP3   OH269957   5.235   2.736   6.540 -0.6644  0.1383 -0.0524
16181TIP3    H169958   5.261   2.802   6.476  0.7938  0.8929  1.2595
16181TIP3    H269959   5.292   2.661   6.522 -0.1989  0.3810  0.4224
16182TIP3   OH269960   2.870   2.588  12.986 -0.0210  0.1201 -0.5992
16182TIP3    H169961   2.904   2.499  12.977 -0.5152 -0.0728 -0.5858
16182TIP3    H269962   2.903   2.634  12.909 -1.7926 -0.7408 -1.9559
16183TIP3   OH269963   4.652   2.973   5.057  0.0548  0.6084 -0.1602
16183TIP3    H169964   4.702   3.046   5.093  1.2398 -0.2534 -0.0385
16183TIP3    H269965   4.684   2.896   5.102 -0.8152 -0.0737 -0.6637
16184TIP3   OH269966   0.291   2.471   4.782  0.2282  0.5906 -0.2701
16184TIP3    H169967   0.198   2.461   4.760  0.5009  1.0500 -1.7375
16184TIP3    H269968   0.321   2.544   4.728  0.8497  2.2340  2.1361
16185TIP3   OH269969   3.392   3.595   2.739  0.0059  0.1620 -0.1243
16185TIP3    H169970   3.445   3.675   2.738  1.5251 -0.8000 -0.2127
16185TIP3    H269971   3.455   3.525   2.722 -1.3975 -1.0029 -0.7191
16186TIP3   OH269972   2.666   2.043  15.980 -0.6378 -0.1258  0.2488
16186TIP3    H169973   2.720   2.102  15.928  1.0870 -1.8803 -0.0826
16186TIP3    H269974   2.642   1.973  15.919 -2.3889  0.0332  0.6954
16187TIP3   OH269975   0.576   2.993   0.924 -0.6158  0.0307  0.3987
16187TIP3    H169976   0.559   2.983   0.831  1.1067 -0.8586  0.1396
16187TIP3    H269977   0.587   2.903   0.956  1.1351  0.4055  0.9553
16188TIP3   OH269978   0.324   4.344  13.174  0.4177  0.0529  0.7730
16188TIP3    H169979   0.290   4.368  13.260  1.2916  1.0512  0.8521
16188TIP3    H269980   0.411   4.308  13.192  0.6220  0.3071  0.3063
16189TIP3   OH269981   0.813   6.640   4.049  0.2652 -0.1042 -0.4923
16189TIP3    H169982   0.766   6.722   4.058  0.6229  0.0504  0.0418
16189TIP3    H269983   0.753   6.574   4.084  0.0991 -0.0314 -0.6385
16190TIP3   OH269984   1.176   1.762   3.649 -0.1419  0.1439 -0.8231
16190TIP3    H169985   1.265   1.798   3.650 -0.3097  0.5709  0.3846
16190TIP3    H269986   1.125   1.827   3.600 -0.1581  0.8895  0.1397
16191TIP3   OH269987   1.698   0.371   2.613  0.3940  0.1549 -0.6213
16191TIP3    H169988   1.765   0.434   2.587 -0.6853  1.8696  0.5969
16191TIP3    H269989   1.684   0.388   2.706 -1.5525 -0.3233 -0.7878
16192TIP3   OH269990   5.281   1.956  14.277 -0.8202  0.3430 -0.1674
16192TIP3    H169991   5.247   2.044  14.259  0.5204  0.9229  0.0585
16192TIP3    H269992   5.351   1.969  14.341 -1.7656 -1.0897  1.2517
16193TIP3   OH269993   1.964   5.909   1.801  0.6085  0.1654 -0.1313
16193TIP3    H169994   1.873   5.936   1.813  0.2418 -0.9145 -0.3904
16193TIP3    H269995   2.011   5.948   1.875  0.0418  1.1972 -0.3096
16194TIP3   OH269996   4.529   3.941  12.912 -0.3985 -0.3851 -0.4810
16194TIP3    H169997   4.451   3.997  12.918 -1.0404 -1.3898  1.2457
16194TIP3    H269998   4.601   4.003  12.899 -1.3339  0.6644 -0.8309
16195TIP3   OH269999   4.466   4.634  11.784 -0.7933 -0.2607  0.4040
16195TIP3    H170000   4.507   4.615  11.700 -2.7991 -0.5743 -0.5572
16195TIP3    H270001   4.521   4.703  11.822  0.9953 -1.1349 -0.4652
16196TIP3   OH270002   0.043   5.470   2.752 -0.0264  0.8038  0.0177
16196TIP3    H170003  -0.001   5.390   2.724 -1.6706  1.5798  0.2879
16196TIP3    H270004   0.037   5.529   2.677 -1.1801  1.5792  0.6767
16197TIP3   OH270005   4.882   3.723  12.177 -0.2072 -0.5387 -0.0232
16197TIP3    H170006   4.796   3.746  12.212 -0.6096 -1.3062 -0.4755
16197TIP3    H270007   4.918   3.806  12.145 -0.8165 -0.2248  0.0883
16198TIP3   OH270008   4.254   2.248   4.171  0.7688 -0.8521  0.3307
16198TIP3    H170009   4.275   2.283   4.084  0.8301 -2.3016 -0.2688
16198TIP3    H270010   4.162   2.221   4.165  0.7615 -0.9240  0.7261
16199TIP3   OH270011   3.014   2.275   0.557  0.1427 -0.6093 -0.2486
16199TIP3    H170012   3.079   2.342   0.536 -0.4512 -0.0844 -0.4282
16199TIP3    H270013   3.052   2.228   0.631 -0.1324  0.9772  0.9594
16200TIP3   OH270014   0.303   5.470  13.523  0.3025 -0.5060 -0.3023
16200TIP3    H170015   0.305   5.528  13.447  1.0125 -0.0261  0.0725
16200TIP3    H270016   0.237   5.404  13.502 -0.6117  0.5094 -0.6810
16201TIP3   OH270017   3.387   1.476  12.086  0.5722  0.3324 -0.1507
16201TIP3    H170018   3.302   1.518  12.097  0.7720  1.0477 -1.1934
16201TIP3    H270019   3.366   1.384  12.071 -0.0301  0.5215 -0.5270
16202TIP3   OH270020   3.910   3.435   1.531 -0.1843 -0.0635 -0.8564
16202TIP3    H170021   3.936   3.439   1.439 -0.1394 -2.3659 -0.9997
16202TIP3    H270022   3.992   3.423   1.579 -0.2740  0.4523 -0.5654
16203TIP3   OH270023   0.150   3.608  16.055 -0.7056 -0.5524  0.1777
16203TIP3    H170024   0.129   3.535  15.997  2.2312 -0.1655 -1.5750
16203TIP3    H270025   0.245   3.618  16.047 -0.6144  1.5443  2.7134
16204TIP3   OH270026   3.403   6.379   2.344 -0.1221 -0.0538 -0.3572
16204TIP3    H170027   3.443   6.293   2.360 -2.3590 -1.1787 -0.4804
16204TIP3    H270028   3.334   6.362   2.281  1.2287  2.3919 -2.6993
16205TIP3   OH270029   5.767   2.019  12.173 -1.4011  0.2336 -0.0380
16205TIP3    H170030   5.809   2.086  12.226  3.1170 -1.2513 -1.3185
16205TIP3    H270031   5.759   2.057  12.086 -0.0454 -0.3462 -0.4464
16206TIP3   OH270032   3.447   3.467  16.068  0.3258 -0.5179 -0.5444
16206TIP3    H170033   3.360   3.459  16.028 -0.4412  0.4894  0.8628
16206TIP3    H270034   3.483   3.547  16.030 -0.4883  0.5554  0.8461
16207TIP3   OH270035   6.512   0.109   4.754 -0.4800 -0.0439  0.5762
16207TIP3    H170036   6.438   0.049   4.770 -0.4302  0.0133  1.0426
16207TIP3    H270037   6.590   0.055   4.767 -0.4365 -0.1546 -0.1167
16208TIP3   OH270038   1.342   2.881  16.235  0.0772  0.0316 -0.7255
16208TIP3    H170039   1.301   2.810  16.187  1.0095 -1.8626  1.1226
16208TIP3    H270040   1.275   2.911  16.297  0.1925 -0.3551 -0.4088
16209TIP3   OH270041   5.475   1.448  13.612  0.3505 -0.3191 -0.1062
16209TIP3    H170042   5.500   1.426  13.523 -0.6417  0.2352 -0.5406
16209TIP3    H270043   5.497   1.541  13.621  0.1924 -0.3018  0.1294
16210TIP3   OH270044   4.206   3.923   4.599 -0.7009 -0.5042  0.6343
16210TIP3    H170045   4.277   3.943   4.661  0.8578 -0.2066 -1.1448
16210TIP3    H270046   4.184   4.008   4.560  0.9653 -1.0835 -1.8204
16211TIP3   OH270047   1.685   2.912  11.521  0.4183  0.1076  0.4202
16211TIP3    H170048   1.768   2.931  11.566  1.1965  0.9847 -1.3028
16211TIP3    H270049   1.704   2.834  11.468  0.2591  0.5181 -0.2492
16212TIP3   OH270050   1.486   0.412   3.910 -0.3269  0.2328 -0.1948
16212TIP3    H170051   1.562   0.403   3.853 -0.4587 -0.8025 -0.2301
16212TIP3    H270052   1.470   0.323   3.942 -2.3437  0.1455 -1.2551
16213TIP3   OH270053   3.360   2.840   4.941  0.1594  0.3640  0.2364
16213TIP3    H170054   3.363   2.766   4.880 -1.8943  1.0003 -0.7488
16213TIP3    H270055   3.434   2.895   4.916  1.5904 -1.2237  0.8447
16214TIP3   OH270056   5.945   2.878   0.046  0.3211 -0.0902  0.3721
16214TIP3    H170057   5.951   2.949   0.110  1.6358 -1.2155  1.5647
16214TIP3    H270058   5.854   2.881   0.015  0.2083  1.7586  0.7590
16215TIP3   OH270059   0.720   2.054   5.407 -0.0041 -0.2785  0.1348
16215TIP3    H170060   0.701   2.129   5.350  1.8293 -0.4867 -0.8548
16215TIP3    H270061   0.657   1.987   5.380  0.2843 -0.0810 -1.1016
16216TIP3   OH270062   3.505   5.697   3.820  0.7148  0.5846  0.5446
16216TIP3    H170063   3.598   5.681   3.805  0.6478  1.5694 -1.0902
16216TIP3    H270064   3.461   5.628   3.770  0.5387  0.5081  0.8018
16217TIP3   OH270065   4.561   3.343  16.737  0.2486 -0.5182 -0.5342
16217TIP3    H170066   4.567   3.248  16.747 -1.5599 -0.6365 -0.2318
16217TIP3    H270067   4.599   3.378  16.818 -0.0545 -1.0150 -0.1698
16218TIP3   OH270068   1.042   5.139  14.770 -0.2029 -0.4876 -0.2559
16218TIP3    H170069   1.109   5.139  14.837  1.0329 -0.8951 -1.4453
16218TIP3    H270070   0.990   5.060  14.788 -0.5899 -0.0001  0.8565
16219TIP3   OH270071   5.406   1.879  11.682  0.3917 -0.0213  0.2138
16219TIP3    H170072   5.434   1.823  11.755  0.1134  0.0296  0.3617
16219TIP3    H270073   5.467   1.860  11.612  1.3784  0.7472  0.8236
16220TIP3   OH270074   4.058   4.380  13.115  0.2692 -0.1193  0.5582
16220TIP3    H170075   4.059   4.304  13.056  1.8115  0.3405 -0.0646
16220TIP3    H270076   4.092   4.347  13.198  1.7281  0.0151  0.0539
16221TIP3   OH270077   5.997   6.763   5.618 -0.2850 -0.8897  1.0744
16221TIP3    H170078   6.091   6.754   5.633 -0.0574  0.4445  0.5889
16221TIP3    H270079   5.959   6.683   5.653  1.1741 -2.0965  0.0237
16222TIP3   OH270080   0.211   1.809   0.856 -0.0879 -0.1054 -0.4573
16222TIP3    H170081   0.128   1.852   0.877 -0.5977 -1.1315 -0.3305
16222TIP3    H270082   0.230   1.835   0.766 -0.6071  0.0387 -0.5268
16223TIP3   OH270083   2.700   5.019  13.726 -0.8650  0.3211 -0.2484
16223TIP3    H170084   2.608   5.041  13.713 -1.1664  0.5477  1.9695
16223TIP3    H270085   2.709   5.005  13.820  1.7371  2.0390 -0.1239
16224TIP3   OH270086   3.287   2.339  12.960  0.8589  0.1504  0.2188
16224TIP3    H170087   3.266   2.411  13.019  0.5055 -0.4385  0.8128
16224TIP3    H270088   3.273   2.376  12.872  2.1946  1.2832  0.4425
16225TIP3   OH270089   3.534   2.740  15.834 -0.1650 -0.2671  0.2832
16225TIP3    H170090   3.494   2.780  15.757 -1.4752 -0.2207  0.9655
16225TIP3    H270091   3.463   2.693  15.877  0.7341 -0.9934  1.0217
16226TIP3   OH270092   3.817   4.606   6.049  0.3862  0.3849  1.2331
16226TIP3    H170093   3.886   4.541   6.037 -0.8723 -1.2174  2.2584
16226TIP3    H270094   3.819   4.626   6.143 -0.9562 -0.2142  1.4165
16227TIP3   OH270095   0.507   3.157   2.189 -0.0829  0.2054  0.1907
16227TIP3    H170096   0.447   3.225   2.158  2.7314  1.9947 -1.8317
16227TIP3    H270097   0.593   3.200   2.192  1.5767 -2.8308  0.3916
16228TIP3   OH270098   3.816   5.849   4.584 -0.2756 -0.9388  0.2173
16228TIP3    H170099   3.799   5.782   4.650  0.4311  0.9320  2.4380
16228TIP3    H270100   3.821   5.931   4.633 -0.2701  0.6741 -2.2553
16229TIP3   OH270101   6.813   1.168   3.447  0.3319  0.5579  0.8327
16229TIP3    H170102   6.826   1.177   3.353  0.9624  0.1056  0.8698
16229TIP3    H270103   6.756   1.091   3.456  0.4137  0.4955  0.8237
16230TIP3   OH270104   4.295   5.494   5.696 -0.0081  0.1169 -0.5408
16230TIP3    H170105   4.333   5.557   5.757 -1.5056 -1.3509  2.1443
16230TIP3    H270106   4.361   5.425   5.689  0.3750  0.5285 -0.9830
16231TIP3   OH270107   6.640   1.695   2.250 -0.5177  0.8206  0.6526
16231TIP3    H170108   6.713   1.737   2.205 -0.6261  1.1767  0.8059
16231TIP3    H270109   6.594   1.767   2.293 -0.7299  0.5497  0.8810
16232TIP3   OH270110   1.192   1.057  14.633  0.2001  0.2676 -0.1875
16232TIP3    H170111   1.265   1.077  14.574  1.2962 -1.6028  0.4322
16232TIP3    H270112   1.184   0.961  14.629 -2.6500  0.4389 -0.6985
16233TIP3   OH270113   5.478   3.012  13.414  0.3379 -0.4298  0.0598
16233TIP3    H170114   5.551   2.993  13.474  2.2398  1.5539 -1.4954
16233TIP3    H270115   5.445   3.097  13.443 -0.9657 -0.9820  0.2915
16234TIP3   OH270116   3.514   6.678  14.179 -0.0013  0.1044  0.6669
16234TIP3    H170117   3.592   6.728  14.202 -0.5143  0.4114  1.8490
16234TIP3    H270118   3.504   6.689  14.085  1.5551 -0.2163  0.4465
16235TIP3   OH270119   1.250   4.561  13.257 -0.3510  0.8051 -0.6175
16235TIP3    H170120   1.253   4.618  13.180  0.9423  0.6859 -0.6812
16235TIP3    H270121   1.328   4.584  13.307  1.2448 -2.0947 -1.5457
16236TIP3   OH270122   2.119   1.757   0.618  0.0348  0.4145 -0.4715
16236TIP3    H170123   2.119   1.843   0.576 -0.9714  0.5531 -0.2325
16236TIP3    H270124   2.093   1.696   0.549  2.0997  0.0746 -1.0029
16237TIP3   OH270125   2.918   0.219   5.274  0.0442 -0.4056  0.2376
16237TIP3    H170126   2.927   0.252   5.185 -0.2441 -0.5725  0.1443
16237TIP3    H270127   2.997   0.248   5.319 -0.3523  0.7001  0.2499
16238TIP3   OH270128   3.541   6.651   2.497  0.0857 -0.1843  0.1412
16238TIP3    H170129   3.588   6.638   2.415 -0.2974  1.4671 -0.3782
16238TIP3    H270130   3.455   6.684   2.471  0.3536  1.4802  1.1972
16239TIP3   OH270131   1.636   0.553   0.638 -0.2638  0.6150 -0.4579
16239TIP3    H170132   1.667   0.495   0.708 -0.3393  1.1639  0.0446
16239TIP3    H270133   1.637   0.499   0.559 -1.4206 -0.4014  0.1942
16240TIP3   OH270134   2.489   3.896   1.898 -0.2881  0.2755 -0.4742
16240TIP3    H170135   2.486   3.812   1.944  0.4769 -0.2188 -1.3013
16240TIP3    H270136   2.472   3.961   1.966 -0.9890 -0.5469  0.1615
16241TIP3   OH270137   0.485   6.595   4.904  0.3467 -0.3208  0.5875
16241TIP3    H170138   0.568   6.554   4.879 -0.1818 -0.9296 -0.2174
16241TIP3    H270139   0.505   6.688   4.909  0.8534 -0.3440 -0.6387
16242TIP3   OH270140   1.280   1.072   4.213  0.4806  0.5346  0.1554
16242TIP3    H170141   1.367   1.033   4.204  0.1294 -0.3829  0.6567
16242TIP3    H270142   1.252   1.049   4.302 -1.2203 -1.1899 -0.7557
16243TIP3   OH270143   4.115   4.049   2.582 -0.4469 -0.6319 -0.1127
16243TIP3    H170144   4.108   4.040   2.487 -0.9936 -1.4340 -0.0093
16243TIP3    H270145   4.034   4.094   2.608  0.0050  0.1896 -0.0856
16244TIP3   OH270146   1.745   1.232   5.924  0.3771 -0.2918  0.4073
16244TIP3    H170147   1.738   1.307   5.982  1.6894 -1.3180  2.0060
16244TIP3    H270148   1.670   1.239   5.865  0.6876  2.4453  0.2302
16245TIP3   OH270149   6.029   0.926  16.300 -0.0790 -0.1732 -0.2380
16245TIP3    H170150   6.119   0.913  16.331 -0.0153 -1.7752 -1.0230
16245TIP3    H270151   6.037   0.937  16.205 -0.5862  1.2688 -0.1328
16246TIP3   OH270152   0.416   4.355   1.491  0.2811  0.1962 -0.4378
16246TIP3    H170153   0.337   4.330   1.443  0.2085 -1.8884  0.7014
16246TIP3    H270154   0.485   4.302   1.453  0.2986 -1.2005  1.4206
16247TIP3   OH270155   3.027   2.929   6.622 -0.7726  0.1446  0.0473
16247TIP3    H170156   3.110   2.917   6.669  0.0305  1.3434 -1.0191
16247TIP3    H270157   3.012   2.845   6.579  0.9882  0.5308 -1.4209
16248TIP3   OH270158   5.957   3.310  15.108 -0.0205  0.0909 -0.0892
16248TIP3    H170159   6.036   3.293  15.160  0.0439 -1.3297 -0.6298
16248TIP3    H270160   5.890   3.332  15.174  0.2574 -0.9374  0.5680
16249TIP3   OH270161   5.294   1.792   0.575  0.3407 -0.1479  0.2847
16249TIP3    H170162   5.215   1.837   0.545 -0.0073 -0.6846  0.3790
16249TIP3    H270163   5.346   1.859   0.619  0.1310  0.3008 -0.1446
16250TIP3   OH270164   0.346   3.073  11.133 -0.4674  0.3928 -0.1676
16250TIP3    H170165   0.337   3.121  11.050 -2.8467  0.3284 -0.0297
16250TIP3    H270166   0.388   2.991  11.109  0.2786  1.0202 -1.0497
16251TIP3   OH270167   2.188   2.292  12.797  0.2648  0.0407  0.0979
16251TIP3    H170168   2.261   2.312  12.855  0.0578  0.6633  0.1498
16251TIP3    H270169   2.151   2.377  12.774  1.6242 -0.0070 -2.6521
16252TIP3   OH270170   6.714   5.435  12.484  0.0437  0.2282  0.6928
16252TIP3    H170171   6.766   5.407  12.409 -1.1488  0.1713 -0.1349
16252TIP3    H270172   6.776   5.481  12.540  1.3164 -1.1455  0.4816
16253TIP3   OH270173   0.174   2.533  11.401 -0.3684 -0.9687 -0.5142
16253TIP3    H170174   0.165   2.628  11.400  0.1270 -0.8577  1.7613
16253TIP3    H270175   0.084   2.500  11.404 -0.5376 -0.5888 -1.1772
16254TIP3   OH270176   6.306   2.636  15.737  0.5823 -0.4758  0.5113
16254TIP3    H170177   6.321   2.700  15.807  0.2431 -0.9825  1.0486
16254TIP3    H270178   6.314   2.687  15.656  1.7290 -0.0379  0.8890
16255TIP3   OH270179   2.008   1.384  13.259  0.1309 -0.0831 -0.5615
16255TIP3    H170180   2.085   1.438  13.276  1.4110 -2.0916  0.3828
16255TIP3    H270181   1.934   1.443  13.276  1.4271  1.7070 -0.8046
16256TIP3   OH270182   5.093   1.685   3.237 -0.2642 -0.1642 -0.6070
16256TIP3    H170183   5.097   1.780   3.230 -0.7091 -0.1454 -0.6510
16256TIP3    H270184   5.182   1.655   3.216  0.5085  0.3692  1.6688
16257TIP3   OH270185   0.517   5.379  16.252  0.5797 -0.3289 -0.1235
16257TIP3    H170186   0.455   5.413  16.317  1.0019  0.2926 -0.0259
16257TIP3    H270187   0.539   5.291  16.283  0.6365 -0.1068  0.4863
16258TIP3   OH270188   1.692   0.656   4.441 -0.0183  0.4384  0.0839
16258TIP3    H170189   1.753   0.727   4.460  1.8949 -0.9159 -0.7427
16258TIP3    H270190   1.668   0.669   4.349 -0.1358  0.3402  0.1009
16259TIP3   OH270191   2.839   1.846  11.192 -0.2951 -0.2728  0.3581
16259TIP3    H170192   2.904   1.837  11.122 -0.5368  2.1121 -0.2533
16259TIP3    H270193   2.805   1.757  11.205  2.7415 -1.5190  0.4151
16260TIP3   OH270194   4.452   4.751  16.779  0.4144 -0.0042  0.1593
16260TIP3    H170195   4.505   4.731  16.855  0.7891  2.0014  0.4711
16260TIP3    H270196   4.399   4.826  16.804 -2.2789 -1.5770 -0.3114
16261TIP3   OH270197   3.104   6.323  16.913  0.8438  0.5672  0.2280
16261TIP3    H170198   3.127   6.290  17.000 -0.4339  1.9607  1.1329
16261TIP3    H270199   3.177   6.382  16.890  0.7328  0.9314  0.7860
16262TIP3   OH270200   6.600   5.931  12.789 -0.4159 -0.0167 -0.4770
16262TIP3    H170201   6.585   5.838  12.806  0.3233  0.0403  0.6134
16262TIP3    H270202   6.692   5.936  12.763  0.4687  0.7072  2.4295
16263TIP3   OH270203   2.501   5.774  14.191  0.3967  0.3687 -0.5062
16263TIP3    H170204   2.464   5.831  14.258  1.2555 -0.4207  0.6803
16263TIP3    H270205   2.595   5.771  14.211  0.7916  0.5896 -2.1210
16264TIP3   OH270206   2.298   5.798  10.456  0.1219  0.8011  0.0029
16264TIP3    H170207   2.260   5.798  10.368 -2.3176  0.1299  0.9824
16264TIP3    H270208   2.377   5.745  10.448  0.5169  1.6288 -1.9919
16265TIP3   OH270209   1.435   3.367  10.647  0.2410  0.2346  0.4772
16265TIP3    H170210   1.436   3.283  10.693  1.4844  0.6397  1.2334
16265TIP3    H270211   1.388   3.349  10.566  0.4150 -1.1677  0.6640
16266TIP3   OH270212   0.316   0.297   5.761 -0.4900 -0.4427 -0.1126
16266TIP3    H170213   0.258   0.237   5.808 -0.0887 -0.1392  0.7886
16266TIP3    H270214   0.282   0.384   5.781 -0.3588 -0.3127 -0.4479
16267TIP3   OH270215   4.108   5.208   0.566 -0.6444  0.2021  0.2117
16267TIP3    H170216   4.033   5.232   0.511 -0.8447  0.3862  0.5633
16267TIP3    H270217   4.164   5.285   0.565  0.6835 -0.6925 -1.9097
16268TIP3   OH270218   3.386   4.036   5.755 -0.2563  0.4507 -0.4337
16268TIP3    H170219   3.451   4.023   5.824  0.1482  1.9526 -0.4952
16268TIP3    H270220   3.342   4.117   5.779 -0.5287  0.6716 -1.6263
16269TIP3   OH270221   6.142   4.584  16.155  0.0412  0.3118  0.3160
16269TIP3    H170222   6.235   4.570  16.140  0.3670 -1.5102  3.1458
16269TIP3    H270223   6.101   4.501  16.130 -0.5532  0.4601  0.7508
16270TIP3   OH270224   3.990   0.079  16.913 -0.1844 -0.2859  0.0798
16270TIP3    H170225   4.075   0.110  16.882  0.0687 -0.0680  0.9664
16270TIP3    H270226   4.002  -0.016  16.924  0.1306 -0.1745  0.7543
16271TIP3   OH270227   5.788   2.588   1.538 -0.3425 -0.1067  0.1560
16271TIP3    H170228   5.836   2.659   1.496  0.0278 -1.2564 -1.4302
16271TIP3    H270229   5.837   2.569   1.618 -0.3589  1.2667  0.5335
16272TIP3   OH270230   3.482   5.035  16.735  0.1163 -0.0431  0.0402
16272TIP3    H170231   3.444   5.097  16.797 -0.0270 -1.4492  1.4378
16272TIP3    H270232   3.576   5.039  16.751  0.0284 -0.9239  0.9254
16273TIP3   OH270233   0.835   1.673   0.449 -0.3173  0.1968 -0.1803
16273TIP3    H170234   0.813   1.586   0.417 -1.1364  0.4869 -0.4391
16273TIP3    H270235   0.929   1.669   0.467  0.0049 -0.2553 -1.7790
16274TIP3   OH270236   0.535   5.052  12.614 -0.7542  0.4477  0.5358
16274TIP3    H170237   0.613   5.035  12.562 -0.5236 -1.4539  1.3941
16274TIP3    H270238   0.465   5.006  12.568 -1.5651  2.6521 -0.5687
16275TIP3   OH270239   2.807   2.968   1.211 -0.2653 -0.4163  0.1542
16275TIP3    H170240   2.736   3.004   1.264  1.6096 -0.3640  2.8450
16275TIP3    H270241   2.802   2.873   1.226  0.4780 -0.3710  0.7797
16276TIP3   OH270242   6.646   4.870  15.032 -0.2324 -0.4474  0.6719
16276TIP3    H170243   6.634   4.942  15.095 -2.4268 -0.5773  0.4776
16276TIP3    H270244   6.670   4.913  14.950  0.9949 -0.1591  1.1562
16277TIP3   OH270245   3.679   6.485   5.567  0.1321  0.2080  0.4727
16277TIP3    H170246   3.733   6.407   5.555 -1.3123 -1.2110  2.5249
16277TIP3    H270247   3.591   6.451   5.580 -0.2937  2.0335  3.0485
16278TIP3   OH270248   1.453   5.297   0.808  0.6265 -0.5746  0.0361
16278TIP3    H170249   1.369   5.317   0.767 -0.9170 -2.4631  2.0827
16278TIP3    H270250   1.486   5.383   0.836 -0.5620  0.2133 -0.8660
16279TIP3   OH270251   3.516   4.370  15.225  0.1568  0.4412  0.0528
16279TIP3    H170252   3.486   4.411  15.305  0.0287  1.1142 -0.3351
16279TIP3    H270253   3.469   4.415  15.155  0.5270  0.1040 -0.4277
16280TIP3   OH270254   6.578   2.309  15.132 -0.1975 -0.2681  0.5253
16280TIP3    H170255   6.584   2.404  15.122  1.2096 -0.5014 -1.6136
16280TIP3    H270256   6.515   2.281  15.066  1.0568 -0.9796 -0.4226
16281TIP3   OH270257   2.460   0.022   0.263  0.2009  0.1919 -0.4784
16281TIP3    H170258   2.518   0.062   0.327  0.3183 -0.7079 -0.0100
16281TIP3    H270259   2.518  -0.015   0.196  0.1330 -0.0571 -0.3994
16282TIP3   OH270260   6.739   2.511  11.516  0.4352 -0.3972  0.2108
16282TIP3    H170261   6.723   2.569  11.589 -0.2884  0.6597 -0.7491
16282TIP3    H270262   6.672   2.443  11.524 -0.5373  0.4871 -0.2295
16283TIP3   OH270263   5.284   1.671   4.093  0.2076 -0.0476 -1.2659
16283TIP3    H170264   5.220   1.709   4.033  1.5267 -0.5143 -3.0875
16283TIP3    H270265   5.289   1.578   4.067 -0.7682 -0.8128  1.0787
16284TIP3   OH270266   3.187   6.392  14.660  0.1996 -0.8078 -0.0814
16284TIP3    H170267   3.212   6.468  14.713 -0.3384  0.1753 -1.1737
16284TIP3    H270268   3.091   6.393  14.661  0.1905 -1.1449 -0.5581
16285TIP3   OH270269   5.360   1.387  15.001 -0.7080  0.0986  0.1328
16285TIP3    H170270   5.286   1.445  14.984  0.2829  0.5823 -3.1836
16285TIP3    H270271   5.326   1.299  14.986 -1.1444  0.1073  0.9758
16286TIP3   OH270272   2.294   1.441   0.723 -0.4507 -0.5741  0.7486
16286TIP3    H170273   2.249   1.374   0.672 -0.1683 -1.6115  1.8119
16286TIP3    H270274   2.273   1.420   0.814  0.8851 -0.1423  1.1773
16287TIP3   OH270275   5.082   5.447  14.276 -0.1008 -0.3637  0.2642
16287TIP3    H170276   5.139   5.463  14.200  0.2628  0.8416  0.7538
16287TIP3    H270277   5.134   5.390  14.333 -0.1396 -0.7988 -0.1341
16288TIP3   OH270278   4.992   6.596   3.989 -0.1578  0.3911  0.5193
16288TIP3    H170279   5.037   6.557   3.914 -0.8059 -0.1400  0.3939
16288TIP3    H270280   4.911   6.545   3.998 -0.8289  1.4258  0.6213
16289TIP3   OH270281   3.657   4.062   0.714  0.4375 -0.0181 -0.5976
16289TIP3    H170282   3.700   4.109   0.785  0.6430 -1.3342  0.1922
16289TIP3    H270283   3.640   4.128   0.647  2.4038  0.8098 -0.3360
16290TIP3   OH270284   6.372   1.562   0.968 -0.0619  0.2641 -0.6750
16290TIP3    H170285   6.463   1.588   0.962  0.6369 -1.5021  1.1480
16290TIP3    H270286   6.343   1.556   0.877  1.3809  1.6058 -1.2642
16291TIP3   OH270287   5.480   0.665  15.713 -0.3319 -0.4466  0.3190
16291TIP3    H170288   5.458   0.571  15.715 -2.7450 -0.0197 -1.1789
16291TIP3    H270289   5.435   0.701  15.789  0.6798 -0.5082  0.9510
16292TIP3   OH270290   3.629   5.221   1.479  0.1908 -0.2237 -0.9927
16292TIP3    H170291   3.642   5.243   1.571 -1.7172 -1.3105 -0.4154
16292TIP3    H270292   3.553   5.272   1.452 -0.2400 -1.0987 -1.4942
16293TIP3   OH270293   1.651   4.255  17.110 -0.3930 -0.1647  0.1492
16293TIP3    H170294   1.616   4.311  17.040  0.1685  0.5098  0.3968
16293TIP3    H270295   1.730   4.300  17.139  0.5865 -1.5638 -0.2652
16294TIP3   OH270296   2.237   4.110   5.225 -0.1315 -0.0459  0.0693
16294TIP3    H170297   2.324   4.091   5.190  0.5024  0.3490  1.3570
16294TIP3    H270298   2.245   4.198   5.261 -0.6730 -0.5019  1.3550
16295TIP3   OH270299   6.141   5.167   5.729  0.2314 -0.2479  0.3373
16295TIP3    H170300   6.087   5.244   5.749 -0.6212 -0.6815 -0.2004
16295TIP3    H270301   6.129   5.155   5.635 -1.5877 -2.4242  0.7639
16296TIP3   OH270302   4.544   0.757   2.512 -0.1841 -0.0128 -0.5016
16296TIP3    H170303   4.472   0.818   2.496 -2.2735 -1.5011  2.3493
16296TIP3    H270304   4.621   0.813   2.524 -1.4356  1.8488 -0.7272
16297TIP3   OH270305   4.114   1.171   1.913  0.3915 -0.3380  0.3557
16297TIP3    H170306   4.056   1.224   1.859 -0.2086 -0.3910  0.9416
16297TIP3    H270307   4.160   1.234   1.968 -0.8231 -0.4512  1.5402
16298TIP3   OH270308   4.416   0.590   4.008  0.1245 -0.2861 -0.1245
16298TIP3    H170309   4.467   0.602   4.088 -0.1293 -0.3875  0.0521
16298TIP3    H270310   4.361   0.514   4.026  1.3103 -1.3935 -1.0206
16299TIP3   OH270311   4.002   4.733  15.651  0.6857  0.2026 -0.1719
16299TIP3    H170312   4.091   4.716  15.619 -0.4207 -1.9454 -2.3763
16299TIP3    H270313   3.966   4.647  15.670 -1.1813  0.9774 -0.0129
16300TIP3   OH270314   5.854   6.731   0.076  0.5762 -0.2900  0.1635
16300TIP3    H170315   5.806   6.655   0.109 -0.1976 -0.3640 -1.0720
16300TIP3    H270316   5.946   6.702   0.073  0.9439  0.1331  3.3660
16301TIP3   OH270317   5.691   5.802  16.185  0.3670 -0.3679 -0.1629
16301TIP3    H170318   5.719   5.794  16.276  0.2637 -0.0104 -0.0964
16301TIP3    H270319   5.737   5.879  16.152 -0.7406  0.4116  0.0366
16302TIP3   OH270320   5.976   5.928   3.851 -0.0220  0.1009 -0.0398
16302TIP3    H170321   6.051   5.982   3.876 -0.4672  1.2567 -1.0839
16302TIP3    H270322   5.998   5.896   3.764 -1.6722  2.3830 -1.3990
16303TIP3   OH270323   1.584   1.371   6.219 -0.1015  0.1167  0.4734
16303TIP3    H170324   1.613   1.291   6.265 -0.0047  0.8520  1.7495
16303TIP3    H270325   1.523   1.339   6.153 -0.6396 -0.9722  1.4425
16304TIP3   OH270326   2.291   1.991  14.446 -0.1692 -0.2866  0.1638
16304TIP3    H170327   2.335   2.009  14.529 -0.2049  0.7994 -0.0423
16304TIP3    H270328   2.362   1.974  14.384 -0.1185 -0.4723  0.2729
16305TIP3   OH270329   2.855   5.731  13.670 -0.0072 -0.3278  0.0962
16305TIP3    H170330   2.933   5.783  13.653 -0.7625  1.0385  0.6440
16305TIP3    H270331   2.842   5.679  13.590  0.2208  1.0611 -0.8733
16306TIP3   OH270332   3.821   2.376   3.074 -0.7710 -0.0915  0.2894
16306TIP3    H170333   3.734   2.404   3.104 -0.0495  0.9552  1.5342
16306TIP3    H270334   3.870   2.458   3.064 -0.2250 -0.5893 -1.4509
16307TIP3   OH270335   1.884   2.013   5.297  0.0537  0.2710 -0.3307
16307TIP3    H170336   1.889   2.107   5.277 -0.4528  0.0029 -1.7879
16307TIP3    H270337   1.975   1.987   5.310  0.2261  0.8882 -0.2256
16308TIP3   OH270338   3.069   6.645  14.405  0.5585  0.0890 -0.3073
16308TIP3    H170339   3.001   6.677  14.346  0.6571  0.9827  0.0519
16308TIP3    H270340   3.068   6.550  14.394 -0.6226  0.1123 -0.4398
16309TIP3   OH270341   4.851   3.116   0.323  0.4624  0.3699 -0.3710
16309TIP3    H170342   4.852   3.023   0.303 -0.0992  0.2410  0.1531
16309TIP3    H270343   4.809   3.157   0.247 -0.2104  0.0707 -0.1715
16310TIP3   OH270344   5.818   0.520  15.114 -0.3510 -0.2993 -0.1671
16310TIP3    H170345   5.869   0.443  15.087 -0.9778 -0.9537  0.4789
16310TIP3    H270346   5.825   0.580  15.040  3.5646  0.7935  0.8715
16311TIP3   OH270347   5.879   1.337  16.989  0.5709 -0.2842  0.2465
16311TIP3    H170348   5.910   1.390  16.916  1.4382 -0.1425  0.7065
16311TIP3    H270349   5.807   1.285  16.952  0.7674  0.0341 -0.6095
16312TIP3   OH270350   4.126   1.484   3.529  0.6624 -0.9705 -0.6136
16312TIP3    H170351   4.126   1.393   3.498 -0.4575 -1.0516 -0.4365
16312TIP3    H270352   4.114   1.477   3.624  1.2642 -0.6553 -0.5127
16313TIP3   OH270353   4.439   3.723   5.575  1.1835  0.7669  0.0405
16313TIP3    H170354   4.406   3.805   5.539 -2.4787 -0.0502  1.1080
16313TIP3    H270355   4.432   3.733   5.670  2.8850 -0.0240  0.3051
16314TIP3   OH270356   6.230   1.198  12.083  0.7000 -0.2181  0.2106
16314TIP3    H170357   6.206   1.105  12.079 -3.3739  0.5358  1.6615
16314TIP3    H270358   6.165   1.241  12.026  0.4568  1.9491  1.9850
16315TIP3   OH270359   5.093   1.765   5.426 -0.5125  0.0042 -0.0949
16315TIP3    H170360   5.157   1.720   5.370 -0.7839 -0.2056 -0.2412
16315TIP3    H270361   5.140   1.841   5.460  1.0363 -2.0415  2.7338
16316TIP3   OH270362   6.434   1.524  15.823 -0.5424  0.8924 -0.6334
16316TIP3    H170363   6.467   1.465  15.756  2.5656  0.3493  1.1535
16316TIP3    H270364   6.433   1.471  15.903  4.1059  3.2834  1.4727
16317TIP3   OH270365   4.986   0.561   6.316 -0.3416  0.4100  0.0083
16317TIP3    H170366   4.937   0.480   6.332 -1.1608  1.2350  2.0193
16317TIP3    H270367   5.046   0.539   6.245  0.3627 -2.3549  1.3192
16318TIP3   OH270368   2.859   4.476  13.926  0.3574  0.3073 -0.1096
16318TIP3    H170369   2.911   4.398  13.942  1.1368  0.8299 -0.0626
16318TIP3    H270370   2.887   4.538  13.993 -0.2520  0.6364 -0.1451
16319TIP3   OH270371   0.649   1.195  11.104  0.0952 -0.8057 -0.0961
16319TIP3    H170372   0.653   1.256  11.030 -2.8093  0.0718  0.3408
16319TIP3    H270373   0.596   1.122  11.072  0.7280 -1.5207  0.4446
16320TIP3   OH270374   2.412   6.489   5.000  0.2706 -0.8148 -0.3453
16320TIP3    H170375   2.480   6.546   5.037  0.5131  0.3297 -2.4208
16320TIP3    H270376   2.432   6.402   5.035  1.7494 -0.1877  0.4657
16321TIP3   OH270377   5.803   6.234  10.793 -0.0356  0.0756 -0.1464
16321TIP3    H170378   5.731   6.172  10.803 -0.1879  0.3416  0.4390
16321TIP3    H270379   5.764   6.311  10.752  0.6654 -1.1629 -3.4351
16322TIP3   OH270380   3.039   6.586  13.884  0.5146  0.0012  0.1769
16322TIP3    H170381   3.015   6.649  13.951 -1.8438  0.7766 -1.2882
16322TIP3    H270382   3.059   6.505  13.932  1.8920  1.3100  1.9532
16323TIP3   OH270383   4.106   5.260   2.707 -0.1389  0.0175 -0.2537
16323TIP3    H170384   4.124   5.223   2.621  1.1820 -1.6796  0.6784
16323TIP3    H270385   4.053   5.193   2.751 -0.8277  0.8782  0.2541
16324TIP3   OH270386   1.514   4.043  16.513 -0.4754  0.2108 -0.0829
16324TIP3    H170387   1.605   4.040  16.544  0.1530  0.9715 -1.7499
16324TIP3    H270388   1.503   3.960  16.466 -0.4882  0.3291 -0.2872
16325TIP3   OH270389   5.090   4.294   4.522 -0.3538  0.2443 -0.2386
16325TIP3    H170390   5.096   4.379   4.479 -0.1559  0.4991  0.2945
16325TIP3    H270391   5.159   4.294   4.587  0.1594 -0.6340 -0.7530
16326TIP3   OH270392   6.065   3.413  13.061  0.3858 -0.1093  0.1355
16326TIP3    H170393   6.147   3.393  13.105  0.3413  1.7270  1.1734
16326TIP3    H270394   6.048   3.505  13.083 -1.7130 -0.3081 -0.4250
16327TIP3   OH270395   6.725   3.325   0.222 -0.4363  0.2058  0.0003
16327TIP3    H170396   6.657   3.366   0.276 -0.4019 -0.7949  0.8350
16327TIP3    H270397   6.677   3.273   0.158 -0.4868  1.6851 -1.2288
16328TIP3   OH270398   0.933   5.659  14.293  0.1058 -1.0532  0.3033
16328TIP3    H170399   1.013   5.692  14.333  0.2006 -0.1197 -0.6054
16328TIP3    H270400   0.928   5.704  14.208 -0.8020 -1.9249 -0.1337
16329TIP3   OH270401   6.067   3.698  13.413 -0.9284  0.1264  0.9475
16329TIP3    H170402   6.083   3.767  13.477  2.8312  0.6245 -0.2742
16329TIP3    H270403   6.019   3.742  13.342  1.6873  1.7730  0.0358
16330TIP3   OH270404   6.280   5.714  12.665  0.0771 -0.1471 -0.3054
16330TIP3    H170405   6.302   5.633  12.620  0.7174 -0.3463  0.3489
16330TIP3    H270406   6.196   5.741  12.628 -0.5794 -1.5720  0.0871
16331TIP3   OH270407   4.775   2.199  16.411 -0.0763  0.5887  0.0362
16331TIP3    H170408   4.865   2.168  16.405 -0.3195 -0.0411 -0.3533
16331TIP3    H270409   4.734   2.142  16.475 -0.6780 -0.2882 -1.1003
16332TIP3   OH270410   6.150   1.418   4.652 -0.7023 -0.0100 -0.4884
16332TIP3    H170411   6.104   1.453   4.576 -0.2311  1.0161 -0.3148
16332TIP3    H270412   6.091   1.438   4.726 -1.2311 -1.1400 -0.5860
16333TIP3   OH270413   3.155   4.993  11.829  0.2517 -0.1786 -0.6282
16333TIP3    H170414   3.060   5.006  11.839  0.2795  0.2590 -0.8700
16333TIP3    H270415   3.170   4.998  11.735  0.5805  0.2484 -0.5567
16334TIP3   OH270416   5.023   1.017  11.040 -0.6960 -0.4315  0.3511
16334TIP3    H170417   4.940   0.979  11.010 -0.6955 -0.1251 -0.0517
16334TIP3    H270418   5.086   0.991  10.973 -0.8144  0.7810 -0.2609
16335TIP3   OH270419   2.548   2.133   6.067 -0.1020  0.1911  0.3909
16335TIP3    H170420   2.558   2.178   6.151 -1.1702  0.5779  0.3358
16335TIP3    H270421   2.599   2.053   6.076 -2.6806 -1.3693  2.5959
16336TIP3   OH270422   0.792   2.819  15.118 -0.7386 -0.3964 -0.1098
16336TIP3    H170423   0.850   2.751  15.083  0.0201  1.0421 -1.7842
16336TIP3    H270424   0.704   2.787  15.099 -0.3767 -0.4242 -1.9958
16337TIP3   OH270425   0.512   1.203   3.184  0.3530 -0.2365  0.2690
16337TIP3    H170426   0.553   1.170   3.104  1.6330  0.8724  0.4242
16337TIP3    H270427   0.539   1.295   3.188 -0.8961  0.1159  1.2275
16338TIP3   OH270428   0.881   1.838   3.815 -0.4948  0.2928 -0.0344
16338TIP3    H170429   0.912   1.837   3.724 -2.1656  2.1531 -0.7039
16338TIP3    H270430   0.919   1.918   3.852  0.0557 -0.3807  0.8987
16339TIP3   OH270431   5.983   4.734   4.895 -0.1834 -0.2872  0.3377
16339TIP3    H170432   6.063   4.765   4.936 -0.2391 -0.2424  0.4113
16339TIP3    H270433   6.011   4.703   4.808  0.3878 -2.7221  1.2980
16340TIP3   OH270434   0.782   3.512  12.435 -0.5848  0.5425 -0.0764
16340TIP3    H170435   0.841   3.576  12.395 -0.8552 -0.3368 -2.0027
16340TIP3    H270436   0.841   3.452  12.482 -0.2464  1.5362  0.8065
16341TIP3   OH270437   3.163   3.027  13.022 -0.2290 -0.5125  0.1356
16341TIP3    H170438   3.245   3.024  12.973 -0.8807 -0.8061 -0.9974
16341TIP3    H270439   3.184   3.071  13.104  0.9447 -0.1535 -0.3476
16342TIP3   OH270440   3.623   5.995  15.868  0.6742  0.2614  0.6480
16342TIP3    H170441   3.549   5.936  15.849  1.1780 -0.1506 -0.0904
16342TIP3    H270442   3.661   6.014  15.782 -0.4307  2.9827  0.6826
16343TIP3   OH270443   5.968   0.044  11.876  0.4843 -0.1554  0.0169
16343TIP3    H170444   6.020   0.090  11.810  1.3290  1.3363  1.6246
16343TIP3    H270445   5.900   0.107  11.901  0.0050 -0.7993  0.3805
16344TIP3   OH270446   0.785   3.593  13.921  0.1389  0.4468  0.0406
16344TIP3    H170447   0.860   3.533  13.926  1.1572  1.6919  0.1155
16344TIP3    H270448   0.786   3.639  14.005 -2.4457 -1.4646  1.2540
16345TIP3   OH270449   6.452   2.328   4.349 -0.5234 -0.8034 -0.0029
16345TIP3    H170450   6.506   2.278   4.288  0.3604 -0.7837  0.7326
16345TIP3    H270451   6.440   2.269   4.424  0.0750 -0.1253  0.6387
16346TIP3   OH270452   6.256   5.318   5.162 -0.3197  0.3625 -0.8734
16346TIP3    H170453   6.293   5.388   5.215 -1.9535 -0.7573  1.9517
16346TIP3    H270454   6.182   5.359   5.116 -1.2434  0.5669  0.7233
16347TIP3   OH270455   6.178   5.612  12.075  0.1058  0.3770 -0.2745
16347TIP3    H170456   6.189   5.597  12.169 -1.3582 -2.5993 -0.4604
16347TIP3    H270457   6.152   5.704  12.068  0.6127  0.7797  2.1614
16348TIP3   OH270458   1.673   4.824  16.353 -0.1946 -0.9536  0.4207
16348TIP3    H170459   1.748   4.832  16.294 -1.6777 -0.1914 -1.4650
16348TIP3    H270460   1.649   4.731  16.347 -0.3137 -0.8896 -0.1530
16349TIP3   OH270461   2.810   4.717   4.509 -0.5517  0.4826  0.3142
16349TIP3    H170462   2.892   4.757   4.538 -1.8374  3.2491  0.3616
16349TIP3    H270463   2.773   4.779   4.446 -1.9805 -1.3541 -0.7834
16350TIP3   OH270464   1.615   4.955  13.555  0.2956  0.1059  0.0984
16350TIP3    H170465   1.575   4.873  13.524  0.5446 -0.7224  1.8634
16350TIP3    H270466   1.631   5.005  13.475 -0.9292 -1.0719 -0.9341
16351TIP3   OH270467   0.429   3.589  12.619  0.2368 -0.1078  0.3824
16351TIP3    H170468   0.509   3.567  12.667  0.5280  0.9568  0.4224
16351TIP3    H270469   0.447   3.565  12.529  0.7132  0.3662  0.3445
16352TIP3   OH270470   0.651   4.394   1.245  0.2654 -0.2594 -0.3777
16352TIP3    H170471   0.562   4.429   1.248  0.6507  0.6496  1.1462
16352TIP3    H270472   0.687   4.427   1.162 -0.6388 -0.2428 -0.7790
16353TIP3   OH270473   2.466   2.636   5.534  0.0518 -0.4778 -0.0843
16353TIP3    H170474   2.513   2.719   5.530  0.1035 -0.4794  0.3720
16353TIP3    H270475   2.533   2.571   5.557  0.6057 -1.1655 -3.2361
16354TIP3   OH270476   6.276   6.428  11.951  0.2720 -0.7738  0.4701
16354TIP3    H170477   6.367   6.403  11.966  0.0663 -0.9015  1.6337
16354TIP3    H270478   6.246   6.460  12.036 -0.2355  1.0139 -0.3357
16355TIP3   OH270479   6.299   4.272  15.970  0.1563 -0.0194 -0.2710
16355TIP3    H170480   6.279   4.298  16.059  0.7285 -0.1002 -0.1171
16355TIP3    H270481   6.393   4.258  15.969  0.1541 -0.0339 -0.8851
16356TIP3   OH270482   6.100   6.752  11.099 -0.1475  0.3632 -0.8889
16356TIP3    H170483   6.080   6.842  11.126 -2.0894  0.0861 -1.2169
16356TIP3    H270484   6.093   6.702  11.181  2.0626  0.6213 -0.4877
16357TIP3   OH270485   0.964   5.956   4.881 -0.0672  0.8198  0.3886
16357TIP3    H170486   0.927   5.967   4.969 -0.0458 -0.2778  0.5571
16357TIP3    H270487   1.053   5.991   4.889 -0.3620  1.5448  0.5548
16358TIP3   OH270488   1.288   2.799   5.455 -0.0726 -0.3446 -0.3744
16358TIP3    H170489   1.271   2.714   5.494 -0.1961  0.0628  0.4984
16358TIP3    H270490   1.309   2.781   5.363  0.7938 -1.3946  0.0065
16359TIP3   OH270491   2.110   6.357  12.391 -0.0262 -0.2603 -0.1948
16359TIP3    H170492   2.096   6.404  12.473 -2.3870 -2.2105  0.6459
16359TIP3    H270493   2.169   6.285  12.415  1.4334  0.6726 -0.8679
16360TIP3   OH270494   6.786   6.792  14.428  0.6960 -0.4896 -0.1383
16360TIP3    H170495   6.863   6.742  14.400  0.4500 -0.4194 -0.9783
16360TIP3    H270496   6.792   6.793  14.524  0.9424 -1.7444 -0.1138
16361TIP3   OH270497   0.643   4.763   1.472  0.0338 -0.5649 -0.0042
16361TIP3    H170498   0.557   4.721   1.483 -0.7762  0.7593 -0.8923
16361TIP3    H270499   0.706   4.694   1.492 -1.2314 -1.7774 -0.0017
16362TIP3   OH270500   0.937   3.356   5.486  0.0870 -0.0222 -0.1464
16362TIP3    H170501   0.910   3.446   5.500 -0.6961 -0.3391  0.4923
16362TIP3    H270502   0.865   3.317   5.435 -0.3650 -0.6982  0.9717
16363TIP3   OH270503   6.579   1.911  12.189  0.3123 -0.3742  0.0721
16363TIP3    H170504   6.595   1.999  12.222  0.0963  0.8874 -2.9235
16363TIP3    H270505   6.657   1.890  12.138 -1.0146 -0.4623 -2.0213
16364TIP3   OH270506   3.491   5.704  10.842 -0.2001 -0.3691  0.2978
16364TIP3    H170507   3.548   5.776  10.816 -1.5038  0.8658  0.7706
16364TIP3    H270508   3.534   5.626  10.806  0.1170  0.8324 -2.1407
16365TIP3   OH270509   4.268   3.522  16.775  0.1655  0.3368  0.5212
16365TIP3    H170510   4.195   3.542  16.716  1.4629  0.1765 -1.2095
16365TIP3    H270511   4.298   3.436  16.747 -0.3938 -0.6728  2.7558
16366TIP3   OH270512   1.643   4.318   3.103  0.5159 -0.3087  0.0372
16366TIP3    H170513   1.586   4.246   3.074 -0.0713  0.1985 -0.0870
16366TIP3    H270514   1.626   4.326   3.197 -1.4311  1.3741 -0.3761
16367TIP3   OH270515   1.289   2.848  15.398 -0.0856 -0.0295  0.3932
16367TIP3    H170516   1.214   2.897  15.365  0.3317 -0.6532 -1.6046
16367TIP3    H270517   1.361   2.871  15.338  0.1129 -3.0689 -0.7006
16368TIP3   OH270518   4.532   6.590  16.196  0.0970  0.3053 -0.7458
16368TIP3    H170519   4.540   6.562  16.287 -0.2214  2.7717  0.1210
16368TIP3    H270520   4.439   6.580  16.176 -0.4000  2.4217  0.2234
16369TIP3   OH270521   5.288   1.146  11.434  0.1112 -0.6684 -0.3062
16369TIP3    H170522   5.205   1.119  11.472 -0.4669  0.8447 -0.4450
16369TIP3    H270523   5.266   1.186  11.350  1.3244 -3.4376 -2.1036
16370TIP3   OH270524   6.627   0.987   5.358 -0.6809 -0.0066  0.1356
16370TIP3    H170525   6.535   0.970   5.335 -0.8082  0.7574  0.0727
16370TIP3    H270526   6.638   0.946   5.444 -0.2544 -2.7285 -1.1134
16371TIP3   OH270527   1.358   1.625   0.924  0.3549 -0.1329 -0.3759
16371TIP3    H170528   1.285   1.669   0.968  0.1902 -0.2943 -0.4868
16371TIP3    H270529   1.369   1.542   0.970  0.3534 -0.1864 -0.4704
16372TIP3   OH270530   6.367   5.557  13.762  0.0712 -0.1809  0.6989
16372TIP3    H170531   6.384   5.486  13.700  1.1697  0.2731  0.4614
16372TIP3    H270532   6.429   5.625  13.737  1.3752 -0.4274  3.0405
16373TIP3   OH270533   6.367   6.313   6.441 -0.5256  0.2283  0.1373
16373TIP3    H170534   6.443   6.350   6.397  0.2865 -1.4853  0.0229
16373TIP3    H270535   6.372   6.350   6.530  0.3909  0.2009  0.1120
16374TIP3   OH270536   6.459   6.325  12.494 -0.2269  0.3070 -0.1096
16374TIP3    H170537   6.407   6.406  12.502 -0.7256 -0.0241  0.0713
16374TIP3    H270538   6.499   6.314  12.580  0.8645  1.0295 -0.5021
16375TIP3   OH270539   2.133   5.323   5.017 -0.1674 -0.1905 -0.3918
16375TIP3    H170540   2.142   5.401   4.962  0.2475  0.2250  0.2540
16375TIP3    H270541   2.059   5.341   5.074 -0.9344 -0.8408 -1.1488
16376TIP3   OH270542   1.847   4.872   4.412  0.1388  0.3876 -0.0206
16376TIP3    H170543   1.768   4.919   4.440  0.4591  2.4637 -2.2121
16376TIP3    H270544   1.888   4.931   4.348  1.0111 -2.6088 -2.4576
16377TIP3   OH270545   5.880   2.109  14.847 -0.0163  0.1818  0.3285
16377TIP3    H170546   5.840   2.164  14.915 -0.0936  1.4150 -0.6688
16377TIP3    H270547   5.933   2.046  14.896 -2.1390 -0.7171  1.6506
16378TIP3   OH270548   5.504   2.850   0.795  0.5595  0.2371 -0.2748
16378TIP3    H170549   5.449   2.856   0.717  0.2665 -0.2861 -0.1123
16378TIP3    H270550   5.586   2.892   0.770  1.0635 -1.3265 -1.4041
16379TIP3   OH270551   2.074   2.392   4.966 -0.9515 -0.3006 -0.1195
16379TIP3    H170552   1.991   2.357   4.934 -1.6689  2.1491 -1.1608
16379TIP3    H270553   2.132   2.387   4.891 -0.7199 -0.2559  0.0563
16380TIP3   OH270554   0.997   3.897  15.747 -0.2042  0.4089  0.2994
16380TIP3    H170555   1.014   3.922  15.838  0.5840 -0.3651  0.3866
16380TIP3    H270556   1.009   3.801  15.747 -0.9179  0.3179 -0.4646
16381TIP3   OH270557   4.605   6.533   3.392 -0.4602  0.5723 -0.3908
16381TIP3    H170558   4.638   6.601   3.333  0.5402  0.8345  0.4330
16381TIP3    H270559   4.512   6.528   3.373 -0.5412  2.1012 -0.5489
16382TIP3   OH270560   3.528   6.402   0.844  0.5374  0.3000 -0.2133
16382TIP3    H170561   3.562   6.447   0.921  0.3696 -1.0390  0.6819
16382TIP3    H270562   3.591   6.330   0.830 -0.5644 -0.7363 -0.0164
16383TIP3   OH270563   6.666   1.706   3.997  0.0421  0.4321  0.9320
16383TIP3    H170564   6.603   1.744   4.058 -0.6657 -0.7743  0.9871
16383TIP3    H270565   6.711   1.638   4.048  0.8694  0.7672  0.6727
16384TIP3   OH270566   6.112   3.940  15.174 -0.0657  0.3327 -0.0890
16384TIP3    H170567   6.132   4.027  15.141  1.2113 -0.0158 -0.3081
16384TIP3    H270568   6.064   3.898  15.103  0.2547  0.5059 -0.4102
16385TIP3   OH270569   1.205   1.808   5.002 -0.3677 -0.0449 -0.3566
16385TIP3    H170570   1.274   1.742   5.011  0.8194  1.2288  0.2870
16385TIP3    H270571   1.247   1.881   4.956 -1.3316  0.6985 -0.0977
16386TIP3   OH270572   3.161   4.308  13.369 -0.1792  0.0712 -0.4167
16386TIP3    H170573   3.233   4.334  13.425 -0.1981 -0.3385 -0.1944
16386TIP3    H270574   3.171   4.213  13.360 -0.1227  0.1388 -1.1820
16387TIP3   OH270575   0.189   6.621  14.788 -0.0712 -0.2344  0.2628
16387TIP3    H170576   0.099   6.597  14.767  0.1651  0.1348 -1.2615
16387TIP3    H270577   0.222   6.662  14.708  1.4009 -0.2196  0.8578
16388TIP3   OH270578   5.503   0.751  11.722  0.3652  0.1566  0.0122
16388TIP3    H170579   5.577   0.764  11.781 -0.9205 -0.4901  1.8557
16388TIP3    H270580   5.497   0.832  11.672  1.2798  0.8842  1.0407
16389TIP3   OH270581   3.557   4.806   2.292  0.5588  0.6252  0.1763
16389TIP3    H170582   3.600   4.806   2.378  0.1750 -2.3190  0.4701
16389TIP3    H270583   3.465   4.825   2.311  0.0139 -2.1597  0.8397
16390TIP3   OH270584   3.073   5.418   5.541 -0.2944  0.3072  0.3498
16390TIP3    H170585   2.995   5.410   5.486  0.3087  2.8819 -1.0089
16390TIP3    H270586   3.056   5.360   5.615 -1.8385 -2.0741 -1.7112
16391TIP3   OH270587   4.763   5.235   4.362  1.1289  0.5254 -0.0945
16391TIP3    H170588   4.757   5.246   4.457  0.9957  0.8389 -0.1361
16391TIP3    H270589   4.759   5.325   4.328  1.5522  0.4397 -0.3755
16392TIP3   OH270590   2.241   0.026  12.272 -0.1162  0.3183 -0.2507
16392TIP3    H170591   2.209  -0.062  12.255 -0.6624 -0.1182  2.5757
16392TIP3    H270592   2.337   0.018  12.270 -0.1311 -0.7132  1.3948
16393TIP3   OH270593   6.811   1.493   1.668  0.3542  0.3683  0.4154
16393TIP3    H170594   6.901   1.480   1.639  1.1131  0.5125  2.5106
16393TIP3    H270595   6.759   1.434   1.613  1.9958 -1.2201  0.4728
16394TIP3   OH270596   5.331   3.481   4.754 -0.5046 -0.0120  0.6171
16394TIP3    H170597   5.282   3.516   4.680  0.0076  0.6118  0.5668
16394TIP3    H270598   5.370   3.401   4.721  1.1724  1.1539 -0.3600
16395TIP3   OH270599   3.067   4.645   0.465 -0.0850  0.3317  0.0588
16395TIP3    H170600   3.160   4.632   0.446  0.4672  2.4168  1.0125
16395TIP3    H270601   3.053   4.599   0.547  0.1700  0.2646  0.0667
16396TIP3   OH270602   3.935   5.162  14.204  0.2142 -0.1627 -0.2578
16396TIP3    H170603   3.979   5.097  14.149  2.9155  0.1819  1.3227
16396TIP3    H270604   3.913   5.233  14.144  4.6959  1.0262 -0.8176
16397TIP3   OH270605   5.852   2.220   0.903  0.2354 -0.4633 -0.0922
16397TIP3    H170606   5.811   2.136   0.923  1.1785 -0.9682 -0.2372
16397TIP3    H270607   5.881   2.254   0.987  0.2743 -0.5101 -0.0865
16398TIP3   OH270608   5.139   0.744   4.496  0.1214 -0.5889  0.5705
16398TIP3    H170609   5.109   0.763   4.585  0.1095  0.0581  0.4306
16398TIP3    H270610   5.218   0.796   4.484  0.6091 -1.3283  0.4926
16399TIP3   OH270611   0.395   1.808   4.752 -0.0355  0.1839 -0.1388
16399TIP3    H170612   0.358   1.799   4.839  0.1805 -0.0707 -0.0709
16399TIP3    H270613   0.320   1.828   4.695 -0.0049  1.6453  0.3032
16400TIP3   OH270614   0.113   4.039   3.105  0.0824 -0.6417  0.2510
16400TIP3    H170615   0.027   4.061   3.141 -0.3206 -0.8938 -0.5477
16400TIP3    H270616   0.095   4.006   3.017  1.1343  0.9909 -0.6311
16401TIP3   OH270617   5.241   0.819  13.974 -0.1836 -0.2320  0.1522
16401TIP3    H170618   5.164   0.828  14.030  0.5671 -1.0800  1.3634
16401TIP3    H270619   5.221   0.744  13.918 -0.1326 -0.6367  0.6653
16402TIP3   OH270620   4.066   2.525  15.342 -0.1917  0.4270  0.0147
16402TIP3    H170621   4.027   2.600  15.298 -1.4410 -0.3120 -0.1715
16402TIP3    H270622   4.160   2.532  15.322 -0.5008  1.0379 -1.3503
16403TIP3   OH270623   5.688   6.615   0.513  0.1115 -0.5560 -0.4878
16403TIP3    H170624   5.701   6.547   0.447 -1.6447  1.1178 -2.7343
16403TIP3    H270625   5.743   6.688   0.484 -2.0957  0.8965 -1.3045
16404TIP3   OH270626   0.258   0.547   2.342 -0.1069 -0.0877 -0.1020
16404TIP3    H170627   0.196   0.607   2.383  0.9895  0.5122  0.7382
16404TIP3    H270628   0.344   0.586   2.358  0.4711 -0.5610 -1.7726
16405TIP3   OH270629   5.831   0.911  13.322 -0.4795 -0.4674  0.1754
16405TIP3    H170630   5.823   0.846  13.393  1.8712 -0.7522  0.2643
16405TIP3    H270631   5.900   0.876  13.265 -1.4857  0.3547 -1.6183
16406TIP3   OH270632   5.636   3.649   5.093 -0.3164  0.5498 -0.1370
16406TIP3    H170633   5.678   3.575   5.137 -0.4294 -1.3108 -2.9204
16406TIP3    H270634   5.572   3.681   5.156 -0.4574 -1.9190  1.0980
16407TIP3   OH270635   3.316   4.606   2.594 -0.0972  0.3566 -0.1185
16407TIP3    H170636   3.267   4.671   2.644  0.5401 -0.7837  2.1446
16407TIP3    H270637   3.388   4.654   2.554  2.3159  0.7617  4.1450
16408TIP3   OH270638   5.985   0.555  16.757  0.2382 -0.4113  0.0044
16408TIP3    H170639   5.891   0.559  16.739  0.2532  1.2125  0.1183
16408TIP3    H270640   6.000   0.623  16.823  1.4737 -0.7561  0.1056
16409TIP3   OH270641   5.446   6.720   5.491  0.6174  0.3383 -0.3599
16409TIP3    H170642   5.445   6.624   5.497 -0.2320  0.4073  0.8703
16409TIP3    H270643   5.529   6.745   5.530  0.4718  0.1449  0.0747
16410TIP3   OH270644   0.457   6.704   0.544 -0.3650 -0.7295  0.0228
16410TIP3    H170645   0.520   6.684   0.613  0.6208  0.4444 -0.4824
16410TIP3    H270646   0.378   6.657   0.569  0.2998 -1.1882  1.3791
16411TIP3   OH270647   0.075   2.010  17.243 -0.0023  0.3120 -0.1491
16411TIP3    H170648   0.115   2.040  17.161  1.2072 -0.4651  0.1275
16411TIP3    H270649  -0.014   2.045  17.240 -0.3118 -0.4984 -2.2310
16412TIP3   OH270650   2.427   2.389  13.940 -0.2789  0.6039  0.3320
16412TIP3    H170651   2.347   2.426  13.903 -0.7093 -0.3620  0.2510
16412TIP3    H270652   2.483   2.371  13.864 -1.5577 -2.3086 -0.0688
16413TIP3   OH270653   3.832   4.121   0.916 -0.2119  0.2350 -0.0105
16413TIP3    H170654   3.891   4.055   0.881 -1.1600 -0.4301 -0.3887
16413TIP3    H270655   3.854   4.126   1.009 -0.7051 -1.2637  0.2182
16414TIP3   OH270656   4.029   0.666   1.094 -0.3273 -0.6481  0.0108
16414TIP3    H170657   3.942   0.627   1.101 -0.3369 -1.1345 -2.0880
16414TIP3    H270658   4.088   0.591   1.087  0.0331 -0.3094 -0.6287
16415TIP3   OH270659   0.568   3.423  16.006  0.3968 -0.2592 -0.4273
16415TIP3    H170660   0.489   3.473  15.982 -0.5528 -0.5899  1.7662
16415TIP3    H270661   0.622   3.425  15.927 -1.0042  1.5251 -1.4348
16416TIP3   OH270662   2.518   3.928   2.916 -0.3801  0.2279  0.4961
16416TIP3    H170663   2.537   3.882   2.998  2.2047 -4.1555 -2.1945
16416TIP3    H270664   2.467   3.865   2.865 -0.7583  2.2715 -1.8116
16417TIP3   OH270665   3.231   1.593  16.523 -0.2187 -0.1040  0.1971
16417TIP3    H170666   3.174   1.591  16.600 -0.7493  0.5202 -0.1616
16417TIP3    H270667   3.262   1.684  16.519 -0.4253 -0.0515 -0.4736
16418TIP3   OH270668   1.782   0.090  11.516  0.7058  0.5189 -0.3977
16418TIP3    H170669   1.729   0.010  11.512  1.9937 -0.3401 -0.7470
16418TIP3    H270670   1.829   0.093  11.433  1.9639  0.7128  0.2976
16419TIP3   OH270671   0.729   2.933   1.444 -0.1872 -0.3295  0.3823
16419TIP3    H170672   0.769   2.991   1.509 -0.5526 -1.5695  1.7681
16419TIP3    H270673   0.803   2.896   1.397  0.1396 -0.1149  0.7156
16420TIP3   OH270674   2.255   4.101  16.902  0.1380 -0.3350  0.1588
16420TIP3    H170675   2.270   4.010  16.924 -0.0994 -0.2553  0.6435
16420TIP3    H270676   2.229   4.099  16.809  0.8108 -0.6891 -0.0286
16421TIP3   OH270677   1.443   4.407   0.931  0.7302  0.7825  0.4251
16421TIP3    H170678   1.423   4.443   1.017 -1.1916 -1.3438  0.9632
16421TIP3    H270679   1.496   4.475   0.889  3.0401  1.2708  3.7584
16422TIP3   OH270680   5.231   6.746  14.714 -0.1086  0.0495  0.6656
16422TIP3    H170681   5.193   6.711  14.795  1.6119  0.7859  1.8434
16422TIP3    H270682   5.313   6.786  14.741  0.3742  0.5964 -1.4235
16423TIP3   OH270683   6.175   0.988  14.472 -0.3412 -0.3268  0.1208
16423TIP3    H170684   6.262   0.984  14.433 -0.3072 -0.8502  0.2394
16423TIP3    H270685   6.157   1.081  14.482 -0.6312 -0.1248 -1.7811
16424TIP3   OH270686   4.645   1.980   4.460 -0.4410 -0.0457 -0.1546
16424TIP3    H170687   4.595   1.921   4.517 -1.0596 -0.2096 -0.8456
16424TIP3    H270688   4.591   2.059   4.454 -1.4237 -0.8033 -2.1491
16425TIP3   OH270689   1.382   1.083   4.708 -0.1111 -0.0402 -0.1531
16425TIP3    H170690   1.475   1.093   4.684 -0.0623  1.3338  0.5245
16425TIP3    H270691   1.383   1.068   4.802 -0.6031  0.4936 -0.0583
16426TIP3   OH270692   4.676   4.341   5.985  0.0865 -0.5841  0.6495
16426TIP3    H170693   4.670   4.435   6.001 -1.7982 -0.5523  0.0403
16426TIP3    H270694   4.636   4.301   6.062 -0.3129 -0.8292  0.3176
16427TIP3   OH270695   4.107   2.797   1.726 -0.0134 -0.2402 -0.2852
16427TIP3    H170696   4.145   2.839   1.803  1.3138  1.3877 -1.7272
16427TIP3    H270697   4.105   2.866   1.660 -1.6722 -1.4140 -1.5518
16428TIP3   OH270698   3.572   5.231   0.526 -0.8183 -0.1159 -0.2985
16428TIP3    H170699   3.480   5.203   0.523 -0.9062 -0.0495  1.1571
16428TIP3    H270700   3.590   5.245   0.619  1.2120 -1.9016 -0.3535
16429TIP3   OH270701   3.642   1.525   3.561 -0.2494 -0.4394 -0.6715
16429TIP3    H170702   3.696   1.601   3.540  0.2316 -0.6740 -0.3032
16429TIP3    H270703   3.685   1.485   3.636 -0.7404 -0.8350 -0.5942
16430TIP3   OH270704   1.081   0.401  12.558  0.3523 -0.2034 -0.2365
16430TIP3    H170705   1.091   0.364  12.646  0.1052 -1.0682 -0.5618
16430TIP3    H270706   0.987   0.413  12.548  0.4448  0.6570 -0.0806
16431TIP3   OH270707   5.707   0.516   3.904 -0.3636 -0.1974 -0.3856
16431TIP3    H170708   5.614   0.493   3.909  0.0081 -1.8614 -0.4938
16431TIP3    H270709   5.741   0.496   3.990  0.3038 -1.6121 -0.9565
16432TIP3   OH270710   2.924   3.655   1.115 -0.1806  0.2255 -0.9127
16432TIP3    H170711   3.000   3.620   1.161  0.6517  0.7251 -1.8941
16432TIP3    H270712   2.860   3.583   1.118  0.1006 -0.0110  0.3726
16433TIP3   OH270713   4.669   5.833  16.133  0.5412  0.3055  0.3987
16433TIP3    H170714   4.689   5.927  16.135  0.4787  0.3370 -0.3492
16433TIP3    H270715   4.706   5.803  16.050 -0.3486 -0.1259  0.1538
16434TIP3   OH270716   0.557   6.761  15.969 -0.0278 -0.4437  0.4691
16434TIP3    H170717   0.466   6.764  15.941  0.1349  0.3298 -0.0207
16434TIP3    H270718   0.553   6.748  16.063 -0.6860  0.9639  0.6605
16435TIP3   OH270719   5.112   3.801  14.268 -0.1459  0.2623 -0.6030
16435TIP3    H170720   5.024   3.767  14.281  0.3515 -1.0187 -0.3481
16435TIP3    H270721   5.103   3.872  14.205 -1.5030  0.9390  0.3121
16436TIP3   OH270722   5.172   4.771  14.089  0.5489  0.0765  0.3665
16436TIP3    H170723   5.109   4.717  14.042  0.1039  1.0613 -0.2062
16436TIP3    H270724   5.222   4.816  14.020  0.9752  0.3245  0.8274
16437TIP3   OH270725   4.462   3.260   3.991 -0.3938 -0.3354 -0.4329
16437TIP3    H170726   4.491   3.313   3.916 -1.9479  0.9901 -0.1467
16437TIP3    H270727   4.507   3.298   4.066 -0.1761 -0.5627 -0.4436
16438TIP3   OH270728   3.779   3.948   1.680 -0.3696 -0.1129  0.1016
16438TIP3    H170729   3.775   3.856   1.653  1.0363 -0.2772  0.3444
16438TIP3    H270730   3.848   3.951   1.746 -0.7995  1.0267  0.5331
16439TIP3   OH270731   4.343   2.533   1.561 -0.2496  0.4704 -0.3360
16439TIP3    H170732   4.409   2.467   1.541  0.5386  1.3939 -0.8351
16439TIP3    H270733   4.318   2.568   1.476 -1.3623  0.1694 -0.1507
16440TIP3   OH270734   4.285   4.709  15.327 -0.4027 -0.4639  0.1770
16440TIP3    H170735   4.196   4.715  15.362 -0.5411  1.0457 -0.3645
16440TIP3    H270736   4.341   4.732  15.401 -0.3220 -2.7500  0.9158
16441TIP3   OH270737   1.479   5.333  17.081  0.0435 -0.3620 -0.6993
16441TIP3    H170738   1.434   5.267  17.029 -0.7526  0.7457 -1.4570
16441TIP3    H270739   1.414   5.361  17.145  0.6120 -0.8017  0.0901
16442TIP3   OH270740   1.717   5.546  13.581 -0.5516 -0.3631 -0.0141
16442TIP3    H170741   1.808   5.530  13.608 -0.5133 -1.1335 -0.5810
16442TIP3    H270742   1.694   5.470  13.528 -1.5232 -0.1520  0.0969
16443TIP3   OH270743   1.719   0.741   0.394 -0.5055  0.1824 -0.8830
16443TIP3    H170744   1.688   0.651   0.379  0.2987 -0.6052  1.6962
16443TIP3    H270745   1.811   0.739   0.369 -0.9868  0.9508 -2.9240
16444TIP3   OH270746   2.987   6.298   6.478 -0.4849  0.0890 -0.1541
16444TIP3    H170747   2.931   6.343   6.541  3.3629  3.4267  1.2988
16444TIP3    H270748   2.958   6.331   6.393 -1.0526  1.3297  0.4894
16445TIP3   OH270749   5.936   6.071   3.316  0.1578  0.1424 -0.3437
16445TIP3    H170750   6.028   6.097   3.327  0.8644 -1.6122 -1.6536
16445TIP3    H270751   5.908   6.117   3.237  0.2410 -0.1422 -0.5394
16446TIP3   OH270752   3.586   3.107  11.801 -0.6176 -0.4737  0.1825
16446TIP3    H170753   3.611   3.043  11.867  2.3522 -0.5186 -0.8256
16446TIP3    H270754   3.567   3.055  11.723  0.2098 -0.2359 -0.1867
16447TIP3   OH270755   5.339   1.327   1.392 -0.0429 -0.1476  0.1305
16447TIP3    H170756   5.409   1.332   1.327 -1.3377 -0.3631 -1.3185
16447TIP3    H270757   5.303   1.416   1.395 -0.7026 -0.3982 -0.2716
16448TIP3   OH270758   1.809   2.592  12.413 -0.9426  0.4707  0.2882
16448TIP3    H170759   1.759   2.646  12.352 -3.1894 -2.3829 -0.6553
16448TIP3    H270760   1.786   2.626  12.500  0.1288  2.8235 -0.2677
16449TIP3   OH270761   0.578   3.432  13.996 -0.5304  0.5276  0.2107
16449TIP3    H170762   0.639   3.503  13.975 -1.3594  0.9693 -0.8056
16449TIP3    H270763   0.526   3.421  13.917  0.6628 -2.3890 -0.2926
16450TIP3   OH270764   2.589   5.041  12.498 -0.1760 -0.4937  0.2227
16450TIP3    H170765   2.608   5.046  12.591 -0.3845 -0.2643  0.2554
16450TIP3    H270766   2.665   5.082  12.456  0.1656 -1.0800  0.2583
16451TIP3   OH270767   0.193   0.511   1.829 -0.6948  0.0581  0.0600
16451TIP3    H170768   0.253   0.586   1.828  1.8305 -1.8108 -0.9944
16451TIP3    H270769   0.113   0.544   1.789  0.3749  2.1704 -0.4814
16452TIP3   OH270770   3.975   1.658   2.433 -0.2840  0.5378 -0.0065
16452TIP3    H170771   3.918   1.645   2.509  0.4443  0.6005  0.5645
16452TIP3    H270772   4.063   1.658   2.469  0.0229  1.6535 -0.7117
16453TIP3   OH270773   4.264   4.888   1.478  0.1855 -0.0992 -0.2896
16453TIP3    H170774   4.250   4.904   1.385 -0.7087  2.1588  0.1939
16453TIP3    H270775   4.177   4.887   1.516  0.5791 -0.3182  0.6391
16454TIP3   OH270776   0.746   3.294   2.161  0.2056  0.0832  1.1711
16454TIP3    H170777   0.792   3.348   2.224  0.7965 -0.7675  1.4905
16454TIP3    H270778   0.705   3.356   2.101 -0.5969  0.9174  2.5288
16455TIP3   OH270779   1.777   0.045  17.222 -0.2776  0.1885 -0.1239
16455TIP3    H170780   1.736   0.106  17.160  1.5460  0.9626 -0.6548
16455TIP3    H270781   1.759  -0.042  17.187 -1.1107  0.5233 -0.5443
16456TIP3   OH270782   5.541   2.214  11.683 -0.5889 -0.4297  0.1178
16456TIP3    H170783   5.616   2.164  11.714 -0.2814 -1.0582 -1.4914
16456TIP3    H270784   5.550   2.300  11.723  0.5695 -0.7399  0.5550
16457TIP3   OH270785   4.791   5.094   6.553  0.3244  1.1884  0.6635
16457TIP3    H170786   4.769   5.143   6.474  0.2669 -0.6786 -0.5400
16457TIP3    H270787   4.715   5.037   6.568  1.1571  0.0899  0.8643
16458TIP3   OH270788   0.540   0.303  16.834  0.1732 -0.0545  0.6155
16458TIP3    H170789   0.445   0.291  16.829  0.3143 -0.9628 -0.3379
16458TIP3    H270790   0.576   0.223  16.795  1.2959  1.1547 -0.9322
16459TIP3   OH270791   1.525   2.204  16.068  0.2813  0.4494 -0.9345
16459TIP3    H170792   1.502   2.247  16.150  0.1214  0.7871 -1.1579
16459TIP3    H270793   1.611   2.166  16.085  0.0931  0.2116 -0.4948
16460TIP3   OH270794   4.555   4.558   2.077  0.3087 -0.4130 -0.1773
16460TIP3    H170795   4.495   4.533   2.147 -2.3824  2.2274 -1.3190
16460TIP3    H270796   4.586   4.645   2.101  0.6895 -0.1723 -1.4320
16461TIP3   OH270797   5.314   0.285  13.963 -0.3354  0.4392 -0.4066
16461TIP3    H170798   5.224   0.313  13.979 -0.6080 -0.8392  0.4863
16461TIP3    H270799   5.363   0.366  13.952 -1.4776  1.1761 -0.2868
16462TIP3   OH270800   6.058   0.499  14.883 -0.2558  0.4970  0.1062
16462TIP3    H170801   6.033   0.418  14.839 -3.2373 -0.5391  3.2959
16462TIP3    H270802   5.983   0.557  14.870  0.9095  1.9676 -0.2518
16463TIP3   OH270803   0.118   1.540  14.870  0.1888 -0.0182 -0.1514
16463TIP3    H170804   0.161   1.456  14.886 -0.5373 -0.3584  0.0559
16463TIP3    H270805   0.025   1.523  14.884  0.1967  1.3062  1.9612
16464TIP3   OH270806   4.605   0.811  12.036 -0.1082 -0.2376 -0.1494
16464TIP3    H170807   4.587   0.882  12.098 -2.6961 -1.1018  0.1727
16464TIP3    H270808   4.700   0.816  12.023 -0.1411  3.2244 -0.1231
16465TIP3   OH270809   6.798   2.745   4.264 -0.2386 -0.4735 -0.0966
16465TIP3    H170810   6.710   2.711   4.278 -0.2974 -0.1287  0.4007
16465TIP3    H270811   6.820   2.719   4.175 -0.9291 -0.3737 -0.3023
16466TIP3   OH270812   0.930   4.233  17.165  0.6402 -0.0633 -0.1261
16466TIP3    H170813   0.924   4.150  17.118 -1.2079  0.6811 -1.3452
16466TIP3    H270814   0.949   4.298  17.097  1.5930  0.5904  0.7339
16467TIP3   OH270815   4.650   6.510  12.116 -0.1795  0.2687  0.7081
16467TIP3    H170816   4.602   6.432  12.142 -0.4263 -0.1651 -0.9441
16467TIP3    H270817   4.740   6.479  12.104 -0.2694  0.2403  0.0939
16468TIP3   OH270818   0.585   6.261  11.796  0.1533  0.4060 -0.0659
16468TIP3    H170819   0.624   6.336  11.752 -0.8631  0.7147 -0.4875
16468TIP3    H270820   0.493   6.286  11.809 -0.2618 -0.8370 -0.3991
16469TIP3   OH270821   6.208   0.021  10.113  0.6511  0.2232 -0.2062
16469TIP3    H170822   6.170   0.073  10.043  0.4720  0.1465 -0.1658
16469TIP3    H270823   6.256   0.084  10.167 -0.1285  0.4516  0.2278
16470TIP3   OH270824   4.882   0.702  11.977  0.5854 -0.6865 -0.0292
16470TIP3    H170825   4.916   0.614  11.960 -1.2060 -1.1602 -1.5447
16470TIP3    H270826   4.879   0.743  11.890  0.0900  0.3664  0.4701
16471TIP3   OH270827   5.168   1.241  14.697  0.1367  0.1695  0.1859
16471TIP3    H170828   5.190   1.237  14.790  2.0792  0.1133 -0.2313
16471TIP3    H270829   5.186   1.153  14.664 -1.3040 -0.0461 -0.1291
16472TIP3   OH270830   2.484   1.523   2.826  0.1002  0.0342 -0.0258
16472TIP3    H170831   2.526   1.452   2.778 -0.3288  0.6108 -1.2769
16472TIP3    H270832   2.540   1.535   2.903  1.5781  0.0058 -1.0610
16473TIP3   OH270833   3.247   2.653  12.952 -0.3923  0.3992  0.0687
16473TIP3    H170834   3.222   2.744  12.965  1.7660  0.9029  1.1937
16473TIP3    H270835   3.330   2.657  12.904 -0.7154 -1.0223 -0.6734
16474TIP3   OH270836   3.565   1.008   2.517 -0.0532 -0.7536  0.0987
16474TIP3    H170837   3.540   1.048   2.434  1.1754  1.5178  0.7451
16474TIP3    H270838   3.489   1.020   2.574  0.2375  0.5408  0.2265
16475TIP3   OH270839   6.327   2.813   3.692  0.0908  0.7959  0.1458
16475TIP3    H170840   6.354   2.902   3.670 -0.1490  0.7234 -0.4505
16475TIP3    H270841   6.266   2.788   3.623 -0.4313  0.4449  0.7163
16476TIP3   OH270842   6.229   3.615   1.209  0.6372  0.0934  0.5420
16476TIP3    H170843   6.139   3.589   1.227  0.7223 -0.5907  0.0481
16476TIP3    H270844   6.281   3.569   1.275  0.7290 -0.5039  0.0653
16477TIP3   OH270845   4.902   0.572   3.751 -0.3492 -0.1244  0.1373
16477TIP3    H170846   4.817   0.616   3.751 -0.6087 -0.4965  2.2611
16477TIP3    H270847   4.882   0.482   3.779  0.2556 -1.4981 -3.3644
16478TIP3   OH270848   5.127   2.041  10.590  0.1840  0.3501 -0.0839
16478TIP3    H170849   5.072   1.966  10.565 -0.6142  0.2942  1.6968
16478TIP3    H270850   5.096   2.064  10.677  1.7983  1.4922  0.2073
16479TIP3   OH270851   1.824   6.290   4.087 -0.4383  0.4670  0.8959
16479TIP3    H170852   1.813   6.320   3.997  1.0283  0.3141  0.6360
16479TIP3    H270853   1.895   6.226   4.082 -2.0341 -1.4808  1.7725
16480TIP3   OH270854   5.876   5.420   2.104 -0.3179  0.0293 -0.0208
16480TIP3    H170855   5.810   5.353   2.127 -0.5892  0.2384 -0.1844
16480TIP3    H270856   5.858   5.440   2.013 -1.0348  1.2214  0.3626
16481TIP3   OH270857   3.435   1.202   3.816 -0.5878 -0.1629  0.7735
16481TIP3    H170858   3.414   1.126   3.761 -1.7545  0.1975  0.6806
16481TIP3    H270859   3.440   1.275   3.755 -1.4260  0.1569  1.0625
16482TIP3   OH270860   4.860   3.801   0.983 -0.9011 -0.0250  0.0696
16482TIP3    H170861   4.777   3.757   0.967 -0.2396 -1.5679  0.7278
16482TIP3    H270862   4.866   3.808   1.078 -0.9825  1.5219 -0.0088
16483TIP3   OH270863   6.427   4.235  16.315 -0.3603 -0.3624  0.0348
16483TIP3    H170864   6.518   4.211  16.298 -0.9220 -1.7413 -1.2183
16483TIP3    H270865   6.432   4.302  16.384  1.5320 -1.0828  0.6521
16484TIP3   OH270866   0.941   0.153   3.040  0.1985  0.9098  0.3960
16484TIP3    H170867   1.034   0.149   3.062  0.8602 -0.5652 -2.2182
16484TIP3    H270868   0.909   0.064   3.056 -1.1175  1.6928  2.4278
16485TIP3   OH270869   1.925   6.320  14.086  0.1709  0.6612  0.8914
16485TIP3    H170870   1.867   6.250  14.114  2.5406 -1.7919  0.1336
16485TIP3    H270871   1.995   6.321  14.151 -0.0585  2.7594  1.1774
16486TIP3   OH270872   6.264   2.249   0.445  1.0488 -0.4393  0.0825
16486TIP3    H170873   6.344   2.300   0.439  0.2866  0.6186 -2.7149
16486TIP3    H270874   6.217   2.268   0.363 -2.6081 -0.0729  2.0631
16487TIP3   OH270875   1.207   1.280  10.922  0.0750 -0.7854 -0.5235
16487TIP3    H170876   1.267   1.296  10.849  1.3111 -0.7760  0.4474
16487TIP3    H270877   1.142   1.350  10.916  0.9882  0.0637 -0.7911
16488TIP3   OH270878   1.965   1.783  17.030  0.3361 -0.1823  0.2047
16488TIP3    H170879   2.026   1.810  16.962  0.5939  1.2242  0.9760
16488TIP3    H270880   1.953   1.689  17.015 -0.5086  0.2661 -2.4921
16489TIP3   OH270881   1.473   3.677   3.887  0.7687 -0.0517  0.0354
16489TIP3    H170882   1.559   3.712   3.912 -0.4717  3.2592  0.1421
16489TIP3    H270883   1.480   3.663   3.792  0.6518  3.1517 -0.5658
16490TIP3   OH270884   4.395   4.844   2.041  0.1405 -0.3075 -0.3962
16490TIP3    H170885   4.313   4.807   2.009 -1.5135  1.2481  1.7249
16490TIP3    H270886   4.408   4.922   1.987  0.6693 -0.9536 -1.2288
16491TIP3   OH270887   0.578   1.799  11.289  0.2411  0.4188  0.0357
16491TIP3    H170888   0.525   1.736  11.337 -1.1033  0.8670 -0.8042
16491TIP3    H270889   0.538   1.884  11.309  0.9678  0.8245 -0.2030
16492TIP3   OH270890   0.881   4.892  15.859 -0.1907 -0.5359 -0.0623
16492TIP3    H170891   0.973   4.890  15.884 -0.2158  0.9866  0.1945
16492TIP3    H270892   0.867   4.980  15.824 -1.4069 -0.9457 -0.6750
16493TIP3   OH270893   5.427   2.241   6.052  0.1867 -0.3486 -0.4087
16493TIP3    H170894   5.488   2.177   6.088  1.5414 -0.2503 -2.3509
16493TIP3    H270895   5.394   2.201   5.972 -1.3962  0.1087 -0.0071
16494TIP3   OH270896   3.247   3.706   0.794  0.1809 -0.1500  0.2603
16494TIP3    H170897   3.282   3.774   0.736 -2.3155  0.0866 -1.1152
16494TIP3    H270898   3.175   3.749   0.840  0.4162 -1.1136  1.5752
16495TIP3   OH270899   5.986   4.262  14.297 -0.4947  0.2965 -0.4467
16495TIP3    H170900   6.030   4.185  14.333  0.7097  0.4531 -1.5085
16495TIP3    H270901   5.953   4.309  14.373  2.3452  0.8558  0.5459
16496TIP3   OH270902   0.236   4.189  11.966  0.4825  0.0025  0.1921
16496TIP3    H170903   0.183   4.200  11.887  1.3189  1.2949 -0.2274
16496TIP3    H270904   0.225   4.097  11.990  1.0329 -0.7002 -2.0328
16497TIP3   OH270905   0.483   0.849  15.628 -0.2871 -0.4585  0.4322
16497TIP3    H170906   0.490   0.840  15.723  2.4383  0.1153  0.3636
16497TIP3    H270907   0.528   0.771  15.594  0.9807  0.5731 -0.3311
16498TIP3   OH270908   3.193   2.421   2.809  0.0625 -0.3081  0.0795
16498TIP3    H170909   3.177   2.357   2.740 -0.3374 -2.1718  1.7912
16498TIP3    H270910   3.145   2.499   2.782  0.2286 -0.8435 -1.8939
16499TIP3   OH270911   1.590   0.219  17.130 -0.1230  0.3115 -0.8885
16499TIP3    H170912   1.563   0.266  17.052 -0.5049  1.8789  0.1432
16499TIP3    H270913   1.590   0.285  17.200 -1.4923 -1.3475  0.8151
16500TIP3   OH270914   0.917   4.981  11.350 -0.8346 -0.5383 -0.2608
16500TIP3    H170915   0.848   4.951  11.291 -1.1656 -1.1875  0.4374
16500TIP3    H270916   0.943   4.902  11.398 -1.2624  0.1462  1.1456
16501TIP3   OH270917   2.452   3.572  10.900 -0.4793 -0.5272  0.2309
16501TIP3    H170918   2.425   3.518  10.826  0.3902 -1.5544  0.6386
16501TIP3    H270919   2.546   3.556  10.907 -0.7546 -1.4723  2.3525
16502TIP3   OH270920   2.560   1.634  12.193  0.2201 -0.2498 -0.2318
16502TIP3    H170921   2.511   1.552  12.196 -1.0690  0.5050  0.2275
16502TIP3    H270922   2.493   1.702  12.196  1.0868  0.8678 -3.3000
16503TIP3   OH270923   2.561   4.349  15.575  0.5278  0.5391 -0.6809
16503TIP3    H170924   2.499   4.304  15.518  0.6049  0.9710 -1.1097
16503TIP3    H270925   2.549   4.442  15.555  0.6020  0.6875 -0.0404
16504TIP3   OH270926   5.193   6.034  11.680 -0.7174  0.2730  0.0833
16504TIP3    H170927   5.147   5.950  11.687 -1.9506  1.0629  2.0514
16504TIP3    H270928   5.162   6.071  11.597  0.2145 -1.3678 -1.0742
16505TIP3   OH270929   4.286   2.608  15.229  0.3239  0.2590  0.5309
16505TIP3    H170930   4.334   2.652  15.299  2.1167 -1.8126  0.7454
16505TIP3    H270931   4.271   2.675  15.163  2.7369  1.2597  0.9081
16506TIP3   OH270932   0.826   4.413  14.436  0.4762  0.2519  0.9771
16506TIP3    H170933   0.801   4.320  14.443  0.6553  0.0577 -0.5652
16506TIP3    H270934   0.850   4.438  14.525  1.1927 -1.4067  1.2890
16507TIP3   OH270935   6.099   5.507   0.746 -0.5699 -0.3799  0.2067
16507TIP3    H170936   6.119   5.568   0.675  2.0046 -0.4695  0.7780
16507TIP3    H270937   6.080   5.563   0.821 -1.2963 -0.3044 -0.0209
16508TIP3   OH270938   4.971   1.497   5.720 -0.1339  0.1260 -0.4150
16508TIP3    H170939   5.037   1.565   5.712  0.7338 -0.4189  1.5265
16508TIP3    H270940   4.991   1.436   5.649  0.5606  0.6825 -0.7050
16509TIP3   OH270941   3.379   1.924  16.756 -0.1288 -0.2519 -0.1573
16509TIP3    H170942   3.457   1.904  16.704 -0.4355 -0.7660 -0.4273
16509TIP3    H270943   3.305   1.906  16.698 -0.4706 -0.4830  0.3336
16510TIP3   OH270944   1.667   5.257  16.698 -0.7010  0.1638  0.3469
16510TIP3    H170945   1.700   5.216  16.778 -0.3115  0.4384  0.3335
16510TIP3    H270946   1.614   5.330  16.729 -0.1513  0.5696  0.3571
16511TIP3   OH270947   3.718   0.916   4.524  0.0409 -0.0627 -0.9607
16511TIP3    H170948   3.659   0.889   4.454  0.6474 -2.7127 -0.5318
16511TIP3    H270949   3.805   0.915   4.484  0.3485 -1.2119 -0.2880
16512TIP3   OH270950   1.663   1.300  11.210  0.5428 -0.5067 -0.3569
16512TIP3    H170951   1.594   1.287  11.145 -0.3174  1.1736  0.1529
16512TIP3    H270952   1.740   1.259  11.171  0.4102  1.5011 -3.0742
16513TIP3   OH270953   3.113   0.321  16.742  0.2008  0.1865  0.5101
16513TIP3    H170954   3.142   0.410  16.724 -0.1016  0.9904  3.4518
16513TIP3    H270955   3.021   0.331  16.767 -0.1728 -1.1543 -0.2082
16514TIP3   OH270956   5.643   5.678  15.475 -0.2694  0.3381  0.0753
16514TIP3    H170957   5.607   5.745  15.534 -0.4905 -1.3183  1.9305
16514TIP3    H270958   5.567   5.643  15.429 -0.3978  0.1446  0.4314
16515TIP3   OH270959   5.462   2.719   5.697 -0.1407 -1.0543 -0.4600
16515TIP3    H170960   5.529   2.779   5.728  0.7068 -2.6379  0.8960
16515TIP3    H270961   5.504   2.670   5.627  0.0130 -1.8261  0.1713
16516TIP3   OH270962   0.535   0.122  15.684  0.7076 -0.2262  0.3506
16516TIP3    H170963   0.472   0.123  15.756 -1.1729 -1.0838 -1.2035
16516TIP3    H270964   0.581   0.038  15.693  1.6622  0.3769  1.4507
16517TIP3   OH270965   6.516   1.643   0.018 -0.8327  0.6684 -0.1252
16517TIP3    H170966   6.586   1.641  -0.047  0.8258 -1.2691  1.5673
16517TIP3    H270967   6.455   1.576  -0.011  0.0541 -0.4034  0.4071
16518TIP3   OH270968   3.710   2.781  12.173 -0.0415  0.0737  0.1099
16518TIP3    H170969   3.805   2.770  12.177 -0.1476 -0.4400  1.5414
16518TIP3    H270970   3.674   2.693  12.187 -0.7365  0.4624  0.8969
16519TIP3   OH270971   0.381   3.652  12.089  0.8636 -0.6401  0.2698
16519TIP3    H170972   0.374   3.685  11.999 -2.2406 -0.8474  0.3295
16519TIP3    H270973   0.376   3.731  12.144 -2.2757 -0.7304  0.2929
16520TIP3   OH270974   4.790   6.082   5.992 -0.3388  0.6860 -0.4294
16520TIP3    H170975   4.763   5.995   5.964 -1.1614  0.0950  2.0110
16520TIP3    H270976   4.869   6.100   5.940  1.4617 -2.6745  0.8430
16521TIP3   OH270977   6.094   3.343   1.209  0.5660  0.5106  0.5767
16521TIP3    H170978   6.032   3.383   1.148 -0.2728 -1.0254  0.3873
16521TIP3    H270979   6.050   3.347   1.294  0.0698 -0.8105  0.4000
16522TIP3   OH270980   1.124   0.357  17.074  0.0122 -0.0185  0.0275
16522TIP3    H170981   1.095   0.308  16.997  2.1404 -0.4018 -0.6043
16522TIP3    H270982   1.124   0.448  17.046 -1.2976  0.0817  0.3067
16523TIP3   OH270983   2.437   1.176  17.066 -0.1190 -0.9070  0.1899
16523TIP3    H170984   2.354   1.223  17.055  0.3420 -0.2490 -0.6426
16523TIP3    H270985   2.481   1.221  17.137 -0.0552 -0.6242 -0.0266
16524TIP3   OH270986   1.069   2.861   6.048  0.1323 -0.0422  0.6218
16524TIP3    H170987   1.052   2.882   6.140  0.1802 -2.1008  1.1583
16524TIP3    H270988   1.114   2.777   6.051 -1.5995 -1.1310 -1.3448
16525TIP3   OH270989   6.495   6.361   2.638  0.4709 -0.2555  0.0037
16525TIP3    H170990   6.434   6.312   2.692 -0.1723 -2.0641 -2.1951
16525TIP3    H270991   6.581   6.323   2.657  0.1176 -1.5764 -0.8886
16526TIP3   OH270992   6.230   2.140  11.723 -0.4484 -0.1029  1.1007
16526TIP3    H170993   6.172   2.124  11.798 -2.0968  0.4827 -0.0117
16526TIP3    H270994   6.313   2.099  11.749 -0.8231  0.4280  3.4064
16527TIP3   OH270995   2.785   1.383  13.876  0.2861  0.7574 -0.6497
16527TIP3    H170996   2.781   1.478  13.892  0.5673  1.0221 -2.0224
16527TIP3    H270997   2.821   1.347  13.957  0.9646  1.9271 -0.4030
16528TIP3   OH270998   5.650   4.144   2.096 -0.1556 -0.0780  0.0727
16528TIP3    H170999   5.597   4.186   2.164  0.0333  1.6498 -0.7770
16528TIP3    H271000   5.740   4.155   2.127 -0.1768 -1.4681  0.6852
16529TIP3   OH271001   5.319   1.498   0.584  0.1262  0.0053  0.3245
16529TIP3    H171002   5.411   1.472   0.580  0.2288  0.5236 -1.5335
16529TIP3    H271003   5.318   1.589   0.556 -0.9028  0.1870  0.8815
16530TIP3   OH271004   2.422   2.843   3.685  0.4630 -0.4841 -0.2084
16530TIP3    H171005   2.439   2.754   3.714  2.0588  0.6184  2.6641
16530TIP3    H271006   2.438   2.897   3.763 -1.5232  2.2318 -1.5175
16531TIP3   OH271007   6.534   6.780   2.979 -0.2847  0.8909  0.0135
16531TIP3    H171008   6.622   6.743   2.972 -0.2950  1.1201 -2.8425
16531TIP3    H271009   6.524   6.804   3.071  1.0166 -2.9095  1.3232
16532TIP3   OH271010   2.576   5.579   0.557  0.1468  0.3031  0.6393
16532TIP3    H171011   2.536   5.644   0.615  2.3147  1.5994  0.8170
16532TIP3    H271012   2.642   5.536   0.612 -0.7260 -1.5590  0.2987
16533TIP3   OH271013   5.002   3.454   2.990 -0.1435 -0.0652 -0.0596
16533TIP3    H171014   4.946   3.483   3.063 -0.0656  1.7132 -0.6489
16533TIP3    H271015   4.997   3.359   2.992 -2.1087  0.0080  0.7490
16534TIP3   OH271016   0.445   0.006  12.833 -0.1365 -0.0400  0.0219
16534TIP3    H171017   0.394  -0.075  12.838  1.6957 -1.8559 -5.0082
16534TIP3    H271018   0.388   0.069  12.789 -0.0199 -0.1400 -0.2745
16535TIP3   OH271019   3.612   1.086   3.454  0.6499  0.4970 -0.5163
16535TIP3    H171020   3.661   1.061   3.532  1.1887 -0.5008 -1.1431
16535TIP3    H271021   3.521   1.070   3.476  0.5207  2.7694  0.8128
16536TIP3   OH271022   1.793   2.475  16.897  0.1827 -0.5206  0.3659
16536TIP3    H171023   1.735   2.470  16.973 -1.4706 -0.3562 -0.8510
16536TIP3    H271024   1.873   2.515  16.932 -0.5383 -0.4084  2.0063
16537TIP3   OH271025   5.868   1.593  15.255 -0.2086 -0.2457  0.5787
16537TIP3    H171026   5.843   1.670  15.203  0.0716 -0.0785  0.6943
16537TIP3    H271027   5.798   1.529  15.238  0.1919 -0.4187 -0.5000
16538TIP3   OH271028   3.055   4.555   3.106 -0.0292 -0.4318  0.7149
16538TIP3    H171029   3.130   4.504   3.074  0.2822  0.2666  0.3067
16538TIP3    H271030   3.058   4.636   3.056  0.4493  0.6906  2.4815
16539TIP3   OH271031   0.504   2.991   5.178 -0.7508  0.3123  0.2764
16539TIP3    H171032   0.564   2.985   5.253 -0.5435 -1.8752  0.0031
16539TIP3    H271033   0.475   3.082   5.178  1.6670  1.1753  1.1232
16540TIP3   OH271034   4.308   3.955  12.377 -0.0706 -0.1726 -0.5507
16540TIP3    H171035   4.271   3.874  12.343  0.3933 -0.3013 -0.7659
16540TIP3    H271036   4.253   3.978  12.452  0.4119 -1.2253  0.1411
16541TIP3   OH271037   5.172   1.353   0.408  0.5507  0.2898 -0.3429
16541TIP3    H171038   5.201   1.268   0.442 -1.3820 -0.0934  0.4615
16541TIP3    H271039   5.206   1.416   0.471  0.5891 -0.0430 -0.0249
16542TIP3   OH271040   3.276   2.659   0.569 -0.0381  0.4698  0.3438
16542TIP3    H171041   3.221   2.731   0.535 -0.2727  0.1923  0.1272
16542TIP3    H271042   3.268   2.666   0.664  1.6060  2.0194  0.4177
16543TIP3   OH271043   0.784   3.738  13.181  0.2364 -0.2630  0.0608
16543TIP3    H171044   0.850   3.669  13.174  0.3809 -0.0653 -0.5212
16543TIP3    H271045   0.835   3.817  13.201  0.0335 -0.4005  1.1762
16544TIP3   OH271046   3.377   3.062  13.585  0.1107  0.1184  0.0680
16544TIP3    H171047   3.355   2.973  13.557 -0.4786  0.6862 -1.4035
16544TIP3    H271048   3.472   3.062  13.595  0.3425 -0.2412 -1.7453
16545TIP3   OH271049   1.954   5.354  14.240  0.0164  0.8158 -0.1169
16545TIP3    H171050   2.017   5.411  14.284 -0.6895  2.3497 -1.0124
16545TIP3    H271051   1.949   5.277  14.296  1.3870  1.3944  0.8734
16546TIP3   OH271052   3.028   5.420  12.584 -0.2814 -0.0456 -0.2428
16546TIP3    H171053   2.995   5.504  12.552  0.8305 -0.0167 -1.3848
16546TIP3    H271054   2.979   5.405  12.665 -1.4152  1.0793 -0.6744
16547TIP3   OH271055   1.720   5.951  12.197 -0.3992 -0.2297  0.4781
16547TIP3    H171056   1.625   5.948  12.204 -0.6814  1.5064 -1.5870
16547TIP3    H271057   1.744   6.035  12.236  0.0842  0.0688 -0.4371
16548TIP3   OH271058   4.332   0.537   5.611  0.0496  0.0277 -0.0829
16548TIP3    H171059   4.263   0.599   5.630  1.0787  1.8616 -1.9080
16548TIP3    H271060   4.329   0.526   5.516  0.7773 -1.6871  0.0454
16549TIP3   OH271061   1.555   2.731  12.823 -0.8050  0.4447 -0.2348
16549TIP3    H171062   1.544   2.660  12.886 -2.1394  0.9979  0.1833
16549TIP3    H271063   1.631   2.779  12.855  1.2743 -1.7616 -1.5120
16550TIP3   OH271064   4.852   3.587  16.517 -0.4315  0.1839 -0.1839
16550TIP3    H171065   4.884   3.497  16.506 -1.4754 -0.2897  0.4880
16550TIP3    H271066   4.931   3.641  16.509  0.6885 -0.9785  2.0303
16551TIP3   OH271067   2.909   6.453  13.634  0.1755  0.9593 -0.1094
16551TIP3    H171068   2.959   6.506  13.571  0.5714  0.3580 -0.3105
16551TIP3    H271069   2.928   6.492  13.719 -0.4214  1.8280 -0.3551
16552TIP3   OH271070   2.437   0.054   5.309  0.0655  0.2919 -0.3039
16552TIP3    H171071   2.484   0.067   5.391  0.8894  1.2890 -0.9189
16552TIP3    H271072   2.368   0.120   5.310  0.0421  0.2692 -0.4005
16553TIP3   OH271073   2.805   6.704  14.781  0.3333  0.4544  0.3457
16553TIP3    H171074   2.747   6.676  14.852 -1.5703  1.0698 -0.9163
16553TIP3    H271075   2.844   6.623  14.749 -0.8637 -0.1499  0.3539
16554TIP3   OH271076   0.544   3.152  15.148 -0.7016  0.1967  0.1812
16554TIP3    H171077   0.638   3.170  15.141 -0.6271 -0.1581  0.3047
16554TIP3    H271078   0.513   3.213  15.215 -0.5798  0.3845  0.0685
16555TIP3   OH271079   4.818   1.976  10.759  0.1355  0.5761  0.3138
16555TIP3    H171080   4.877   2.052  10.763  0.5797  0.1750  2.8661
16555TIP3    H271081   4.854   1.923  10.688  1.5022  1.4246  0.3282
16556TIP3   OH271082   4.311   0.442   4.599 -0.0049 -0.4250  0.0488
16556TIP3    H171083   4.367   0.424   4.523 -0.7107  0.9160 -0.8321
16556TIP3    H271084   4.355   0.399   4.672  2.4378  0.8987 -0.5169
16557TIP3   OH271085   2.159   2.374  11.886  0.7330 -0.5412  0.2312
16557TIP3    H171086   2.074   2.404  11.918  0.5297 -0.8167 -0.0548
16557TIP3    H271087   2.140   2.323  11.808  0.9168 -2.7719  1.5460
16558TIP3   OH271088   0.890   5.180  17.233 -0.3377 -0.0957  0.1401
16558TIP3    H171089   0.828   5.109  17.214  0.4670 -0.2616 -2.2177
16558TIP3    H271090   0.975   5.144  17.211  0.2396  1.1760  0.1881
16559TIP3   OH271091   2.020   3.306   2.210 -0.2274 -0.3864  0.1352
16559TIP3    H171092   2.042   3.344   2.125 -1.1539  0.8347  0.4055
16559TIP3    H271093   1.941   3.254   2.193 -1.2860  1.0444  0.4868
16560TIP3   OH271094   4.751   4.096   0.474  0.4462 -0.3209 -0.4800
16560TIP3    H171095   4.829   4.152   0.479 -0.3078  0.6458  1.2999
16560TIP3    H271096   4.781   4.010   0.504  1.0106 -0.1732 -0.6120
16561TIP3   OH271097   5.283   5.442   4.627  0.0320  0.0300  0.0962
16561TIP3    H171098   5.326   5.515   4.582 -0.7395  0.5295  0.1641
16561TIP3    H271099   5.246   5.389   4.557 -0.8734  0.6246  0.1110
16562TIP3   OH271100   3.549   5.454  10.771 -0.0356 -0.1699  0.2667
16562TIP3    H171101   3.618   5.410  10.722  0.4260 -0.6678  1.3298
16562TIP3    H271102   3.586   5.465  10.859 -0.2220  2.1432  0.1159
16563TIP3   OH271103   0.905   0.674  12.337  0.2885 -0.1812  0.4691
16563TIP3    H171104   0.852   0.611  12.386  0.7062 -0.8629  0.0536
16563TIP3    H271105   0.977   0.697  12.396 -0.4788  0.7949  1.0592
16564TIP3   OH271106   3.632   1.326   3.076  0.2078  0.1500  0.3753
16564TIP3    H171107   3.606   1.344   3.166  1.5572 -1.3724  1.1074
16564TIP3    H271108   3.727   1.324   3.078  0.2410 -1.6485 -0.6984
16565TIP3   OH271109   5.317   4.382   0.910  0.2762  0.2966 -0.0949
16565TIP3    H171110   5.396   4.430   0.884  0.9028 -0.2707  0.6903
16565TIP3    H271111   5.248   4.416   0.853  1.1653  0.5308 -1.0635
16566TIP3   OH271112   4.742   6.418  16.307 -0.1925 -0.3530  0.4869
16566TIP3    H171113   4.667   6.474  16.289 -0.8043 -1.0346  0.8652
16566TIP3    H271114   4.814   6.458  16.258 -0.8688  0.1351 -0.1274
16567TIP3   OH271115   4.114   3.498  12.781 -0.3421 -0.5246  0.0202
16567TIP3    H171116   4.126   3.486  12.686  1.4314  0.9671 -0.0177
16567TIP3    H271117   4.181   3.442  12.820  0.1243  0.1959  0.2866
16568TIP3   OH271118   2.802   5.274  16.597  0.0249  0.3952 -0.5959
16568TIP3    H171119   2.863   5.318  16.657 -0.0145  0.4093 -0.5675
16568TIP3    H271120   2.747   5.345  16.563 -0.0692  0.3622 -0.5134
16569TIP3   OH271121   1.538   6.321   0.962 -0.3156 -0.3471  0.0790
16569TIP3    H171122   1.566   6.411   0.980 -0.8948 -0.0508 -0.4283
16569TIP3    H271123   1.550   6.275   1.044 -1.6598  0.6323  0.8778
16570TIP3   OH271124   6.767   2.292  16.895 -0.1864 -0.5185  0.1242
16570TIP3    H171125   6.754   2.307  16.989 -1.4948 -3.5128  0.5418
16570TIP3    H271126   6.692   2.335  16.854 -1.7424 -2.3817  0.8772
16571TIP3   OH271127   0.087   0.253  14.973 -0.4852  0.3809 -0.0753
16571TIP3    H171128   0.148   0.231  14.903 -0.0137  0.6436  0.2489
16571TIP3    H271129   0.062   0.169  15.011 -0.9314  0.2210 -0.7122
16572TIP3   OH271130   0.240   5.177  12.876 -0.0674 -0.4030 -0.4616
16572TIP3    H171131   0.217   5.178  12.968 -0.5244 -0.3914 -0.5741
16572TIP3    H271132   0.312   5.114  12.870  0.6737  0.3736  0.0620
16573TIP3   OH271133   2.585   1.000   2.462 -0.1258 -0.0566 -0.1774
16573TIP3    H171134   2.668   1.048   2.463 -0.1089 -0.0972  0.3189
16573TIP3    H271135   2.584   0.953   2.545 -0.9599  0.4639  0.1091
16574TIP3   OH271136   3.497   1.620  11.222  0.2605 -0.3155  0.2844
16574TIP3    H171137   3.471   1.654  11.136 -0.1443  0.7557  0.8093
16574TIP3    H271138   3.517   1.698  11.273  3.1425 -1.0028  0.3856
16575TIP3   OH271139   2.042   0.194  17.167  0.6409  0.0146  0.0520
16575TIP3    H171140   2.035   0.270  17.225 -1.4562  0.9371 -1.2567
16575TIP3    H271141   1.978   0.131  17.202  0.8909 -0.2948 -0.0418
16576TIP3   OH271142   5.568   4.928   5.112 -0.0807 -0.3042  0.1023
16576TIP3    H171143   5.570   4.981   5.033  0.5628  1.6907  1.3955
16576TIP3    H271144   5.608   4.845   5.087  1.4966  0.8319 -1.3001
16577TIP3   OH271145   6.514   0.980  12.795  0.2641 -0.6218  0.4562
16577TIP3    H171146   6.451   1.040  12.755 -0.6548 -2.7265 -1.4535
16577TIP3    H271147   6.461   0.916  12.841  0.9425 -2.2318 -0.8865
16578TIP3   OH271148   4.830   2.374  11.893  0.1811 -0.1713 -0.2640
16578TIP3    H171149   4.918   2.346  11.921 -0.3952 -0.7631  1.0390
16578TIP3    H271150   4.813   2.452  11.945 -0.9902 -1.4036  1.3185
16579TIP3   OH271151   2.365   3.684  12.861 -0.4919 -0.2603  0.0308
16579TIP3    H171152   2.402   3.661  12.776 -0.1858 -0.0727  0.1125
16579TIP3    H271153   2.293   3.742  12.841 -0.9882 -0.9273 -0.1531
16580TIP3   OH271154   4.278   4.511  13.705 -0.1823  0.0985  0.1897
16580TIP3    H171155   4.336   4.497  13.629 -1.8400 -0.6262 -1.0176
16580TIP3    H271156   4.314   4.587  13.749  1.6820 -0.3284 -0.5131
16581TIP3   OH271157   4.401   1.343   5.973  0.0618 -0.6801  0.0255
16581TIP3    H171158   4.344   1.288   6.027  1.1428 -0.2634  1.6755
16581TIP3    H271159   4.440   1.405   6.035  0.0634  0.9509 -1.5293
16582TIP3   OH271160   1.726   5.852  14.895  0.2400 -0.1892  0.2803
16582TIP3    H171161   1.677   5.924  14.855  1.0098 -0.3748 -1.0289
16582TIP3    H271162   1.732   5.876  14.988 -0.4237  0.9029  0.0531
16583TIP3   OH271163   0.688   4.334   2.859 -0.2137  0.2189 -0.1315
16583TIP3    H171164   0.665   4.263   2.919  0.3597  0.1989  0.0773
16583TIP3    H271165   0.607   4.355   2.814 -0.8774  0.9012  1.3446
16584TIP3   OH271166   6.563   6.037  14.884 -0.4912  0.2694 -0.8110
16584TIP3    H171167   6.471   6.021  14.906  0.1256 -0.5821  1.4570
16584TIP3    H271168   6.581   5.975  14.813 -1.7066  0.5969 -1.4352
16585TIP3   OH271169   3.265   3.118   2.306  0.4045 -0.1167  0.9394
16585TIP3    H171170   3.237   3.027   2.313  3.0224 -0.9561  1.6560
16585TIP3    H271171   3.359   3.113   2.290  0.5228  2.4737  0.3507
16586TIP3   OH271172   1.399   0.189  14.317 -0.3189 -0.6128 -0.2539
16586TIP3    H171173   1.483   0.227  14.344 -0.4748 -1.3615  1.3365
16586TIP3    H271174   1.424   0.108  14.273 -0.1935 -0.6969 -0.0308
16587TIP3   OH271175   4.747   4.289  14.892  0.3627  0.2334  0.0062
16587TIP3    H171176   4.655   4.263  14.887  0.1660  0.7900  0.5861
16587TIP3    H271177   4.783   4.236  14.962  0.1078  1.0601  0.7855
16588TIP3   OH271178   3.267   1.493  13.058  0.6957  0.0334  0.5930
16588TIP3    H171179   3.301   1.489  12.969  1.5876 -0.3864  0.9388
16588TIP3    H271180   3.220   1.576  13.062 -1.0781 -0.8468 -0.8495
16589TIP3   OH271181   1.130   4.760   3.037 -0.4791  0.1745  0.2150
16589TIP3    H171182   1.202   4.698   3.052 -1.7649 -1.2894  0.6480
16589TIP3    H271183   1.106   4.790   3.124  0.5226  1.8126 -0.0338
16590TIP3   OH271184   6.015   5.804   3.350 -0.0483 -0.1626  0.0563
16590TIP3    H171185   5.983   5.891   3.325  0.6286 -0.0218 -0.3646
16590TIP3    H271186   6.107   5.804   3.323 -0.2294 -1.2675 -0.6212
16591TIP3   OH271187   6.559   2.210   4.122 -0.1201 -0.1478  0.0242
16591TIP3    H171188   6.466   2.187   4.117 -0.5708  1.0990  1.6992
16591TIP3    H271189   6.605   2.127   4.110 -1.4742 -0.9090 -0.0808
16592TIP3   OH271190   2.602   5.455  14.739  0.1985 -0.5582 -0.1490
16592TIP3    H171191   2.661   5.477  14.811  0.7800  0.9931 -1.0637
16592TIP3    H271192   2.516   5.486  14.768  0.5507  0.6790 -0.3686
16593TIP3   OH271193   2.589   3.340   3.187 -0.7010 -0.1271  0.0625
16593TIP3    H171194   2.660   3.392   3.149  0.1273  1.3172  3.2079
16593TIP3    H271195   2.615   3.249   3.171  0.8543  0.3862 -0.5400
16594TIP3   OH271196   6.219   6.675  14.417  0.4483  0.0929 -0.1435
16594TIP3    H171197   6.215   6.769  14.434  0.2752 -0.0328  0.5390
16594TIP3    H271198   6.304   6.647  14.453  1.9153  0.4895 -3.0219
16595TIP3   OH271199   0.881   4.713   2.936  0.0770 -0.1886  0.2600
16595TIP3    H171200   0.869   4.794   2.886  1.1484  0.2373  0.6574
16595TIP3    H271201   0.960   4.728   2.987  0.1127 -1.3720  0.5878
16596TIP3   OH271202   6.401   0.033   3.661  0.3148  0.2387  0.1469
16596TIP3    H171203   6.462  -0.036   3.687 -1.4318 -2.0970 -1.4656
16596TIP3    H271204   6.346  -0.008   3.594 -2.4323  2.4668  0.8390
16597TIP3   OH271205   0.406   0.616   5.187  0.2209 -0.3302  0.0701
16597TIP3    H171206   0.422   0.583   5.276  0.3279  0.4223  0.3325
16597TIP3    H271207   0.318   0.652   5.191 -0.4497 -1.8130 -0.5911
16598TIP3   OH271208   1.950   0.358   0.510  0.2304 -0.2979 -0.5679
16598TIP3    H171209   2.046   0.363   0.503  0.2140 -0.3511 -0.8406
16598TIP3    H271210   1.921   0.447   0.488  0.1421 -0.6271 -1.8462
16599TIP3   OH271211   0.380   4.209   3.456 -0.2685 -0.1830 -0.4313
16599TIP3    H171212   0.406   4.121   3.429  0.1587  0.1385 -1.0830
16599TIP3    H271213   0.421   4.267   3.392 -1.9595  0.3888 -1.0433
16600TIP3   OH271214   2.081   4.473   0.256  0.1899  0.2347 -0.5794
16600TIP3    H171215   2.168   4.434   0.247  1.5612  3.2579 -1.5477
16600TIP3    H271216   2.073   4.532   0.181 -2.3203  0.7518  0.0200
16601TIP3   OH271217   1.377   0.649   2.599 -0.4187  0.4127 -0.3241
16601TIP3    H171218   1.430   0.722   2.631 -0.3342  0.2255 -0.0294
16601TIP3    H271219   1.333   0.683   2.521 -0.3672  0.7702 -0.1975
16602TIP3   OH271220   4.948   4.440  12.972 -0.2216  0.0425  0.0226
16602TIP3    H171221   4.893   4.485  12.907 -0.3901 -1.6493 -1.0833
16602TIP3    H271222   4.892   4.371  13.007  0.6995 -0.7076  0.0499
16603TIP3   OH271223   1.418   0.330  12.005 -0.1520 -0.7004 -0.3094
16603TIP3    H171224   1.497   0.297  12.048 -0.5908 -0.8792  0.3793
16603TIP3    H271225   1.356   0.343  12.077 -0.5590 -0.0228 -0.7767
16604TIP3   OH271226   2.265   1.589   3.798 -0.1755 -0.0006 -0.4697
16604TIP3    H171227   2.348   1.584   3.845  0.3041  3.9407 -0.6207
16604TIP3    H271228   2.289   1.584   3.706 -0.2785 -0.2205 -0.4859
16605TIP3   OH271229   4.717   1.873   0.314 -0.2900  0.5728  0.3136
16605TIP3    H171230   4.736   1.822   0.393 -0.9553 -1.3621 -0.7184
16605TIP3    H271231   4.650   1.935   0.342 -0.5277 -0.0869  1.2702
16606TIP3   OH271232   3.747   6.446   0.079 -0.4035  0.2726 -0.1281
16606TIP3    H171233   3.712   6.506   0.013  0.9028  1.0181 -0.1759
16606TIP3    H271234   3.746   6.360   0.037  0.2262  0.7037 -1.0654
16607TIP3   OH271235   2.563   1.313  14.541 -0.4583 -0.1688  0.0147
16607TIP3    H171236   2.568   1.354  14.627  0.7668 -3.9018  1.9520
16607TIP3    H271237   2.649   1.271  14.530 -0.9585 -0.6525 -2.5895
16608TIP3   OH271238   6.638   4.643  16.347  0.5941 -0.4764 -0.4792
16608TIP3    H171239   6.682   4.586  16.411  0.3252 -1.6046 -1.2731
16608TIP3    H271240   6.614   4.721  16.398  1.4746 -0.8197  0.5019
16609TIP3   OH271241   4.579   5.206  11.874  0.3367  0.0202 -0.1327
16609TIP3    H171242   4.534   5.132  11.833  1.6597 -0.4256 -0.8527
16609TIP3    H271243   4.568   5.191  11.968  1.3532 -1.6270 -0.2323
16610TIP3   OH271244   2.687   5.127   3.086  0.0012 -0.0658 -0.4532
16610TIP3    H171245   2.612   5.074   3.061 -1.5456  1.4343  0.7319
16610TIP3    H271246   2.753   5.110   3.019 -1.1130 -2.0004 -1.1115
16611TIP3   OH271247   3.852   6.062   2.046 -0.0311  0.9331 -0.1662
16611TIP3    H171248   3.910   6.023   2.112  0.7526 -0.1374 -1.4443
16611TIP3    H271249   3.773   6.086   2.095 -0.0464 -1.1275  0.9190
16612TIP3   OH271250   5.716   3.853  11.749 -0.5682  0.1191 -0.3894
16612TIP3    H171251   5.769   3.842  11.670 -0.5466  0.6393 -0.4507
16612TIP3    H271252   5.748   3.935  11.789  0.5447 -0.9484  1.0321
16613TIP3   OH271253   0.140   3.488   0.155  0.6212  0.1603  0.5728
16613TIP3    H171254   0.054   3.445   0.149  1.1377 -0.6828 -1.8529
16613TIP3    H271255   0.119   3.582   0.157 -0.4286  0.1211 -2.4712
16614TIP3   OH271256   1.361   2.034  14.842  0.4046 -0.4737  0.6734
16614TIP3    H171257   1.444   2.044  14.888  1.6778 -2.2562 -1.0378
16614TIP3    H271258   1.386   2.017  14.751 -1.8605 -0.5063 -0.0134
16615TIP3   OH271259   0.224   5.479   5.919  0.4643 -0.4579  0.1222
16615TIP3    H171260   0.318   5.488   5.934  0.5712  1.9302 -1.4581
16615TIP3    H271261   0.218   5.426   5.839  0.6068  0.8411 -0.7928
16616TIP3   OH271262   2.895   4.536  15.442  0.1049  0.2821  0.3481
16616TIP3    H171263   2.859   4.557  15.528 -0.0378  1.3291  0.0547
16616TIP3    H271264   2.932   4.449  15.452 -0.8288 -0.0402  1.1847
16617TIP3   OH271265   3.144   1.367   3.602  0.0368 -0.2200 -0.2847
16617TIP3    H171266   3.236   1.340   3.597  0.0232 -0.2158 -0.5810
16617TIP3    H271267   3.147   1.462   3.601  0.0444 -0.2167  0.0063
16618TIP3   OH271268   0.203   6.389   2.027  0.0258 -0.2138 -0.5208
16618TIP3    H171269   0.291   6.408   1.997 -0.6777  1.5537 -1.5978
16618TIP3    H271270   0.165   6.475   2.048 -1.9836 -0.7399 -1.7056
16619TIP3   OH271271   4.409   3.933   1.762  0.0018 -0.2158 -0.5101
16619TIP3    H171272   4.331   3.973   1.799 -0.0031 -0.3798 -0.3430
16619TIP3    H271273   4.382   3.905   1.674 -0.5501 -1.5560  0.0528
16620TIP3   OH271274   2.593   1.417  14.792 -0.9203  0.0290 -0.0520
16620TIP3    H171275   2.513   1.451  14.831  0.7449  2.2577  1.6593
16620TIP3    H271276   2.642   1.381  14.865 -0.0854 -0.7987 -0.9828
16621TIP3   OH271277   0.609   5.886   0.017 -0.1709  0.2930 -0.2342
16621TIP3    H171278   0.551   5.859   0.088 -0.9029 -1.2720 -1.3545
16621TIP3    H271279   0.564   5.960  -0.023 -0.6426  0.0573 -0.1504
16622TIP3   OH271280   3.648   0.959  11.166  0.1560  0.5256  0.4892
16622TIP3    H171281   3.702   0.880  11.156  1.6140  1.6280 -0.8870
16622TIP3    H271282   3.597   0.963  11.085 -1.1222  0.1621  1.2558
16623TIP3   OH271283   5.389   2.880  14.534  0.3723 -0.2796  0.0584
16623TIP3    H171284   5.349   2.949  14.587  2.5839  1.1093  0.0444
16623TIP3    H271285   5.345   2.887  14.450 -1.6564 -1.0656  0.9787
16624TIP3   OH271286   2.042   4.000   6.453 -0.7360 -0.2038  0.2877
16624TIP3    H171287   2.015   3.946   6.526  0.1464 -0.2347  0.6027
16624TIP3    H271288   2.021   3.948   6.375  0.6712 -1.2790  0.5991
16625TIP3   OH271289   4.589   3.604  16.405  0.7615 -0.2357  0.6587
16625TIP3    H171290   4.678   3.602  16.441  1.1268  1.4106 -0.0541
16625TIP3    H271291   4.555   3.691  16.428 -0.1900 -0.3727 -0.1584
16626TIP3   OH271292   6.505   1.241   5.238  0.8397 -0.4147 -0.2421
16626TIP3    H171293   6.486   1.235   5.145 -0.6246 -1.1951  0.0766
16626TIP3    H271294   6.483   1.154   5.272 -1.9872  0.7937  1.3734
16627TIP3   OH271295   1.121   3.304   0.595  0.5749  0.0909  0.0737
16627TIP3    H171296   1.155   3.390   0.570  0.4309  0.1533  0.0962
16627TIP3    H271297   1.162   3.286   0.680  0.3091  0.3062  0.2503
16628TIP3   OH271298   5.558   4.442   1.544  0.2829 -0.6192  0.5338
16628TIP3    H171299   5.574   4.498   1.468  0.0183 -0.1764  0.8032
16628TIP3    H271300   5.520   4.500   1.609 -0.4505 -1.2099  0.6502
16629TIP3   OH271301   1.977   6.007   4.992  0.8765  0.3984 -0.1702
16629TIP3    H171302   2.037   6.056   5.049 -0.8748  0.7095  1.5104
16629TIP3    H271303   2.026   5.929   4.967  1.9464  0.5928  1.2078
16630TIP3   OH271304   2.642   3.156  17.085 -0.4437 -0.2130  0.5361
16630TIP3    H171305   2.654   3.207  17.005  0.6786  1.2811  1.6063
16630TIP3    H271306   2.556   3.183  17.118 -0.0292  0.7223  0.8844
16631TIP3   OH271307   3.596   2.983   0.601 -0.5734 -0.0818 -0.3662
16631TIP3    H171308   3.644   3.064   0.613  0.4609 -0.2674 -2.6453
16631TIP3    H271309   3.659   2.914   0.625 -0.2903 -0.2631 -1.5416
16632TIP3   OH271310   3.960   2.439  14.660 -0.4784  0.4873 -0.0130
16632TIP3    H171311   3.980   2.531  14.644 -1.1045  0.5068 -0.7315
16632TIP3    H271312   3.960   2.399  14.574  2.2853 -0.7448  0.4600
16633TIP3   OH271313   5.151   3.611   1.682 -0.3341 -0.5595 -0.2207
16633TIP3    H171314   5.071   3.623   1.631 -1.4290 -2.1531  1.0515
16633TIP3    H271315   5.219   3.652   1.628 -1.4733 -1.8384 -2.8310
16634TIP3   OH271316   5.678   5.591   2.681 -0.3037 -0.0700  0.0363
16634TIP3    H171317   5.716   5.619   2.598 -2.1299  2.4760 -0.0675
16634TIP3    H271318   5.713   5.653   2.745  0.1268 -1.2543  0.9909
16635TIP3   OH271319   4.531   5.013   4.989 -0.7372 -0.3477 -0.2195
16635TIP3    H171320   4.536   4.923   5.020  0.5928 -0.5828 -1.0539
16635TIP3    H271321   4.570   5.065   5.060 -0.7548 -0.5189 -0.0855
16636TIP3   OH271322   4.557   2.094   0.436 -0.2602  0.4079 -0.7558
16636TIP3    H171323   4.621   2.120   0.503 -0.7052  0.4420 -0.3353
16636TIP3    H271324   4.485   2.055   0.486 -0.3624 -0.0575 -1.2602
16637TIP3   OH271325   6.160   4.881   5.445  0.3312 -0.1991  0.8659
16637TIP3    H171326   6.093   4.934   5.487 -0.4745  0.3323 -0.9597
16637TIP3    H271327   6.236   4.886   5.503 -0.3665  1.3612  1.6862
16638TIP3   OH271328   1.626   5.027  13.826 -0.1209 -0.1096  0.0546
16638TIP3    H171329   1.684   4.961  13.862 -0.3094  0.0705  0.6960
16638TIP3    H271330   1.631   5.014  13.731 -0.8191 -1.6007  0.1999
16639TIP3   OH271331   2.273   6.264   3.607 -0.2017  0.3401 -0.0287
16639TIP3    H171332   2.251   6.173   3.584 -1.0213  0.8140 -1.2556
16639TIP3    H271333   2.300   6.303   3.523 -0.6699  1.4432  0.3162
16640TIP3   OH271334   2.056   2.838  12.641 -0.0470 -0.1449 -0.2572
16640TIP3    H171335   2.109   2.793  12.576  2.0693 -0.0200  1.2668
16640TIP3    H271336   2.093   2.926  12.645  0.2275 -0.3020  1.4337
16641TIP3   OH271337   1.305   1.100  10.606 -0.1137  0.9119 -0.5736
16641TIP3    H171338   1.387   1.088  10.558 -0.2290 -0.2053 -0.5028
16641TIP3    H271339   1.308   1.191  10.635  1.4551  0.6764  0.0868
16642TIP3   OH271340   0.232   3.778  15.749  0.2769  0.7725  0.2745
16642TIP3    H171341   0.176   3.771  15.671  0.0195 -0.0334  0.5245
16642TIP3    H271342   0.243   3.872  15.762 -3.1206  1.1143  1.7028
16643TIP3   OH271343   5.127   5.052  13.395 -0.2675  0.2197  0.0982
16643TIP3    H171344   5.066   5.083  13.462 -1.4235  1.5684 -1.4903
16643TIP3    H271345   5.170   5.131  13.363 -2.0303  0.1495 -2.8621
16644TIP3   OH271346   2.747   6.660   1.117  0.3856 -0.3405  0.2837
16644TIP3    H171347   2.684   6.588   1.131 -0.1615  0.3279  1.4680
16644TIP3    H271348   2.696   6.739   1.133  1.3992  0.2398  0.7130
16645TIP3   OH271349   4.005   4.194  11.224 -0.2636  0.1700 -0.7480
16645TIP3    H171350   3.993   4.164  11.314  0.4759 -0.3043 -0.7954
16645TIP3    H271351   3.921   4.230  11.199 -0.4810  0.2991  0.1365
16646TIP3   OH271352   5.358   1.891  14.541 -0.1859  0.4208  0.5024
16646TIP3    H171353   5.267   1.919  14.540 -0.4774 -0.4828  1.0128
16646TIP3    H271354   5.355   1.797  14.523  0.4866 -0.0103  2.4211
16647TIP3   OH271355   5.183   0.591   1.236  0.1615  0.3386  0.2227
16647TIP3    H171356   5.126   0.667   1.232 -0.0708  0.1020 -1.4835
16647TIP3    H271357   5.134   0.527   1.288  0.9400  1.7477  2.9198
16648TIP3   OH271358   3.767   4.195   6.490  0.0220  0.2338  0.3138
16648TIP3    H171359   3.748   4.240   6.573 -2.2143  1.3115 -0.6907
16648TIP3    H271360   3.783   4.104   6.516 -0.7222  0.5283  1.9455
16649TIP3   OH271361   0.668   1.948   3.617  0.0337 -0.3997 -0.1305
16649TIP3    H171362   0.741   1.892   3.643 -0.9494 -1.4553  0.4383
16649TIP3    H271363   0.687   2.032   3.660  1.7676 -0.0802 -1.3943
16650TIP3   OH271364   6.061   3.621   0.806  0.3001 -0.0705 -0.1990
16650TIP3    H171365   6.150   3.654   0.792 -0.6846  1.9541 -2.4194
16650TIP3    H271366   6.033   3.592   0.719 -0.6426 -2.3465  0.7941
16651TIP3   OH271367   3.295   6.515  16.405  0.7936  0.1636 -0.6472
16651TIP3    H171368   3.220   6.556  16.448 -0.2880 -1.1935 -1.1920
16651TIP3    H271369   3.343   6.473  16.476 -0.6757 -1.5828 -0.6283
16652TIP3   OH271370   2.832   3.649  16.041 -0.2145  0.0140 -0.3449
16652TIP3    H171371   2.923   3.678  16.033 -0.6234  1.4730 -0.0574
16652TIP3    H271372   2.838   3.556  16.063  1.2418  0.4653  1.4361
16653TIP3   OH271373   1.226   3.026   4.551  0.1366  0.0934  0.2064
16653TIP3    H171374   1.227   3.098   4.488  1.6100 -1.7007 -1.9847
16653TIP3    H271375   1.193   3.066   4.632  0.0660  2.9914 -1.1051
16654TIP3   OH271376   5.039   3.114  13.949 -0.2903  0.9228 -0.0343
16654TIP3    H171377   5.102   3.186  13.938 -0.3523  1.2902  1.7461
16654TIP3    H271378   4.978   3.125  13.877  0.8795  1.4031 -0.9871
16655TIP3   OH271379   4.422   6.622  11.819  0.2839 -0.2921 -0.4911
16655TIP3    H171380   4.364   6.658  11.886  0.2118 -1.3634  0.0538
16655TIP3    H271381   4.367   6.614  11.741 -0.3153 -1.2553  0.0089
16656TIP3   OH271382   6.196   6.222   6.253  0.2847 -0.0116 -0.2833
16656TIP3    H171383   6.242   6.275   6.318  1.0127  0.1838 -0.9521
16656TIP3    H271384   6.145   6.286   6.202  0.8772  0.0106 -0.8550
16657TIP3   OH271385   3.474   3.119  16.478  0.5532  0.0666 -0.6259
16657TIP3    H171386   3.420   3.089  16.404  1.3569  0.7471 -1.5181
16657TIP3    H271387   3.488   3.212  16.461  0.3765  0.3447  0.6475
16658TIP3   OH271388   0.415   1.084  14.806 -0.0969 -0.0913 -0.2318
16658TIP3    H171389   0.375   1.022  14.746  1.8749 -2.0785  0.3565
16658TIP3    H271390   0.492   1.117  14.758  1.5658 -1.7901  1.1379
16659TIP3   OH271391   4.858   4.362  17.176  0.3443  0.1766  0.4126
16659TIP3    H171392   4.763   4.361  17.191  0.1566 -0.3092 -0.7161
16659TIP3    H271393   4.893   4.295  17.234 -0.0174  0.2402  0.7067
16660TIP3   OH271394   4.425   5.981   3.104  0.0393  0.4155 -0.1866
16660TIP3    H171395   4.346   5.968   3.051  0.1013 -1.8654  0.1514
16660TIP3    H271396   4.393   6.019   3.186 -0.8087 -0.8411  0.0939
16661TIP3   OH271397   3.457   3.781  11.242  0.2756 -0.1474  0.4201
16661TIP3    H171398   3.520   3.853  11.245  0.8519 -0.6489  0.6705
16661TIP3    H271399   3.372   3.823  11.233  0.6973  0.5256 -0.5931
16662TIP3   OH271400   6.234   3.969   3.855  0.0954 -0.5170  0.4379
16662TIP3    H171401   6.289   4.048   3.847 -0.5016 -0.1790 -0.3700
16662TIP3    H271402   6.195   3.958   3.769 -1.2756 -0.6353  1.0569
16663TIP3   OH271403   5.453   2.060   4.717  0.0887  0.2405 -0.0140
16663TIP3    H171404   5.402   2.015   4.650 -0.8075  0.2761  0.6216
16663TIP3    H271405   5.543   2.057   4.685 -0.3936  0.7911 -1.4892
16664TIP3   OH271406   1.182   0.497  14.567  0.0852  0.3061 -0.1057
16664TIP3    H171407   1.110   0.560  14.569  0.9934  1.3900  2.3018
16664TIP3    H271408   1.256   0.546  14.531  0.7474  0.6417  1.5992
16665TIP3   OH271409   6.383   6.224  11.442  0.1645  0.0279  0.3396
16665TIP3    H171410   6.416   6.246  11.530  0.4519  0.7140  0.0658
16665TIP3    H271411   6.415   6.295  11.386  1.8751 -1.5260 -0.7700
16666TIP3   OH271412   4.295   5.148   4.923  0.1795 -0.0041  0.2645
16666TIP3    H171413   4.369   5.088   4.930 -0.0047 -0.3490 -0.6528
16666TIP3    H271414   4.333   5.234   4.936  0.3731 -0.3177  2.1161
16667TIP3   OH271415   3.794   0.721   5.761  0.2005 -0.2545 -0.3942
16667TIP3    H171416   3.832   0.809   5.772  1.9978 -1.1532  1.2960
16667TIP3    H271417   3.764   0.719   5.670  0.1447  2.0731 -0.4955
16668TIP3   OH271418   2.043   3.556   1.670 -0.1356 -0.9203  0.0812
16668TIP3    H171419   2.071   3.634   1.621 -1.3899 -0.6815 -0.3015
16668TIP3    H271420   1.965   3.586   1.718 -2.6572 -2.6939 -2.5567
16669TIP3   OH271421   6.166   6.440  14.279 -0.2987 -0.1551 -0.0706
16669TIP3    H171422   6.170   6.371  14.346  0.7774 -0.7264 -0.6882
16669TIP3    H271423   6.166   6.522  14.328  1.8820 -0.5281  0.6391
16670TIP3   OH271424   3.088   2.668  12.278  0.0519  0.1616 -0.1979
16670TIP3    H171425   3.064   2.597  12.338  3.1442 -2.4560 -1.7560
16670TIP3    H271426   3.019   2.668  12.212 -0.3879 -0.9301  0.2360
16671TIP3   OH271427   4.346   3.936   5.449  0.5319  0.0730  0.2996
16671TIP3    H171428   4.338   3.962   5.357  0.0253 -1.6436 -0.1810
16671TIP3    H271429   4.255   3.924   5.478  0.6388  1.4958  1.3312
16672TIP3   OH271430   5.107   0.287  15.114  0.1379  0.5317 -0.0358
16672TIP3    H171431   5.016   0.307  15.133  0.2176  0.8830 -0.0067
16672TIP3    H271432   5.153   0.308  15.196  0.2548  0.4439 -0.0788
16673TIP3   OH271433   3.124   2.871  13.829  0.0389  0.0620  0.1599
16673TIP3    H171434   3.104   2.831  13.744  1.2269 -0.3893  0.0707
16673TIP3    H271435   3.166   2.954  13.808 -1.1275  0.7371  0.3449
16674TIP3   OH271436   5.251   0.682  10.389  0.5757  0.1981 -0.0981
16674TIP3    H171437   5.234   0.685  10.295  0.4863 -1.6202 -0.1744
16674TIP3    H271438   5.338   0.643  10.396 -0.2814 -1.7060  0.5924
16675TIP3   OH271439   0.029   5.823  12.795  0.3487 -0.2979 -0.7578
16675TIP3    H171440   0.065   5.871  12.869 -1.0471 -0.0660 -0.2042
16675TIP3    H271441   0.104   5.777  12.757  1.1417 -0.1576  0.5933
16676TIP3   OH271442   0.877   0.048   3.532  0.4097  0.1380 -0.4422
16676TIP3    H171443   0.844   0.137   3.542  0.7853  0.0268  2.8015
16676TIP3    H271444   0.867   0.009   3.619 -0.9091 -3.4409 -2.0000
16677TIP3   OH271445   0.381   1.187  17.152  0.0482  0.2967 -0.0931
16677TIP3    H171446   0.458   1.133  17.173 -0.3990 -0.0900  0.5845
16677TIP3    H271447   0.359   1.230  17.235 -0.5031  0.3656 -0.2731
16678TIP3   OH271448   5.582   3.826   1.693 -0.1950  0.7711 -0.1543
16678TIP3    H171449   5.595   3.921   1.687  2.4195  0.4302 -1.5807
16678TIP3    H271450   5.648   3.797   1.756 -0.4093 -0.1801 -0.3482
16679TIP3   OH271451   2.212   4.664  13.923 -0.0833 -0.2519  0.0552
16679TIP3    H171452   2.237   4.750  13.889  0.8727 -0.5551 -0.0267
16679TIP3    H271453   2.182   4.681  14.012 -1.0231  0.3218 -0.3567
16680TIP3   OH271454   3.623   1.425   1.035  0.1070  0.0327 -0.5429
16680TIP3    H171455   3.539   1.460   1.006 -0.2074 -0.7962 -0.6486
16680TIP3    H271456   3.631   1.454   1.126  0.2905  1.1620 -0.9014
16681TIP3   OH271457   4.876   3.852   1.250  0.0834 -0.0419 -0.3181
16681TIP3    H171458   4.914   3.917   1.309  0.6326  0.8281 -1.6019
16681TIP3    H271459   4.782   3.858   1.265  0.0126  1.9678 -1.2852
16682TIP3   OH271460   1.308   0.615  16.015  0.2665  0.3337  0.1448
16682TIP3    H171461   1.377   0.680  16.027  0.4805  0.3520 -1.0294
16682TIP3    H271462   1.232   0.652  16.058 -0.1399  2.2848 -2.0569
16683TIP3   OH271463   4.437   4.413   5.748  0.6313 -0.0044 -0.0909
16683TIP3    H171464   4.459   4.445   5.836 -0.8058  0.0789  0.2679
16683TIP3    H271465   4.519   4.420   5.699  1.1498  1.1683  0.8838
16684TIP3   OH271466   2.566   1.932   2.896 -0.1400  0.2816 -0.2945
16684TIP3    H171467   2.613   1.865   2.847  2.2683 -0.0195  2.2014
16684TIP3    H271468   2.595   2.015   2.856 -0.3184 -0.0290 -1.0822
16685TIP3   OH271469   0.003   4.689  13.904 -0.5559  0.0396 -0.3828
16685TIP3    H171470  -0.009   4.746  13.829 -0.8858  0.5483  0.0437
16685TIP3    H271471  -0.061   4.619  13.891  0.7141 -0.9411 -1.5486
16686TIP3   OH271472   0.466   1.344   6.619  0.3820  0.0814 -0.0075
16686TIP3    H171473   0.429   1.334   6.532 -0.0872  0.7611  0.1069
16686TIP3    H271474   0.403   1.398   6.667  2.1258  2.5549 -0.2451
16687TIP3   OH271475   5.325   6.540  17.004  0.1394  0.1441  0.2664
16687TIP3    H171476   5.380   6.491  17.066  0.1150  0.0698  0.2287
16687TIP3    H271477   5.341   6.497  16.920 -1.6505 -1.2947  0.6047
16688TIP3   OH271478   0.133   3.007  12.272 -0.1662 -0.2140  0.4756
16688TIP3    H171479   0.154   3.032  12.182 -0.9089 -0.6002  0.1905
16688TIP3    H271480   0.088   3.084  12.308  2.3013  0.9599  1.3577
16689TIP3   OH271481   4.438   3.769  13.628  0.7147  0.3937 -0.2293
16689TIP3    H171482   4.397   3.802  13.549  0.2461  0.6333  0.1067
16689TIP3    H271483   4.421   3.675  13.627  1.1610  0.3126 -0.6682
16690TIP3   OH271484   6.125   4.903  17.158  0.4009 -0.0774  0.1146
16690TIP3    H171485   6.075   4.982  17.137  1.0496  0.4800  0.6392
16690TIP3    H271486   6.140   4.862  17.073  0.7928  0.8095 -0.2565
16691TIP3   OH271487   2.606   4.610   3.548  0.1477 -0.3242 -0.2066
16691TIP3    H171488   2.650   4.687   3.515  0.2373 -1.0569 -1.8817
16691TIP3    H271489   2.676   4.546   3.563 -0.0596 -0.5212 -0.0637
16692TIP3   OH271490   4.691   4.844  14.442 -0.8690  0.4011 -0.3451
16692TIP3    H171491   4.621   4.781  14.456  0.6216 -2.0584 -2.8786
16692TIP3    H271492   4.768   4.804  14.481 -0.3842  2.0496  0.5007
16693TIP3   OH271493   3.929   4.903  17.131 -0.3583 -0.3382 -0.1023
16693TIP3    H171494   4.000   4.838  17.135 -0.9112 -1.0570 -1.4888
16693TIP3    H271495   3.975   4.987  17.130  0.7095 -0.8126 -3.6133
16694TIP3   OH271496   2.944   1.405   1.055 -0.1566  0.7182 -0.3304
16694TIP3    H171497   2.968   1.426   0.964  1.6988  2.9784  0.5628
16694TIP3    H271498   3.017   1.351   1.087 -0.3580  0.6813  0.0720
16695TIP3   OH271499   2.713   1.136  14.732  0.4690  0.3196  0.0227
16695TIP3    H171500   2.804   1.165  14.725 -0.0235  1.9707  0.0871
16695TIP3    H271501   2.719   1.053  14.778  1.9398  0.4788  0.1882
16696TIP3   OH271502   2.444   5.695   1.741  0.3207  0.3299  0.2685
16696TIP3    H171503   2.465   5.602   1.747  0.9133  0.2744 -2.0085
16696TIP3    H271504   2.437   5.713   1.647 -1.4416  2.2339  0.6813
16697TIP3   OH271505   4.651   4.509   1.263  0.3281  0.5564  0.0804
16697TIP3    H171506   4.705   4.441   1.221 -2.6838 -0.9219 -1.7686
16697TIP3    H271507   4.654   4.487   1.357 -0.9368 -2.6569 -0.4706
16698TIP3   OH271508   3.602   3.769  11.815  0.0602 -0.2463  0.0873
16698TIP3    H171509   3.521   3.790  11.860 -0.0686 -0.1643 -0.1805
16698TIP3    H271510   3.664   3.747  11.885 -0.4583 -1.2488  0.2431
16699TIP3   OH271511   2.142   5.514   5.855  0.2934  0.1630 -0.3054
16699TIP3    H171512   2.115   5.604   5.873  0.5483 -0.0170  1.0655
16699TIP3    H271513   2.082   5.460   5.906  1.1152 -0.3693  0.1225
16700TIP3   OH271514   4.039   2.695  13.556 -0.2218 -0.3292 -0.0225
16700TIP3    H171515   4.014   2.782  13.586 -0.9603 -0.1997 -0.9631
16700TIP3    H271516   4.112   2.670  13.612 -0.1092  0.8267  0.3632
16701TIP3   OH271517   4.964   2.314   1.778 -0.1134  0.2067  0.2014
16701TIP3    H171518   5.005   2.230   1.795 -0.4984  0.0617  0.4296
16701TIP3    H271519   5.034   2.369   1.743  0.7014  0.5109  2.1909
16702TIP3   OH271520   4.634   6.770   5.810  0.5000 -0.3091 -1.4093
16702TIP3    H171521   4.693   6.702   5.844  0.9469  0.6081 -0.2828
16702TIP3    H271522   4.615   6.742   5.721  0.8657 -1.7876 -1.0556
16703TIP3   OH271523   5.531   1.200   1.944 -0.1691 -0.5174 -0.6737
16703TIP3    H171524   5.540   1.236   1.855  2.4860  0.2886 -0.1736
16703TIP3    H271525   5.588   1.123   1.944 -1.4446 -1.4979 -0.0974
16704TIP3   OH271526   0.958   2.401  12.225 -0.7104  0.1385 -0.1300
16704TIP3    H171527   0.874   2.434  12.256 -0.3313 -0.0672  1.1693
16704TIP3    H271528   0.976   2.452  12.145 -1.1778  1.5203  0.6155
16705TIP3   OH271529   4.331   6.014   1.551  0.6608  0.0506 -0.0174
16705TIP3    H171530   4.298   5.962   1.625 -1.1792 -0.5354 -1.1807
16705TIP3    H271531   4.422   6.033   1.574  1.1723 -2.9201  0.9021
16706TIP3   OH271532   5.284   3.418   6.151 -0.3805 -0.1734  0.1413
16706TIP3    H171533   5.276   3.513   6.139  1.3889 -0.0303 -0.0824
16706TIP3    H271534   5.243   3.402   6.236 -3.6189  0.2807 -1.1864
16707TIP3   OH271535   0.660   3.621  11.749 -0.4177 -0.2306 -0.3259
16707TIP3    H171536   0.701   3.702  11.718  0.3638 -0.1542  0.8530
16707TIP3    H271537   0.721   3.552  11.724  0.3189 -0.1491  1.1542
16708TIP3   OH271538   3.543   0.414   1.049 -1.0265 -0.0653 -0.6263
16708TIP3    H171539   3.530   0.449   0.961  0.2965  0.3730 -0.6562
16708TIP3    H271540   3.564   0.321   1.034 -0.8245  0.0028 -0.7683
16709TIP3   OH271541   5.003   2.500   1.528  0.4687  0.0334 -0.0567
16709TIP3    H171542   5.024   2.570   1.465 -1.7039 -0.3345 -1.2896
16709TIP3    H271543   5.044   2.422   1.491  0.5035  0.1136 -0.1892
16710TIP3   OH271544   6.707   5.867   4.377  0.0569  0.0076 -0.0865
16710TIP3    H171545   6.738   5.925   4.306 -1.3328  1.0411  0.1030
16710TIP3    H271546   6.778   5.869   4.441  0.3309  0.9958 -0.3842
16711TIP3   OH271547   4.757   2.687   2.056 -0.2615 -0.3045  0.1715
16711TIP3    H171548   4.802   2.753   2.109 -0.6688 -0.7343  1.0791
16711TIP3    H271549   4.818   2.613   2.053 -0.0053 -0.0717 -0.4388
16712TIP3   OH271550   0.357   6.300  12.842 -0.1172 -0.3022  0.1555
16712TIP3    H171551   0.266   6.328  12.842 -0.5339 -1.5949 -0.4731
16712TIP3    H271552   0.407   6.381  12.828 -1.3236  0.0426 -2.9593
16713TIP3   OH271553   2.675   6.319   2.030 -0.4222 -0.1519 -0.0808
16713TIP3    H171554   2.652   6.274   1.949 -1.7636  1.3201 -0.5635
16713TIP3    H271555   2.754   6.275   2.061  0.0161 -0.8551 -2.1070
16714TIP3   OH271556   4.250   3.162   3.026 -0.3417 -0.0636 -0.2858
16714TIP3    H171557   4.337   3.200   3.036  0.2565 -1.3901 -0.2436
16714TIP3    H271558   4.261   3.070   3.050 -1.8343 -0.1831  0.0669
16715TIP3   OH271559   5.332   1.243  10.730 -0.5779 -0.4279 -0.0777
16715TIP3    H171560   5.335   1.194  10.812 -0.2062  0.0707  0.2148
16715TIP3    H271561   5.406   1.212  10.679  0.2900  0.5485  0.5390
16716TIP3   OH271562   4.492   1.234   2.591 -0.4745 -0.1246 -0.0268
16716TIP3    H171563   4.477   1.244   2.685  1.3514  0.3681  0.2629
16716TIP3    H271564   4.576   1.277   2.576 -1.1080  0.5397 -2.0423
16717TIP3   OH271565   5.974   4.814   5.271 -0.8502 -0.3125  0.0783
16717TIP3    H171566   6.057   4.830   5.315 -0.8532 -0.1628  0.0308
16717TIP3    H271567   5.981   4.724   5.238 -1.7390 -1.2792  2.3456
16718TIP3   OH271568   0.451   2.877   2.214  0.0761 -0.0221 -0.6684
16718TIP3    H171569   0.361   2.904   2.194 -0.3500  0.7113  1.8447
16718TIP3    H271570   0.499   2.959   2.224  0.8528 -0.3974 -1.1868
16719TIP3   OH271571   0.314   4.281  14.969 -0.9785 -0.3224 -0.8459
16719TIP3    H171572   0.400   4.259  14.933 -0.5793  0.9545 -0.7353
16719TIP3    H271573   0.265   4.316  14.894 -1.3134 -0.8186 -0.8563
16720TIP3   OH271574   6.026   3.410  10.888 -0.3210  0.0384  0.1593
16720TIP3    H171575   5.988   3.426  10.801  0.6136  0.1844 -0.2322
16720TIP3    H271576   6.103   3.355  10.871  1.2652  2.0108  0.6176
16721TIP3   OH271577   4.502   0.408   4.396 -0.5524 -0.4601  0.1788
16721TIP3    H171578   4.563   0.335   4.407  0.5153 -0.0938 -2.5968
16721TIP3    H271579   4.463   0.394   4.310  1.5980  3.4870 -1.6684
16722TIP3   OH271580   3.550   5.571  17.212  0.5224  0.8263 -0.2735
16722TIP3    H171581   3.513   5.645  17.164  0.1010 -0.8216 -2.6535
16722TIP3    H271582   3.478   5.509  17.220  1.1063  0.2690  0.8524
16723TIP3   OH271583   0.999   0.249   0.569 -0.1906  0.2871 -0.0973
16723TIP3    H171584   1.024   0.261   0.478 -0.5470  3.1782  0.0988
16723TIP3    H271585   1.080   0.226   0.614  0.2994  0.4668 -0.8825
16724TIP3   OH271586   2.192   1.448   1.786  0.0537  0.6618  0.3948
16724TIP3    H171587   2.249   1.484   1.717  3.4336 -0.9750  2.0756
16724TIP3    H271588   2.170   1.524   1.840  0.5302  1.3789 -0.3917
16725TIP3   OH271589   2.280   4.915   1.659 -0.1028  0.0943  0.8525
16725TIP3    H171590   2.245   5.001   1.635  1.8331  0.8480  0.5411
16725TIP3    H271591   2.278   4.914   1.754  0.6957  0.9057  0.9042
16726TIP3   OH271592   4.174   3.936  14.578  0.3054 -0.4622 -0.3639
16726TIP3    H171593   4.151   3.845  14.558  2.4732 -1.0159 -0.6548
16726TIP3    H271594   4.270   3.936  14.580  0.3423  1.6450  0.5246
16727TIP3   OH271595   3.999   0.352  16.650  1.0728  0.2290 -0.2732
16727TIP3    H171596   3.932   0.407  16.610  1.6757  1.8762  0.8917
16727TIP3    H271597   3.993   0.269  16.603 -0.1609  1.1333 -1.7950
16728TIP3   OH271598   4.676   5.392   5.610 -0.2096 -0.0009  0.9471
16728TIP3    H171599   4.734   5.327   5.572  2.2933  2.1869  0.7179
16728TIP3    H271600   4.588   5.357   5.598  0.9917 -3.2471  0.8298
16729TIP3   OH271601   0.453   6.758  15.214 -0.1656  0.4244 -0.3952
16729TIP3    H171602   0.494   6.821  15.274  0.5569 -0.7298  0.3665
16729TIP3    H271603   0.456   6.675  15.262 -0.1991 -0.3831 -1.7646
16730TIP3   OH271604   6.393   0.434   5.445 -0.1421  0.1389  0.1269
16730TIP3    H171605   6.446   0.355   5.430  0.8840  0.6902  0.7669
16730TIP3    H271606   6.382   0.437   5.540  0.9292  1.4479  0.2342
16731TIP3   OH271607   4.437   6.593  15.054  0.8069  0.4535  0.1522
16731TIP3    H171608   4.497   6.530  15.015 -0.8100 -0.7360 -0.5022
16731TIP3    H271609   4.382   6.623  14.981 -1.0938 -0.4604  1.1412
16732TIP3   OH271610   1.765   6.403   4.344 -0.5086  0.0967 -0.3141
16732TIP3    H171611   1.768   6.339   4.415 -1.5176  0.4536  0.0762
16732TIP3    H271612   1.773   6.350   4.264  1.1971 -0.2564  0.0466
16733TIP3   OH271613   5.472   2.111   4.149  0.1870  0.2380 -0.4374
16733TIP3    H171614   5.415   2.164   4.205 -0.6992  0.5741 -1.6201
16733TIP3    H271615   5.560   2.145   4.166 -0.2250  1.2693 -0.2811
16734TIP3   OH271616   4.721   2.856  11.499 -0.0558 -0.2588 -0.6781
16734TIP3    H171617   4.807   2.825  11.526  0.3122  0.6459 -0.7703
16734TIP3    H271618   4.710   2.939  11.545 -2.1312 -1.6877  1.6835
16735TIP3   OH271619   2.372   6.560  16.134  0.3460 -0.0650 -0.0593
16735TIP3    H171620   2.345   6.638  16.087 -1.0957 -0.4640  0.0546
16735TIP3    H271621   2.468   6.557  16.124  0.4482  1.7608  0.0569
16736TIP3   OH271622   3.365   5.594  13.181 -0.0332  0.6621  0.0300
16736TIP3    H171623   3.381   5.547  13.263  1.0933  1.4112  0.2681
16736TIP3    H271624   3.444   5.580  13.129 -1.3938 -1.2247 -1.6966
16737TIP3   OH271625   1.121   2.142  13.584 -0.2570 -0.0599  0.2496
16737TIP3    H171626   1.134   2.210  13.650  0.1501 -0.0850  0.1978
16737TIP3    H271627   1.156   2.180  13.503 -0.4314 -0.1625  0.1250
16738TIP3   OH271628   4.671   2.030   2.558 -0.0356 -0.1840  0.1546
16738TIP3    H171629   4.665   2.056   2.650 -2.4460  4.6042 -1.0222
16738TIP3    H271630   4.761   2.051   2.533  1.0791 -2.8160  1.5459
16739TIP3   OH271631   2.608   5.347   0.288 -0.9246 -0.8752 -0.2535
16739TIP3    H171632   2.614   5.293   0.209 -0.7673 -0.4281 -0.5520
16739TIP3    H271633   2.532   5.403   0.273  0.7707  1.2779 -1.4178
16740TIP3   OH271634   2.906   3.257   0.697  0.1523  0.3222  0.4021
16740TIP3    H171635   2.952   3.248   0.780  0.5166  0.9708  0.2843
16740TIP3    H271636   2.846   3.331   0.711 -0.7994 -0.4584  0.5232
16741TIP3   OH271637   2.878   2.609  13.624 -0.1221  1.1391  0.0201
16741TIP3    H171638   2.960   2.576  13.660  0.7313  1.2237 -1.7598
16741TIP3    H271639   2.844   2.668  13.692  1.3898  1.2826  0.6940
16742TIP3   OH271640   0.034   5.669  11.899  0.2796  0.3479  0.9997
16742TIP3    H171641   0.021   5.754  11.942  1.3472  0.8994  0.2601
16742TIP3    H271642   0.046   5.607  11.971 -0.4486  0.8205  1.5459
16743TIP3   OH271643   3.790   3.362  13.138 -0.6734  0.1077  0.0330
16743TIP3    H171644   3.842   3.381  13.216 -1.9072  1.2393  0.6268
16743TIP3    H271645   3.764   3.447  13.105 -0.0865 -0.3470 -1.7251
16744TIP3   OH271646   4.942   6.139  16.192  0.3246 -0.1696 -0.2657
16744TIP3    H171647   4.897   6.223  16.201 -1.5279 -1.2369  0.9803
16744TIP3    H271648   4.884   6.086  16.138  0.7647 -1.1331  0.1795
16745TIP3   OH271649   5.884   5.471  13.776 -0.0261  0.4473  0.6987
16745TIP3    H171650   5.922   5.489  13.862  1.9637  2.1761 -0.4586
16745TIP3    H271651   5.945   5.510  13.714 -2.2518  0.7416 -1.4558
16746TIP3   OH271652   6.078   5.721   3.018 -0.2462  0.0396 -0.5129
16746TIP3    H171653   6.107   5.661   3.087 -2.3435 -1.1225 -0.5597
16746TIP3    H271654   6.019   5.782   3.063  0.5794  1.0704 -0.7863
16747TIP3   OH271655   2.644   3.383   4.290 -0.1767 -0.0977 -0.0358
16747TIP3    H171656   2.736   3.359   4.292 -0.4542 -1.3450 -1.1285
16747TIP3    H271657   2.637   3.455   4.353  1.2224 -1.0292  1.2625
16748TIP3   OH271658   2.250   3.658  12.185 -0.0412  0.3772 -0.4813
16748TIP3    H171659   2.236   3.661  12.280 -1.0010 -2.6203 -0.4242
16748TIP3    H271660   2.343   3.675  12.174  0.5229 -1.2580  1.2346
16749TIP3   OH271661   5.712   3.104  16.525 -0.0401  0.1547  0.0548
16749TIP3    H171662   5.769   3.068  16.592 -0.7046 -0.9590  0.0348
16749TIP3    H271663   5.629   3.119  16.569 -0.9719 -2.0543 -0.8425
16750TIP3   OH271664   1.802   6.285   4.610  0.4239  1.0551  0.1421
16750TIP3    H171665   1.737   6.254   4.673  0.2242  0.8546 -0.1630
16750TIP3    H271666   1.886   6.265   4.652  0.3216 -0.7169 -0.4107
16751TIP3   OH271667   5.730   1.393  13.671  0.2649  0.2392  0.0207
16751TIP3    H171668   5.754   1.459  13.606 -0.4165 -2.5110 -3.3493
16751TIP3    H271669   5.635   1.397  13.676  0.2760  0.0520  0.4531
16752TIP3   OH271670   4.561   1.614  16.105  0.3790 -0.5805 -0.5913
16752TIP3    H171671   4.568   1.694  16.052  1.5250  0.4196  0.9778
16752TIP3    H271672   4.511   1.641  16.182  0.5939 -1.4558 -0.1373
16753TIP3   OH271673   2.677   0.959  15.092  0.6218  0.3637 -0.3175
16753TIP3    H171674   2.642   0.898  15.027  3.1073 -0.3949 -1.0643
16753TIP3    H271675   2.678   0.909  15.174  0.7272  0.0939 -0.4817
16754TIP3   OH271676   1.945   5.420   2.772  0.1128 -0.4357 -0.7662
16754TIP3    H171677   1.972   5.404   2.863  0.5539  1.3922 -0.5378
16754TIP3    H271678   1.856   5.385   2.767  0.0761 -0.5503  0.3787
16755TIP3   OH271679   0.997   2.965   5.354 -0.5452 -0.4209  0.3482
16755TIP3    H171680   1.060   2.893   5.367 -0.1682 -0.4094 -1.1996
16755TIP3    H271681   0.957   2.946   5.269 -0.5814  1.1012  0.0083
16756TIP3   OH271682   2.176   3.222   3.139 -0.0499 -0.4821 -0.0733
16756TIP3    H171683   2.230   3.271   3.201 -1.5524 -0.7410  1.5181
16756TIP3    H271684   2.166   3.280   3.064  1.3466  0.0711  0.1441
16757TIP3   OH271685   1.680   3.846   3.959  0.0207 -0.5805  0.4392
16757TIP3    H171686   1.666   3.818   4.049  0.3119 -0.8558  0.4020
16757TIP3    H271687   1.775   3.852   3.950 -0.0336  1.1377  0.6572
16758TIP3   OH271688   3.334   5.735  16.712 -0.1946  0.9446 -0.0183
16758TIP3    H171689   3.342   5.830  16.697  1.4642  0.6751 -1.1122
16758TIP3    H271690   3.423   5.707  16.734 -0.7988 -0.2756  0.9758
16759TIP3   OH271691   4.089   0.161  13.672 -0.3176 -0.3471  0.3976
16759TIP3    H171692   4.112   0.087  13.729 -0.6758 -0.1869  0.7564
16759TIP3    H271693   4.043   0.121  13.599  0.6435 -0.6162 -0.0741
16760TIP3   OH271694   1.271   6.309   1.832  0.2427 -0.7995 -0.0795
16760TIP3    H171695   1.325   6.267   1.765 -0.9584 -0.1949 -1.4792
16760TIP3    H271696   1.221   6.237   1.871 -0.4913 -0.9419 -1.2283
16761TIP3   OH271697   4.295   5.839  12.656  0.0498  0.2791  0.0469
16761TIP3    H171698   4.210   5.802  12.629 -0.6285  0.6707  1.5636
16761TIP3    H271699   4.298   5.924  12.613  0.4797 -0.4415 -1.4110
16762TIP3   OH271700   4.753   5.763   6.747  0.2749  0.7760 -0.7913
16762TIP3    H171701   4.777   5.840   6.694  0.5440  1.9573  0.9710
16762TIP3    H271702   4.710   5.799   6.824 -2.5379 -1.0298 -1.3670
16763TIP3   OH271703   1.546   3.474  13.944  0.5105  0.3523 -0.3657
16763TIP3    H171704   1.477   3.445  13.885 -0.2419 -0.0069  0.6556
16763TIP3    H271705   1.553   3.568  13.929 -2.4047  1.0145  1.6518
16764TIP3   OH271706   4.503   1.220  13.356  0.2797 -0.0665  0.4939
16764TIP3    H171707   4.577   1.160  13.365  0.5233 -0.2801 -2.1379
16764TIP3    H271708   4.429   1.165  13.330 -0.8711  0.1577  3.0015
16765TIP3   OH271709   0.909   5.004   4.403  0.8164  0.1529 -0.1595
16765TIP3    H171710   0.846   5.037   4.338  0.9591 -0.0504 -0.4000
16765TIP3    H271711   0.975   4.958   4.351 -0.0350 -1.6284  0.2557
16766TIP3   OH271712   5.018   5.178   5.447 -0.1906 -0.4215  0.5329
16766TIP3    H171713   5.042   5.219   5.530  1.6243 -1.0409  0.3667
16766TIP3    H271714   5.096   5.187   5.392 -1.2511 -0.2745 -1.0238
16767TIP3   OH271715   4.415   6.776   5.992  0.1141 -0.6101  0.4672
16767TIP3    H171716   4.437   6.686   5.969  1.3449 -0.4195  0.8290
16767TIP3    H271717   4.474   6.829   5.938 -0.3043 -0.0325  0.5699
16768TIP3   OH271718   3.547   4.772  13.920 -0.3900 -0.0189  0.0909
16768TIP3    H171719   3.545   4.864  13.945  0.3583  0.4917 -1.6242
16768TIP3    H271720   3.455   4.744  13.925 -0.6507  0.8590  0.4445
16769TIP3   OH271721   5.737   3.587   3.493  0.2190  0.4493 -0.3535
16769TIP3    H171722   5.799   3.515   3.484 -0.2450  0.1773 -1.6487
16769TIP3    H271723   5.658   3.547   3.528  0.5802  0.7000  0.7873
16770TIP3   OH271724   3.748   0.951  13.893 -0.2830 -0.1927 -0.1294
16770TIP3    H171725   3.697   0.877  13.925 -0.8899  0.4583  0.4432
16770TIP3    H271726   3.798   0.916  13.819  0.4492 -1.5042  0.9506
16771TIP3   OH271727   4.752   1.531   5.354 -0.0232 -0.1849 -0.4741
16771TIP3    H171728   4.667   1.532   5.309  0.0701 -2.6041 -0.8150
16771TIP3    H271729   4.805   1.594   5.305 -1.6067  1.5115 -0.1497
16772TIP3   OH271730   3.166   2.076  13.649  0.6449 -0.3256  0.2743
16772TIP3    H171731   3.252   2.101  13.617  0.7324 -1.6860 -0.6136
16772TIP3    H271732   3.184   2.028  13.730  0.8401 -1.7776 -0.6083
16773TIP3   OH271733   6.548   2.289   2.687  0.3111  0.1299 -0.0316
16773TIP3    H171734   6.593   2.371   2.668  1.1881 -0.3120  0.0872
16773TIP3    H271735   6.522   2.296   2.779  2.1773 -0.5130  0.6011
16774TIP3   OH271736   0.642   6.526  16.818 -0.3712 -0.2143 -0.4174
16774TIP3    H171737   0.676   6.528  16.907 -2.8756  0.2859  0.6123
16774TIP3    H271738   0.712   6.564  16.765  0.4779  1.2328  1.6151
16775TIP3   OH271739   2.715   2.222   0.608 -0.2965 -0.0229 -0.5621
16775TIP3    H171740   2.794   2.260   0.570  0.8786 -1.1369  0.6495
16775TIP3    H271741   2.697   2.276   0.685  0.4367 -0.8787  0.2421
16776TIP3   OH271742   2.032   5.899   3.846  0.0064 -0.6694 -0.1523
16776TIP3    H171743   2.047   5.893   3.751  0.0308 -0.8066 -0.1411
16776TIP3    H271744   1.955   5.843   3.860 -1.6920  1.4257 -0.4741
16777TIP3   OH271745   5.108   2.001   0.616 -0.3803  0.0880 -0.0808
16777TIP3    H171746   5.128   2.059   0.689  0.7483 -0.9654  0.5000
16777TIP3    H271747   5.127   2.052   0.537  0.4625  0.5544  0.4123
16778TIP3   OH271748   2.769   0.013   0.085 -0.4779 -0.3291 -0.1333
16778TIP3    H171749   2.810  -0.003   0.170 -0.9730 -0.3677  0.1013
16778TIP3    H271750   2.759   0.108   0.080 -0.6826 -0.3437 -0.0327
16779TIP3   OH271751   0.007   4.512  16.521 -0.3017 -0.4277  0.0255
16779TIP3    H171752   0.099   4.540  16.516 -0.3706 -0.4000 -1.8766
16779TIP3    H271753  -0.008   4.497  16.614  1.8781 -1.2491  0.3149
16780TIP3   OH271754   4.902   2.440  13.412 -0.2496 -0.1003 -0.8700
16780TIP3    H171755   4.940   2.486  13.487 -1.1421 -0.7431  0.0132
16780TIP3    H271756   4.907   2.347  13.436 -0.0435 -0.3516 -1.8535
16781TIP3   OH271757   1.961   2.343  12.544  0.1839 -0.2214  0.4415
16781TIP3    H171758   1.948   2.437  12.528 -2.1577 -0.0898  2.4755
16781TIP3    H271759   1.877   2.304  12.520 -0.6840 -1.0329  4.2172
16782TIP3   OH271760   4.362   4.222   4.991 -0.2502 -0.0136  0.1508
16782TIP3    H171761   4.352   4.312   4.959  0.9895  0.3297  0.6883
16782TIP3    H271762   4.456   4.209   4.996 -0.4237 -1.0835  0.8213
16783TIP3   OH271763   4.722   5.865   2.605  0.2088 -0.4496 -0.3462
16783TIP3    H171764   4.766   5.835   2.526  0.5223  1.3029 -0.8789
16783TIP3    H271765   4.768   5.820   2.676  1.7117 -0.0292 -1.0103
16784TIP3   OH271766   6.734   5.538   4.083  0.4805  0.3661  0.1412
16784TIP3    H171767   6.643   5.561   4.102  0.3169  0.6231 -0.8856
16784TIP3    H271768   6.773   5.523   4.169 -0.4708  0.4693  0.6113
16785TIP3   OH271769   2.692   2.075   1.200 -0.3552  0.6034  0.5594
16785TIP3    H171770   2.687   2.129   1.279 -1.6840  1.5106 -0.1085
16785TIP3    H271771   2.641   1.997   1.221 -1.5365  1.2780  0.3039
16786TIP3   OH271772   4.678   6.080  12.202 -0.5052 -0.1001 -0.5548
16786TIP3    H171773   4.731   6.028  12.142 -0.8089 -0.1651 -0.7691
16786TIP3    H271774   4.631   6.016  12.255  1.1999 -0.0823  1.0812
16787TIP3   OH271775   3.085   6.347  13.357  0.2153 -0.5831  0.3364
16787TIP3    H171776   3.079   6.435  13.321  1.2649 -0.1831  1.0663
16787TIP3    H271777   3.136   6.358  13.438  0.8422 -1.9250  0.1527
16788TIP3   OH271778   5.518   5.851   4.930 -0.5035  0.9325  0.0048
16788TIP3    H171779   5.574   5.774   4.919 -1.2411 -0.0270  2.3127
16788TIP3    H271780   5.453   5.844   4.861 -2.0110 -1.9554  1.5402
16789TIP3   OH271781   2.096   1.305   4.212  0.1019  0.4534  0.4859
16789TIP3    H171782   2.076   1.221   4.170 -1.7522  0.6675  0.8837
16789TIP3    H271783   2.164   1.344   4.156  0.0740 -0.7436 -0.4171
16790TIP3   OH271784   3.670   3.010  13.876  0.0967  0.5566  0.3063
16790TIP3    H171785   3.753   2.963  13.868 -0.4428 -0.6016  1.2419
16790TIP3    H271786   3.679   3.063  13.955  0.7135  2.1057 -0.7627
16791TIP3   OH271787   6.765   5.661   5.587 -0.4788 -0.6595  0.0979
16791TIP3    H171788   6.753   5.740   5.641 -1.3478  0.3537 -1.5094
16791TIP3    H271789   6.738   5.589   5.644  0.9718  0.1036  1.8348
16792TIP3   OH271790   2.053   4.322   3.568  0.2027  0.1350  0.3636
16792TIP3    H171791   2.057   4.410   3.531 -0.4074  0.2809  0.6431
16792TIP3    H271792   2.143   4.305   3.595  0.8087 -0.2009 -1.6631
16793TIP3   OH271793   1.564   2.727  14.901  0.4104 -0.0534  0.6962
16793TIP3    H171794   1.540   2.674  14.977  0.4106  0.0094  0.7399
16793TIP3    H271795   1.647   2.767  14.925  0.4169 -0.0433  0.6574
16794TIP3   OH271796   1.657   0.204   2.872  0.0029  0.2349 -0.2114
16794TIP3    H171797   1.584   0.194   2.810 -0.7367 -0.7769  0.7845
16794TIP3    H271798   1.633   0.279   2.926  0.1359  0.4507 -0.4477
16795TIP3   OH271799   1.876   2.987  11.990 -0.6073  0.2330  0.0248
16795TIP3    H171800   1.852   3.009  11.900  1.2346  1.9127 -0.1174
16795TIP3    H271801   1.856   3.067  12.040 -0.9492 -0.4369  0.9856
16796TIP3   OH271802   3.154   4.337   3.570 -0.2917  0.2041  0.0873
16796TIP3    H171803   3.223   4.395   3.538  0.0704  1.0975  2.3289
16796TIP3    H271804   3.073   4.375   3.536 -0.0867  2.2507  1.7439
16797TIP3   OH271805   5.404   3.591  13.022 -0.4816 -0.1880  0.3538
16797TIP3    H171806   5.474   3.630  12.970 -0.1390 -1.1848  0.0454
16797TIP3    H271807   5.387   3.656  13.091 -0.1688  0.6479 -0.3344
16798TIP3   OH271808   3.729   0.021   6.195 -0.1864  0.4282  0.4166
16798TIP3    H171809   3.807   0.015   6.251  0.4193  0.9033 -0.3614
16798TIP3    H271810   3.686   0.102   6.224  1.5727  2.1702 -1.5703
16799TIP3   OH271811   2.027   1.527  12.801  0.4118 -0.6477 -0.3182
16799TIP3    H171812   2.100   1.511  12.741  1.7679  0.3629  0.9888
16799TIP3    H271813   1.973   1.593  12.758  2.3255  1.3977  0.2701
16800TIP3   OH271814   1.759   4.690  12.325  0.2559 -0.5284  0.4867
16800TIP3    H171815   1.729   4.622  12.264  0.3796  0.2117 -0.4236
16800TIP3    H271816   1.854   4.692  12.314  0.0821  1.4784 -1.3982
16801TIP3   OH271817   5.408   1.334   9.925 -0.1287 -0.5025 -0.1536
16801TIP3    H171818   5.318   1.315   9.898 -0.7177  0.3865  1.0681
16801TIP3    H271819   5.401   1.417   9.972  1.0100 -1.4012  1.7090
16802TIP3   OH271820   1.365   3.543  14.734  1.0853 -0.3338 -0.0664
16802TIP3    H171821   1.272   3.538  14.710  1.0209 -1.7824  0.3912
16802TIP3    H271822   1.367   3.603  14.809  0.1104 -2.2974  1.6334
16803TIP3   OH271823   4.871   2.376   3.325  0.2775  0.1417  0.2355
16803TIP3    H171824   4.966   2.367   3.337  0.2681 -0.0079  0.2034
16803TIP3    H271825   4.834   2.353   3.410  0.3046  0.8770  0.4477
16804TIP3   OH271826   1.462   2.127   1.104 -0.5220  0.6721 -0.5435
16804TIP3    H171827   1.512   2.046   1.116  0.5548  1.4060  0.1066
16804TIP3    H271828   1.448   2.133   1.009  0.1607  0.1696 -0.6806
16805TIP3   OH271829   2.646   1.248  15.572  0.6972  0.5997 -0.1029
16805TIP3    H171830   2.714   1.252  15.638  1.3686 -0.0489 -0.7355
16805TIP3    H271831   2.593   1.326  15.587  1.1788  0.7633  0.8185
16806TIP3   OH271832   4.544   6.490   6.176 -0.2840 -0.0395  0.5739
16806TIP3    H171833   4.609   6.420   6.179 -0.8900 -0.7085 -0.8692
16806TIP3    H271834   4.516   6.493   6.084 -0.0382  2.3405  0.4996
16807TIP3   OH271835   6.333   5.242   1.346 -0.4366  0.8210 -0.2697
16807TIP3    H171836   6.249   5.230   1.301 -0.1991 -1.9134 -0.1649
16807TIP3    H271837   6.331   5.177   1.416  1.7912  0.6563 -0.3003
16808TIP3   OH271838   2.486   5.311   4.530  0.4886  0.0296  0.4879
16808TIP3    H171839   2.504   5.350   4.444  2.9550 -3.4609 -0.8165
16808TIP3    H271840   2.551   5.351   4.589  0.9667  0.1016 -0.0784
16809TIP3   OH271841   6.609   6.459   1.268 -0.0049 -0.1271 -0.0126
16809TIP3    H171842   6.642   6.488   1.183 -0.5540  1.5526  0.3017
16809TIP3    H271843   6.689   6.447   1.321  0.2674  0.6521 -0.2279
16810TIP3   OH271844   5.175   1.699   1.979 -0.1557 -0.9329 -0.0562
16810TIP3    H171845   5.197   1.617   2.024  0.5442 -1.2635 -0.9701
16810TIP3    H271846   5.237   1.763   2.014 -1.2933 -0.5386  1.3383
16811TIP3   OH271847   0.065   5.784  16.074  0.1475  0.0088 -0.1292
16811TIP3    H171848   0.025   5.813  16.156 -2.0382  0.5971 -1.3204
16811TIP3    H271849  -0.002   5.801  16.007  2.5678  1.5951 -2.3918
16812TIP3   OH271850   6.309   0.707  14.015 -0.6025  0.6177  0.3092
16812TIP3    H171851   6.314   0.611  14.015  0.7698  0.6788  0.0856
16812TIP3    H271852   6.271   0.728  13.930 -0.0591  0.3037 -0.0161
16813TIP3   OH271853   3.211   4.705  11.881 -0.0935  0.1381 -0.1015
16813TIP3    H171854   3.176   4.700  11.792  0.8484 -1.1127 -0.4171
16813TIP3    H271855   3.206   4.798  11.904 -0.8919  0.3818 -1.2325
16814TIP3   OH271856   1.831   2.370  14.736 -0.1440 -0.1005  0.2576
16814TIP3    H171857   1.835   2.283  14.774  0.8259 -0.0801  0.2385
16814TIP3    H271858   1.880   2.426  14.797  2.7637 -0.3389 -1.6305
16815TIP3   OH271859   2.744   2.232   2.040  0.1680  0.2793 -0.0554
16815TIP3    H171860   2.838   2.222   2.022  0.4269 -1.7846  2.0141
16815TIP3    H271861   2.710   2.143   2.046 -1.2368  0.8686  2.3079
16816TIP3   OH271862   3.909   0.818  14.722 -0.1969 -0.0992 -1.0040
16816TIP3    H171863   3.856   0.846  14.797  1.2463 -0.9106  0.3972
16816TIP3    H271864   3.850   0.824  14.647 -1.2285  2.3927 -0.1208
16817TIP3   OH271865   2.946   1.081   0.825 -0.2158 -0.5516 -0.3395
16817TIP3    H171866   2.870   1.133   0.800  0.8279  0.9027 -0.6253
16817TIP3    H271867   2.933   1.062   0.918 -0.7606 -0.0499 -0.3077
16818TIP3   OH271868   6.302   2.540   2.491  0.1999 -0.2086  0.2476
16818TIP3    H171869   6.322   2.462   2.544  1.5055  0.9314  1.5184
16818TIP3    H271870   6.207   2.550   2.498  0.1331 -1.1277  0.8598
16819TIP3   OH271871   5.668   5.699   3.798 -0.6333 -0.1836 -0.2400
16819TIP3    H171872   5.756   5.662   3.800 -1.0570 -1.2534 -0.4232
16819TIP3    H271873   5.681   5.792   3.781  0.4379 -0.3949 -0.6574
16820TIP3   OH271874   2.194   5.695  13.543  0.4338  0.2946 -0.8855
16820TIP3    H171875   2.176   5.787  13.562 -0.9047  0.0955 -1.1167
16820TIP3    H271876   2.290   5.691  13.534  0.6356  1.4122  0.3733
16821TIP3   OH271877   0.778   4.494  12.087  0.6631 -0.9352  0.1807
16821TIP3    H171878   0.750   4.540  12.007  0.0444 -0.1532  0.8357
16821TIP3    H271879   0.699   4.451  12.118  0.6008 -0.1945  1.0655
16822TIP3   OH271880   1.509   3.626   3.623  0.4230 -0.3556 -0.0567
16822TIP3    H171881   1.588   3.627   3.569 -0.1858  1.3525 -1.0169
16822TIP3    H271882   1.446   3.573   3.574  0.3633 -0.0924 -0.2667
16823TIP3   OH271883   5.010   3.786  13.951  0.5013 -0.3303 -0.1013
16823TIP3    H171884   5.078   3.756  13.890  0.5458  0.1043 -0.2739
16823TIP3    H271885   5.029   3.879  13.963  0.5347 -0.4291  0.6397
16824TIP3   OH271886   3.768   3.603  12.547  0.4662 -0.2924 -0.6714
16824TIP3    H171887   3.727   3.517  12.558  0.2329 -0.2773 -1.4228
16824TIP3    H271888   3.816   3.617  12.629 -0.7236 -0.4649  0.0663
16825TIP3   OH271889   4.919   3.923  12.806  0.2741  0.1033 -0.1093
16825TIP3    H171890   4.961   3.989  12.750 -0.0488  1.6250  1.3679
16825TIP3    H271891   4.989   3.892  12.863  0.9621 -2.5047 -2.1437
16826TIP3   OH271892   2.994   2.994  13.452  0.2073 -0.1142  0.0793
16826TIP3    H171893   2.980   3.078  13.409 -0.3435  0.3685  1.1684
16826TIP3    H271894   2.957   3.005  13.540 -0.7392 -1.7946 -0.0698
16827TIP3   OH271895   2.758   5.519   0.779 -0.5817 -0.4166 -0.2608
16827TIP3    H171896   2.851   5.526   0.802 -1.0863  1.9479  1.5506
16827TIP3    H271897   2.712   5.528   0.863 -2.4728 -0.7282 -1.2031
16828TIP3   OH271898   2.896   2.485   0.327 -0.2221 -0.2093  0.5323
16828TIP3    H171899   2.815   2.527   0.298 -0.3728 -0.4158  0.6470
16828TIP3    H271900   2.932   2.543   0.394 -0.4575 -0.2902  0.7292
16829TIP3   OH271901   4.565   2.429   0.503  0.1007 -0.0278  0.7001
16829TIP3    H171902   4.656   2.403   0.511  0.4298  1.4033  2.1097
16829TIP3    H271903   4.523   2.395   0.582  0.0189  1.5541  1.3707
16830TIP3   OH271904   0.312   0.475  16.647 -0.2164  0.2197 -0.2908
16830TIP3    H171905   0.305   0.405  16.582 -0.9001  1.1776 -1.2740
16830TIP3    H271906   0.259   0.445  16.721 -0.6930 -0.2017 -0.7963
16831TIP3   OH271907   1.761   3.262   5.105 -0.0402 -0.2894 -0.4188
16831TIP3    H171908   1.841   3.262   5.157  0.2137 -3.0249 -0.6930
16831TIP3    H271909   1.703   3.323   5.151  1.2933 -0.1804  1.2200
16832TIP3   OH271910   1.962   1.220  13.487 -0.1646  0.2328 -0.7775
16832TIP3    H171911   1.956   1.287  13.419  2.1703  1.8922  0.5041
16832TIP3    H271912   2.028   1.159  13.455  1.4001  1.3557  0.1671
16833TIP3   OH271913   3.161   2.614  14.247  0.0027  0.4647  0.4364
16833TIP3    H171914   3.191   2.672  14.316  2.4481  1.0141 -0.9678
16833TIP3    H271915   3.156   2.670  14.169 -1.1167 -0.4746 -0.2082
16834TIP3   OH271916   0.624   0.742   0.358 -0.1079  0.2230 -0.2969
16834TIP3    H171917   0.675   0.666   0.332 -1.3399 -1.4962  1.9298
16834TIP3    H271918   0.676   0.783   0.428 -1.7006 -1.6786  2.1552
16835TIP3   OH271919   3.222   2.682   5.137 -0.1931 -0.1078 -0.1205
16835TIP3    H171920   3.272   2.759   5.108  2.0354 -1.1392  0.7170
16835TIP3    H271921   3.273   2.607   5.104  0.0650 -1.2634  2.6422
16836TIP3   OH271922   4.021   4.685   1.322  0.2505  0.6376 -1.3749
16836TIP3    H171923   4.099   4.694   1.267  0.5499  1.5448 -0.8105
16836TIP3    H271924   3.953   4.733   1.275 -0.1633 -0.6831 -2.1887
16837TIP3   OH271925   4.589   0.542  15.490  0.4423 -0.2623 -0.4186
16837TIP3    H171926   4.597   0.637  15.501 -0.2671 -0.2854  0.3373
16837TIP3    H271927   4.596   0.507  15.579  1.6939 -1.0038 -0.7833
16838TIP3   OH271928   6.767   0.332   5.429 -0.4447  0.1127 -0.3694
16838TIP3    H171929   6.714   0.253   5.437 -2.6745  1.1278 -3.2104
16838TIP3    H271930   6.787   0.338   5.336  3.0300  0.9307  0.3110
16839TIP3   OH271931   0.177   0.585  12.841 -0.4888  0.9178 -0.2327
16839TIP3    H171932   0.264   0.626  12.839  0.6625 -1.3501 -0.0729
16839TIP3    H271933   0.176   0.535  12.923 -1.2989 -0.3280 -0.9633
16840TIP3   OH271934   4.489   4.217   1.471  0.2348  0.2277 -0.1085
16840TIP3    H171935   4.414   4.266   1.506  1.6747  1.3767  1.5361
16840TIP3    H271936   4.563   4.247   1.523  1.3625 -3.1166  0.4491
16841TIP3   OH271937   1.531   4.661   5.581  0.4119 -0.5783  0.2836
16841TIP3    H171938   1.616   4.656   5.625 -0.4133  1.1180  2.2173
16841TIP3    H271939   1.467   4.659   5.651 -1.1595 -1.1533 -1.0997
16842TIP3   OH271940   4.418   5.283   0.845 -0.0790  0.0624 -0.6493
16842TIP3    H171941   4.356   5.353   0.828 -0.6390 -0.5498 -1.1746
16842TIP3    H271942   4.373   5.226   0.908 -0.4645 -0.8959 -1.7565
16843TIP3   OH271943   0.882   2.808   3.033  0.0883 -0.0476 -0.2460
16843TIP3    H171944   0.853   2.810   2.942  0.7689 -0.1089 -0.4751
16843TIP3    H271945   0.905   2.717   3.048 -0.8342 -0.2092  0.2634
16844TIP3   OH271946   4.852   3.492   1.726  0.1636 -0.1753 -0.1692
16844TIP3    H171947   4.784   3.473   1.662 -0.3451  1.2705 -0.0950
16844TIP3    H271948   4.805   3.508   1.807  0.7653 -1.3868  0.4556
16845TIP3   OH271949   3.083   5.798  17.019  0.3447  0.2638  0.1960
16845TIP3    H171950   3.074   5.888  17.049  0.9640  0.2688  0.3900
16845TIP3    H271951   3.040   5.796  16.933 -0.2410  0.5800  0.4727
16846TIP3   OH271952   0.181   2.989   4.676  0.2762 -0.0433  0.1737
16846TIP3    H171953   0.114   3.047   4.712 -1.9092 -2.0201 -0.4359
16846TIP3    H271954   0.227   2.956   4.754  0.8614  1.6461  0.5797
16847TIP3   OH271955   5.916   0.882  14.136  0.3043 -0.0904 -0.1470
16847TIP3    H171956   5.839   0.939  14.126  0.7359  0.4216 -0.6684
16847TIP3    H271957   5.991   0.942  14.130  0.7682 -0.6967 -0.6151
16848TIP3   OH271958   5.077   2.572   2.721 -0.3933 -0.2208  0.2268
16848TIP3    H171959   5.167   2.602   2.708 -0.4865 -0.7017 -1.8422
16848TIP3    H271960   5.077   2.481   2.690 -1.3159 -0.6664  1.4291
16849TIP3   OH271961   3.792   4.000  12.422  0.7832 -0.0648 -0.4584
16849TIP3    H171962   3.721   4.034  12.366 -0.6065  0.0085  1.2504
16849TIP3    H271963   3.838   3.937  12.366  0.4290  1.0902 -2.1563
16850TIP3   OH271964   2.003   4.985   4.010 -0.0318  0.2353  0.1212
16850TIP3    H171965   1.952   5.012   3.934  1.9511  0.0336 -1.3576
16850TIP3    H271966   1.961   4.904   4.040 -1.3983  0.8212 -0.1635
16851TIP3   OH271967   0.367   5.100   3.544 -0.4625 -0.6733  0.1120
16851TIP3    H171968   0.291   5.042   3.553 -0.9069  0.1310  2.1898
16851TIP3    H271969   0.429   5.067   3.609 -0.7160  1.1102  1.3225
16852TIP3   OH271970   5.367   1.410  11.669  0.3566 -0.1556 -0.3932
16852TIP3    H171971   5.396   1.451  11.588 -1.5921 -0.4477 -1.2787
16852TIP3    H271972   5.347   1.484  11.727 -2.2747  0.2082 -1.6699
16853TIP3   OH271973   4.520   0.521  16.693  0.1135  0.7816  0.2342
16853TIP3    H171974   4.454   0.479  16.748  1.7670 -3.9549 -0.8947
16853TIP3    H271975   4.583   0.559  16.754 -0.8636  0.5323  1.4326
16854TIP3   OH271976   4.620   1.529  11.272 -0.4070 -0.0414  0.1132
16854TIP3    H171977   4.576   1.459  11.320  0.6139  0.6240  2.1981
16854TIP3    H271978   4.578   1.532  11.187  0.0066 -3.6803 -0.3582
16855TIP3   OH271979   4.210   3.672   0.464 -0.2278  0.6314 -0.3938
16855TIP3    H171980   4.119   3.643   0.465 -0.6063  1.7912 -0.2194
16855TIP3    H271981   4.258   3.603   0.509 -0.7337 -0.8962 -2.0859
16856TIP3   OH271982   4.840   3.686   4.034  0.5384  0.6451  0.2334
16856TIP3    H171983   4.806   3.775   4.048 -0.4579  0.2490  0.4229
16856TIP3    H271984   4.796   3.633   4.100  2.3394  0.2668  1.2006
16857TIP3   OH271985   0.801   2.999  11.679 -0.1300  0.1401 -0.3724
16857TIP3    H171986   0.764   3.076  11.635 -0.3135 -0.1362 -0.7026
16857TIP3    H271987   0.732   2.933  11.675  0.1416 -0.1462 -0.3637
16858TIP3   OH271988   1.016   1.639  13.080  0.4217  0.5062  0.2907
16858TIP3    H171989   1.058   1.725  13.081  1.4157  0.0915 -1.2283
16858TIP3    H271990   1.027   1.609  12.989 -0.3519 -0.9972  0.6716
16859TIP3   OH271991   1.161   3.625   5.437 -0.1684  0.1772  0.1082
16859TIP3    H171992   1.142   3.717   5.419 -0.2056  0.0856 -0.3451
16859TIP3    H271993   1.089   3.577   5.396  0.6384 -0.1380 -0.9972
16860TIP3   OH271994   1.962   6.464   5.406 -0.4781  0.3818  0.5348
16860TIP3    H171995   1.976   6.558   5.413 -0.2552  0.3806  0.1409
16860TIP3    H271996   2.022   6.427   5.471  0.3736  0.4514 -0.1925
16861TIP3   OH271997   6.694   1.177   2.049 -0.0498 -0.2154 -0.4872
16861TIP3    H171998   6.645   1.143   1.974 -1.3449  0.8247 -0.1372
16861TIP3    H271999   6.743   1.251   2.014  0.2219 -0.4140 -0.5342
16862TIP3   OH272000   1.842   1.541  17.203 -0.4660 -0.0776 -0.2352
16862TIP3    H172001   1.920   1.545  17.258 -0.1573 -0.3045 -0.6565
16862TIP3    H272002   1.872   1.503  17.121 -0.9002  0.3709 -0.6080
16863TIP3   OH272003   3.000   3.864   4.204 -0.1475 -0.2865  0.3288
16863TIP3    H172004   2.925   3.805   4.207  0.2155 -1.0045 -2.3052
16863TIP3    H272005   3.075   3.808   4.183  0.4032  0.8932 -1.1330
16864TIP3   OH272006   6.674   5.897   0.019 -0.3302  0.2890 -0.2405
16864TIP3    H172007   6.633   5.977   0.051  0.3327  1.0285 -1.1759
16864TIP3    H272008   6.601   5.838   0.002 -0.7929  0.4498  1.0423
16865TIP3   OH272009   0.941   3.653   0.963 -0.1994  1.0133  0.0694
16865TIP3    H172010   0.852   3.620   0.950 -0.7866  2.5781 -0.0814
16865TIP3    H272011   0.949   3.725   0.901  0.4291  2.2574  1.5425
16866TIP3   OH272012   1.201   4.968   0.597  0.5978 -0.0936 -0.0517
16866TIP3    H172013   1.227   4.922   0.676  0.7490  0.1430  0.0365
16866TIP3    H272014   1.187   5.059   0.625  1.9402  0.2903 -0.5506
16867TIP3   OH272015   3.137   3.981  14.049  0.4093 -0.0454  0.1744
16867TIP3    H172016   3.090   3.916  14.101 -1.3051  2.4641  1.9987
16867TIP3    H272017   3.224   3.985  14.089  0.1888 -0.4641  0.7099
16868TIP3   OH272018   3.827   4.758   5.790  0.5951  0.8933  0.3773
16868TIP3    H172019   3.858   4.699   5.859 -1.1621  1.7132  1.9494
16868TIP3    H272020   3.907   4.790   5.749  1.6882 -3.3326 -1.3548
16869TIP3   OH272021   1.301   3.908   4.527  0.0194  0.5385 -0.2285
16869TIP3    H172022   1.207   3.896   4.513  0.2679 -1.6298 -0.3556
16869TIP3    H272023   1.342   3.843   4.469  1.4353 -1.4118  2.7420
16870TIP3   OH272024   2.391   5.718  17.011  0.3098  0.0598 -0.6680
16870TIP3    H172025   2.442   5.764  16.945  0.8180 -0.9110 -0.9797
16870TIP3    H272026   2.300   5.742  16.993  0.6004  1.4326 -0.4049
16871TIP3   OH272027   3.508   4.119   4.862  0.1701  0.6743  0.0974
16871TIP3    H172028   3.432   4.069   4.832 -0.3492  1.4166  0.1521
16871TIP3    H272029   3.474   4.176   4.932  1.0691  0.0032  1.1115
16872TIP3   OH272030   1.245   2.132   1.267 -0.2044 -0.0525 -0.5294
16872TIP3    H172031   1.191   2.210   1.256  0.1853  0.2148 -0.5763
16872TIP3    H272032   1.315   2.142   1.203 -0.4031 -0.6655 -0.8512
16873TIP3   OH272033   5.953   4.196  12.135 -0.0603  0.1567 -0.5138
16873TIP3    H172034   5.868   4.236  12.156  0.4962  1.7903 -1.1600
16873TIP3    H272035   6.005   4.269  12.101  1.7621 -0.7156  0.2809
16874TIP3   OH272036   5.794   1.536   0.473 -0.1034  0.1010  0.1149
16874TIP3    H172037   5.729   1.513   0.407  0.2532 -1.2049  0.2005
16874TIP3    H272038   5.766   1.488   0.552 -0.6105  1.7471  0.9914
16875TIP3   OH272039   1.502   6.549   1.239 -0.1949 -0.7137 -0.3998
16875TIP3    H172040   1.594   6.525   1.243 -0.7754 -4.0660 -2.5244
16875TIP3    H272041   1.495   6.606   1.162  0.3900  2.2742  1.5640
16876TIP3   OH272042   1.710   4.325  15.260  0.1324 -0.2821 -0.1581
16876TIP3    H172043   1.758   4.280  15.191  0.9019  0.4949 -0.1411
16876TIP3    H272044   1.628   4.275  15.268  0.8158 -1.4858 -0.3478
16877TIP3   OH272045   1.543   2.880   1.022  0.4615 -0.0824  0.2721
16877TIP3    H172046   1.549   2.938   1.098 -1.4450 -0.8359  1.0869
16877TIP3    H272047   1.586   2.799   1.051  2.0223  0.4789 -0.4147
16878TIP3   OH272048   5.819   6.462   0.324 -0.6875  0.5028 -0.3914
16878TIP3    H172049   5.903   6.507   0.318 -0.7809  0.6365 -0.7181
16878TIP3    H272050   5.835   6.376   0.284 -0.4725  0.1854  0.3570
16879TIP3   OH272051   6.433   3.784  12.161  0.0998  0.3642  0.1351
16879TIP3    H172052   6.349   3.824  12.185 -0.9655 -2.3529  1.2975
16879TIP3    H272053   6.456   3.728  12.236  0.1709 -3.1103 -2.2515
16880TIP3   OH272054   6.568   2.161   1.842 -0.4622  0.2395 -0.0692
16880TIP3    H172055   6.614   2.156   1.926 -0.3244 -0.9893 -0.1946
16880TIP3    H272056   6.635   2.136   1.777 -0.3906  1.7882 -0.6252
16881TIP3   OH272057   3.311   2.621   1.197  0.0459 -0.2691 -0.3805
16881TIP3    H172058   3.384   2.636   1.137 -0.6382  0.7153 -0.9992
16881TIP3    H272059   3.268   2.706   1.204 -0.8333 -0.7508  0.2495
16882TIP3   OH272060   1.127   2.551  16.948 -0.0785  0.1064 -0.7166
16882TIP3    H172061   1.213   2.547  16.990 -0.1734  2.0673 -0.2585
16882TIP3    H272062   1.089   2.465  16.965  1.8148 -0.8621 -1.0437
16883TIP3   OH272063   2.048   0.267   4.060  0.1698  0.1815  0.0251
16883TIP3    H172064   1.976   0.329   4.066 -1.0849 -1.1744 -0.4607
16883TIP3    H272065   2.074   0.269   3.968 -0.1067 -0.2408 -0.0673
16884TIP3   OH272066   3.353   6.750   2.034 -0.0932 -0.5979  0.6957
16884TIP3    H172067   3.311   6.704   1.961  1.6488  1.5660 -1.8400
16884TIP3    H272068   3.305   6.832   2.041  1.8403  0.6906 -0.3801
16885TIP3   OH272069   1.400   5.059  15.345 -0.1134  0.2136  0.4711
16885TIP3    H172070   1.355   5.119  15.286  0.8135  0.1004 -0.4014
16885TIP3    H272071   1.443   4.996  15.286 -1.7753 -1.8716  1.3658
16886TIP3   OH272072   4.030   3.303   5.829  0.3661  0.1322 -0.0314
16886TIP3    H172073   4.031   3.399   5.829  1.0219  0.1401 -1.2284
16886TIP3    H272074   3.978   3.280   5.906 -0.9692  1.4573 -0.4818
16887TIP3   OH272075   0.715   0.784   1.572  0.0711  0.6103  0.4390
16887TIP3    H172076   0.707   0.689   1.576  0.1383  0.5727 -0.1723
16887TIP3    H272077   0.634   0.817   1.611 -0.6135  0.2792 -0.6585
16888TIP3   OH272078   0.787   6.137   0.705  0.3794 -0.0389  0.1002
16888TIP3    H172079   0.876   6.136   0.741  1.2330 -0.8280 -1.8635
16888TIP3    H272080   0.745   6.212   0.747  2.8858  2.1135 -0.9183
16889TIP3   OH272081   3.176   1.228  12.695 -0.3894 -0.3004 -0.9716
16889TIP3    H172082   3.109   1.286  12.729  1.5904  1.4554  0.1318
16889TIP3    H272083   3.229   1.283  12.637  1.1661 -1.1368 -0.4065
16890TIP3   OH272084   2.975   5.541  15.720 -0.1930  0.0340 -0.6831
16890TIP3    H172085   2.983   5.633  15.697 -0.4874 -0.1680 -1.6382
16890TIP3    H272086   3.065   5.511  15.733 -0.1300  0.6193  0.3600
16891TIP3   OH272087   6.774   1.081   4.413  0.8199 -0.1502 -0.2243
16891TIP3    H172088   6.727   1.115   4.336  0.5260 -0.3810 -0.1508
16891TIP3    H272089   6.705   1.044   4.468  1.1107 -0.6676 -0.2014
16892TIP3   OH272090   3.818   4.700  14.645 -0.0295 -0.2404  0.3317
16892TIP3    H172091   3.829   4.766  14.713  1.8117 -2.0160  1.9096
16892TIP3    H272092   3.887   4.718  14.582 -0.7303  0.4439 -0.2590
16893TIP3   OH272093   1.950   6.120  12.875 -0.1410  0.2028 -0.0969
16893TIP3    H172094   2.028   6.176  12.874 -1.6999  2.4824 -0.4072
16893TIP3    H272095   1.951   6.081  12.963  0.8374  0.9571  0.2589
16894TIP3   OH272096   2.367   3.873  16.054 -0.1429 -0.2337  0.1910
16894TIP3    H172097   2.444   3.857  15.999 -0.6638  0.9466 -0.9357
16894TIP3    H272098   2.295   3.832  16.005 -0.6840  1.2009 -0.2414
16895TIP3   OH272099   1.682   5.164  15.297  0.1373  0.4196 -0.1575
16895TIP3    H172100   1.772   5.176  15.267  1.3293 -1.5844  2.2395
16895TIP3    H272101   1.672   5.070  15.308 -1.2565  0.7554  2.3105
16896TIP3   OH272102   5.528   4.703   4.227 -0.2802 -0.6723 -0.2122
16896TIP3    H172103   5.592   4.656   4.173 -0.6143 -0.6205 -0.6563
16896TIP3    H272104   5.512   4.643   4.300  1.4801 -0.0164  0.7919
16897TIP3   OH272105   6.409   0.444  16.956 -0.3863  0.0469 -0.2367
16897TIP3    H172106   6.396   0.396  16.874 -0.3059  1.1438 -0.9151
16897TIP3    H272107   6.431   0.532  16.928  0.4567  0.2379  0.9742
16898TIP3   OH272108   3.233   2.045  13.926  0.2812 -0.5725 -0.0469
16898TIP3    H172109   3.220   2.138  13.907 -1.9173 -0.7955  0.1793
16898TIP3    H272110   3.190   2.031  14.010  1.8372 -1.5261  0.6258
16899TIP3   OH272111   3.301   1.451   5.317  0.1862 -0.5074  0.7287
16899TIP3    H172112   3.248   1.398   5.377  2.2589 -1.0391  2.1600
16899TIP3    H272113   3.240   1.474   5.246 -2.5652  0.6484  3.2382
16900TIP3   OH272114   3.801   0.923   1.131  0.1514  0.1302  0.3568
16900TIP3    H172115   3.836   0.933   1.043 -2.2538 -0.8506 -0.7887
16900TIP3    H272116   3.762   0.836   1.132  0.8787 -0.2610  2.7170
16901TIP3   OH272117   3.560   1.630   4.728 -0.4274 -0.2653 -0.3571
16901TIP3    H172118   3.518   1.567   4.786 -0.5467  1.0324  1.0332
16901TIP3    H272119   3.654   1.620   4.744 -0.1519 -2.3212 -2.5817
16902TIP3   OH272120   1.059   5.896   2.288  0.0888 -0.7636  0.2626
16902TIP3    H172121   0.987   5.949   2.321 -2.0239 -2.3285 -1.5540
16902TIP3    H272122   1.133   5.956   2.282 -1.4936  1.3152  0.6920
16903TIP3   OH272123   4.145   2.045  13.618  0.3601  0.2580 -0.1369
16903TIP3    H172124   4.137   2.110  13.688  0.0919  1.4424 -1.2205
16903TIP3    H272125   4.194   2.090  13.549  0.0037 -0.6269 -0.9953
16904TIP3   OH272126   4.604   1.162  14.291 -0.7838  0.0691 -0.5253
16904TIP3    H172127   4.508   1.163  14.293 -0.8544 -0.1928 -2.3571
16904TIP3    H272128   4.626   1.166  14.198  0.9685 -0.9239 -0.1895
16905TIP3   OH272129   2.838   1.746  13.099 -0.2672  0.7891 -0.5702
16905TIP3    H172130   2.812   1.810  13.164 -1.0009 -1.1444  1.1525
16905TIP3    H272131   2.763   1.740  13.040 -0.3815  1.1752 -0.4643
16906TIP3   OH272132   4.965   6.318   5.074 -0.3150  0.1354 -0.6795
16906TIP3    H172133   5.030   6.350   5.011  1.5051 -0.5562  0.7629
16906TIP3    H272134   4.997   6.232   5.101 -2.0457 -0.3902 -0.1670
16907TIP3   OH272135   6.424   2.699   5.429 -0.1125  0.1472  0.5732
16907TIP3    H172136   6.477   2.726   5.354 -0.8394  1.2518  0.4381
16907TIP3    H272137   6.426   2.603   5.426 -1.4655  0.1294 -1.8337
16908TIP3   OH272138   0.637   5.877  16.360  0.1112  0.6580  0.5222
16908TIP3    H172139   0.683   5.855  16.441 -0.2233 -0.0065  0.5440
16908TIP3    H272140   0.659   5.805  16.301  0.4675  1.2136 -0.0295
16909TIP3   OH272141   4.101   6.075   1.727  0.2698 -0.4307 -0.5656
16909TIP3    H172142   4.140   6.084   1.640 -1.1980 -0.6645 -1.2856
16909TIP3    H272143   4.060   5.988   1.725 -0.1542 -0.2525  0.2112
16910TIP3   OH272144   3.764   2.662  11.769 -0.0738  0.2510  0.2395
16910TIP3    H172145   3.695   2.699  11.824 -0.4373  0.9243 -0.6586
16910TIP3    H272146   3.831   2.730  11.765 -0.3177  0.4477 -0.6353
16911TIP3   OH272147   3.995   3.810  15.210  0.2055  0.0083  0.4248
16911TIP3    H172148   3.987   3.805  15.115 -0.1076  0.2909  0.4368
16911TIP3    H272149   4.038   3.894  15.226  0.9584 -0.3770  0.4973
16912TIP3   OH272150   1.459   6.087  11.278  0.1917 -0.2236 -0.5668
16912TIP3    H172151   1.465   6.180  11.297  0.4457 -0.2670 -0.4348
16912TIP3    H272152   1.547   6.062  11.250 -0.1324 -0.1989 -1.6456
16913TIP3   OH272153   6.195   0.976  15.718 -0.0463  1.0216 -0.2925
16913TIP3    H172154   6.217   0.883  15.726 -1.6299  0.7117  1.1179
16913TIP3    H272155   6.120   0.979  15.660 -1.4060  1.1347  1.3964
16914TIP3   OH272156   5.259   4.294   5.150 -0.6108  0.2446  0.1025
16914TIP3    H172157   5.167   4.292   5.176 -0.4737 -0.6751  0.5419
16914TIP3    H272158   5.259   4.265   5.058 -0.8724  1.4623 -0.3038
16915TIP3   OH272159   4.790   2.745   5.317  0.1913 -0.0951 -0.2859
16915TIP3    H172160   4.762   2.660   5.349  1.4414 -0.3463  0.1880
16915TIP3    H272161   4.878   2.757   5.352 -0.4521  2.0053  0.8131
16916TIP3   OH272162   3.798   5.611   4.742 -0.8590 -0.5144  0.5590
16916TIP3    H172163   3.837   5.559   4.813  2.2772  0.8006 -0.0148
16916TIP3    H272164   3.802   5.553   4.666  0.0498 -0.4223  0.5195
16917TIP3   OH272165   1.456   3.976   2.267  0.3455  0.2811  0.1204
16917TIP3    H172166   1.443   3.936   2.352  0.7155 -0.1028  0.0019
16917TIP3    H272167   1.442   4.069   2.282 -1.5745  0.0302  0.1808
16918TIP3   OH272168   5.735   3.771   5.341 -0.0462 -0.3839  0.2585
16918TIP3    H172169   5.819   3.802   5.375 -0.7002  0.8441  0.7945
16918TIP3    H272170   5.695   3.848   5.299  0.0655 -1.4771 -2.0272
16919TIP3   OH272171   0.579   3.010   3.475 -0.0884 -0.6587  0.2395
16919TIP3    H172172   0.530   3.092   3.465  2.0073  0.5248 -0.9630
16919TIP3    H272173   0.596   3.003   3.568  1.5279  1.4564  0.1697
16920TIP3   OH272174   2.297   1.371  14.872 -0.2401 -0.7081  0.4190
16920TIP3    H172175   2.262   1.449  14.828 -0.5210  0.1182  2.0365
16920TIP3    H272176   2.220   1.329  14.910 -0.0527 -1.6600 -0.2211
16921TIP3   OH272177   4.400   3.793   3.720  0.3183 -0.2008  0.5835
16921TIP3    H172178   4.486   3.834   3.722  1.6872 -2.7584 -0.4519
16921TIP3    H272179   4.405   3.724   3.786 -1.1992 -0.0038  0.9508
16922TIP3   OH272180   2.557   2.388  15.835  0.2658  0.2926  0.1398
16922TIP3    H172181   2.615   2.311  15.834 -0.7021 -0.4516 -0.1520
16922TIP3    H272182   2.496   2.371  15.907  1.5567  1.9931  1.7630
16923TIP3   OH272183   3.382   0.619  14.491 -0.7031  0.3154  0.1088
16923TIP3    H172184   3.295   0.647  14.518 -1.3208 -1.8045  0.5097
16923TIP3    H272185   3.438   0.695  14.507 -2.2268  1.2706  1.1529
16924TIP3   OH272186   4.724   6.112  16.033 -0.0053  0.6079  0.6489
16924TIP3    H172187   4.670   6.090  15.957  0.2895 -0.1675  0.6579
16924TIP3    H272188   4.663   6.155  16.093  0.2465  3.4411 -0.9608
16925TIP3   OH272189   0.271   2.004   2.355  0.5776 -0.5131  0.4936
16925TIP3    H172190   0.191   1.995   2.303  1.5963 -1.3415 -1.0083
16925TIP3    H272191   0.326   1.931   2.326  1.6222 -0.3591  1.9899
16926TIP3   OH272192   5.273   1.119   5.365 -0.1069  0.4630 -0.1397
16926TIP3    H172193   5.213   1.170   5.311 -0.7287 -1.1329 -1.0327
16926TIP3    H272194   5.317   1.060   5.303 -0.6197 -1.2241  1.0283
16927TIP3   OH272195   5.354   3.638   0.917 -0.1851  0.3103  0.3448
16927TIP3    H172196   5.392   3.658   1.003 -0.3997 -0.3491  0.5997
16927TIP3    H272197   5.307   3.717   0.892 -0.9281  0.1813  1.2802
16928TIP3   OH272198   4.158   6.662  13.686 -0.0445  0.3398 -0.0498
16928TIP3    H172199   4.218   6.692  13.753 -0.0801  2.2261 -0.8001
16928TIP3    H272200   4.109   6.591  13.727  2.6536 -1.2876  0.5647
16929TIP3   OH272201   5.681   1.690  11.578 -0.4776 -0.2887  0.0041
16929TIP3    H172202   5.648   1.639  11.504 -0.2884 -0.9170  0.3436
16929TIP3    H272203   5.703   1.775  11.540  0.3279 -0.8434 -0.8342
16930TIP3   OH272204   1.919   3.813   2.765 -0.2045  0.5077 -0.0733
16930TIP3    H172205   1.847   3.874   2.749  0.5799  1.4009 -0.2898
16930TIP3    H272206   1.927   3.809   2.860 -1.9641 -1.3425  0.0756
16931TIP3   OH272207   2.656   0.517  15.414 -0.0805  0.3981 -0.5466
16931TIP3    H172208   2.743   0.499  15.379  1.3180  2.1008  1.7245
16931TIP3    H272209   2.639   0.446  15.475 -0.4854 -0.1477 -1.2835
16932TIP3   OH272210   5.258   0.848   3.668  0.1044 -0.1022  0.3748
16932TIP3    H172211   5.219   0.794   3.599 -0.1880  1.5674 -0.8287
16932TIP3    H272212   5.352   0.846   3.651  0.2258 -1.1256  1.0444
16933TIP3   OH272213   3.862   3.715  16.879  0.5754 -0.8330 -0.7694
16933TIP3    H172214   3.888   3.736  16.789  2.0863 -1.5244 -0.5300
16933TIP3    H272215   3.821   3.629  16.872  0.1616 -0.6304 -0.8700
16934TIP3   OH272216   3.417   2.418   0.144 -0.0560 -0.6815  0.4099
16934TIP3    H172217   3.410   2.376   0.059 -1.0828 -1.2772  0.7702
16934TIP3    H272218   3.481   2.365   0.192 -1.1490 -1.6985  0.7700
16935TIP3   OH272219   6.596   1.582   1.394 -0.4168 -0.2179  0.2584
16935TIP3    H172220   6.558   1.618   1.314 -1.0807 -0.5165  0.4279
16935TIP3    H272221   6.589   1.653   1.458 -2.3941 -0.8253  0.7980
16936TIP3   OH272222   0.944   3.225   1.019  0.1019 -0.4231 -0.2368
16936TIP3    H172223   0.875   3.198   0.959 -1.2415  2.2542 -0.0012
16936TIP3    H272224   0.904   3.222   1.106  0.5709  0.2664  0.0101
16937TIP3   OH272225   6.809   1.669  11.685 -0.2387  0.1243  0.1017
16937TIP3    H172226   6.876   1.605  11.663  0.2991  0.3477  1.0388
16937TIP3    H272227   6.856   1.750  11.702 -0.9996  1.0901 -2.1004
16938TIP3   OH272228   4.779   2.288   5.687  0.2491  0.0702  0.2445
16938TIP3    H172229   4.732   2.319   5.764  0.1535 -1.1894  0.7075
16938TIP3    H272230   4.789   2.194   5.700 -2.9335 -0.9232 -2.9186
16939TIP3   OH272231   1.723   3.579   0.639 -0.3372  0.2408  0.2315
16939TIP3    H172232   1.739   3.494   0.680  0.4646  0.0672 -0.3998
16939TIP3    H272233   1.634   3.603   0.665 -0.0917 -0.1675  1.5061
16940TIP3   OH272234   2.931   3.041   4.716  0.2800 -0.0566 -0.1118
16940TIP3    H172235   2.904   3.025   4.806 -0.2924 -0.5134 -0.3556
16940TIP3    H272236   3.015   3.087   4.723  0.4666 -0.5021  0.6443
16941TIP3   OH272237   0.573   5.127  13.110  0.0942 -0.1177 -1.3500
16941TIP3    H172238   0.533   5.207  13.144  0.4168 -0.1774 -0.8275
16941TIP3    H272239   0.526   5.110  13.028 -1.0794 -0.2762 -0.6790
16942TIP3   OH272240   0.406   6.070  17.170 -0.5947 -0.1540 -0.4473
16942TIP3    H172241   0.316   6.082  17.201 -0.9174 -0.1707 -1.3615
16942TIP3    H272242   0.399   6.069  17.075  0.4165  0.1634 -0.5376
16943TIP3   OH272243   6.397   2.718   5.003  0.4705  0.1530 -0.4219
16943TIP3    H172244   6.433   2.660   5.070 -1.1517  0.2940  0.6284
16943TIP3    H272245   6.460   2.790   4.997  0.3290  0.4982  1.5055
16944TIP3   OH272246   3.805   3.397   4.370 -0.9916 -0.6176  0.2159
16944TIP3    H172247   3.737   3.458   4.401 -1.8917 -1.2886 -0.4034
16944TIP3    H272248   3.827   3.429   4.283 -0.8003 -0.6418  0.2554
16945TIP3   OH272249   5.997   6.245   1.003  0.1110  0.1894 -0.3433
16945TIP3    H172250   6.065   6.308   0.980 -0.0741 -0.1877 -1.9964
16945TIP3    H272251   6.028   6.161   0.967 -1.4269  0.1073 -1.5762
16946TIP3   OH272252   5.672   5.182   1.002  0.4040 -0.0446  0.1516
16946TIP3    H172253   5.667   5.213   0.912 -0.9937  0.1604  0.2739
16946TIP3    H272254   5.752   5.129   1.005  0.2666 -0.3771 -1.3067
16947TIP3   OH272255   3.446   5.696   1.164  0.1354  0.1859  0.6442
16947TIP3    H172256   3.492   5.648   1.095  0.4360  0.5610  0.5768
16947TIP3    H272257   3.482   5.663   1.245  0.7183  0.6605  0.5852
16948TIP3   OH272258   5.270   1.494   2.100 -0.2046 -0.1033 -1.1202
16948TIP3    H172259   5.198   1.461   2.154  0.4433  1.3089  0.7162
16948TIP3    H272260   5.345   1.498   2.160  0.9629  0.0984 -2.5297
16949TIP3   OH272261   1.981   1.683  10.777 -0.5373 -0.2128  0.0746
16949TIP3    H172262   2.024   1.641  10.851  0.5370  0.3017 -0.2332
16949TIP3    H272263   1.954   1.612  10.720 -1.3854 -0.6182  0.9389
16950TIP3   OH272264   4.538   2.784  16.951 -0.1342  0.2111 -0.0106
16950TIP3    H172265   4.519   2.814  16.862  0.2298 -0.4806 -0.3304
16950TIP3    H272266   4.458   2.742  16.981 -1.2836  2.9795  1.1180
16951TIP3   OH272267   5.450   4.834  16.876 -0.2566  0.1695 -0.3304
16951TIP3    H172268   5.511   4.802  16.942 -1.7345 -0.2904  0.8677
16951TIP3    H272269   5.452   4.768  16.807  0.3704  0.0197 -0.1764
16952TIP3   OH272270   0.629   4.045  13.620  0.2976 -0.6128  0.5083
16952TIP3    H172271   0.604   4.136  13.602 -1.7819 -0.6928  2.5022
16952TIP3    H272272   0.701   4.053  13.683  0.6313 -0.3690  0.1043
16953TIP3   OH272273   3.718   0.038   3.523 -0.2738 -0.0026 -0.1327
16953TIP3    H172274   3.807   0.072   3.516  1.0234 -3.0195  0.0575
16953TIP3    H272275   3.722  -0.024   3.596 -3.1990  1.4527  1.4804
16954TIP3   OH272276   4.042   3.975   0.841 -0.3682 -0.6059  0.2894
16954TIP3    H172277   4.095   4.014   0.772  0.0832 -0.8339  0.4958
16954TIP3    H272278   4.102   3.915   0.886 -0.6539 -0.4669  0.8708
16955TIP3   OH272279   5.014   2.950  10.864 -0.8278  0.0316 -0.5363
16955TIP3    H172280   5.071   2.880  10.832 -0.4085  0.1928 -0.1450
16955TIP3    H272281   4.926   2.911  10.865 -0.7658 -0.1487 -1.3525
16956TIP3   OH272282   1.299   3.627   2.914  0.0025 -0.8771  1.1449
16956TIP3    H172283   1.380   3.592   2.876  0.0499 -0.9264  1.2898
16956TIP3    H272284   1.314   3.721   2.920 -1.6507 -0.1240 -3.0918
16957TIP3   OH272285   5.836   4.204   3.161  0.7652  0.3829  0.2413
16957TIP3    H172286   5.769   4.271   3.172 -0.7768 -1.1719  0.7435
16957TIP3    H272287   5.836   4.184   3.067 -0.1248 -0.2062  0.3522
16958TIP3   OH272288   0.885   3.772   0.385 -0.1035  0.2754 -0.4757
16958TIP3    H172289   0.874   3.702   0.321 -1.2481  1.5316 -1.7335
16958TIP3    H272290   0.815   3.758   0.449  0.0576 -0.0729 -0.3732
16959TIP3   OH272291   5.399   4.760   1.222  0.1164  0.0674  0.1948
16959TIP3    H172292   5.370   4.747   1.132 -0.7953  4.0206 -0.2851
16959TIP3    H272293   5.479   4.812   1.213  0.1206  0.3393  1.6428
16960TIP3   OH272294   1.180   2.037   3.778 -0.3943 -0.4646  0.1781
16960TIP3    H172295   1.187   2.027   3.873 -0.6292  2.1785  0.5406
16960TIP3    H272296   1.266   2.070   3.751  0.1429 -2.4558 -0.8112
16961TIP3   OH272297   6.650   2.500   3.173  0.0248 -0.4525  0.5332
16961TIP3    H172298   6.732   2.520   3.218  1.1624 -0.4074 -1.4180
16961TIP3    H272299   6.653   2.406   3.158  0.3358 -0.2714 -0.6254
16962TIP3   OH272300   2.200   2.525  13.822  0.0587 -0.2272  0.0763
16962TIP3    H172301   2.175   2.461  13.756  1.0010 -0.3156 -0.2159
16962TIP3    H272302   2.207   2.608  13.774 -1.2796  0.1378  0.4758
16963TIP3   OH272303   3.384   4.105  14.540  0.3685  0.0692 -0.3441
16963TIP3    H172304   3.464   4.056  14.554  0.6727  0.7655  0.4616
16963TIP3    H272305   3.325   4.076  14.610  0.2635  0.2492 -0.3561
16964TIP3   OH272306   4.585   2.227  15.446  0.5047  0.1394  0.3870
16964TIP3    H172307   4.620   2.246  15.533  0.2747  1.0206  0.2983
16964TIP3    H272308   4.652   2.260  15.386  1.1851 -1.4872  0.2169
16965TIP3   OH272309   6.399   3.370  17.135  0.5277  0.0326 -0.0861
16965TIP3    H172310   6.440   3.284  17.125  0.8294  0.3938 -2.4448
16965TIP3    H272311   6.432   3.421  17.061 -1.4463  1.4474 -0.0597
16966TIP3   OH272312   6.186   2.763   1.589 -0.2221  0.0036 -0.0673
16966TIP3    H172313   6.124   2.741   1.658 -0.1437 -0.1791 -0.0537
16966TIP3    H272314   6.148   2.838   1.545  0.4659  1.0985  1.1477
16967TIP3   OH272315   0.950   1.594  11.397  0.3137 -0.2350 -0.4294
16967TIP3    H172316   0.905   1.542  11.331  0.6150 -0.8771 -0.1356
16967TIP3    H272317   1.034   1.617  11.357  1.4280 -2.4464  0.4866
16968TIP3   OH272318   2.384   0.662   1.667 -0.5675 -0.0230  0.1604
16968TIP3    H172319   2.416   0.661   1.577  2.1965  0.2082  1.0548
16968TIP3    H272320   2.412   0.577   1.703 -0.3663  0.4679  1.1976
16969TIP3   OH272321   4.434   3.453   2.158 -0.3803  0.4747 -0.0630
16969TIP3    H172322   4.442   3.431   2.065  0.7263  0.4821  0.0228
16969TIP3    H272323   4.508   3.511   2.176 -1.9595  2.5440  0.2450
16970TIP3   OH272324   6.304   1.573  14.637 -0.3556 -0.0462  0.3429
16970TIP3    H172325   6.233   1.566  14.701 -0.0787  0.6343  0.7352
16970TIP3    H272326   6.377   1.525  14.677 -0.0043  0.8564  0.8042
16971TIP3   OH272327   0.060   2.563   1.154 -0.5874  0.0726  0.1916
16971TIP3    H172328   0.029   2.584   1.066  0.9692  1.6033 -0.0536
16971TIP3    H272329   0.019   2.629   1.210  1.0065  1.2342  0.0656
16972TIP3   OH272330   5.685   2.938  14.567 -0.1418  0.3183 -0.1455
16972TIP3    H172331   5.690   3.033  14.557 -0.4754  0.3428 -0.0908
16972TIP3    H272332   5.594   2.917  14.550 -0.0851  0.0161 -0.0756
16973TIP3   OH272333   3.401   3.521   3.941 -0.2840 -0.0828  0.3385
16973TIP3    H172334   3.473   3.513   4.005 -0.1912  1.7936  0.5074
16973TIP3    H272335   3.440   3.564   3.866 -0.6222 -1.4676 -0.6634
16974TIP3   OH272336   2.337   4.258  16.334 -0.2889  0.2823 -0.0216
16974TIP3    H172337   2.278   4.182  16.340  0.6308 -0.5736 -1.3161
16974TIP3    H272338   2.387   4.243  16.255  2.9140  0.0820  1.8772
16975TIP3   OH272339   4.867   3.279   0.802  0.3445  0.2529 -0.2047
16975TIP3    H172340   4.863   3.270   0.898  1.7669  1.1743 -0.0252
16975TIP3    H272341   4.959   3.262   0.781 -0.3092 -1.7898 -1.6544
16976TIP3   OH272342   1.505   4.323  16.456 -0.2099 -0.0851  0.3667
16976TIP3    H172343   1.557   4.331  16.536  0.7042 -0.4594 -0.1730
16976TIP3    H272344   1.459   4.240  16.465  0.8441 -0.7369 -0.0137
16977TIP3   OH272345   3.151   6.249   1.606  0.2146  0.3664 -0.5172
16977TIP3    H172346   3.199   6.198   1.541  2.9701  2.0326  0.0647
16977TIP3    H272347   3.186   6.338   1.597 -0.2613  0.9160  2.3183
16978TIP3   OH272348   2.870   3.912   2.541 -0.0921  0.5642 -0.4977
16978TIP3    H172349   2.877   3.992   2.593  0.6326  0.2363 -0.0775
16978TIP3    H272350   2.960   3.888   2.522 -0.2734 -0.5893  0.0543
16979TIP3   OH272351   2.118   0.173   1.115 -0.2782  0.1491  0.1633
16979TIP3    H172352   2.049   0.232   1.146 -1.1758 -0.7913 -0.0094
16979TIP3    H272353   2.100   0.090   1.159 -0.8481 -0.8657 -1.9163
16980TIP3   OH272354   0.725   3.983  11.150  0.2802 -0.2894  0.2340
16980TIP3    H172355   0.742   4.063  11.200  1.2234 -1.0439  1.1551
16980TIP3    H272356   0.670   4.012  11.077 -0.0397  1.0608  0.9746
16981TIP3   OH272357   6.109   1.706  11.994  0.7436  0.1387  0.1123
16981TIP3    H172358   6.061   1.650  12.055 -1.3083  0.0445 -1.4907
16981TIP3    H272359   6.182   1.740  12.045  0.4678 -1.7800  1.9296
16982TIP3   OH272360   0.584   5.853  13.615 -0.0064  0.1874  0.1012
16982TIP3    H172361   0.533   5.886  13.689 -1.1713  1.5464 -1.2658
16982TIP3    H272362   0.522   5.846  13.543  0.8842 -2.0396 -0.5596
16983TIP3   OH272363   2.698   5.070  10.726  0.1276 -0.0690 -0.5431
16983TIP3    H172364   2.733   4.994  10.679  0.1972 -0.9825  0.9156
16983TIP3    H272365   2.775   5.125  10.743  0.0923  0.3125 -1.5085
16984TIP3   OH272366   6.329   3.952  16.538  0.3716 -0.3735 -0.4917
16984TIP3    H172367   6.258   3.998  16.494  0.6131  1.4669  0.9640
16984TIP3    H272368   6.408   3.981  16.492  0.4113 -0.5229 -0.5208
16985TIP3   OH272369   4.315   2.046  12.641 -0.0132  0.6067  0.8165
16985TIP3    H172370   4.236   2.034  12.589  0.4347 -0.5864  0.3833
16985TIP3    H272371   4.360   2.120  12.601  0.2346 -0.1838 -0.4106
16986TIP3   OH272372   1.436   5.833  14.231 -0.3468 -0.4984  0.1842
16986TIP3    H172373   1.500   5.878  14.285 -2.0093  2.2439  0.0450
16986TIP3    H272374   1.485   5.763  14.188  2.1439  0.4653  1.2989
16987TIP3   OH272375   0.508   6.299  15.666  0.2994  0.0700 -0.0814
16987TIP3    H172376   0.431   6.278  15.718  0.4043  1.0607  0.4937
16987TIP3    H272377   0.565   6.348  15.726  1.6004 -1.0753 -0.3387
16988TIP3   OH272378   5.957   5.781   1.965 -0.0779  0.2707  0.1329
16988TIP3    H172379   6.002   5.749   1.887  0.3561  0.5295  0.2743
16988TIP3    H272380   5.866   5.756   1.952 -0.0721  0.6024 -0.6181
16989TIP3   OH272381   4.715   2.423  15.302  0.0298 -0.1601  0.5297
16989TIP3    H172382   4.696   2.482  15.375  0.5042  0.9591 -0.2144
16989TIP3    H272383   4.786   2.466  15.254  1.3092 -1.9821  0.6782
16990TIP3   OH272384   4.166   4.382   0.638 -0.1167 -0.3211  0.0516
16990TIP3    H172385   4.156   4.453   0.574 -0.1033 -0.5423 -0.1972
16990TIP3    H272386   4.076   4.358   0.661 -0.1223 -0.2691  0.0843
16991TIP3   OH272387   2.993   4.691  16.771  0.0695 -0.0853 -0.0545
16991TIP3    H172388   2.906   4.669  16.805 -0.4434 -1.3396 -1.9865
16991TIP3    H272389   3.007   4.782  16.797 -1.8713  0.1725  0.2339
16992TIP3   OH272390   6.335   4.345   4.522  0.4362  1.0372  0.0250
16992TIP3    H172391   6.346   4.437   4.497  0.5410  0.8429 -0.6806
16992TIP3    H272392   6.272   4.311   4.458  2.0674  0.0673 -1.1526
16993TIP3   OH272393   4.050   0.074  13.988  0.4876  0.8402 -0.2122
16993TIP3    H172394   3.960   0.098  13.969 -0.7101 -2.5250  0.5304
16993TIP3    H272395   4.094   0.157  14.004 -2.0912  2.6986 -2.0017
16994TIP3   OH272396   3.461   5.053  14.849  0.3754  0.2525 -0.1049
16994TIP3    H172397   3.385   5.061  14.791  0.1160  0.5773  0.2739
16994TIP3    H272398   3.536   5.047  14.789  0.3141  2.4489 -0.5051
16995TIP3   OH272399   0.210   2.326   1.189 -0.0690  0.2817 -0.3368
16995TIP3    H172400   0.206   2.288   1.101  0.4930 -0.9498  0.1316
16995TIP3    H272401   0.165   2.410   1.182 -0.2690  0.0804 -1.7319
16996TIP3   OH272402   5.776   6.609  15.038  0.3370 -0.6120  0.3166
16996TIP3    H172403   5.697   6.567  15.006  0.0019 -0.1443  0.5166
16996TIP3    H272404   5.839   6.538  15.049 -0.2346 -1.0605  0.7003
16997TIP3   OH272405   4.022   3.660  14.780 -0.2679  0.4265  0.7892
16997TIP3    H172406   4.079   3.587  14.803 -0.4871  0.2706  0.8503
16997TIP3    H272407   4.066   3.703  14.707  0.0544  0.4665  1.0075
16998TIP3   OH272408   1.685   1.969   6.253 -0.1770 -0.0800  0.0109
16998TIP3    H172409   1.660   2.034   6.188  0.9420 -1.0516 -1.4589
16998TIP3    H272410   1.778   1.951   6.235 -0.2350 -1.4738  0.9062
16999TIP3   OH272411   1.863   0.209  16.183  0.0688  0.1590  0.4952
16999TIP3    H172412   1.874   0.236  16.274  1.0440  1.5638 -0.0088
16999TIP3    H272413   1.839   0.290  16.137  1.2335 -0.1743 -0.7663
17000TIP3   OH272414   0.637   4.597  11.834 -0.1106 -0.2351  0.1381
17000TIP3    H172415   0.672   4.682  11.806 -0.5493 -0.4227 -1.0292
17000TIP3    H272416   0.542   4.605  11.825 -0.1788 -0.7399  0.3481
17001TIP3   OH272417   1.147   3.828   3.096  0.0704  0.2455 -0.3412
17001TIP3    H172418   1.072   3.878   3.128  1.8206  3.2101 -0.4936
17001TIP3    H272419   1.150   3.848   3.002  0.3319 -0.8983 -0.5920
17002TIP3   OH272420   5.035   3.795  15.350  0.3868  0.2947 -0.0787
17002TIP3    H172421   5.082   3.746  15.417 -1.2671  1.0784  1.7725
17002TIP3    H272422   4.974   3.732  15.311 -1.4436  0.6503  2.0056
17003TIP3   OH272423   3.455   4.721   5.225 -0.0541 -0.5353  0.4445
17003TIP3    H172424   3.414   4.658   5.284 -1.6396 -0.1754 -0.2242
17003TIP3    H272425   3.461   4.675   5.141 -1.0981  0.1521 -0.0121
17004TIP3   OH272426   5.819   6.254  12.578  0.5658 -0.0020  0.3819
17004TIP3    H172427   5.805   6.310  12.655  0.6632  0.1241  0.3065
17004TIP3    H272428   5.732   6.247  12.539  1.0239  2.6949 -1.4206
17005TIP3   OH272429   1.967   0.359   1.261  0.2138  0.4772 -0.1485
17005TIP3    H172430   2.004   0.445   1.240  1.5523  0.2331  1.0392
17005TIP3    H272431   1.980   0.349   1.355 -1.7582 -0.2060  0.1021
17006TIP3   OH272432   1.090   4.790  11.089  0.1474 -0.0332 -0.1753
17006TIP3    H172433   1.068   4.881  11.066 -0.5156  0.1923  1.2278
17006TIP3    H272434   1.011   4.740  11.066  0.6925 -0.3716 -1.4203
17007TIP3   OH272435   2.252   1.065  15.399  0.6727  0.0682  0.4719
17007TIP3    H172436   2.287   1.047  15.312  0.0111 -3.5603  0.7599
17007TIP3    H272437   2.158   1.079  15.385  0.5593 -0.5548  0.5594
17008TIP3   OH272438   6.498   5.633  16.199 -0.1011 -0.5275  0.1085
17008TIP3    H172439   6.439   5.580  16.254 -0.4265 -0.2363  0.0406
17008TIP3    H272440   6.536   5.570  16.138 -0.9740 -0.5863 -0.3948
17009TIP3   OH272441   3.806   1.594  15.764  0.1250 -0.4164 -0.0470
17009TIP3    H172442   3.744   1.646  15.814  0.3690  0.0050 -0.1776
17009TIP3    H272443   3.892   1.623  15.794  0.2910 -2.2325  1.4205
17010TIP3   OH272444   5.945   4.618   1.399 -0.4631 -0.2048  0.5801
17010TIP3    H172445   5.947   4.595   1.492 -2.2435  0.6255  0.8769
17010TIP3    H272446   5.856   4.595   1.372 -0.2240  0.3466 -0.7133
17011TIP3   OH272447   2.930   1.717   3.943 -0.4900 -0.5122  0.7205
17011TIP3    H172448   2.913   1.762   3.860  2.5931  1.9904  1.2618
17011TIP3    H272449   2.977   1.638   3.918  1.6262  0.8784  0.0042
17012TIP3   OH272450   5.150   2.580  13.235 -0.6866 -0.3919  0.2086
17012TIP3    H172451   5.102   2.657  13.266 -1.9094 -0.4837 -1.3287
17012TIP3    H272452   5.176   2.535  13.315 -0.6417  1.1802  1.1358
17013TIP3   OH272453   4.423   5.727   4.558 -0.7771  0.1549 -0.6418
17013TIP3    H172454   4.461   5.804   4.515 -0.0346 -0.8212 -1.8264
17013TIP3    H272455   4.452   5.654   4.504 -3.7149 -0.7484 -1.1568
17014TIP3   OH272456   0.119   4.728   4.665 -0.3341 -0.0881  0.1337
17014TIP3    H172457   0.203   4.697   4.698 -0.3780  1.2389  1.5704
17014TIP3    H272458   0.055   4.664   4.696 -0.0641 -0.1878  0.4794
17015TIP3   OH272459   1.660   4.265  13.368 -0.5904  0.0177 -0.0199
17015TIP3    H172460   1.646   4.171  13.353  0.2536 -0.0713 -0.3027
17015TIP3    H272461   1.597   4.308  13.311  0.1800 -0.3686 -1.1956
17016TIP3   OH272462   1.936   4.343  11.325 -0.6038  0.2499 -0.3101
17016TIP3    H172463   2.010   4.351  11.264  0.5628  1.0059  1.1192
17016TIP3    H272464   1.922   4.249  11.334 -0.1239  0.1076 -0.9685
17017TIP3   OH272465   4.918   2.768  12.455 -0.1507 -0.2615 -0.6630
17017TIP3    H172466   4.946   2.838  12.397  1.2616 -0.1262  0.1520
17017TIP3    H272467   4.971   2.778  12.534 -0.7701 -1.5170 -0.0418
17018TIP3   OH272468   1.397   5.481  15.421  0.0184 -0.2840  0.0184
17018TIP3    H172469   1.433   5.544  15.358  2.5966  0.2630  1.8573
17018TIP3    H272470   1.303   5.480  15.403  0.5188  0.3820 -3.2866
17019TIP3   OH272471   3.967   1.429   0.207 -0.0163  0.0646  0.1154
17019TIP3    H172472   3.967   1.402   0.299 -0.1285 -1.6666 -0.3499
17019TIP3    H272473   3.957   1.347   0.159 -1.0430  1.0461 -1.4212
17020TIP3   OH272474   1.715   4.500  11.352  0.2764  0.1956  0.1726
17020TIP3    H172475   1.712   4.528  11.260 -0.0408  0.2914  0.2114
17020TIP3    H272476   1.788   4.439  11.356  1.4369  1.5196  0.2120
17021TIP3   OH272477   3.776   2.124   4.309  0.6202  0.3290 -0.1073
17021TIP3    H172478   3.833   2.191   4.347  0.9306 -0.2299  0.4265
17021TIP3    H272479   3.739   2.166   4.231  0.8477  1.1010  0.1893
17022TIP3   OH272480   3.575   0.488  14.911  0.7521 -0.8678  0.3585
17022TIP3    H172481   3.603   0.445  14.830  1.4249 -2.3237  1.3133
17022TIP3    H272482   3.640   0.461  14.976  1.3352  1.7854  1.0261
17023TIP3   OH272483   1.788   0.620  11.028  0.7162 -0.1228 -0.4059
17023TIP3    H172484   1.732   0.612  10.951  1.1060  1.2277 -0.8507
17023TIP3    H272485   1.845   0.694  11.009 -0.3890  1.4360  1.9207
17024TIP3   OH272486   2.731   6.327   0.530 -0.2656 -0.4705 -0.0944
17024TIP3    H172487   2.825   6.342   0.534  0.0134 -1.5994 -1.5257
17024TIP3    H272488   2.718   6.244   0.576 -0.5965 -0.2698  0.1865
17025TIP3   OH272489   2.310   5.000  16.185  0.0946  0.2117  0.2236
17025TIP3    H172490   2.357   5.013  16.102 -0.3082  2.0166  0.2382
17025TIP3    H272491   2.222   4.975  16.158  0.0720  0.3998  0.1239
17026TIP3   OH272492   6.174   4.545   0.652  0.5860 -0.3824 -0.2106
17026TIP3    H172493   6.224   4.611   0.604 -1.3576  0.4504 -1.1720
17026TIP3    H272494   6.155   4.585   0.736  1.8003 -0.8522  0.3140
17027TIP3   OH272495   5.671   5.538   5.933 -0.1207 -0.1647 -0.5886
17027TIP3    H172496   5.615   5.475   5.979  0.5569  0.4771  1.1748
17027TIP3    H272497   5.609   5.595   5.887 -0.9123 -0.0160  0.6099
17028TIP3   OH272498   2.667   5.312  15.506  0.5913 -0.0183  0.1945
17028TIP3    H172499   2.756   5.311  15.470  0.4516 -0.5709 -0.1551
17028TIP3    H272500   2.628   5.393  15.473 -0.2784 -1.4885 -2.8138
17029TIP3   OH272501   1.024   6.090  15.673 -0.2081  0.0566  0.0118
17029TIP3    H172502   1.089   6.141  15.626 -1.4615  2.2442  0.5149
17029TIP3    H272503   1.063   6.072  15.758  0.7039 -0.9308 -0.5807
17030TIP3   OH272504   6.742   3.365   2.557 -0.0160  0.0371  0.5647
17030TIP3    H172505   6.776   3.386   2.644  0.2008 -0.5945  0.6371
17030TIP3    H272506   6.788   3.285   2.532  0.7088  0.7889 -0.5908
17031TIP3   OH272507   5.201   6.142  15.427  0.0168  0.5262  0.5498
17031TIP3    H172508   5.202   6.155  15.522 -0.2472  1.0460  0.4843
17031TIP3    H272509   5.114   6.171  15.400 -0.2135 -0.4016  0.2547
17032TIP3   OH272510   3.896   2.391  10.247  0.6645 -0.5542  0.8316
17032TIP3    H172511   3.808   2.404  10.283 -0.1303  0.9277 -1.4595
17032TIP3    H272512   3.890   2.309  10.198 -0.3705  0.9181 -1.6814
17033TIP3   OH272513   0.583   1.181   3.453  0.6266  0.6365  0.0222
17033TIP3    H172514   0.596   1.155   3.362 -2.5038 -1.7285  0.0922
17033TIP3    H272515   0.655   1.140   3.501  0.5577 -0.7637 -1.0217
17034TIP3   OH272516   4.946   1.259  15.775 -0.4477  0.3345 -0.1601
17034TIP3    H172517   4.931   1.180  15.724 -0.2915 -0.2083  0.6141
17034TIP3    H272518   5.027   1.296  15.740  0.3102 -0.6708  0.4433
17035TIP3   OH272519   0.815   2.472   5.054  0.4892  0.2421  0.6829
17035TIP3    H172520   0.766   2.551   5.075  0.3943  0.1691  0.7371
17035TIP3    H272521   0.904   2.503   5.038  0.4112  0.3831  0.5154
17036TIP3   OH272522   6.345   2.346  12.077 -0.4332 -0.2993 -0.1450
17036TIP3    H172523   6.286   2.362  12.151  1.2802  2.8314  0.7119
17036TIP3    H272524   6.335   2.424  12.022  2.1248 -0.1082 -0.4552
17037TIP3   OH272525   1.078   5.638   2.364  0.0024  0.5130  0.8197
17037TIP3    H172526   1.153   5.599   2.319 -1.8173  0.2229 -2.1576
17037TIP3    H272527   1.079   5.729   2.337 -1.3402  0.2473 -0.2030
17038TIP3   OH272528   4.352   5.329  11.539  0.1215 -0.0243  0.2994
17038TIP3    H172529   4.411   5.370  11.476 -0.7626  2.4307  0.9623
17038TIP3    H272530   4.329   5.245  11.499 -0.4132  1.4077 -2.6880
17039TIP3   OH272531   1.196   2.710  13.857 -0.1457  0.0173 -0.0588
17039TIP3    H172532   1.176   2.698  13.950 -2.3663  2.1487 -0.1706
17039TIP3    H272533   1.110   2.717  13.815  0.7990  1.7427 -1.8612
17040TIP3   OH272534   0.070   6.008   2.883 -0.0579  0.2221  0.1756
17040TIP3    H172535   0.107   6.052   2.959 -1.4127 -2.4978  2.5998
17040TIP3    H272536   0.134   5.941   2.860  0.4694  1.1870 -1.3732
17041TIP3   OH272537   3.019   3.623   6.191 -0.1450  0.0032 -0.0365
17041TIP3    H172538   3.029   3.653   6.281 -1.0848  0.6239 -0.1277
17041TIP3    H272539   2.944   3.563   6.194 -1.4537  1.5404 -0.7284
17042TIP3   OH272540   5.178   3.186  16.598 -0.2258  0.4893 -0.6860
17042TIP3    H172541   5.118   3.255  16.627 -0.7930 -0.2310 -0.1012
17042TIP3    H272542   5.138   3.104  16.629  0.2895 -0.1321 -1.5945
17043TIP3   OH272543   0.438   2.402   4.047 -0.5709  0.1259 -0.3374
17043TIP3    H172544   0.372   2.444   4.103 -0.2652 -0.8066  0.7615
17043TIP3    H272545   0.394   2.324   4.013 -1.2944  1.4795 -2.7520
17044TIP3   OH272546   3.005   1.791   1.390 -0.4344 -0.0101 -1.1099
17044TIP3    H172547   2.997   1.702   1.424 -0.0793 -0.3979 -2.0011
17044TIP3    H272548   2.917   1.828   1.396 -0.4140 -0.1278  0.0319
17045TIP3   OH272549   0.677   0.080   4.664 -0.1081 -0.4403  0.5265
17045TIP3    H172550   0.655  -0.012   4.648  1.0937 -0.4774 -1.1153
17045TIP3    H272551   0.637   0.127   4.591 -0.9897  0.4222  1.5245
17046TIP3   OH272552   6.225   3.860  11.889 -0.0857 -0.8591 -0.2829
17046TIP3    H172553   6.219   3.940  11.941  1.7307 -1.0829  0.3739
17046TIP3    H272554   6.147   3.810  11.912 -0.8406  0.3649 -0.0861
17047TIP3   OH272555   0.406   6.075   3.778 -0.5093  0.2309 -0.1223
17047TIP3    H172556   0.335   6.049   3.837  0.4244 -2.5847 -0.0793
17047TIP3    H272557   0.364   6.085   3.692 -1.5718  2.6190  0.5937
17048TIP3   OH272558   2.112   1.364  11.231  0.1602  0.6525  0.7732
17048TIP3    H172559   2.190   1.332  11.186 -1.8988 -0.9740 -1.9686
17048TIP3    H272560   2.092   1.448  11.189  0.7034  1.3747  1.8998
17049TIP3   OH272561   6.707   1.234  16.982 -0.1909 -0.0288 -0.0030
17049TIP3    H172562   6.781   1.245  17.042 -0.3496  0.8044  0.0583
17049TIP3    H272563   6.666   1.321  16.979  0.1419  0.0922 -1.7405
17050TIP3   OH272564   0.794   6.540   5.097 -0.2849  0.0979  0.3914
17050TIP3    H172565   0.889   6.540   5.104 -0.2756  0.5095  0.2837
17050TIP3    H272566   0.776   6.502   5.011 -0.2136  0.1549  0.3514
17051TIP3   OH272567   5.986   3.784   4.764 -0.5715 -0.2323 -0.1851
17051TIP3    H172568   5.983   3.878   4.747  1.1841 -0.3584 -1.5462
17051TIP3    H272569   5.939   3.772   4.846 -2.5934  1.5559 -0.9925
17052TIP3   OH272570   0.928   3.326  12.597 -0.3456  0.5043 -0.3005
17052TIP3    H172571   1.009   3.353  12.555  0.4568  1.5432  1.8059
17052TIP3    H272572   0.953   3.300  12.685 -2.2058  0.0767  0.1566
17053TIP3   OH272573   3.629   2.113  13.300 -0.1520  0.2986  0.2950
17053TIP3    H172574   3.640   2.197  13.254 -0.2211 -0.0077 -0.3005
17053TIP3    H272575   3.613   2.050  13.229 -0.3916 -0.1642  0.7613
17054TIP3   OH272576   6.017   6.431  15.433  0.6074 -0.5759 -0.1885
17054TIP3    H172577   6.016   6.452  15.340  0.5304 -1.6035 -0.4337
17054TIP3    H272578   6.106   6.398  15.449 -0.6344 -5.0933 -1.0681
17055TIP3   OH272579   2.002   5.098   2.608 -0.1710  0.1769  0.4434
17055TIP3    H172580   1.966   5.092   2.520  0.7055 -0.9308  0.1504
17055TIP3    H272581   2.044   5.184   2.611 -2.4588  1.3839  0.6834
17056TIP3   OH272582   2.563   4.149  15.170 -0.4629 -0.1158 -0.1361
17056TIP3    H172583   2.548   4.069  15.120 -0.2422 -1.1131  1.3536
17056TIP3    H272584   2.624   4.200  15.116  0.8521 -1.7675 -0.2787
17057TIP3   OH272585   3.358   0.203   4.255 -0.4826  0.0126  0.0396
17057TIP3    H172586   3.403   0.129   4.215 -0.6499  0.9336 -2.0226
17057TIP3    H272587   3.415   0.232   4.325  1.5693  0.3271 -1.6553
17058TIP3   OH272588   3.894   4.419   1.045 -0.7076  0.8294  0.0076
17058TIP3    H172589   3.937   4.356   1.102 -1.6369 -0.5914 -0.8153
17058TIP3    H272590   3.957   4.491   1.037  2.5153 -1.9150 -2.6737
17059TIP3   OH272591   2.461   0.003   3.553 -0.5572  0.3622  0.1352
17059TIP3    H172592   2.476   0.073   3.490  0.0748  0.3154  0.2339
17059TIP3    H272593   2.368  -0.018   3.543 -0.4316  0.2549 -0.8793
17060TIP3   OH272594   4.684   0.447   5.939 -0.1349 -0.1026 -0.0519
17060TIP3    H172595   4.682   0.517   5.874 -0.6045 -0.2750 -0.2250
17060TIP3    H272596   4.658   0.489   6.021 -1.8083 -0.3399 -0.4209
17061TIP3   OH272597   1.660   6.599   5.528 -0.2496 -0.4416  0.0149
17061TIP3    H172598   1.695   6.678   5.568  0.2292 -0.3665 -0.5401
17061TIP3    H272599   1.645   6.623   5.436 -1.1819 -0.6540  0.0973
17062TIP3   OH272600   6.758   1.318  12.000  0.8843 -0.0191 -0.0505
17062TIP3    H172601   6.732   1.267  11.923 -0.1908  0.4367 -0.0067
17062TIP3    H272602   6.692   1.297  12.066  0.7648  0.9693  0.1596
17063TIP3   OH272603   0.599   4.315   0.402 -0.1520  0.4164  0.0515
17063TIP3    H172604   0.533   4.380   0.427 -1.1098 -0.8825  1.0649
17063TIP3    H272605   0.548   4.240   0.373  0.9387  0.4022 -2.0086
17064TIP3   OH272606   1.730   4.481   0.595  0.7988  0.3274  0.5527
17064TIP3    H172607   1.643   4.500   0.560 -0.7001 -3.3611  1.8105
17064TIP3    H272608   1.778   4.443   0.521 -0.1978 -1.5465  0.7993
17065TIP3   OH272609   4.283   0.046   4.951  0.1951  0.4854  0.1924
17065TIP3    H172610   4.243   0.047   5.038 -0.0025  2.6114  0.1279
17065TIP3    H272611   4.220   0.092   4.895 -0.8435 -2.8947 -1.6922
17066TIP3   OH272612   3.120   1.183  12.254  0.3636 -0.0496 -0.0838
17066TIP3    H172613   3.152   1.218  12.337  0.4762 -0.8262  0.2027
17066TIP3    H272614   3.174   1.225  12.187  1.3512 -0.6373  0.3371
17067TIP3   OH272615   2.437   0.608   2.763 -0.7927  0.8070 -0.4001
17067TIP3    H172616   2.387   0.532   2.792  1.1843 -0.2551  0.3629
17067TIP3    H272617   2.507   0.618   2.828  1.3120  0.8890 -2.5348
17068TIP3   OH272618   4.355   2.976   2.186  0.2277  0.8752 -0.3358
17068TIP3    H172619   4.287   2.975   2.118 -1.6448 -1.1147  1.3927
17068TIP3    H272620   4.430   2.932   2.145  0.5637  3.0205 -2.2478
17069TIP3   OH272621   5.992   4.507   3.287  0.1632  0.2572  0.6163
17069TIP3    H172622   5.972   4.414   3.297  0.9762  0.0089  0.0318
17069TIP3    H272623   5.907   4.550   3.282 -0.2187 -0.4978  0.5014
17070TIP3   OH272624   4.247   1.529  14.717  0.0160  0.2450 -0.0644
17070TIP3    H172625   4.186   1.533  14.643  0.5449  1.9303 -0.4544
17070TIP3    H272626   4.195   1.554  14.793 -0.1287  0.2145 -0.1531
17071TIP3   OH272627   4.849   1.615   0.172  0.7455  0.3378 -0.4938
17071TIP3    H172628   4.816   1.705   0.167  0.3943  0.1910 -0.8623
17071TIP3    H272629   4.824   1.585   0.260 -2.0572 -0.4954 -1.4464
17072TIP3   OH272630   6.184   1.442  14.434  0.2248  0.2607 -0.0257
17072TIP3    H172631   6.244   1.517  14.436  0.5200  0.0792 -1.3150
17072TIP3    H272632   6.221   1.380  14.496  0.7535  0.6048  0.0121
17073TIP3   OH272633   4.066   5.710   2.570 -0.8341  0.1548  0.1819
17073TIP3    H172634   4.074   5.800   2.602  1.1033  0.9088 -2.1334
17073TIP3    H272635   3.979   5.706   2.531 -0.6015  1.3998 -0.5430
17074TIP3   OH272636   5.535   4.180   1.454  0.4574  0.0482  0.1202
17074TIP3    H172637   5.534   4.264   1.500 -1.1242 -1.0530  2.2758
17074TIP3    H272638   5.595   4.125   1.504  0.3325 -0.5519 -0.3721
17075TIP3   OH272639   4.819   5.027   0.333 -0.2956 -0.1759 -0.2317
17075TIP3    H172640   4.840   5.107   0.381 -0.1372 -1.2322  1.5581
17075TIP3    H272641   4.750   5.052   0.272  0.1827  1.4441 -0.1453
17076TIP3   OH272642   3.021   5.420   1.218  0.0656 -0.0413 -0.1054
17076TIP3    H172643   3.038   5.327   1.200  2.2698  0.4209 -0.7799
17076TIP3    H272644   3.031   5.428   1.313  0.7766 -0.3561 -0.1464
17077TIP3   OH272645   6.246   2.903  11.866 -0.0907  0.5504 -0.4123
17077TIP3    H172646   6.340   2.915  11.875  0.2181 -1.6327 -0.2895
17077TIP3    H272647   6.211   2.915  11.954  0.3490 -0.5580 -0.0686
17078TIP3   OH272648   3.711   4.842  16.246 -0.1606 -0.3799  0.7206
17078TIP3    H172649   3.666   4.774  16.297  1.7595 -1.8884  0.5307
17078TIP3    H272650   3.679   4.830  16.156 -0.0607 -0.8396  0.7458
17079TIP3   OH272651   2.376   2.695   2.027  0.3465 -0.8363 -0.1696
17079TIP3    H172652   2.306   2.632   2.049 -0.0890 -0.1343  0.5210
17079TIP3    H272653   2.450   2.667   2.080  0.2687 -0.9899 -0.1406
17080TIP3   OH272654   6.619   3.583  11.748  0.0629 -0.0177 -0.2156
17080TIP3    H172655   6.589   3.659  11.798  1.6844  1.2894 -1.1316
17080TIP3    H272656   6.711   3.572  11.774 -0.3847 -2.3710  0.6847
17081TIP3   OH272657   6.629   3.976  17.235  0.0917  0.0539 -0.7711
17081TIP3    H172658   6.616   3.922  17.157 -0.3242 -1.8692  0.5572
17081TIP3    H272659   6.718   4.010  17.227  0.3955 -0.9251 -1.6096
17082TIP3   OH272660   6.523   2.546  12.621  0.0231 -0.1249  0.0064
17082TIP3    H172661   6.429   2.543  12.638 -0.1280 -2.0616 -0.9058
17082TIP3    H272662   6.535   2.490  12.544  1.8866  0.3670 -0.1045
17083TIP3   OH272663   1.301   2.294   4.527 -0.2392 -0.1120  0.6901
17083TIP3    H172664   1.362   2.242   4.579  0.7389  0.0333 -0.2709
17083TIP3    H272665   1.342   2.301   4.441 -1.8557 -0.4248 -0.1498
17084TIP3   OH272666   0.254   4.540  12.046  0.1863 -0.5915  0.6828
17084TIP3    H172667   0.273   4.615  12.103  0.7323 -0.2584  0.0826
17084TIP3    H272668   0.257   4.464  12.104 -1.6276 -0.0601  1.5612
17085TIP3   OH272669   3.616   3.447   0.861  0.0324  0.3414 -0.3786
17085TIP3    H172670   3.653   3.359   0.853 -1.9359 -0.5110 -0.7005
17085TIP3    H272671   3.651   3.481   0.943 -0.4832 -1.4335  0.6235
17086TIP3   OH272672   5.587   2.243  15.979  0.0989  0.2955 -0.7579
17086TIP3    H172673   5.665   2.232  16.034  0.4192  1.1694 -1.0250
17086TIP3    H272674   5.515   2.209  16.033  0.7716 -1.3950 -0.8649
17087TIP3   OH272675   4.094   5.110  16.448 -0.5805 -0.4974  0.0772
17087TIP3    H172676   4.123   5.048  16.515  0.4257  2.1864  2.3605
17087TIP3    H272677   4.152   5.094  16.374  0.8356 -1.1497  1.2672
17088TIP3   OH272678   4.279   5.510   6.090 -0.3215  0.6932 -0.0740
17088TIP3    H172679   4.332   5.439   6.125  0.5393  1.8777  1.1084
17088TIP3    H272680   4.278   5.576   6.159 -2.6313  1.0891 -0.3935
17089TIP3   OH272681   5.301   0.590  14.258  0.4556  0.0296 -0.3496
17089TIP3    H172682   5.345   0.671  14.283 -1.2574  0.6020  1.0185
17089TIP3    H272683   5.318   0.530  14.331  1.1035 -0.6300 -1.0196
17090TIP3   OH272684   3.166   4.565  12.697 -0.2661 -0.4858 -0.2872
17090TIP3    H172685   3.075   4.586  12.678 -1.0301 -1.4625  1.9057
17090TIP3    H272686   3.178   4.476  12.663 -0.9566 -1.3539  1.5985
17091TIP3   OH272687   4.619   4.870   4.104  0.4899  0.1213 -0.1867
17091TIP3    H172688   4.698   4.871   4.158  0.3950 -0.3210 -0.0341
17091TIP3    H272689   4.582   4.958   4.113  0.0136 -0.1966  1.1581
17092TIP3   OH272690   0.454   6.343   1.913 -0.4419  0.0039  0.1333
17092TIP3    H172691   0.435   6.255   1.946  1.6704 -0.2521  0.8208
17092TIP3    H272692   0.499   6.327   1.830  1.1152  0.3349  0.8740
17093TIP3   OH272693   1.683   6.735  12.132  0.2808  0.0457 -0.1650
17093TIP3    H172694   1.724   6.712  12.049  1.0864  0.9888 -0.0506
17093TIP3    H272695   1.754   6.729  12.196 -0.5596 -1.6495  0.6416
17094TIP3   OH272696   1.323   2.933  13.784  0.6140  0.8692  0.0026
17094TIP3    H172697   1.244   2.932  13.837  0.8612 -0.3818  0.3855
17094TIP3    H272698   1.395   2.943  13.847  0.8495  0.3489 -0.1759
17095TIP3   OH272699   4.254   4.202   5.812  0.3553 -0.2551  0.7271
17095TIP3    H172700   4.265   4.288   5.771  2.0586 -1.5270 -1.7489
17095TIP3    H272701   4.341   4.181   5.846  0.1406 -1.3209  0.6343
17096TIP3   OH272702   2.086   2.341   1.552  0.1176 -0.4873 -0.2681
17096TIP3    H172703   1.994   2.366   1.566  0.5366  1.2550 -0.3644
17096TIP3    H272704   2.132   2.373   1.629  0.7749 -0.6025 -0.6063
17097TIP3   OH272705   1.243   5.499   0.914  0.7495  0.2776  0.0370
17097TIP3    H172706   1.167   5.549   0.885  1.6676  1.6037 -0.2150
17097TIP3    H272707   1.208   5.430   0.969 -0.8983 -1.0388 -2.5021
17098TIP3   OH272708   5.905   0.509   0.988  0.0561  0.3314 -0.6671
17098TIP3    H172709   5.863   0.535   1.070  0.0145 -0.9393 -0.2707
17098TIP3    H272710   5.983   0.566   0.982 -1.4554  2.4701 -1.2365
17099TIP3   OH272711   2.056   4.100   3.273 -0.0537  0.1901 -0.6533
17099TIP3    H172712   2.051   4.014   3.229 -0.4375 -0.1554  0.0548
17099TIP3    H272713   1.966   4.134   3.269 -0.1470  0.0479  0.0619
17100TIP3   OH272714   1.441   6.781  16.495 -0.0877 -0.3098 -0.1977
17100TIP3    H172715   1.422   6.712  16.558  0.9018 -1.5981 -1.2652
17100TIP3    H272716   1.426   6.862  16.544  0.2010 -1.2626  1.5527
17101TIP3   OH272717   0.081   0.912  16.766 -0.5032 -0.0024 -0.1850
17101TIP3    H172718   0.022   0.837  16.775  1.0285 -1.2353  0.1199
17101TIP3    H272719   0.136   0.908  16.844  0.9808  0.1707 -1.1798
17102TIP3   OH272720   5.166   4.618   5.638 -0.4814  0.2281  0.2216
17102TIP3    H172721   5.163   4.692   5.698  0.0951 -0.0506  0.6089
17102TIP3    H272722   5.128   4.651   5.557 -2.5169  0.2180  1.1243
17103TIP3   OH272723   5.363   5.673   5.711  0.0160 -0.1287  0.1848
17103TIP3    H172724   5.325   5.587   5.730  3.6370 -1.8795  0.4919
17103TIP3    H272725   5.387   5.708   5.796  1.4466 -0.3788 -0.0792
17104TIP3   OH272726   5.517   2.987   1.041 -0.5266  0.6217 -0.0957
17104TIP3    H172727   5.523   2.922   0.971  0.6064 -0.6167  1.0968
17104TIP3    H272728   5.530   2.937   1.121  0.5627  2.3460  0.8550
17105TIP3   OH272729   4.978   1.718  14.135  0.0637  0.1329 -0.4438
17105TIP3    H172730   5.016   1.731  14.222 -2.3449 -1.0756  0.8966
17105TIP3    H272731   5.052   1.695  14.080  1.6679  0.8874  1.2810
17106TIP3   OH272732   3.040   4.622  11.678  0.3613  0.0975  0.9913
17106TIP3    H172733   2.974   4.674  11.633  0.0183 -0.7498  0.4928
17106TIP3    H272734   3.040   4.538  11.632  1.3790 -0.1137  1.3527
17107TIP3   OH272735   4.898   1.869  15.432  0.0463 -0.0250  0.1723
17107TIP3    H172736   4.993   1.865  15.420 -0.0969 -0.9606 -0.7678
17107TIP3    H272737   4.863   1.883  15.344 -0.7244 -0.4311  0.4019
17108TIP3   OH272738   5.387   6.541   3.637 -0.4001 -0.8203 -0.1994
17108TIP3    H172739   5.439   6.495   3.703 -0.6176 -0.8502 -0.0473
17108TIP3    H272740   5.448   6.604   3.598 -0.3467 -0.6001  0.2339
17109TIP3   OH272741   1.705   2.252  13.545 -0.2419  0.8471 -0.4291
17109TIP3    H172742   1.718   2.339  13.582 -2.1851  0.9653  0.0720
17109TIP3    H272743   1.629   2.261  13.487 -0.4647 -0.4979 -0.3837
17110TIP3   OH272744   2.312   4.170  14.472  0.1458  0.1176 -0.1183
17110TIP3    H172745   2.263   4.087  14.469  1.3148 -0.6231  0.4484
17110TIP3    H272746   2.270   4.225  14.406 -0.5554 -0.9829 -0.6265
17111TIP3   OH272747   4.638   2.885  12.173 -0.6187  0.1170  0.5647
17111TIP3    H172748   4.627   2.860  12.081  1.4794  0.6203  0.1180
17111TIP3    H272749   4.674   2.974  12.169  0.1469 -0.1175  1.8573
17112TIP3   OH272750   6.366   2.798   0.445  0.1497 -0.3432  0.1451
17112TIP3    H172751   6.383   2.704   0.431 -0.9705 -0.7356  1.2775
17112TIP3    H272752   6.274   2.809   0.420  0.3833  0.5501 -0.3574
17113TIP3   OH272753   2.181   0.680  12.633  0.5415  0.4726 -0.4212
17113TIP3    H172754   2.142   0.720  12.711 -1.3497 -0.3321 -0.8921
17113TIP3    H272755   2.110   0.678  12.569  1.9423  0.7834 -2.0766
17114TIP3   OH272756   1.080   0.856   4.047 -0.0133  0.2337  0.2020
17114TIP3    H172757   0.992   0.894   4.048  0.2064  0.7566  0.4935
17114TIP3    H272758   1.087   0.808   4.130 -0.7063 -1.4642 -0.6787
17115TIP3   OH272759   4.522   6.511   2.431 -0.0272 -0.0916  0.5897
17115TIP3    H172760   4.488   6.535   2.344  0.4798 -1.8041 -0.1228
17115TIP3    H272761   4.471   6.434   2.455 -0.1460  0.3597  1.8348
17116TIP3   OH272762   3.122   5.988   0.499 -0.4375 -0.1934  0.6040
17116TIP3    H172763   3.200   5.990   0.442 -0.3069 -0.9904  0.7511
17116TIP3    H272764   3.080   5.904   0.480 -1.2668  0.2280  0.5320
17117TIP3   OH272765   2.009   3.258   5.282 -0.3408  0.3487 -0.2521
17117TIP3    H172766   2.059   3.335   5.308 -0.8227  0.5435  0.1051
17117TIP3    H272767   1.955   3.237   5.359  0.9104 -1.2788  0.2509
17118TIP3   OH272768   3.204   4.635   5.384 -0.3708 -0.4985  0.1766
17118TIP3    H172769   3.170   4.546   5.371 -1.3065 -0.0240 -0.7056
17118TIP3    H272770   3.183   4.655   5.475 -0.9397 -0.8502  0.1275
17119TIP3   OH272771   5.612   5.566  16.645 -0.3739 -0.1141  0.8750
17119TIP3    H172772   5.563   5.600  16.570  0.3820  1.5517  1.0999
17119TIP3    H272773   5.545   5.550  16.712 -0.7585  0.9796  0.7662
17120TIP3   OH272774   6.682   3.502  13.846 -0.3043  0.0627  0.0181
17120TIP3    H172775   6.620   3.535  13.781  0.3020  1.3562  0.0733
17120TIP3    H272776   6.635   3.507  13.929 -0.1387  1.0650  0.0636
17121TIP3   OH272777   5.334   4.803   4.039  0.2636 -0.0941  0.2645
17121TIP3    H172778   5.244   4.781   4.066  1.5366 -1.0182  4.6429
17121TIP3    H272779   5.389   4.744   4.091  3.4834  1.1565 -1.4706
17122TIP3   OH272780   2.987   3.248   2.292  0.1218  0.7855  0.7473
17122TIP3    H172781   3.010   3.318   2.232  0.4110  2.2994  2.5342
17122TIP3    H272782   3.071   3.218   2.327 -0.1570  1.8257  2.4035
17123TIP3   OH272783   2.412   5.853   3.072  0.2921 -0.6236 -0.1891
17123TIP3    H172784   2.332   5.865   3.123 -1.1942 -0.5656 -2.3733
17123TIP3    H272785   2.395   5.901   2.991  2.9006  0.0754 -0.4005
17124TIP3   OH272786   6.260   2.545   0.436 -0.0642 -0.2234 -0.2371
17124TIP3    H172787   6.193   2.480   0.456  0.7503 -0.7964  0.6728
17124TIP3    H272788   6.343   2.503   0.458  0.5203  0.9320 -0.1401
17125TIP3   OH272789   1.888   1.566   5.554  0.2056 -0.2726 -0.2078
17125TIP3    H172790   1.899   1.471   5.547  0.9156 -0.2574  0.6260
17125TIP3    H272791   1.972   1.598   5.586 -0.9783  0.2615  2.6775
17126TIP3   OH272792   3.448   6.469  13.423 -0.1577  0.5098  0.3545
17126TIP3    H172793   3.515   6.410  13.389 -0.3288 -1.1501  2.7148
17126TIP3    H272794   3.382   6.473  13.354 -1.1791 -3.8377  0.8295
17127TIP3   OH272795   3.424   0.501   3.624 -0.4924 -0.0863 -0.0202
17127TIP3    H172796   3.473   0.423   3.650  0.7655  0.7350  0.1060
17127TIP3    H272797   3.353   0.466   3.569  2.5607 -1.0507 -3.7426
17128TIP3   OH272798   2.789   4.307   4.894 -0.0638  0.1799 -0.4502
17128TIP3    H172799   2.884   4.293   4.895 -0.1165 -0.1679 -0.2458
17128TIP3    H272800   2.779   4.402   4.887  0.2984  0.2160 -0.5115
17129TIP3   OH272801   1.063   5.687   0.821  0.0782  0.5551  0.0653
17129TIP3    H172802   1.153   5.718   0.816  0.1622  0.2724 -0.1893
17129TIP3    H272803   1.010   5.764   0.799  0.2986  0.4115 -0.9868
17130TIP3   OH272804   5.601   2.763  16.687 -0.6904 -0.4367  0.0820
17130TIP3    H172805   5.506   2.749  16.692 -0.4638 -2.7471 -0.6270
17130TIP3    H272806   5.634   2.731  16.771 -0.6037  1.8853  1.0163
17131TIP3   OH272807   0.508   0.503  14.217 -0.2593  0.6727 -0.2137
17131TIP3    H172808   0.437   0.447  14.249 -0.3252 -0.0854 -1.6119
17131TIP3    H272809   0.573   0.502  14.287 -0.1022 -1.4558 -0.3375
17132TIP3   OH272810   4.756   0.219   2.195 -0.1790 -0.2977 -1.2469
17132TIP3    H172811   4.826   0.155   2.182 -0.6755 -1.2214  0.2830
17132TIP3    H272812   4.798   0.304   2.186  1.1751 -0.8232 -0.3014
17133TIP3   OH272813   5.439   4.243   2.774  0.3722  0.7011  0.4146
17133TIP3    H172814   5.388   4.234   2.693  0.4630 -3.1409  0.5812
17133TIP3    H272815   5.529   4.255   2.744  0.2018  0.8972 -0.0275
17134TIP3   OH272816   2.560   1.117   3.280  0.4707 -0.4580  0.2890
17134TIP3    H172817   2.634   1.063   3.306  0.1910 -1.4335 -0.8717
17134TIP3    H272818   2.598   1.204   3.265  1.7567 -1.3070 -1.8849
17135TIP3   OH272819   2.101   0.075   0.708 -0.5787  0.3636 -0.6056
17135TIP3    H172820   2.092  -0.021   0.714  1.9383 -0.0162 -1.5246
17135TIP3    H272821   2.111   0.092   0.615 -1.2170  1.5830 -0.4685
17136TIP3   OH272822   5.043   6.266  12.183 -0.0681  0.4023  0.5271
17136TIP3    H172823   5.031   6.180  12.142 -0.9228  0.3684  0.8233
17136TIP3    H272824   5.114   6.306  12.134  0.2937 -0.4400  0.3317
17137TIP3   OH272825   2.113   1.505   0.468 -0.2172  0.1163  0.4222
17137TIP3    H172826   2.202   1.513   0.433  1.1751 -1.3111  3.3150
17137TIP3    H272827   2.072   1.438   0.414  0.8302  0.0315 -0.2875
17138TIP3   OH272828   2.785   0.149   4.363 -0.4498  0.0836 -0.2024
17138TIP3    H172829   2.696   0.186   4.364 -0.6227 -0.3249 -0.3514
17138TIP3    H272830   2.841   0.223   4.339 -0.7491  0.3468 -0.0996
17139TIP3   OH272831   5.207   0.709   0.149 -0.5017 -0.1015 -0.1352
17139TIP3    H172832   5.131   0.653   0.135 -0.8230  0.7516 -2.2490
17139TIP3    H272833   5.170   0.797   0.156  0.1467  0.0929  0.9335
17140TIP3   OH272834   6.510   4.806   0.258  0.5911 -0.5986  0.0249
17140TIP3    H172835   6.597   4.776   0.231 -0.5372 -4.4441 -0.0353
17140TIP3    H272836   6.457   4.800   0.179  0.0330  0.7878  0.2732
17141TIP3   OH272837   0.110   5.914   5.210 -0.1833  0.8711 -0.3127
17141TIP3    H172838   0.114   5.841   5.272  1.0170  2.2412  1.3346
17141TIP3    H272839   0.017   5.924   5.190 -0.4489 -0.5610  0.0976
17142TIP3   OH272840   4.669   3.584   0.969  0.2100  0.3164 -0.0600
17142TIP3    H172841   4.604   3.544   1.027 -1.1298  1.3748 -0.7596
17142TIP3    H272842   4.619   3.610   0.892  1.7520 -0.0961 -1.2357
17143TIP3   OH272843   2.382   2.396  13.012 -0.7262 -0.2489 -0.0866
17143TIP3    H172844   2.296   2.423  13.044  0.1544  2.3096  0.3589
17143TIP3    H272845   2.441   2.468  13.036  1.7520 -2.2724  0.3993
17144TIP3   OH272846   6.241   5.516  13.190  0.1148 -0.1258 -0.0182
17144TIP3    H172847   6.297   5.453  13.145 -2.1394 -1.5218 -1.0354
17144TIP3    H272848   6.302   5.572  13.238  2.7093  0.8028 -3.8632
17145TIP3   OH272849   1.501   5.462  16.449  0.1999  0.2510  0.3790
17145TIP3    H172850   1.535   5.509  16.525  0.8493 -3.1704  2.4443
17145TIP3    H272851   1.406   5.465  16.459  0.2398  0.8025  0.6321
17146TIP3   OH272852   4.024   4.515  13.759 -0.3540  0.2979  0.5338
17146TIP3    H172853   4.113   4.510  13.724 -0.7621 -1.5190 -0.3851
17146TIP3    H272854   4.034   4.555  13.845  1.5858 -1.3056  1.1293
17147TIP3   OH272855   0.679   4.798   3.567 -0.8970  0.2553 -0.0491
17147TIP3    H172856   0.661   4.856   3.641  1.3933 -1.6631  2.2069
17147TIP3    H272857   0.599   4.746   3.557 -1.4279  0.9096  0.7183
17148TIP3   OH272858   6.655   3.546  15.393  0.1336 -0.1430 -0.1754
17148TIP3    H172859   6.579   3.491  15.371 -0.1218  0.6633 -1.4095
17148TIP3    H272860   6.727   3.509  15.342  0.6397 -0.9960  1.1064
17149TIP3   OH272861   6.748   3.074  14.267  0.0153 -0.4145 -0.1741
17149TIP3    H172862   6.827   3.066  14.321 -0.3486 -1.5116  0.2189
17149TIP3    H272863   6.776   3.127  14.192  0.6177  0.8592  0.8943
17150TIP3   OH272864   0.484   0.338  16.224  0.2427 -0.0789 -0.3666
17150TIP3    H172865   0.556   0.386  16.264  1.0517 -1.1849 -0.4608
17150TIP3    H272866   0.517   0.248  16.214 -1.2985 -0.7137 -0.0075
17151TIP3   OH272867   5.729   3.562   1.595 -0.3667 -0.6267 -0.1370
17151TIP3    H172868   5.811   3.538   1.637  1.1037  0.6026 -2.1215
17151TIP3    H272869   5.665   3.564   1.666  2.3175  3.4799  2.5975
17152TIP3   OH272870   2.565   6.289   2.696 -0.2996  0.4050 -0.0155
17152TIP3    H172871   2.555   6.331   2.610  1.9716  0.6840 -0.2174
17152TIP3    H272872   2.565   6.196   2.676  1.6881  0.4771 -0.5950
17153TIP3   OH272873   5.463   4.741  13.280 -0.0292  0.8286 -0.1653
17153TIP3    H172874   5.418   4.801  13.341 -1.2340 -1.1237  0.9558
17153TIP3    H272875   5.491   4.668  13.335 -0.2156 -0.5068 -1.7642
17154TIP3   OH272876   5.701   4.221   2.610 -0.9343 -0.4101  0.5813
17154TIP3    H172877   5.795   4.233   2.594 -0.7431 -0.2586  1.7086
17154TIP3    H272878   5.670   4.172   2.535 -0.4487  1.6822 -1.0860
17155TIP3   OH272879   4.034   2.968   4.440  0.2872 -0.8332 -0.8324
17155TIP3    H172880   4.072   2.981   4.527 -3.1785  0.3428  0.6992
17155TIP3    H272881   3.997   3.053   4.417 -0.1968 -1.5202 -2.7821
17156TIP3   OH272882   4.751   1.754  14.786  0.3225 -0.1844  0.5562
17156TIP3    H172883   4.799   1.831  14.757  0.3975 -0.3120  0.3464
17156TIP3    H272884   4.661   1.784  14.796  0.1604 -0.3079 -0.4636
17157TIP3   OH272885   0.802   5.846  12.967 -0.2674 -0.6952  0.0783
17157TIP3    H172886   0.816   5.872  12.876 -1.5208 -1.1765 -0.2806
17157TIP3    H272887   0.855   5.907  13.018 -0.2605  0.1707 -0.9206
17158TIP3   OH272888   1.501   4.089  15.728 -0.6284  0.3107 -0.4572
17158TIP3    H172889   1.410   4.077  15.701 -1.1238 -1.0628  1.6490
17158TIP3    H272890   1.552   4.047  15.659 -1.4555  2.0976 -2.2667
17159TIP3   OH272891   2.185   1.923  13.944  0.5450  0.1599  0.1348
17159TIP3    H172892   2.160   1.988  13.878 -0.9630 -1.4308 -0.9419
17159TIP3    H272893   2.122   1.934  14.014 -0.5575 -0.9516 -0.6364
17160TIP3   OH272894   0.747   3.914  16.675 -0.6011 -0.2653 -0.3797
17160TIP3    H172895   0.766   4.000  16.713 -0.2626 -0.7870  0.6566
17160TIP3    H272896   0.829   3.889  16.631 -0.7860  0.0523 -0.9147
17161TIP3   OH272897   5.199   2.830   1.094  0.0577 -0.4481  0.3988
17161TIP3    H172898   5.273   2.769   1.095  0.4965  0.0822  0.6338
17161TIP3    H272899   5.136   2.792   1.156  0.4400 -0.5283  0.7431
17162TIP3   OH272900   3.021   2.388   2.069  0.0855 -0.3231 -0.1993
17162TIP3    H172901   3.039   2.340   1.988 -2.3026 -1.7621  0.0253
17162TIP3    H272902   3.061   2.335   2.138 -1.3620 -1.3396 -0.0927
17163TIP3   OH272903   5.166   1.031   5.775  0.2687 -0.1162  0.2386
17163TIP3    H172904   5.178   0.982   5.694 -1.2613 -0.8010  0.3787
17163TIP3    H272905   5.254   1.045   5.809  1.0028  0.9200 -1.9425
17164TIP3   OH272906   0.251   6.781   5.046  0.0822 -0.0168  0.3106
17164TIP3    H172907   0.304   6.710   5.010 -0.4879 -0.7336  0.8500
17164TIP3    H272908   0.284   6.792   5.135 -0.0826  0.1462  0.3515
17165TIP3   OH272909   5.098   6.059  14.118  0.5020  0.2947  0.1276
17165TIP3    H172910   5.019   6.037  14.167  0.0320  2.2987  0.3577
17165TIP3    H272911   5.076   6.041  14.026 -0.5321  1.5654  0.1014
17166TIP3   OH272912   0.855   4.728   4.400  0.4305 -0.2725 -0.4013
17166TIP3    H172913   0.797   4.745   4.326  0.3833  0.8450 -0.1284
17166TIP3    H272914   0.854   4.810   4.450 -3.3410 -2.3419  3.5300
17167TIP3   OH272915   0.423   3.191   3.679  0.0468 -0.6472 -0.0053
17167TIP3    H172916   0.352   3.192   3.743 -1.8474 -1.9782 -1.9088
17167TIP3    H272917   0.492   3.140   3.719 -0.6173 -0.4810  1.3903
17168TIP3   OH272918   1.505   0.417   2.955  0.0267 -0.5078  0.2590
17168TIP3    H172919   1.537   0.491   3.007  0.1855  1.0574 -1.9170
17168TIP3    H272920   1.423   0.449   2.917 -1.0801 -2.3003  1.0057
17169TIP3   OH272921   0.907   1.910  13.211  0.0045 -0.0615 -0.2682
17169TIP3    H172922   0.878   1.949  13.128  0.6634  0.4537 -0.2692
17169TIP3    H272923   0.933   1.986  13.264  0.8496 -0.4746 -0.0862
17170TIP3   OH272924   1.358   0.504  12.470  0.5614 -0.3990 -0.1638
17170TIP3    H172925   1.402   0.587  12.450  0.6239 -0.9672 -2.8261
17170TIP3    H272926   1.337   0.509  12.563  1.8457  1.9774  0.0729
17171TIP3   OH272927   6.354   0.331  16.726  0.2582 -0.0564  0.5138
17171TIP3    H172928   6.354   0.408  16.669 -0.2821 -1.3516 -1.3481
17171TIP3    H272929   6.374   0.258  16.667 -1.6132 -1.6555  1.7430
17172TIP3   OH272930   0.946   2.157  13.892 -0.2049  0.2475 -0.5027
17172TIP3    H172931   0.905   2.189  13.973  0.3010  1.8116 -0.8203
17172TIP3    H272932   0.998   2.231  13.862  0.4124 -0.6633 -1.7389
17173TIP3   OH272933   3.835   0.097  12.369  0.1328  0.3071  0.1361
17173TIP3    H172934   3.915   0.054  12.341 -0.3783 -1.7629  1.6438
17173TIP3    H272935   3.794   0.035  12.429 -2.6380  1.2755 -0.6153
17174TIP3   OH272936   5.256   0.966   0.767 -0.1168 -0.0310 -0.1871
17174TIP3    H172937   5.265   0.881   0.723 -0.7635  0.4642 -1.3197
17174TIP3    H272938   5.345   0.988   0.795  0.2195 -0.6383 -0.7488
17175TIP3   OH272939   0.655   0.199   4.929 -0.6293 -0.1077  0.4799
17175TIP3    H172940   0.664   0.152   4.846  1.1505 -0.6286  0.9311
17175TIP3    H272941   0.560   0.204   4.942 -0.9283 -1.8121 -0.5778
17176TIP3   OH272942   3.626   2.195  14.887  0.0654 -0.1796 -0.6635
17176TIP3    H172943   3.622   2.261  14.956  0.5377 -0.0356 -0.7674
17176TIP3    H272944   3.697   2.136  14.914 -0.6046 -0.8754 -0.3741
17177TIP3   OH272945   5.191   2.039  12.110  0.0824 -0.1738  0.3637
17177TIP3    H172946   5.251   1.964  12.111 -0.8759 -0.9625  0.2185
17177TIP3    H272947   5.249   2.115  12.115  1.2185 -0.8483 -1.3135
17178TIP3   OH272948   2.524   5.606   4.951  0.1028  0.3309 -0.2204
17178TIP3    H172949   2.531   5.688   4.999 -0.5400 -0.7828  1.9384
17178TIP3    H272950   2.601   5.604   4.894  1.3916  1.3987  1.3913
17179TIP3   OH272951   3.098   0.569   2.217  0.6225 -0.8890  0.0646
17179TIP3    H172952   3.141   0.501   2.267 -0.2235 -1.3473  0.1912
17179TIP3    H272953   3.052   0.522   2.147 -2.0632 -0.7909  1.5940
17180TIP3   OH272954   0.561   2.678   3.076 -0.3608  0.6328 -0.2805
17180TIP3    H172955   0.568   2.745   3.008  0.7878 -0.1260 -0.9425
17180TIP3    H272956   0.503   2.717   3.142 -0.7425  1.7563 -1.2432
17181TIP3   OH272957   3.457   2.768  13.187 -0.6401  0.3770 -0.1420
17181TIP3    H172958   3.488   2.848  13.229 -0.6988  1.0658 -1.3615
17181TIP3    H272959   3.490   2.773  13.097 -4.1172  1.1142 -1.5319
17182TIP3   OH272960   6.518   3.369   1.779  0.3492 -0.3582  0.1185
17182TIP3    H172961   6.501   3.277   1.800 -2.0075  0.0373  0.2652
17182TIP3    H272962   6.443   3.416   1.816  3.0892  2.1430  3.1148
17183TIP3   OH272963   1.001   4.142  12.768 -0.0733 -0.2577  0.6031
17183TIP3    H172964   0.990   4.128  12.862  1.1461 -1.7869  0.5646
17183TIP3    H272965   1.095   4.156  12.757 -0.3518  1.0566 -0.2697
17184TIP3   OH272966   1.644   6.184  16.199 -0.2089  0.0699  0.5831
17184TIP3    H172967   1.550   6.185  16.181 -0.4954  1.1405  1.9766
17184TIP3    H272968   1.663   6.272  16.231  1.5079  0.2205 -0.7381
17185TIP3   OH272969   4.436   6.792  14.814  0.3475 -0.2007  0.2629
17185TIP3    H172970   4.485   6.730  14.759  1.3416  1.3448 -0.6534
17185TIP3    H272971   4.370   6.828  14.755 -1.0167 -1.2363  1.1206
17186TIP3   OH272972   6.151   3.211   4.528 -0.7442  0.3358  0.1904
17186TIP3    H172973   6.111   3.295   4.551  0.1735  0.2615  2.2416
17186TIP3    H272974   6.137   3.155   4.604  2.6247  0.1095  0.7710
17187TIP3   OH272975   0.627   5.471  11.223  0.2279  0.0340  0.1503
17187TIP3    H172976   0.623   5.445  11.131  0.4331  1.4288 -0.2736
17187TIP3    H272977   0.590   5.397  11.271  1.5256 -1.3607 -0.9237
17188TIP3   OH272978   5.082   2.515  16.793 -0.7024  0.4936 -0.2620
17188TIP3    H172979   5.017   2.445  16.795 -0.8475  0.5215 -2.1433
17188TIP3    H272980   5.036   2.590  16.755 -0.2208  1.2695  0.6235
17189TIP3   OH272981   3.543   2.382   2.274  0.2430 -0.9363 -0.3769
17189TIP3    H172982   3.554   2.476   2.287 -0.2233 -1.1258  1.7321
17189TIP3    H272983   3.571   2.343   2.357  2.7553 -2.8768 -1.9689
17190TIP3   OH272984   5.997   4.323   1.566  0.5690  0.2046  0.2212
17190TIP3    H172985   5.947   4.365   1.636 -0.5629 -0.5590 -0.1011
17190TIP3    H272986   5.956   4.237   1.555 -1.3309  1.3647 -3.4438
17191TIP3   OH272987   0.924   2.535   0.048  0.6345  0.2711  0.5198
17191TIP3    H172988   1.018   2.533   0.031  0.5175 -1.9417 -0.3028
17191TIP3    H272989   0.888   2.593  -0.019  1.1197 -1.5443 -1.4091
17192TIP3   OH272990   2.633   4.062   1.332 -0.2661 -0.0716 -0.2398
17192TIP3    H172991   2.583   4.121   1.276  1.4480  0.7537 -0.9612
17192TIP3    H272992   2.569   3.996   1.359 -1.7037  0.8445 -1.2177
17193TIP3   OH272993   1.450   0.391  13.588  0.3766  0.7905  0.3104
17193TIP3    H172994   1.407   0.380  13.672  0.1826  3.2355  0.5947
17193TIP3    H272995   1.392   0.347  13.525  0.1833 -0.4696  1.3348
17194TIP3   OH272996   0.373   5.719   0.517 -0.4025 -0.6978 -0.2094
17194TIP3    H172997   0.303   5.688   0.574  1.4044 -2.3133  1.2801
17194TIP3    H272998   0.418   5.639   0.489  2.8799  0.3149  1.6754
17195TIP3   OH272999   0.085   5.066   3.246 -0.4817 -1.0009 -0.0985
17195TIP3    H173000   0.102   5.149   3.291 -1.6287 -0.4043 -0.7151
17195TIP3    H273001  -0.010   5.060   3.241 -0.4015 -1.8863 -0.9263
17196TIP3   OH273002   0.385   1.105   4.408  0.0294 -0.4198  0.2356
17196TIP3    H173003   0.472   1.144   4.413  0.2894 -0.8263 -0.8969
17196TIP3    H273004   0.396   1.028   4.352 -0.5584 -1.9192  2.0794
17197TIP3   OH273005   2.626   0.860  14.114  0.0909 -1.0255 -0.4876
17197TIP3    H173006   2.714   0.848  14.151  0.7321  1.3333 -1.0405
17197TIP3    H273007   2.641   0.886  14.023 -1.1433 -0.2929 -0.5080
17198TIP3   OH273008   5.270   3.751  13.758  0.5635 -0.1526 -0.2358
17198TIP3    H173009   5.245   3.844  13.758  1.4411  0.0923 -0.6590
17198TIP3    H273010   5.365   3.752  13.763  0.6016 -1.0268 -0.6755
17199TIP3   OH273011   5.437   3.293  11.752  0.1015  0.1626 -0.3467
17199TIP3    H173012   5.491   3.214  11.757  1.2537  0.8576 -1.1870
17199TIP3    H273013   5.374   3.276  11.682  0.8031  0.2411 -1.0089
17200TIP3   OH273014   5.740   0.052  16.789  0.9341  0.1526 -0.2957
17200TIP3    H173015   5.732   0.144  16.816  0.2231  0.0594 -0.1763
17200TIP3    H273016   5.742   0.003  16.871 -1.3769 -0.1444 -0.3392
17201TIP3   OH273017   2.404   3.176  10.725  0.4497  0.0753  0.0115
17201TIP3    H173018   2.312   3.170  10.702  0.3224  0.0936  0.5158
17201TIP3    H273019   2.428   3.267  10.704  0.1106  0.3448  0.7776
17202TIP3   OH273020   2.537   5.895  15.368  0.2456  0.5067 -0.3353
17202TIP3    H173021   2.554   5.834  15.296  1.5881  0.5512 -0.0765
17202TIP3    H273022   2.459   5.860  15.411 -0.0587 -0.0018 -1.2870
17203TIP3   OH273023   3.447   6.299   4.805 -0.0974  0.0372 -0.3478
17203TIP3    H173024   3.405   6.346   4.733 -0.2538  0.8483  0.2576
17203TIP3    H273025   3.413   6.209   4.798 -0.9646  0.3768 -0.6057
17204TIP3   OH273026   3.017   0.306  11.777  0.1379  0.4031 -0.6698
17204TIP3    H173027   3.072   0.234  11.745  1.5569  1.9902 -1.9697
17204TIP3    H273028   3.006   0.287  11.870  1.0465 -1.1387 -0.8308
17205TIP3   OH273029   2.035   1.850  16.549 -0.4749 -0.0680  0.2212
17205TIP3    H173030   2.075   1.933  16.523 -0.1269  0.3799  2.0409
17205TIP3    H273031   2.100   1.809  16.607 -0.3435 -1.9653 -1.1725
17206TIP3   OH273032   2.817   1.514   0.769  0.6033  0.1139  0.0357
17206TIP3    H173033   2.777   1.526   0.683  1.6150  1.6055 -0.2630
17206TIP3    H273034   2.893   1.458   0.753  0.2377 -0.4164  0.1344
17207TIP3   OH273035   5.541   5.957   6.379  0.0518 -0.1419 -0.2578
17207TIP3    H173036   5.573   5.869   6.398  0.4230  0.2248  0.9120
17207TIP3    H273037   5.570   5.975   6.290  0.8970 -0.8003 -0.1291
17208TIP3   OH273038   6.063   5.410   1.567 -0.5183 -0.5437  0.0221
17208TIP3    H173039   6.090   5.318   1.566 -1.1528 -0.7397  0.3469
17208TIP3    H273040   6.131   5.455   1.518 -1.1972 -1.4659 -1.8704
17209TIP3   OH273041   6.156   1.543  10.433 -0.0662 -0.1299 -0.4415
17209TIP3    H173042   6.181   1.530  10.342 -0.8634  0.2241 -0.7250
17209TIP3    H273043   6.212   1.615  10.463  1.5992 -1.5427 -0.0371
17210TIP3   OH273044   4.076   3.967  14.891  0.1872 -0.6179 -0.7435
17210TIP3    H173045   4.069   3.992  14.799  1.3143 -1.4065 -1.0545
17210TIP3    H273046   3.996   4.002  14.931  0.6182  1.4800 -1.5948
17211TIP3   OH273047   3.120   4.737  16.472 -0.4163  0.0969 -0.2329
17211TIP3    H173048   3.077   4.812  16.513 -1.8918  0.1128 -1.7032
17211TIP3    H273049   3.136   4.676  16.543  1.1312  1.9152  1.0670
17212TIP3   OH273050   5.639   4.919  13.005 -0.9528 -0.1541  0.5323
17212TIP3    H173051   5.559   4.951  13.047 -1.0823  0.0681  0.1294
17212TIP3    H273052   5.709   4.942  13.065 -1.0821  0.5917  0.4148
17213TIP3   OH273053   6.765   1.985   3.450 -0.3323 -0.7245 -0.1499
17213TIP3    H173054   6.793   1.993   3.359 -0.4907 -0.1439 -0.1519
17213TIP3    H273055   6.689   2.042   3.457 -0.8474 -1.4292  0.1369
17214TIP3   OH273056   2.817   1.447   2.493  0.0978  0.1013  0.0187
17214TIP3    H173057   2.901   1.450   2.540 -1.2245  1.2267  2.5539
17214TIP3    H273058   2.834   1.495   2.412  1.5218  1.9514  1.2946
17215TIP3   OH273059   2.562   2.090   5.083 -0.0532 -0.1125 -0.4843
17215TIP3    H173060   2.594   2.071   4.995 -1.2015 -1.1671 -0.6929
17215TIP3    H273061   2.467   2.088   5.075 -0.1759 -1.1417  0.9641
17216TIP3   OH273062   5.194   0.062   1.443  0.4446  0.2853  0.4230
17216TIP3    H173063   5.267   0.115   1.412  1.4915 -0.8788  0.8140
17216TIP3    H273064   5.220   0.034   1.531 -2.1666  3.0213  2.3039
17217TIP3   OH273065   2.106   0.657   5.946  0.0963  0.2505 -0.0374
17217TIP3    H173066   2.069   0.722   6.006  0.7599 -1.2546  2.1164
17217TIP3    H273067   2.031   0.604   5.920  0.2025 -1.0694  2.1073
17218TIP3   OH273068   5.285   0.119  14.207 -0.0155 -0.2815  0.0797
17218TIP3    H173069   5.336   0.039  14.221 -0.6154 -0.6161  0.4018
17218TIP3    H273070   5.340   0.173  14.151  1.2848 -0.0641  1.4963
17219TIP3   OH273071   0.968   5.273  14.412 -0.6469  0.5188  0.3220
17219TIP3    H173072   1.053   5.264  14.455 -0.4293 -0.4431 -0.2879
17219TIP3    H273073   0.921   5.192  14.433 -0.2428 -0.3352 -1.8542
17220TIP3   OH273074   6.430   5.199  13.163  0.4140 -0.0208 -0.3882
17220TIP3    H173075   6.516   5.179  13.201  0.9941  1.1987 -0.9976
17220TIP3    H273076   6.367   5.155  13.221  1.4654 -1.7062 -0.4345
17221TIP3   OH273077   4.453   0.962   4.903 -0.0973 -0.1130 -0.0342
17221TIP3    H173078   4.475   1.049   4.870  0.6584 -0.4362 -0.4154
17221TIP3    H273079   4.365   0.944   4.869 -0.5647  0.7971  0.6691
17222TIP3   OH273080   2.128   6.258   0.810  0.1868  0.7903  0.1513
17222TIP3    H173081   2.212   6.234   0.848 -0.0770  1.3868  1.1331
17222TIP3    H273082   2.129   6.354   0.808 -0.7723  0.8319  0.9009
17223TIP3   OH273083   3.321   0.884  11.473 -0.0283 -0.5572 -0.6386
17223TIP3    H173084   3.288   0.973  11.461  2.2667  0.1387 -2.5490
17223TIP3    H273085   3.414   0.896  11.494 -0.2586 -2.4735  1.8227
17224TIP3   OH273086   1.709   2.678  11.339 -0.0248  0.6226 -0.2866
17224TIP3    H173087   1.673   2.698  11.253 -0.0382 -0.2144 -0.4858
17224TIP3    H273088   1.799   2.649  11.321 -0.8776 -2.2595 -0.3477
17225TIP3   OH273089   0.450   5.433  13.786  0.6347  0.2082 -0.5648
17225TIP3    H173090   0.402   5.472  13.860  1.8552  0.8336 -0.0729
17225TIP3    H273091   0.384   5.419  13.719 -0.3964  0.2060  0.4207
17226TIP3   OH273092   2.352   2.483   2.900  0.7351 -0.2203 -0.1269
17226TIP3    H173093   2.339   2.393   2.931  2.3495 -0.9504 -1.4196
17226TIP3    H273094   2.285   2.495   2.833  1.0105 -0.7604 -0.5092
17227TIP3   OH273095   1.630   2.038   5.364  0.2645 -0.4992  0.6959
17227TIP3    H173096   1.716   2.008   5.335  0.3161  0.9920 -0.8797
17227TIP3    H273097   1.576   2.036   5.284 -0.9161 -0.5299  1.4665
17228TIP3   OH273098   1.954   2.898  11.680  0.0039  0.0977  0.0820
17228TIP3    H173099   1.972   2.962  11.612  1.8341 -0.0306  0.3942
17228TIP3    H273100   1.963   2.813  11.636 -0.6637  0.0294  0.0698
17229TIP3   OH273101   2.686   0.970  16.178  0.4964 -0.1233 -0.1204
17229TIP3    H173102   2.781   0.984  16.183  0.4478  0.0972  0.1837
17229TIP3    H273103   2.675   0.911  16.103  1.1328 -2.3571  1.4302
17230TIP3   OH273104   5.582   0.102  14.347  0.1317  0.3437  0.1602
17230TIP3    H173105   5.526   0.025  14.355  0.0115  0.5744  2.3671
17230TIP3    H273106   5.572   0.147  14.431 -0.5222  3.2968 -1.3868
17231TIP3   OH273107   1.131   4.385   1.370 -0.2538 -0.0459 -0.4709
17231TIP3    H173108   1.035   4.393   1.365 -0.3091 -0.6070 -0.3649
17231TIP3    H273109   1.154   4.432   1.450 -0.4966 -0.3418 -0.2254
17232TIP3   OH273110   2.219   2.979  17.173  0.1535  0.0823 -0.1376
17232TIP3    H173111   2.314   2.983  17.184  0.1577  0.1953 -0.2139
17232TIP3    H273112   2.198   3.056  17.121 -0.0670  0.4696  0.5067
17233TIP3   OH273113   1.369   0.741   4.945 -0.7468  0.3086 -0.0013
17233TIP3    H173114   1.382   0.835   4.950 -0.6104  0.2849  0.1153
17233TIP3    H273115   1.349   0.715   5.035  2.1231 -0.1922  0.5775
17234TIP3   OH273116   2.253   5.890  12.119  0.1691  0.2779  0.0249
17234TIP3    H173117   2.251   5.896  12.023  1.0169 -0.4693 -0.0615
17234TIP3    H273118   2.225   5.976  12.149  3.6483  1.9515 -0.9471
17235TIP3   OH273119   4.663   2.990  12.563 -0.4074  0.6109 -0.2573
17235TIP3    H173120   4.675   2.899  12.535 -0.9276  0.9860 -1.7912
17235TIP3    H273121   4.572   2.992  12.595  0.1520  0.2082  1.4771
17236TIP3   OH273122   6.671   4.521  13.633 -0.3955  0.2180 -0.4114
17236TIP3    H173123   6.594   4.571  13.662 -0.7171 -0.5384  0.0843
17236TIP3    H273124   6.729   4.587  13.594 -0.2394  1.1969  1.3472
17237TIP3   OH273125   2.099   0.307  11.079 -0.2906  0.0763  0.2358
17237TIP3    H173126   2.137   0.383  11.034  0.1343 -0.8167 -0.9778
17237TIP3    H273127   2.092   0.334  11.170 -2.4405  2.4824 -0.5072
17238TIP3   OH273128   2.053   4.203  12.781  0.0471 -0.4207  0.2071
17238TIP3    H173129   2.034   4.115  12.748 -0.4270  0.5625 -2.4229
17238TIP3    H273130   1.967   4.246  12.785  0.4452  0.4751 -0.4304
17239TIP3   OH273131   2.217   3.789   5.097  0.7966  0.4075  0.4406
17239TIP3    H173132   2.122   3.779   5.088  0.4985  1.1112  2.2508
17239TIP3    H273133   2.232   3.884   5.094  1.4200  0.3126  0.3801
17240TIP3   OH273134   5.255   6.241   5.355  0.3688 -0.5828  0.2963
17240TIP3    H173135   5.328   6.241   5.294  1.9998  0.8356  2.1190
17240TIP3    H273136   5.177   6.231   5.300  1.7084  0.7907 -2.0033
17241TIP3   OH273137   2.263   0.303  13.610 -0.4553  0.3805  0.5114
17241TIP3    H173138   2.254   0.312  13.515 -0.4216 -1.1854  0.3240
17241TIP3    H273139   2.344   0.348  13.631 -0.5556  0.9008 -0.1723
17242TIP3   OH273140   6.577   1.407  16.203  0.2286 -0.1249 -0.0577
17242TIP3    H173141   6.643   1.381  16.267  1.5851  0.5239 -1.1310
17242TIP3    H273142   6.581   1.503  16.202 -2.2763  0.1049  1.3814
17243TIP3   OH273143   0.205   4.271   4.800 -0.2819  0.0821 -0.0272
17243TIP3    H173144   0.147   4.266   4.877  0.2922  1.4008  0.5230
17243TIP3    H273145   0.219   4.180   4.775 -0.6892 -0.3711  1.2865
17244TIP3   OH273146   4.138   6.205   0.823  0.8085 -0.1268  0.1841
17244TIP3    H173147   4.116   6.142   0.753 -0.1319 -0.1108  0.4529
17244TIP3    H273148   4.165   6.284   0.776 -1.3406  0.4331 -0.2257
17245TIP3   OH273149   4.904   5.069  14.757 -0.6462 -0.2964 -0.5294
17245TIP3    H173150   4.817   5.044  14.725 -0.2137 -2.1310 -0.3715
17245TIP3    H273151   4.963   5.005  14.718  0.2748 -0.8179  1.5993
17246TIP3   OH273152   4.894   5.433   1.720  0.0215  0.3152  0.6062
17246TIP3    H173153   4.979   5.478   1.722  0.4387 -0.4427  2.7180
17246TIP3    H273154   4.830   5.504   1.718  0.7016  0.9567  0.8662
17247TIP3   OH273155   1.000   3.355   2.528  0.0772 -0.4439 -0.0516
17247TIP3    H173156   1.051   3.345   2.608  0.4720  0.3446 -0.1890
17247TIP3    H273157   1.031   3.285   2.471  0.2555 -0.6125  0.2516
17248TIP3   OH273158   0.306   2.791  13.607  0.9768  0.0447 -0.0490
17248TIP3    H173159   0.215   2.771  13.629  1.0884  1.1667  1.5792
17248TIP3    H273160   0.301   2.873  13.557  0.9870 -0.8229 -1.5326
17249TIP3   OH273161   2.860   4.267  15.548 -0.4248 -0.2760 -0.7633
17249TIP3    H173162   2.856   4.172  15.565  1.4593 -0.1983  0.3815
17249TIP3    H273163   2.775   4.300  15.579 -0.6270 -1.4367 -0.0073
17250TIP3   OH273164   0.255   0.525   0.675  0.0157 -0.4983  0.1940
17250TIP3    H173165   0.224   0.616   0.680  0.0661 -0.5043  0.6418
17250TIP3    H273166   0.350   0.532   0.663 -0.0984 -0.4845 -0.8190
17251TIP3   OH273167   0.183   5.675  16.861  0.0397 -0.2572 -0.2598
17251TIP3    H173168   0.139   5.729  16.927 -2.0997 -1.6090 -0.4572
17251TIP3    H273169   0.157   5.585  16.884  0.1652 -0.8487 -2.2658
17252TIP3   OH273170   1.467   3.924  15.202  0.3350 -0.5913  0.3462
17252TIP3    H173171   1.485   4.006  15.157  0.0271 -0.7946 -0.1479
17252TIP3    H273172   1.551   3.877  15.200  0.4388 -0.4110  0.3912
17253TIP3   OH273173   5.017   2.791  13.319  0.9333  0.3041 -0.2873
17253TIP3    H173174   5.080   2.821  13.384  0.3381  1.0839 -0.0526
17253TIP3    H273175   4.939   2.769  13.370  0.3666  1.1828 -0.7518
17254TIP3   OH273176   1.955   4.699   0.937  0.5622  0.2208 -0.0946
17254TIP3    H173177   1.938   4.788   0.906  0.2186  0.3844  0.5326
17254TIP3    H273178   2.012   4.711   1.013  0.1335 -0.0559  0.2770
17255TIP3   OH273179   3.084   5.172   5.262 -0.2458 -0.0206 -0.3778
17255TIP3    H173180   3.045   5.254   5.293 -1.8707 -0.1456 -1.9207
17255TIP3    H273181   3.024   5.104   5.293 -0.0868 -0.4228 -0.9294
17256TIP3   OH273182   0.231   5.220  12.404 -0.0628  0.0139 -0.4020
17256TIP3    H173183   0.209   5.225  12.498 -0.7677  1.2318 -0.6112
17256TIP3    H273184   0.145   5.219  12.361  0.2714  0.5460 -1.0785
17257TIP3   OH273185   4.020   0.973   4.461  0.6643  0.1752 -0.5845
17257TIP3    H173186   4.044   1.041   4.399  2.3337 -0.8903 -1.1605
17257TIP3    H273187   4.021   1.017   4.546  1.9756  0.8397 -0.9118
17258TIP3   OH273188   4.645   4.178  16.999  0.5547  0.0581  0.0905
17258TIP3    H173189   4.642   4.260  16.949 -0.5083  0.3783  0.6318
17258TIP3    H273190   4.672   4.204  17.086 -1.9529  0.2412  0.9051
17259TIP3   OH273191   0.423   0.207  11.749 -0.4878 -0.0424 -0.6987
17259TIP3    H173192   0.438   0.301  11.736 -0.1610  0.0368  0.1816
17259TIP3    H273193   0.335   0.192  11.713  0.3573  0.1093 -3.0130
17260TIP3   OH273194   1.284   0.158   3.723  0.0831 -0.2959 -0.2213
17260TIP3    H173195   1.259   0.068   3.701 -0.7611 -0.1611  0.1767
17260TIP3    H273196   1.264   0.208   3.644 -0.2426 -0.3150 -0.1535
17261TIP3   OH273197   5.829   3.778  11.489  0.1518 -0.5519  0.5704
17261TIP3    H173198   5.762   3.732  11.437 -0.5571 -0.5986  1.4947
17261TIP3    H273199   5.907   3.723  11.480 -0.3837 -1.3772  0.7791
17262TIP3   OH273200   3.180   3.508   0.265  0.0005 -0.5206 -0.3163
17262TIP3    H173201   3.112   3.505   0.197 -0.3108 -4.2180 -0.0389
17262TIP3    H273202   3.134   3.538   0.343  0.0249  2.3096 -1.2744
17263TIP3   OH273203   2.908   2.239   1.591  0.0715 -0.2342 -0.0222
17263TIP3    H173204   2.941   2.183   1.522  0.1299 -1.4607  0.9692
17263TIP3    H273205   2.840   2.187   1.635  2.1084 -0.7732  2.7691
17264TIP3   OH273206   1.470   4.400  13.940 -0.0831 -0.0157 -0.4133
17264TIP3    H173207   1.427   4.475  13.901 -2.2325 -0.7647  0.3427
17264TIP3    H273208   1.399   4.350  13.981  1.6401 -0.7238  2.0053
17265TIP3   OH273209   4.769   1.331   2.629  0.0983  0.8629  0.3582
17265TIP3    H173210   4.789   1.312   2.721  0.3683  0.0343  0.1304
17265TIP3    H273211   4.845   1.380   2.597  0.2276  0.7127  0.4372
17266TIP3   OH273212   3.790   2.855   0.114  0.6930  0.1722 -0.2382
17266TIP3    H173213   3.871   2.804   0.116  2.2428  2.5050  1.7334
17266TIP3    H273214   3.754   2.845   0.202 -0.7029 -0.0465 -0.8068
17267TIP3   OH273215   0.612   6.737   1.163  0.2105 -0.7387  0.3362
17267TIP3    H173216   0.583   6.647   1.148 -2.1608  0.0155 -0.0230
17267TIP3    H273217   0.600   6.781   1.078 -2.7937  0.8684  1.4122
17268TIP3   OH273218   6.628   2.852  14.193  0.5652  0.1607 -0.3446
17268TIP3    H173219   6.673   2.925  14.235 -0.1321 -0.0302  0.7922
17268TIP3    H273220   6.547   2.890  14.158 -0.0144 -0.1217  0.6392
17269TIP3   OH273221   0.466   2.873   5.535  0.3184  0.0202 -0.0676
17269TIP3    H173222   0.378   2.863   5.498  0.1084 -0.8461  0.6364
17269TIP3    H273223   0.455   2.855   5.628  1.5168 -1.7402 -0.2193
17270TIP3   OH273224   3.611   3.954  14.598  0.1667 -0.0947  0.0253
17270TIP3    H173225   3.683   4.011  14.625 -1.7200  2.2440  0.4038
17270TIP3    H273226   3.603   3.889  14.669 -0.9062  2.3473  2.2907
17271TIP3   OH273227   0.690   2.973  14.068 -0.0905 -0.5333 -0.4991
17271TIP3    H173228   0.698   3.068  14.066  2.5851 -0.6831 -0.3200
17271TIP3    H273229   0.607   2.955  14.022 -0.0481  1.7956 -1.6526
17272TIP3   OH273230   2.658   6.201   1.135 -0.4159  0.0577  0.0966
17272TIP3    H173231   2.620   6.118   1.108  0.5847 -0.4709  0.2510
17272TIP3    H273232   2.745   6.201   1.095  0.3614  0.1228  1.7050
17273TIP3   OH273233   3.324   2.586  15.975 -0.4150  0.4477  0.1578
17273TIP3    H173234   3.319   2.508  15.921 -0.7635 -1.3479  2.5906
17273TIP3    H273235   3.397   2.569  16.034 -1.1477  1.4641  1.4114
17274TIP3   OH273236   3.830   3.092  15.447  0.3666  0.1478 -0.8247
17274TIP3    H173237   3.849   3.185  15.463  1.0391  0.1614 -1.6436
17274TIP3    H273238   3.789   3.062  15.528 -1.7362  1.6556 -1.2508
17275TIP3   OH273239   3.406   4.258   3.049  0.0068  0.0251  0.3734
17275TIP3    H173240   3.479   4.199   3.033  0.0251 -0.1490  1.0867
17275TIP3    H273241   3.443   4.346   3.040  0.4052 -0.0586  1.1533
17276TIP3   OH273242   6.080   2.535  14.631 -0.4139 -0.5129  0.5370
17276TIP3    H173243   6.025   2.613  14.641 -2.0864 -1.5154 -0.3754
17276TIP3    H273244   6.103   2.534  14.538 -1.4744 -1.7359  0.2529
17277TIP3   OH273245   3.317   0.872  15.060 -0.3760  0.2288  0.1703
17277TIP3    H173246   3.290   0.845  15.147 -0.3960 -1.0360 -0.2045
17277TIP3    H273247   3.390   0.814  15.038  0.8499  1.7333  0.0498
17278TIP3   OH273248   4.584   0.596   1.263  0.7991 -0.5331 -0.0790
17278TIP3    H173249   4.563   0.689   1.257  0.2635 -0.7603 -3.7708
17278TIP3    H273250   4.652   0.591   1.330 -0.7378  2.1282  1.8881
17279TIP3   OH273251   2.160   1.595  14.690  0.8208 -0.0977 -0.1562
17279TIP3    H173252   2.081   1.635  14.654  0.2604 -1.6657 -0.7665
17279TIP3    H273253   2.220   1.589  14.616  0.6791 -0.8832 -0.2178
17280TIP3   OH273254   3.413   0.578  15.569 -0.2475 -0.0943  0.3843
17280TIP3    H173255   3.475   0.622  15.626 -0.2348  0.8289 -0.3230
17280TIP3    H273256   3.458   0.497  15.542  0.6431  0.5432 -0.0816
17281TIP3   OH273257   3.934   6.594  12.163  0.1675  0.7312 -0.1219
17281TIP3    H173258   3.886   6.575  12.082  0.7009  0.4760 -0.3832
17281TIP3    H273259   3.876   6.563  12.233  0.3309 -0.4214 -0.4744
17282TIP3   OH273260   6.294   1.709  14.218 -0.7767 -0.4346 -0.1112
17282TIP3    H173261   6.297   1.786  14.161 -1.1288  0.4824  1.0676
17282TIP3    H273262   6.202   1.701  14.243 -0.2446  0.9869  2.6512
17283TIP3   OH273263   2.847   0.152  13.827 -0.0153 -0.4716 -0.2803
17283TIP3    H173264   2.812   0.186  13.909 -0.8752  0.1332 -0.8817
17283TIP3    H273265   2.900   0.225  13.792 -1.9444  0.3726 -1.6241
17284TIP3   OH273266   2.283   5.990   1.909 -0.6307 -0.3670  0.0780
17284TIP3    H173267   2.305   5.903   1.943 -1.0548 -0.7650 -0.6239
17284TIP3    H273268   2.216   6.022   1.969 -1.3941 -1.0746 -0.3693
17285TIP3   OH273269   1.612   6.204   4.790  0.1552  0.2217 -0.1424
17285TIP3    H173270   1.522   6.233   4.799  0.6926  1.7707  0.5397
17285TIP3    H273271   1.610   6.112   4.818 -1.3322 -0.0137 -0.9297
17286TIP3   OH273272   5.098   4.924   5.166 -0.0872  0.0278 -0.5110
17286TIP3    H173273   5.087   5.019   5.166 -0.1266  0.0876  1.8696
17286TIP3    H273274   5.093   4.899   5.074 -0.2349  2.3028 -1.1789
17287TIP3   OH273275   6.234   2.136  13.813 -0.0628  0.0911 -0.6040
17287TIP3    H173276   6.141   2.139  13.836  0.4979 -1.9693  2.4265
17287TIP3    H273277   6.243   2.056  13.761  0.1360 -0.0611 -0.3328
17288TIP3   OH273278   3.534   4.945   1.693 -0.2176 -0.1197 -0.3623
17288TIP3    H173279   3.608   4.911   1.644 -0.5121  1.3399 -1.9237
17288TIP3    H273280   3.569   5.019   1.742 -0.2339 -0.7095  0.5817
17289TIP3   OH273281   5.014   1.511  11.789  0.0622  0.0941  0.7343
17289TIP3    H173282   5.035   1.453  11.716  0.4184  0.7209  0.3263
17289TIP3    H273283   4.997   1.452  11.863 -1.0603 -0.5741 -0.0325
17290TIP3   OH273284   4.908   5.206   6.187 -0.1724  0.2345 -0.2826
17290TIP3    H173285   4.952   5.208   6.102 -0.4361 -2.0353 -0.5301
17290TIP3    H273286   4.980   5.204   6.251  0.0771  3.7387 -0.2295
17291TIP3   OH273287   5.230   1.365  13.700 -0.4111 -0.1855  0.3055
17291TIP3    H173288   5.235   1.269  13.695  1.6198 -0.0650 -1.9264
17291TIP3    H273289   5.321   1.393  13.711 -0.7970  1.5240 -0.5359
17292TIP3   OH273290   4.684   2.969   1.684  0.3799  0.3393 -0.2024
17292TIP3    H173291   4.751   2.987   1.618  0.1354  4.9692  0.4438
17292TIP3    H273292   4.722   3.001   1.766 -1.7053  0.9385  0.6014
17293TIP3   OH273293   0.438   2.073  12.922 -0.4624 -0.2804  0.8949
17293TIP3    H173294   0.487   2.111  12.995  0.0806 -0.7154  0.7715
17293TIP3    H273295   0.475   2.115  12.844  0.8264 -1.7152  0.6808
17294TIP3   OH273296   1.568   2.945  11.801 -0.1252  0.4515  0.5262
17294TIP3    H173297   1.503   3.015  11.796 -0.5743  0.0205  0.0725
17294TIP3    H273298   1.584   2.921  11.709  1.5957  1.3639  0.5562
17295TIP3   OH273299   1.838   2.792   5.181  0.0886 -0.4686  0.3063
17295TIP3    H173300   1.838   2.863   5.117 -0.6351 -1.6933 -1.0987
17295TIP3    H273301   1.907   2.733   5.153  0.0728 -0.8022  0.9417
17296TIP3   OH273302   2.778   2.893  17.047 -0.3704  0.4242 -0.3926
17296TIP3    H173303   2.785   2.907  16.952 -0.5918 -0.1399 -0.5002
17296TIP3    H273304   2.755   2.978  17.083  0.1835  0.7517 -0.7946
17297TIP3   OH273305   5.489   0.227  16.212 -0.2017 -0.3227  0.1623
17297TIP3    H173306   5.553   0.294  16.187 -1.3678  0.0083 -2.1763
17297TIP3    H273307   5.444   0.264  16.288  0.4515  0.7045  0.0750
17298TIP3   OH273308   3.421   4.818  16.907 -0.5786 -0.4802 -0.0910
17298TIP3    H173309   3.356   4.761  16.866 -0.6202  0.1780 -0.9666
17298TIP3    H273310   3.455   4.871  16.835  1.8286 -1.6397  0.0724
17299TIP3   OH273311   2.926   3.455   3.949  0.2985  0.1301 -0.2348
17299TIP3    H173312   3.001   3.485   3.897  0.6004 -1.6642 -0.8899
17299TIP3    H273313   2.860   3.524   3.936  1.2015  0.8770 -1.0688
17300TIP3   OH273314   0.920   0.899   1.758 -0.1543  0.0061 -0.6879
17300TIP3    H173315   0.839   0.860   1.725  0.0719  0.6023 -2.0227
17300TIP3    H273316   0.986   0.831   1.743 -0.3332 -0.3600  0.1132
17301TIP3   OH273317   4.334   6.671   4.026 -0.0320 -0.6206 -0.0868
17301TIP3    H173318   4.370   6.600   3.973  1.5651 -2.5816  3.3148
17301TIP3    H273319   4.396   6.743   4.015 -0.7216 -0.2661 -2.1836
17302TIP3   OH273320   0.613   2.276  13.004  0.5495  0.4696  0.0355
17302TIP3    H173321   0.674   2.308  13.071 -0.8170  1.1774  1.0046
17302TIP3    H273322   0.619   2.340  12.934  2.3979 -0.5662 -0.8293
17303TIP3   OH273323   4.652   3.033   3.842  0.6472  0.4811 -0.8161
17303TIP3    H173324   4.567   3.077   3.843 -1.4932 -3.2442 -1.3450
17303TIP3    H273325   4.681   3.034   3.934 -1.7379 -1.1125  0.0322
17304TIP3   OH273326   3.941   2.273   1.719 -0.1595  0.2621 -0.4787
17304TIP3    H173327   3.971   2.209   1.655  0.2606  0.1261 -0.1511
17304TIP3    H273328   4.006   2.343   1.716  1.3662 -0.9205  1.6164
17305TIP3   OH273329   0.247   0.229  12.796 -0.2536 -0.5021 -0.4125
17305TIP3    H173330   0.287   0.314  12.814 -1.3476 -0.2651  1.0143
17305TIP3    H273331   0.261   0.217  12.702 -0.3468  1.4009 -0.7186
17306TIP3   OH273332   3.825   6.324  16.363 -0.8014 -0.0860  0.1568
17306TIP3    H173333   3.885   6.324  16.288  0.7291  1.6951  1.2883
17306TIP3    H273334   3.764   6.396  16.345  0.1841  1.0043  1.0170
17307TIP3   OH273335   5.242   3.323   1.696  0.9219  0.0309 -0.1962
17307TIP3    H173336   5.171   3.386   1.708  1.0980  0.3158 -0.6637
17307TIP3    H273337   5.244   3.305   1.602  2.5233  1.2730 -0.4479
17308TIP3   OH273338   1.813   1.709  16.687 -0.6146 -0.1621  0.2923
17308TIP3    H173339   1.887   1.769  16.681  0.4343 -1.3601  0.7696
17308TIP3    H273340   1.853   1.622  16.684 -2.0897 -0.8491 -0.3625
17309TIP3   OH273341   5.823   3.706  16.427 -0.4708  0.1188 -0.1331
17309TIP3    H173342   5.831   3.629  16.483  1.7657  1.2382  1.2438
17309TIP3    H273343   5.729   3.720  16.419 -0.8972 -1.1787  1.8345
17310TIP3   OH273344   5.002   1.042   1.906  0.1450  0.2656  0.1992
17310TIP3    H173345   5.004   0.946   1.906  1.2408  0.2776  0.2703
17310TIP3    H273346   4.967   1.065   1.992  0.7887 -0.0689  0.5599
17311TIP3   OH273347   6.450   3.043  13.440  0.2891  0.4358  0.2484
17311TIP3    H173348   6.479   3.046  13.531  0.4035 -0.5620  0.2556
17311TIP3    H273349   6.436   3.135  13.416  0.6257  0.7316  1.1492
17312TIP3   OH273350   2.341   2.085   0.216 -0.2216 -0.1320  0.4455
17312TIP3    H173351   2.372   2.146   0.149 -0.3718 -0.2832  0.2369
17312TIP3    H273352   2.389   2.109   0.295  1.0005 -0.8409 -0.0493
17313TIP3   OH273353   3.693   3.771  15.530 -0.3617  0.3893  0.4130
17313TIP3    H173354   3.648   3.806  15.453 -0.2957  0.9143  0.6111
17313TIP3    H273355   3.622   3.750  15.592 -0.4282 -0.2114  0.1440
17314TIP3   OH273356   3.043   2.525   3.163 -0.0788 -0.2291  0.2760
17314TIP3    H173357   3.092   2.570   3.232 -1.3085  0.1504  0.9378
17314TIP3    H273358   3.015   2.595   3.104 -1.1982 -0.1989  0.8032
17315TIP3   OH273359   5.035   3.353  13.088  0.1769  0.4609 -0.0325
17315TIP3    H173360   5.110   3.406  13.114  0.1828 -0.1229  1.2340
17315TIP3    H273361   5.058   3.264  13.115 -0.0793 -0.1154 -1.5836
17316TIP3   OH273362   5.846   6.071   1.516  0.4186 -0.0166  0.0304
17316TIP3    H173363   5.835   5.998   1.456 -0.2999  0.0326  0.1024
17316TIP3    H273364   5.923   6.047   1.569  0.0198 -0.8423  0.2396
17317TIP3   OH273365   5.469   5.499  11.194 -0.0888  0.1256 -0.4314
17317TIP3    H173366   5.384   5.460  11.215 -0.6473  1.3637 -0.2993
17317TIP3    H273367   5.476   5.492  11.099  1.1295 -2.8474 -0.2259
17318TIP3   OH273368   0.006   5.815   3.976  0.1634  0.0360 -0.8199
17318TIP3    H173369  -0.072   5.850   4.019  2.0469  0.4494  2.6664
17318TIP3    H273370   0.004   5.721   3.994  0.4027  0.0284 -0.8235
17319TIP3   OH273371   3.595   4.764  12.817 -0.0341  0.2311 -0.1752
17319TIP3    H173372   3.659   4.805  12.875  0.6942 -0.7786 -0.2379
17319TIP3    H273373   3.604   4.670  12.834 -0.6408 -0.0042 -1.0740
17320TIP3   OH273374   4.689   6.097   3.065  0.2358  0.4988  0.1381
17320TIP3    H173375   4.614   6.042   3.041  0.2197  1.1993 -1.5363
17320TIP3    H273376   4.664   6.135   3.149 -0.3552 -0.9254  0.6487
17321TIP3   OH273377   3.815   5.662  14.664  0.0400 -0.3265  0.2763
17321TIP3    H173378   3.759   5.705  14.600  0.9729  0.1787 -0.2211
17321TIP3    H273379   3.835   5.730  14.728  1.3552 -0.0309 -0.4047
17322TIP3   OH273380   2.033   2.437  15.129  0.5588 -0.1394 -0.0478
17322TIP3    H173381   2.029   2.498  15.055  1.0374  1.0149  0.8415
17322TIP3    H273382   2.001   2.354  15.093  0.7540  0.3878 -1.5365
17323TIP3   OH273383   4.835   4.807  15.589 -0.1004 -0.0456 -0.2835
17323TIP3    H173384   4.914   4.828  15.639 -0.5652  1.5273 -0.1475
17323TIP3    H273385   4.868   4.764  15.510  0.6507 -2.4445  1.2202
17324TIP3   OH273386   6.243   5.602   5.202  0.1172  0.1300  0.3570
17324TIP3    H173387   6.301   5.595   5.278 -0.1592 -1.4933  0.4472
17324TIP3    H273388   6.155   5.600   5.239 -0.0204 -0.9059 -0.0053
17325TIP3   OH273389   5.556   6.513  15.636 -0.0560  0.2390  0.5824
17325TIP3    H173390   5.541   6.605  15.612  1.2414  0.8564  2.0081
17325TIP3    H273391   5.651   6.505  15.641 -0.1666 -1.1580  0.6249
17326TIP3   OH273392   2.373   2.241  14.171  0.1067  0.1847  0.2698
17326TIP3    H173393   2.364   2.308  14.104 -0.3510  1.2343  1.3386
17326TIP3    H273394   2.466   2.241  14.193  0.0637  0.6910  0.4656
17327TIP3   OH273395   6.678   6.437  17.064 -0.5735  0.2050 -0.3495
17327TIP3    H173396   6.661   6.350  17.028  0.4017 -0.5438  0.9171
17327TIP3    H273397   6.698   6.421  17.156  0.5503  1.6585 -0.3047
17328TIP3   OH273398   2.723   5.729   3.853 -0.3628  0.2422 -0.3601
17328TIP3    H173399   2.657   5.756   3.917  0.8944 -0.4422  1.3194
17328TIP3    H273400   2.799   5.784   3.872  0.2119 -0.3560 -0.8733
17329TIP3   OH273401   4.088   5.254   6.232  0.5883 -0.1652 -0.0799
17329TIP3    H173402   4.100   5.337   6.279 -1.4669  0.7796 -1.0846
17329TIP3    H273403   4.103   5.277   6.140 -1.8428 -0.3962 -0.6014
17330TIP3   OH273404   6.070   3.543   0.257  0.4521  0.0891 -0.3122
17330TIP3    H173405   6.020   3.494   0.192  1.6303 -1.8818  0.1964
17330TIP3    H273406   6.025   3.524   0.340  0.6221  0.2928 -0.1743
17331TIP3   OH273407   0.357   4.107  15.197 -0.1716 -0.1853  0.6335
17331TIP3    H173408   0.368   4.183  15.139  0.3774 -0.2099  0.6966
17331TIP3    H273409   0.282   4.060  15.160 -0.1621  0.0861  0.2552
17332TIP3   OH273410   2.236   3.337  13.460 -0.0438  0.8219  0.2874
17332TIP3    H173411   2.258   3.405  13.524 -0.2423 -0.0814  1.3378
17332TIP3    H273412   2.206   3.263  13.512 -1.2423  0.4228 -0.8963
17333TIP3   OH273413   0.638   0.660   5.036 -0.3090  0.3392 -0.1377
17333TIP3    H173414   0.551   0.626   5.059 -1.8974  3.2674 -1.2637
17333TIP3    H273415   0.673   0.696   5.118 -0.2663 -0.5621  0.2520
17334TIP3   OH273416   1.157   3.516  11.862  0.3514  0.6181 -0.0757
17334TIP3    H173417   1.251   3.505  11.870  0.3817  1.5106  1.0886
17334TIP3    H273418   1.142   3.530  11.768  1.5020  1.4498 -0.1596
17335TIP3   OH273419   3.766   2.056   1.015 -0.8235  0.4144  0.2950
17335TIP3    H173420   3.816   2.014   1.085  0.7063 -0.5347 -1.2948
17335TIP3    H273421   3.828   2.118   0.976 -2.1870  2.2108  0.8203
17336TIP3   OH273422   0.142   0.927   5.019  0.2054 -0.0937 -0.2042
17336TIP3    H173423   0.211   0.994   5.020  0.4223 -0.2989  1.2793
17336TIP3    H273424   0.061   0.976   5.034  0.4818 -0.2295  2.0204
17337TIP3   OH273425   0.373   2.056  16.686 -0.9682  0.0654 -0.7291
17337TIP3    H173426   0.429   2.090  16.616  0.4111  0.6618  0.6107
17337TIP3    H273427   0.321   2.132  16.714  0.1222  0.4497  0.3815
17338TIP3   OH273428   6.313   4.141   0.844 -0.1285  0.0270 -0.2341
17338TIP3    H173429   6.309   4.068   0.783 -1.7764 -1.1077  1.1469
17338TIP3    H273430   6.234   4.192   0.826 -0.6542 -0.3428  0.9404
17339TIP3   OH273431   5.422   4.215   1.220 -0.1256 -0.4066  0.0767
17339TIP3    H173432   5.446   4.232   1.311  1.6960  1.2509 -0.6354
17339TIP3    H273433   5.367   4.290   1.196  3.8929  2.3059 -1.6579
17340TIP3   OH273434   5.182   5.513  10.729 -0.3246 -0.2000  0.2039
17340TIP3    H173435   5.159   5.482  10.817 -0.7566 -0.3197  0.0502
17340TIP3    H273436   5.150   5.444  10.671 -2.3399  1.0216 -0.2325
17341TIP3   OH273437   4.094   3.809   5.573  0.1996 -0.3788 -0.1694
17341TIP3    H173438   4.102   3.715   5.556 -0.0507 -0.0784 -2.1639
17341TIP3    H273439   4.013   3.835   5.528 -0.9671  0.4147  2.2275
17342TIP3   OH273440   6.700   2.915  13.404  0.5692  0.5455 -1.0053
17342TIP3    H173441   6.631   2.981  13.407  0.2919  0.2532 -0.9972
17342TIP3    H273442   6.750   2.936  13.325  0.7000  0.9838 -0.8118
17343TIP3   OH273443   3.655   0.087   2.154  0.3714  0.2108 -0.1949
17343TIP3    H173444   3.602   0.020   2.196  0.9125  1.4892  2.7063
17343TIP3    H273445   3.742   0.046   2.145  0.0331 -0.3669 -0.9117
17344TIP3   OH273446   3.427   4.564  14.740  0.2034 -0.0734 -0.1392
17344TIP3    H173447   3.402   4.489  14.686 -1.5772 -0.3218  0.9684
17344TIP3    H273448   3.461   4.628  14.677 -2.6487  0.0220 -1.7367
17345TIP3   OH273449   1.887   1.872  11.729 -0.1445  0.3055 -0.4097
17345TIP3    H173450   1.972   1.885  11.687  0.1473 -0.0315  0.0608
17345TIP3    H273451   1.881   1.777  11.741 -0.4514  0.3545 -0.1643
17346TIP3   OH273452   6.000   5.312  12.540  0.4292 -0.1382  0.3183
17346TIP3    H173453   6.074   5.371  12.551  1.0276 -0.9403  0.6920
17346TIP3    H273454   5.923   5.369  12.538  0.9125  0.5941  1.6141
17347TIP3   OH273455   3.919   5.446  15.768 -0.5022  0.5266  0.0912
17347TIP3    H173456   3.956   5.453  15.680 -0.0014  1.5997  0.3746
17347TIP3    H273457   3.912   5.536  15.798 -1.6900  0.2373  0.7415
17348TIP3   OH273458   2.825   6.433  11.281  0.0130  0.5972 -0.2337
17348TIP3    H173459   2.833   6.372  11.354  0.3994  1.7876  0.7518
17348TIP3    H273460   2.878   6.508  11.307 -0.9257  1.6015 -1.1453
17349TIP3   OH273461   5.972   2.464  12.083 -0.3758  0.3785  0.1759
17349TIP3    H173462   6.008   2.422  12.161  0.9436 -0.3400 -0.7757
17349TIP3    H273463   5.880   2.477  12.103 -0.0998  0.0571  1.7858
17350TIP3   OH273464   5.792   2.604  16.260 -0.2047  0.4241 -0.1799
17350TIP3    H173465   5.862   2.627  16.198  0.9151 -0.8800  0.5483
17350TIP3    H273466   5.777   2.511  16.246 -0.5527  0.3064  0.8862
17351TIP3   OH273467   5.153   0.561   1.525  0.3729 -0.0323 -0.4678
17351TIP3    H173468   5.217   0.495   1.550 -1.7692 -0.8085  3.9152
17351TIP3    H273469   5.191   0.644   1.553  0.1143 -0.3396  0.8607
17352TIP3   OH273470   1.875   3.065  14.737 -0.2668 -0.7720  1.1938
17352TIP3    H173471   1.943   3.050  14.671 -0.4161  1.1373  0.5500
17352TIP3    H273472   1.916   3.038  14.820  0.5887 -1.4206  0.5821
17353TIP3   OH273473   0.330   2.016  12.563  0.4841  0.0426  0.2584
17353TIP3    H173474   0.238   1.990  12.563  0.7647 -1.1519 -1.5824
17353TIP3    H273475   0.343   2.055  12.476  2.4498 -2.8871 -0.9267
17354TIP3   OH273476   2.526   0.989  13.037  0.4133 -0.0858 -0.1834
17354TIP3    H173477   2.620   0.973  13.046  0.3975  0.0355  0.2285
17354TIP3    H273478   2.498   0.932  12.966  1.2346  1.5879 -1.9443
17355TIP3   OH273479   5.000   4.985   1.803 -1.0780 -0.2860 -0.3646
17355TIP3    H173480   4.921   5.035   1.781 -1.6687 -0.1205  1.8927
17355TIP3    H273481   4.989   4.964   1.895  1.9540  0.5110  0.2559
17356TIP3   OH273482   0.762   5.664  14.515 -0.5484  0.6088 -0.0381
17356TIP3    H173483   0.690   5.726  14.527  0.0063  1.4783 -1.0653
17356TIP3    H273484   0.783   5.669  14.422 -0.8460 -1.5461 -0.2863
17357TIP3   OH273485   2.357   4.657   5.294  0.2395  0.2787 -0.3751
17357TIP3    H173486   2.385   4.589   5.354 -0.7110  0.7525  0.6413
17357TIP3    H273487   2.340   4.610   5.212  2.2742 -0.2551 -0.5468
17358TIP3   OH273488   5.564   6.213  14.953 -0.5074 -0.5956 -0.3675
17358TIP3    H173489   5.552   6.295  15.000  2.2300 -0.1484 -0.2639
17358TIP3    H273490   5.476   6.187  14.926 -1.5848  1.7056  0.6862
17359TIP3   OH273491   0.395   0.324   0.179 -0.3652  0.7339 -0.1617
17359TIP3    H173492   0.325   0.386   0.158 -2.1351 -1.5076 -1.2650
17359TIP3    H273493   0.397   0.264   0.105  0.9975 -0.7855  1.0276
17360TIP3   OH273494   5.257   0.860   4.903  0.0829  0.1261  0.1168
17360TIP3    H173495   5.199   0.832   4.833  2.0718 -2.5834 -0.6108
17360TIP3    H273496   5.253   0.789   4.967  1.7123  0.3969  0.5554
17361TIP3   OH273497   1.542   1.662   4.080  0.3921 -0.1219  0.1014
17361TIP3    H173498   1.565   1.589   4.023 -0.9286  1.4605 -2.6866
17361TIP3    H273499   1.459   1.635   4.121 -0.2375 -0.1356 -1.1298
17362TIP3   OH273500   6.259   3.822  15.373  0.5504  0.8849  0.5300
17362TIP3    H173501   6.344   3.859  15.395  0.0212  2.3547  0.2263
17362TIP3    H273502   6.214   3.892  15.325 -0.9005  0.2259  0.8687
17363TIP3   OH273503   0.587   0.291  17.089  0.8279 -0.2946 -0.3725
17363TIP3    H173504   0.588   0.283  16.994  0.2225 -3.1168 -0.2292
17363TIP3    H273505   0.600   0.201  17.121  0.6801  0.5176  2.2106
17364TIP3   OH273506   3.606   0.460  14.389 -0.1280  0.4098  0.5270
17364TIP3    H173507   3.542   0.501  14.448 -0.6330 -0.9808  0.9928
17364TIP3    H273508   3.691   0.478  14.429 -0.4148  0.1379  1.2949
17365TIP3   OH273509   1.489   3.386   3.261 -0.0487  0.0872 -0.0375
17365TIP3    H173510   1.581   3.407   3.244 -0.1454  0.5397 -0.0067
17365TIP3    H273511   1.492   3.300   3.302  0.4187  0.4293  0.6627
17366TIP3   OH273512   0.976   0.121  15.323 -0.4401 -0.3664  0.2618
17366TIP3    H173513   0.944   0.090  15.239 -0.3693 -1.9633  0.7885
17366TIP3    H273514   1.069   0.100  15.323  0.3488  2.6487 -0.5492
17367TIP3   OH273515   6.582   5.996  12.134 -0.3745 -0.4900 -0.2264
17367TIP3    H173516   6.572   5.952  12.218 -0.0564  2.5606  1.5582
17367TIP3    H273517   6.517   6.067  12.137  1.3166  1.1902 -1.4768
17368TIP3   OH273518   2.431   4.622  15.590  0.5758 -0.4499  0.2756
17368TIP3    H173519   2.490   4.685  15.547 -0.1535  1.3712  1.8084
17368TIP3    H273520   2.344   4.643  15.555  0.0835  0.5641  1.9788
17369TIP3   OH273521   1.199   1.740  11.597  0.2723 -0.0023 -0.0777
17369TIP3    H173522   1.190   1.710  11.506 -1.6625  0.3006 -0.0187
17369TIP3    H273523   1.131   1.694  11.645  0.7169  0.4914  1.0721
17370TIP3   OH273524   3.179   3.037   0.346 -0.2101  0.0864 -0.1299
17370TIP3    H173525   3.208   3.091   0.419  1.7102  0.5352 -1.1530
17370TIP3    H273526   3.125   3.095   0.292 -0.1758  0.2635  0.0290
17371TIP3   OH273527   1.896   5.859  13.640 -0.0043 -0.1931  0.3294
17371TIP3    H173528   1.809   5.899  13.643  0.4499  0.7712  1.8962
17371TIP3    H273529   1.923   5.853  13.732  1.3053 -1.1177 -0.0840
17372TIP3   OH273530   3.840   2.080   0.341  0.7304 -0.9021 -0.4802
17372TIP3    H173531   3.871   2.141   0.274 -2.1918  2.0050  0.5554
17372TIP3    H273532   3.788   2.016   0.293 -1.6220  1.3480 -1.1532
17373TIP3   OH273533   6.699   4.200  11.310 -0.0547  0.2163  0.5009
17373TIP3    H173534   6.710   4.264  11.380  2.2950  2.5370 -1.7598
17373TIP3    H273535   6.612   4.216  11.275 -0.6658  0.0293  1.8967
17374TIP3   OH273536   5.786   5.351  12.176  0.2819  0.9747  0.2471
17374TIP3    H173537   5.870   5.375  12.215  0.1464  2.6412 -0.4314
17374TIP3    H273538   5.797   5.260  12.149  0.8439  0.1890  2.8482
17375TIP3   OH273539   3.623   2.501   6.234 -0.2266  0.0603 -0.6219
17375TIP3    H173540   3.542   2.551   6.228  0.8491  1.8391 -1.3124
17375TIP3    H273541   3.660   2.524   6.319  0.2122  0.3818 -0.8904
17376TIP3   OH273542   5.188   2.758  13.855 -0.1572  0.5486 -0.0468
17376TIP3    H173543   5.267   2.808  13.834 -0.4509  1.5398  1.1089
17376TIP3    H273544   5.221   2.677  13.895  0.2773  0.6796 -0.1264
17377TIP3   OH273545   6.573   5.737  13.671 -0.5251  0.2623 -0.3656
17377TIP3    H173546   6.588   5.760  13.763  2.4050  0.7659 -0.8569
17377TIP3    H273547   6.661   5.727  13.634 -1.5716 -2.4888 -2.5402
17378TIP3   OH273548   6.139   4.983  13.213 -0.0841  0.6172 -0.6800
17378TIP3    H173549   6.193   4.933  13.275 -1.1605 -0.0516 -0.2504
17378TIP3    H273550   6.156   4.942  13.128 -0.3224  0.0532 -0.4607
17379TIP3   OH273551   1.944   6.081   3.042 -0.2830  0.3838  0.6324
17379TIP3    H173552   1.888   6.003   3.043 -1.8421  1.4573  1.1838
17379TIP3    H273553   1.967   6.093   2.950 -0.3594 -0.5044  0.4938
17380TIP3   OH273554   6.659   5.323   3.409  0.2527 -0.5604 -0.4184
17380TIP3    H173555   6.675   5.383   3.336 -1.4270  1.5273  0.8075
17380TIP3    H273556   6.692   5.239   3.378  0.5972  0.4579 -3.1380
17381TIP3   OH273557   3.910   6.291   0.270 -0.4201  0.2337 -0.4684
17381TIP3    H173558   3.923   6.221   0.207 -0.2315  0.7755 -1.0429
17381TIP3    H273559   3.896   6.369   0.217 -2.0698  0.3919  0.1538
17382TIP3   OH273560   6.648   0.185  13.773 -0.6492  0.1766 -0.1331
17382TIP3    H173561   6.715   0.252  13.787 -0.6908  0.2414 -0.2349
17382TIP3    H273562   6.605   0.176  13.858  1.4469 -2.0503  0.7813
17383TIP3   OH273563   3.942   2.836  13.883  0.1323 -0.4922  0.2511
17383TIP3    H173564   3.994   2.811  13.959 -0.5171 -1.4107  0.4086
17383TIP3    H273565   3.894   2.757  13.859 -1.3340  0.3588  0.2226
17384TIP3   OH273566   0.904   3.438  16.716 -0.4450  0.3882 -0.1796
17384TIP3    H173567   0.880   3.349  16.741  1.1839  0.5271  2.2041
17384TIP3    H273568   0.913   3.485  16.799 -1.1810  2.8082 -1.3498
17385TIP3   OH273569   6.354   3.912  15.887  0.3352 -0.0674  0.0912
17385TIP3    H173570   6.305   3.974  15.833  0.8663  1.4353  1.2535
17385TIP3    H273571   6.388   3.847  15.825 -0.1027  0.8956 -1.2027
17386TIP3   OH273572   6.508   4.257  12.908  0.0647  0.3053  0.2732
17386TIP3    H173573   6.562   4.329  12.874  3.3483 -2.2326 -0.4482
17386TIP3    H273574   6.469   4.218  12.831 -1.2649  0.9240  0.6090
17387TIP3   OH273575   0.544   5.511   5.191 -0.4369 -0.5671 -0.4509
17387TIP3    H173576   0.481   5.580   5.169  0.2920  0.7264  1.2930
17387TIP3    H273577   0.611   5.517   5.123  2.0706  3.7038  1.9112
17388TIP3   OH273578   3.804   3.282   1.907  0.4868  0.5309 -0.2511
17388TIP3    H173579   3.729   3.341   1.899  1.1429  1.2307 -1.4313
17388TIP3    H273580   3.836   3.298   1.996 -1.6741 -0.9420  0.8649
17389TIP3   OH273581   3.195   5.069  17.127 -0.1643  0.1388  0.0740
17389TIP3    H173582   3.183   5.111  17.212  0.5013  1.2822 -0.3827
17389TIP3    H273583   3.252   4.994  17.144 -0.9790 -0.3184  0.8193
17390TIP3   OH273584   2.135   1.256   4.847  0.1615 -0.4371 -0.4401
17390TIP3    H173585   2.147   1.296   4.761 -1.2868  0.6316 -0.1842
17390TIP3    H273586   2.089   1.322   4.898 -0.7696 -1.7893  0.5487
17391TIP3   OH273587   0.538   1.240  13.488 -0.2755  0.3536 -0.1207
17391TIP3    H173588   0.501   1.174  13.429 -0.5591 -0.1631  0.6316
17391TIP3    H273589   0.500   1.322  13.458  1.7806  0.5508 -2.5120
17392TIP3   OH273590   4.466   0.948   0.695  0.1499 -0.4441  0.0467
17392TIP3    H173591   4.457   1.042   0.679 -1.6789 -0.6650 -0.4351
17392TIP3    H273592   4.394   0.908   0.647  1.0149 -2.1389  0.0693
17393TIP3   OH273593   5.046   0.491   0.090 -0.4103 -0.0986 -0.0604
17393TIP3    H173594   4.975   0.502   0.153 -0.6490 -0.5537 -0.2446
17393TIP3    H273595   5.055   0.396   0.080  0.9002 -0.0802  0.7267
17394TIP3   OH273596   3.581   4.894  15.714 -0.0749 -0.0651  0.0473
17394TIP3    H173597   3.575   4.987  15.695 -1.4498  0.1874  1.4713
17394TIP3    H273598   3.658   4.886  15.770 -1.1903  0.6030  1.7495
17395TIP3   OH273599   5.248   3.255  14.957  0.3548  0.0908  0.3874
17395TIP3    H173600   5.313   3.239  14.889  0.4500 -2.4862  0.9871
17395TIP3    H273601   5.171   3.288  14.909  1.9422  3.1715 -0.3226
17396TIP3   OH273602   4.249   4.107   2.056  0.1302 -0.3729 -0.0659
17396TIP3    H173603   4.210   4.165   1.990  0.4288  0.4277  0.4460
17396TIP3    H273604   4.335   4.145   2.074  0.7675 -1.5739 -0.4644
17397TIP3   OH273605   3.129   2.875  10.759  0.4243 -0.2861 -0.3183
17397TIP3    H173606   3.076   2.828  10.823  2.4164  0.1866  1.8252
17397TIP3    H273607   3.067   2.931  10.713 -1.2398 -1.4087  0.4522
17398TIP3   OH273608   3.763   2.706   1.855  0.1609 -0.1169 -0.2611
17398TIP3    H173609   3.760   2.711   1.951  0.0663  1.5777 -0.3305
17398TIP3    H273610   3.729   2.618   1.835 -0.0238 -0.4189  1.2369
17399TIP3   OH273611   2.653   4.534   4.179 -0.2788 -0.1530  0.1276
17399TIP3    H173612   2.584   4.542   4.113 -0.5569  0.0873  0.4472
17399TIP3    H273613   2.731   4.572   4.137 -0.8389  1.5173  0.5065
17400TIP3   OH273614   0.458   5.378   2.180  0.3071  0.1396  0.0574
17400TIP3    H173615   0.447   5.460   2.227 -0.1759 -0.2747  0.6981
17400TIP3    H273616   0.517   5.326   2.235  1.1432  0.2915 -0.6674
17401TIP3   OH273617   5.476   3.525  16.759  0.0536 -0.2808  0.4973
17401TIP3    H173618   5.571   3.541  16.754  0.0745 -0.6243 -0.7623
17401TIP3    H273619   5.438   3.612  16.769  0.4798 -0.0844  0.4668
17402TIP3   OH273620   4.036   1.562  14.540 -0.0787  0.6258  0.4448
17402TIP3    H173621   4.075   1.633  14.490 -1.7808  1.7940  0.7183
17402TIP3    H273622   3.965   1.530  14.485 -1.8651  1.8160  1.9713
17403TIP3   OH273623   1.773   5.375  11.013  0.6803 -0.2151  0.1624
17403TIP3    H173624   1.840   5.360  10.946  1.4345  1.3527  0.5259
17403TIP3    H273625   1.805   5.450  11.063 -1.9738  1.5436 -0.5214
17404TIP3   OH273626   6.092   2.384  12.333  0.3328 -0.2261 -0.4176
17404TIP3    H173627   6.088   2.466  12.383 -0.2481 -0.2433 -0.4385
17404TIP3    H273628   6.036   2.324  12.381  0.3246 -0.4520 -0.7113
17405TIP3   OH273629   2.433   2.518   4.285  0.4306  0.6969 -0.5050
17405TIP3    H173630   2.527   2.526   4.304  0.2158 -0.4233  1.2139
17405TIP3    H273631   2.416   2.424   4.289 -0.6875  0.8528 -1.2713
17406TIP3   OH273632   2.227   0.106  14.945  0.0379 -0.1653  0.5260
17406TIP3    H173633   2.268   0.188  14.972  0.0921  0.0203 -0.0996
17406TIP3    H273634   2.133   0.126  14.942  0.1163  0.1120 -0.4002
17407TIP3   OH273635   0.098   5.275  12.667  0.6322  0.3050 -1.0766
17407TIP3    H173636   0.120   5.253  12.758 -2.0268 -0.5075 -0.5261
17407TIP3    H273637   0.123   5.367  12.658  1.3578  0.2696  0.3395
17408TIP3   OH273638   3.514   5.955   1.879 -0.5479  0.0082 -0.1557
17408TIP3    H173639   3.448   5.938   1.812  0.0265 -1.1823 -0.4652
17408TIP3    H273640   3.492   6.041   1.915 -2.8242 -0.7628  0.4377
17409TIP3   OH273641   4.918   0.191   2.923 -0.1065  1.0492 -0.1341
17409TIP3    H173642   4.836   0.231   2.954 -2.1557 -1.9331 -1.1623
17409TIP3    H273643   4.969   0.177   3.002 -1.7019  0.7938  0.9099
17410TIP3   OH273644   5.870   0.919   1.603 -0.1064  0.4522  0.1922
17410TIP3    H173645   5.927   0.942   1.677 -1.5802  0.3849  1.4094
17410TIP3    H273646   5.870   0.996   1.547  1.0929  0.4806  0.2065
17411TIP3   OH273647   6.470   1.942  11.255 -0.0291  0.0640 -0.6117
17411TIP3    H173648   6.416   1.972  11.329  0.6976  1.5557 -0.6374
17411TIP3    H273649   6.432   1.858  11.229  1.7675 -2.4279  3.7023
17412TIP3   OH273650   5.673   0.315  12.897  0.2270  0.1708 -0.0880
17412TIP3    H173651   5.665   0.323  12.802  2.7906 -0.2563 -0.4055
17412TIP3    H273652   5.675   0.405  12.929 -0.2235  0.3175 -0.4604
17413TIP3   OH273653   3.045   1.607   2.325  0.1897  0.3069 -0.0577
17413TIP3    H173654   2.973   1.588   2.266 -1.9377  2.4486  1.6392
17413TIP3    H273655   3.042   1.701   2.337  1.0760  0.0752  2.7191
17414TIP3   OH273656   6.286   0.568  17.167  0.0249 -0.1619 -0.1986
17414TIP3    H173657   6.364   0.582  17.221 -1.2058 -0.4440  1.7825
17414TIP3    H273658   6.314   0.505  17.100  1.9731  1.2352 -0.7907
17415TIP3   OH273659   2.655   3.472  12.228 -0.1005  0.4247 -0.1189
17415TIP3    H173660   2.628   3.563  12.237  0.2092  0.5393 -0.3530
17415TIP3    H273661   2.710   3.470  12.150  0.8915  0.2612  0.5731
17416TIP3   OH273662   3.648   3.095  13.615 -0.0603  0.0151  0.0720
17416TIP3    H173663   3.632   3.100  13.709  0.1880 -2.1594  0.2922
17416TIP3    H273664   3.728   3.043  13.608 -1.1217 -1.5299 -1.3499
17417TIP3   OH273665   3.279   3.875   2.517 -0.4290 -0.1342 -0.2368
17417TIP3    H173666   3.253   3.957   2.475  0.5547 -1.2434 -3.2725
17417TIP3    H273667   3.201   3.821   2.515 -1.1842  0.7340  2.0983
17418TIP3   OH273668   5.093   4.679  16.792 -0.5967 -0.1843 -0.6727
17418TIP3    H173669   5.116   4.732  16.869 -2.3944 -0.3035 -0.0140
17418TIP3    H273670   5.166   4.617  16.784 -0.3800 -0.2024  0.9813
17419TIP3   OH273671   5.865   6.446   1.707 -0.2887 -0.4856  0.3677
17419TIP3    H173672   5.880   6.354   1.731 -1.0961 -0.6675  0.2085
17419TIP3    H273673   5.827   6.485   1.785 -0.5403 -0.4442  0.2235
17420TIP3   OH273674   1.216   6.139   3.052 -0.4399 -0.0015 -0.0015
17420TIP3    H173675   1.147   6.092   3.098  0.4282 -0.1105  1.2091
17420TIP3    H273676   1.242   6.209   3.112  0.0931  0.4077 -0.6932
17421TIP3   OH273677   4.148   3.576   4.046 -0.0348  0.3476  0.4964
17421TIP3    H173678   4.226   3.600   4.097  0.4973 -0.0331 -0.1168
17421TIP3    H273679   4.163   3.484   4.023 -0.3394  0.4717 -0.2059
17422TIP3   OH273680   5.722   1.884  14.595 -0.1878  0.3296 -0.2421
17422TIP3    H173681   5.698   1.957  14.652 -0.4064  0.8949 -1.0514
17422TIP3    H273682   5.708   1.806  14.649  1.8696  0.9247  1.3110
17423TIP3   OH273683   5.678   1.030   2.398  0.4037  0.5534 -0.3099
17423TIP3    H173684   5.757   0.977   2.383 -0.9401 -1.5860 -0.3322
17423TIP3    H273685   5.661   1.022   2.492 -0.6072 -0.3211 -0.5441
17424TIP3   OH273686   6.216   1.171   1.824 -0.3420  0.2407 -0.3286
17424TIP3    H173687   6.250   1.167   1.914 -0.0096  0.4979 -0.4417
17424TIP3    H273688   6.294   1.177   1.769 -0.5713  0.9524 -0.5842
17425TIP3   OH273689   5.789   6.256  14.669 -0.1531  0.3471 -0.7468
17425TIP3    H173690   5.884   6.258  14.669 -0.1377  2.3120 -2.1464
17425TIP3    H273691   5.767   6.172  14.708  2.1117  0.5213  1.1580
17426TIP3   OH273692   3.125   1.666   5.116  0.0277 -0.0068 -0.1010
17426TIP3    H173693   3.073   1.621   5.050  0.6895  0.3136 -0.8642
17426TIP3    H273694   3.216   1.642   5.096  0.1435 -1.6252  2.0015
17427TIP3   OH273695   5.386   5.453  16.012 -0.0738  0.3970 -0.8356
17427TIP3    H173696   5.301   5.441  15.970 -0.4790  0.0351  0.0670
17427TIP3    H273697   5.449   5.417  15.949 -0.5641  0.8076 -1.5730
17428TIP3   OH273698   0.279   4.753   2.806  0.0158 -0.2265 -0.1899
17428TIP3    H173699   0.284   4.680   2.868  0.3293 -0.1809 -0.1582
17428TIP3    H273700   0.232   4.822   2.853  1.4122  0.2893  0.4896
17429TIP3   OH273701   5.036   3.978   0.191 -0.3823  0.5349 -0.1704
17429TIP3    H173702   4.974   3.913   0.223 -1.8344  2.1051  0.3394
17429TIP3    H273703   5.046   4.039   0.264  0.1717  1.4338 -0.9855
17430TIP3   OH273704   1.714   2.125  15.657  0.5341  0.6697  0.4724
17430TIP3    H173705   1.746   2.127  15.747 -0.7606  1.3496  0.9407
17430TIP3    H273706   1.786   2.161  15.605  2.2235 -1.8562  0.8838
17431TIP3   OH273707   5.324   1.549   5.412 -0.1314  0.0167 -0.1251
17431TIP3    H173708   5.398   1.487   5.415  0.1419  0.3222 -0.4738
17431TIP3    H273709   5.273   1.529   5.490  1.2492  0.9519  1.0627
17432TIP3   OH273710   4.775   3.673  11.692 -0.3853  0.0937  0.1594
17432TIP3    H173711   4.768   3.682  11.597  0.7879  0.5258  0.1007
17432TIP3    H273712   4.740   3.756  11.726 -2.2448 -0.6613  0.1929
17433TIP3   OH273713   4.805   2.118   3.843 -0.0789  0.1318  0.0152
17433TIP3    H173714   4.716   2.129   3.810 -0.6792 -3.2191  0.1877
17433TIP3    H273715   4.856   2.091   3.766  0.3300  0.0398  0.3136
17434TIP3   OH273716   2.131   1.806   1.227 -0.7925  0.1631 -0.2431
17434TIP3    H173717   2.129   1.890   1.181 -2.3124 -0.1199 -0.7698
17434TIP3    H273718   2.074   1.750   1.174 -0.2289 -1.0384  0.4039
17435TIP3   OH273719   4.344   2.472   4.309 -0.0607  0.0541 -0.7394
17435TIP3    H173720   4.317   2.453   4.399  0.7125  0.3314 -0.4361
17435TIP3    H273721   4.311   2.398   4.258  0.4399 -0.6679 -0.0455
17436TIP3   OH273722   4.853   1.237  14.756 -0.3122 -0.0760 -0.2886
17436TIP3    H173723   4.798   1.234  14.677 -0.1883  2.2303 -0.5418
17436TIP3    H273724   4.920   1.303  14.735 -0.3681  0.7027  1.7774
17437TIP3   OH273725   5.137   2.823   2.472 -0.2564  0.1661  0.1296
17437TIP3    H173726   5.121   2.848   2.563  2.3344  1.0173  0.4309
17437TIP3    H273727   5.211   2.763   2.476 -0.5417 -0.3261 -1.3768
17438TIP3   OH273728   5.543   5.176  11.645  0.5271 -0.0565  0.0847
17438TIP3    H173729   5.532   5.195  11.738  1.1997  0.7507  0.0116
17438TIP3    H273730   5.637   5.160  11.634  0.3913 -0.5607 -0.3770
17439TIP3   OH273731   2.226   1.959   1.765  0.0312  0.1389  1.0888
17439TIP3    H173732   2.145   1.919   1.733 -1.1583  2.4011  1.0803
17439TIP3    H273733   2.216   1.960   1.861  1.0114 -1.4031  1.2467
17440TIP3   OH273734   6.611   0.347  16.147  0.1325 -0.2362  0.8722
17440TIP3    H173735   6.641   0.294  16.221 -0.2516 -0.6888  0.7171
17440TIP3    H273736   6.669   0.323  16.075 -1.1751 -1.9071  0.2828
17441TIP3   OH273737   1.178   3.490  13.943 -0.0092 -0.1750  0.1169
17441TIP3    H173738   1.211   3.579  13.927 -1.1472  0.3969  0.8398
17441TIP3    H273739   1.227   3.460  14.020 -0.1023  0.0918  0.2821
17442TIP3   OH273740   6.372   1.535   5.754 -0.3310  0.2078  0.1670
17442TIP3    H173741   6.306   1.504   5.817 -2.3152  2.0638 -0.8765
17442TIP3    H273742   6.366   1.630   5.758  2.0393  0.4397 -0.3039
17443TIP3   OH273743   4.686   0.655  11.761  0.2198 -0.6243  0.3156
17443TIP3    H173744   4.644   0.725  11.712  1.5515  0.6544  0.9177
17443TIP3    H273745   4.764   0.634  11.710  1.6124  0.7112  1.7948
17444TIP3   OH273746   6.155   2.337   0.132  0.4420 -0.1527 -0.1590
17444TIP3    H173747   6.119   2.424   0.113 -0.4496 -1.0805 -3.1639
17444TIP3    H273748   6.079   2.279   0.134  1.2419 -1.2666 -0.9128
17445TIP3   OH273749   3.632   3.312   3.753  0.5683 -0.4710 -0.0717
17445TIP3    H173750   3.649   3.218   3.764  0.0878 -0.7892 -1.7799
17445TIP3    H273751   3.565   3.316   3.685  0.4025  1.1136  0.1603
17446TIP3   OH273752   4.575   0.204  15.287 -0.1398  0.7544 -0.1929
17446TIP3    H173753   4.578   0.300  15.282  1.7005  0.8520  1.4838
17446TIP3    H273754   4.500   0.185  15.344  0.3722  1.2792  0.6649
17447TIP3   OH273755   6.813   4.011  16.775  0.3637  0.2737 -0.2262
17447TIP3    H173756   6.827   3.986  16.866 -0.4417 -0.0112 -0.1760
17447TIP3    H273757   6.882   3.965  16.727 -0.9418 -1.9452 -0.1098
17448TIP3   OH273758   6.379   4.247  12.668 -0.1046  0.3387 -0.1817
17448TIP3    H173759   6.354   4.203  12.587 -0.0420 -0.1527  0.0603
17448TIP3    H273760   6.398   4.337  12.642  1.1658 -0.1184 -0.9385
17449TIP3   OH273761   6.637   2.423  16.162  0.0466 -0.3395  0.2325
17449TIP3    H173762   6.624   2.514  16.191 -1.6329  0.0462 -1.4784
17449TIP3    H273763   6.554   2.380  16.182  0.7947 -1.4876  0.9260
17450TIP3   OH273764   4.299   3.640   1.138  0.0795 -0.5824 -0.7762
17450TIP3    H173765   4.211   3.677   1.140  0.1423 -0.4411 -0.4983
17450TIP3    H273766   4.357   3.716   1.145  0.2018 -0.7744  0.6659
17451TIP3   OH273767   0.902   1.331  10.743  0.4416  0.1579 -0.1289
17451TIP3    H173768   0.963   1.315  10.671  0.1172 -0.3128 -0.3050
17451TIP3    H273769   0.953   1.378  10.808  0.8127  0.3472 -0.5558
17452TIP3   OH273770   1.467   5.928  14.616 -0.1591  0.6792  0.1962
17452TIP3    H173771   1.480   5.834  14.628 -1.8450  0.5139  1.1127
17452TIP3    H273772   1.502   5.967  14.696 -1.5807  0.5833  0.8958
17453TIP3   OH273773   1.516   2.501  10.998 -0.3102  0.6691 -0.0898
17453TIP3    H173774   1.422   2.500  10.976 -0.4845 -0.1710  0.6688
17453TIP3    H273775   1.529   2.423  11.050  1.2849 -0.4606 -2.0455
17454TIP3   OH273776   5.063   6.471  11.707 -0.2910 -0.4808  0.6767
17454TIP3    H173777   5.018   6.393  11.741 -1.1854 -1.2893 -2.0382
17454TIP3    H273778   5.137   6.436  11.657 -0.8515  0.3309 -0.7998
17455TIP3   OH273779   5.208   4.559   6.555  0.1850 -0.6899 -0.1947
17455TIP3    H173780   5.275   4.618   6.520 -0.3102 -0.1774 -0.2882
17455TIP3    H273781   5.145   4.616   6.598  0.0529 -1.2083  0.3145
17456TIP3   OH273782   4.925   5.284  16.941 -0.1931 -0.0034 -1.1089
17456TIP3    H173783   5.012   5.323  16.931  1.0703 -1.8393  1.5678
17456TIP3    H273784   4.927   5.206  16.885 -0.6955  0.7240 -2.1719
17457TIP3   OH273785   0.219   4.688   0.589 -0.0709 -0.1944 -0.3652
17457TIP3    H173786   0.150   4.648   0.536 -0.5182 -0.2029  0.2157
17457TIP3    H273787   0.235   4.772   0.547  0.5246 -0.7533 -1.2995
17458TIP3   OH273788   2.353   0.991  16.445  0.6888  0.3750 -0.0449
17458TIP3    H173789   2.448   0.990  16.456  0.7141 -0.4269 -0.3114
17458TIP3    H273790   2.338   1.046  16.368  0.9300  0.5189  0.0104
17459TIP3   OH273791   6.126   4.681  11.937 -0.4777  0.5521  0.5960
17459TIP3    H173792   6.155   4.619  12.004 -3.1416 -0.4545  0.9368
17459TIP3    H273793   6.183   4.665  11.863 -0.7622 -2.0364  0.8434
17460TIP3   OH273794   6.434   1.875  15.201  0.1368 -1.0616  0.2689
17460TIP3    H173795   6.405   1.964  15.224 -2.0383 -1.4671 -0.6838
17460TIP3    H273796   6.453   1.834  15.285  0.4934  0.0830  0.7734
17461TIP3   OH273797   1.663   4.202  16.052 -0.0703 -0.5665  0.3626
17461TIP3    H173798   1.576   4.172  16.079 -0.2938  0.9037  1.3943
17461TIP3    H273799   1.711   4.213  16.135 -0.1931  2.3816  0.1382
17462TIP3   OH273800   4.811   6.754   0.190 -0.5025  0.2914 -0.1310
17462TIP3    H173801   4.756   6.678   0.171  0.1740  0.3885 -3.0109
17462TIP3    H273802   4.787   6.819   0.124  2.0205  0.8497 -0.6352
17463TIP3   OH273803   2.120   3.669   2.630  0.4107 -0.2417 -0.3079
17463TIP3    H173804   2.075   3.740   2.676 -0.4651 -0.9134 -0.0920
17463TIP3    H273805   2.101   3.684   2.538 -0.3985 -0.6058 -0.2068
17464TIP3   OH273806   1.986   4.154   5.707  0.4261  0.2673  0.1879
17464TIP3    H173807   1.950   4.070   5.735  0.3223 -0.2132 -1.3396
17464TIP3    H273808   2.081   4.140   5.706  0.3360 -0.4395 -1.8385
17465TIP3   OH273809   3.150   3.520   3.800  0.7388 -0.0057 -0.7408
17465TIP3    H173810   3.146   3.430   3.767 -0.0553 -0.0236 -0.6091
17465TIP3    H273811   3.242   3.532   3.824  0.7479 -0.9611 -0.2468
17466TIP3   OH273812   4.704   1.015   0.444 -0.3161  0.0795  0.2952
17466TIP3    H173813   4.744   1.046   0.362 -0.4085 -1.2237 -0.2550
17466TIP3    H273814   4.646   0.944   0.417  1.0692 -1.6454  1.6892
17467TIP3   OH273815   0.576   1.423  17.119  0.2976 -0.2543  0.0367
17467TIP3    H173816   0.526   1.446  17.198  1.4962  1.1974  0.4183
17467TIP3    H273817   0.558   1.495  17.058  0.3402 -0.7534 -0.5731
17468TIP3   OH273818   1.338   2.125  15.879  0.6877 -0.1704  0.0084
17468TIP3    H173819   1.404   2.140  15.946  0.8083  0.2316 -0.2016
17468TIP3    H273820   1.294   2.209  15.868  0.1968 -0.4136  0.0868
17469TIP3   OH273821   1.901   1.776   6.305 -0.5015 -0.1350 -0.0092
17469TIP3    H173822   1.906   1.860   6.259  0.6717 -0.1612  0.0545
17469TIP3    H273823   1.991   1.757   6.330 -0.8993 -0.9335  0.8563
17470TIP3   OH273824   5.905   2.466   4.357 -0.0557 -0.5021 -0.0146
17470TIP3    H173825   5.810   2.458   4.351 -0.0258 -2.1160  1.0771
17470TIP3    H273826   5.938   2.426   4.277 -0.2883  1.0142 -0.9064
17471TIP3   OH273827   4.477   5.696  14.910 -0.5624 -0.5307  0.5797
17471TIP3    H173828   4.476   5.762  14.841 -0.5580  1.3603  2.2849
17471TIP3    H273829   4.570   5.676  14.922 -0.6632 -2.9156 -1.6862
17472TIP3   OH273830   1.520   6.369  13.506  0.5039 -0.0039 -0.3609
17472TIP3    H173831   1.581   6.425  13.458  1.1368 -1.3891 -1.2387
17472TIP3    H273832   1.475   6.320  13.438 -0.7544  0.1379  0.3525
17473TIP3   OH273833   3.433   4.088  11.909 -0.0896 -0.4154  0.1871
17473TIP3    H173834   3.440   4.054  11.820 -0.6127 -2.6001  0.9176
17473TIP3    H273835   3.516   4.134  11.923  0.4150 -0.8745 -1.0959
17474TIP3   OH273836   0.900   4.314   3.181 -0.1188  0.2313 -0.3835
17474TIP3    H173837   0.927   4.371   3.254 -2.2610  1.3817 -0.4072
17474TIP3    H273838   0.849   4.245   3.223 -3.6776  2.3382 -0.8313
17475TIP3   OH273839   3.835   1.627   2.654  0.4741 -0.5395 -0.2806
17475TIP3    H173840   3.870   1.663   2.736 -0.3263 -0.8555  0.2165
17475TIP3    H273841   3.787   1.549   2.681 -0.4271 -0.2399 -0.9578
17476TIP3   OH273842   6.608   4.213  15.965  0.0685  0.5636 -0.1176
17476TIP3    H173843   6.609   4.221  15.870 -0.6618  0.9589 -0.0953
17476TIP3    H273844   6.684   4.158  15.985 -0.5385 -0.6557 -1.0337
17477TIP3   OH273845   0.683   1.102  15.546 -0.4307 -0.7691  0.0442
17477TIP3    H173846   0.599   1.056  15.544 -1.5395  1.1869 -1.2736
17477TIP3    H273847   0.703   1.120  15.454  1.1349 -0.6739  0.3796
17478TIP3   OH273848   0.491   4.918  15.643 -0.6656  0.0160  0.1091
17478TIP3    H173849   0.499   4.830  15.681 -2.0286 -1.0582 -1.8881
17478TIP3    H273850   0.488   4.976  15.718  0.9289 -1.5561  1.4950
17479TIP3   OH273851   3.783   0.469   5.930 -0.1662 -0.1820 -0.4000
17479TIP3    H173852   3.780   0.541   5.867  0.9537 -0.3429 -0.6645
17479TIP3    H273853   3.795   0.511   6.015 -0.4506 -0.0181 -0.4404
17480TIP3   OH273854   1.506   5.688  13.267 -0.2404 -0.1208  0.1699
17480TIP3    H173855   1.597   5.668  13.245 -0.1289  1.5729 -1.1358
17480TIP3    H273856   1.455   5.650  13.195 -0.1467  2.5611 -1.4676
17481TIP3   OH273857   4.572   2.652  13.278  0.1852  0.3109 -0.1672
17481TIP3    H173858   4.500   2.647  13.341 -0.7381 -0.6818 -1.2536
17481TIP3    H273859   4.608   2.563  13.275 -1.6291 -0.4592 -3.0517
17482TIP3   OH273860   5.672   0.962   5.913 -0.2141 -0.0068  0.3800
17482TIP3    H173861   5.729   0.907   5.966 -0.5444 -0.6079  0.1125
17482TIP3    H273862   5.705   1.051   5.927  1.2521 -0.4118 -0.3510
17483TIP3   OH273863   0.890   6.782  15.881 -0.6175 -0.3647  0.1411
17483TIP3    H173864   0.934   6.777  15.796  0.6097  1.1307  0.6505
17483TIP3    H273865   0.822   6.849  15.869  1.3003  1.8535  1.0089
17484TIP3   OH273866   3.065   0.725   2.478 -0.1318  0.5957 -0.2734
17484TIP3    H173867   3.139   0.686   2.523  0.8570  2.4973 -0.1769
17484TIP3    H273868   3.072   0.694   2.388  1.5892  1.7903 -0.5884
17485TIP3   OH273869   6.157   1.785   1.784 -0.1952  0.0447 -0.3260
17485TIP3    H173870   6.207   1.704   1.771 -2.0127 -1.1717 -0.0057
17485TIP3    H273871   6.222   1.855   1.771  2.1061 -1.4556  2.1377
17486TIP3   OH273872   1.128   4.645  15.059  0.0113 -0.0430 -0.7062
17486TIP3    H173873   1.158   4.726  15.102  1.4932 -0.4316 -0.9669
17486TIP3    H273874   1.141   4.577  15.125 -2.3313  0.0453 -0.0567
17487TIP3   OH273875   5.145   1.710  13.104  0.7142 -0.2248  0.2742
17487TIP3    H173876   5.150   1.665  13.189  0.9786 -0.1512  0.3003
17487TIP3    H273877   5.052   1.716  13.085  0.6227  0.3679  0.8837
17488TIP3   OH273878   0.682   3.779   3.356  0.3405  0.2178 -0.5389
17488TIP3    H173879   0.714   3.712   3.296  3.7628 -0.0167  1.2823
17488TIP3    H273880   0.638   3.730   3.426  2.7318 -0.2852  0.7281
17489TIP3   OH273881   2.554   0.583   1.436 -0.5633 -0.7305 -0.2113
17489TIP3    H173882   2.551   0.495   1.474  0.4437  0.2343  2.3080
17489TIP3    H273883   2.644   0.612   1.450 -0.9983  0.8924 -0.5855
17490TIP3   OH273884   6.149   3.034  12.660  0.0091  0.2483 -0.5288
17490TIP3    H173885   6.242   3.042  12.684 -0.3687 -0.0062  1.1483
17490TIP3    H273886   6.131   3.113  12.610  0.3212  2.1232  2.0591
17491TIP3   OH273887   1.927   6.493  12.201  0.3450  0.2041  0.6528
17491TIP3    H173888   1.991   6.462  12.264 -0.4764 -0.9697  0.9523
17491TIP3    H273889   1.958   6.579  12.174  1.3320  0.2097  1.7683
17492TIP3   OH273890   1.738   0.952  15.582  0.0250  0.4564  0.1602
17492TIP3    H173891   1.748   1.044  15.559  1.1402 -0.2038 -2.2655
17492TIP3    H273892   1.826   0.915  15.573  0.0190 -0.5351  2.9442
17493TIP3   OH273893   1.047   5.258  16.451  0.1197 -0.0811 -0.3841
17493TIP3    H173894   1.002   5.174  16.461  0.3381 -0.4324 -1.9680
17493TIP3    H273895   1.133   5.234  16.415  1.3220  0.6313  1.8775
17494TIP3   OH273896   6.260   2.906   5.919  0.7327  0.1177 -0.2141
17494TIP3    H173897   6.219   2.984   5.954 -0.7498 -0.6124 -0.2370
17494TIP3    H273898   6.315   2.873   5.991  0.5530  0.6005  0.1483
17495TIP3   OH273899   6.789   4.424   3.214  0.1137 -0.0963 -0.2382
17495TIP3    H173900   6.799   4.376   3.296  1.3888  0.5724  0.0086
17495TIP3    H273901   6.745   4.505   3.239  0.6866  0.1971 -0.1882
17496TIP3   OH273902   3.774   1.442  16.571  0.3548 -0.1573  0.4670
17496TIP3    H173903   3.786   1.439  16.666 -0.5103 -0.1985  0.5795
17496TIP3    H273904   3.803   1.356  16.540  2.9893  0.6517  0.3857
17497TIP3   OH273905   2.270   5.914  15.554 -0.2717  0.7110 -0.0074
17497TIP3    H173906   2.263   5.973  15.479 -1.0802  1.8946  0.9663
17497TIP3    H273907   2.182   5.909  15.590 -0.1386 -0.8215  0.1458
17498TIP3   OH273908   4.440   1.230   3.444  0.6781  0.8501 -0.4868
17498TIP3    H173909   4.383   1.249   3.369  0.9079 -0.7841 -1.1130
17498TIP3    H273910   4.380   1.225   3.519  0.6970  4.9393  0.0073
17499TIP3   OH273911   5.725   5.026  12.769  0.2520  0.4678 -0.0304
17499TIP3    H173912   5.691   5.113  12.785 -0.6042  0.3151 -0.8783
17499TIP3    H273913   5.696   4.974  12.844  0.9129  0.9434  0.5592
17500TIP3   OH273914   1.055   1.005  14.292 -0.3356 -0.1825 -0.1502
17500TIP3    H173915   1.131   0.949  14.277 -0.7956 -1.0816  0.7117
17500TIP3    H273916   1.073   1.085  14.243  0.5477 -0.9127 -1.0515
17501TIP3   OH273917   0.061   0.378  16.019 -0.2101  0.8293 -0.3467
17501TIP3    H173918   0.081   0.439  16.089  3.2916  1.3364 -1.6048
17501TIP3    H273919   0.064   0.430  15.939  0.3596 -0.4926 -1.2372
17502TIP3   OH273920   2.769   0.003   5.334 -0.7015  0.1885 -0.0325
17502TIP3    H173921   2.828   0.079   5.326 -2.2322  1.5191  0.8470
17502TIP3    H273922   2.728   0.014   5.419 -0.5594 -1.9769  0.3580
17503TIP3   OH273923   0.626   5.341  13.494 -0.5161  0.2077 -0.3529
17503TIP3    H173924   0.659   5.379  13.412 -2.3256  1.4925 -0.5290
17503TIP3    H273925   0.633   5.412  13.558  1.6582 -1.0203  0.9116
17504TIP3   OH273926   4.835   6.380   6.121 -0.2219 -0.1190  0.0471
17504TIP3    H173927   4.817   6.342   6.206 -1.2568 -0.2292 -0.2100
17504TIP3    H273928   4.915   6.337   6.092  0.0969 -0.1320  0.9243
17505TIP3   OH273929   3.168   0.698  13.317  0.1903 -0.2506 -0.3503
17505TIP3    H173930   3.190   0.790  13.305 -0.5378  0.1852  1.3420
17505TIP3    H273931   3.253   0.654  13.329  0.4665  0.6133  1.2016
17506TIP3   OH273932   2.303   6.091  15.112  0.0281  0.2995  0.1025
17506TIP3    H173933   2.335   6.085  15.022  2.9932  1.2164  0.9709
17506TIP3    H273934   2.315   6.004  15.148 -0.5255  0.1057 -0.1604
17507TIP3   OH273935   4.914   4.670  13.202  0.0303 -0.0419  0.2947
17507TIP3    H173936   4.966   4.751  13.199  2.1305 -1.3097 -2.4960
17507TIP3    H273937   4.964   4.611  13.257 -1.0979  0.2433  1.6763
17508TIP3   OH273938   3.207   4.637   0.835  0.0927 -0.1978 -0.3839
17508TIP3    H173939   3.221   4.697   0.909 -3.2130  0.2649  0.0547
17508TIP3    H273940   3.182   4.554   0.876  0.6487 -0.6702 -0.9895
17509TIP3   OH273941   5.306   4.743   5.229  0.0702  0.8068  0.9828
17509TIP3    H173942   5.396   4.774   5.241  0.2742  1.2184 -1.1083
17509TIP3    H273943   5.255   4.823   5.216 -0.9247  0.6789  3.5863
17510TIP3   OH273944   5.592   4.972   2.119  0.2206  0.0190  0.3699
17510TIP3    H173945   5.584   4.969   2.024 -1.2821 -1.5582  0.5000
17510TIP3    H273946   5.503   4.988   2.150  0.7160  0.6713  1.5192
17511TIP3   OH273947   4.794   6.774  14.435 -0.3017 -0.2325  0.0099
17511TIP3    H173948   4.876   6.779  14.484  1.0310 -1.0408 -1.9996
17511TIP3    H273949   4.729   6.749  14.500  1.2523 -0.6240  1.4847
17512TIP3   OH273950   3.809   6.544  14.999 -0.4679 -0.4103  0.4234
17512TIP3    H173951   3.746   6.476  15.022 -2.2829  1.0325 -0.0207
17512TIP3    H273952   3.811   6.543  14.903 -0.7551  0.3612  0.4051
17513TIP3   OH273953   4.652   0.961  12.280 -0.6082 -0.0018 -0.3667
17513TIP3    H173954   4.725   0.920  12.326 -1.2034 -1.7192 -0.9032
17513TIP3    H273955   4.692   1.009  12.208  0.1654  1.1226  0.7632
17514TIP3   OH273956   1.876   4.371   0.405 -0.6476 -0.1993 -0.2060
17514TIP3    H173957   1.920   4.295   0.442 -0.2313  0.8770  1.6105
17514TIP3    H273958   1.944   4.418   0.357 -0.8012 -0.7073 -0.9366
17515TIP3   OH273959   1.527   5.419  14.300  0.4517  0.2505  0.1065
17515TIP3    H173960   1.478   5.446  14.378 -4.2481 -2.0484 -1.6574
17515TIP3    H273961   1.576   5.342  14.328  0.2492  0.4786  1.1531
17516TIP3   OH273962   4.203   2.725   2.287 -1.0043 -0.3091 -0.3051
17516TIP3    H173963   4.114   2.759   2.279 -1.2433  0.1980  3.2848
17516TIP3    H273964   4.260   2.801   2.270 -1.3478  0.1537  0.6023
17517TIP3   OH273965   0.060   1.964   5.238  0.1613  0.8144 -0.5566
17517TIP3    H173966   0.097   2.006   5.160  0.0109  3.9405  0.9137
17517TIP3    H273967  -0.026   2.003   5.248  0.5722  1.2491  1.7012
17518TIP3   OH273968   2.176   2.274   3.199  0.6571 -0.0479 -0.2977
17518TIP3    H173969   2.181   2.370   3.195 -1.0297  0.0413 -1.4267
17518TIP3    H273970   2.134   2.249   3.117 -0.3659 -1.6360  0.6539
17519TIP3   OH273971   6.280   1.315   5.413 -0.7097 -0.1396 -0.1177
17519TIP3    H173972   6.326   1.277   5.488 -2.0915  0.1825  0.9536
17519TIP3    H273973   6.318   1.273   5.336 -0.8346 -2.2180  0.9075
17520TIP3   OH273974   1.062   5.673   5.486  0.4713  0.4850 -0.9114
17520TIP3    H173975   1.110   5.738   5.537  0.0349  0.2040 -0.1359
17520TIP3    H273976   1.019   5.724   5.417  0.1762  1.0151 -0.3450
17521TIP3   OH273977   2.545   3.873   4.607 -0.4224  0.9772 -0.6238
17521TIP3    H173978   2.483   3.821   4.659  1.2916  0.0722  0.6266
17521TIP3    H273979   2.560   3.951   4.660 -1.4507  1.8397 -1.5513
17522TIP3   OH273980   0.852   5.599  12.620  0.5473  0.7185 -0.2870
17522TIP3    H173981   0.948   5.599  12.622  0.5530  0.3276 -0.3721
17522TIP3    H273982   0.830   5.535  12.552  0.2193 -0.0140  0.4918
17523TIP3   OH273983   4.998   2.018   1.647 -0.1934  0.3665  0.0219
17523TIP3    H173984   4.943   1.971   1.709  1.8017  2.6249  3.8686
17523TIP3    H273985   4.944   2.027   1.569 -2.7565 -3.0001  1.1804
17524TIP3   OH273986   1.496   4.386   4.246 -0.6453  0.3177  0.3221
17524TIP3    H173987   1.500   4.452   4.316 -0.3640  1.4449 -0.7110
17524TIP3    H273988   1.448   4.313   4.284  0.7628  0.2903  2.1790
17525TIP3   OH273989   5.694   1.962   1.408 -0.0024 -0.5620  0.0548
17525TIP3    H173990   5.774   1.997   1.449 -0.9935 -1.3017  2.8863
17525TIP3    H273991   5.724   1.882   1.364  0.7287 -1.4112  1.9737
17526TIP3   OH273992   4.054   4.669   0.479  0.2479  0.2987 -0.2772
17526TIP3    H173993   4.060   4.762   0.503 -1.9458  0.9100 -1.7111
17526TIP3    H273994   4.092   4.665   0.391 -0.5544  0.0655 -0.6228
17527TIP3   OH273995   2.644   3.803   3.118  0.2457  0.1265 -0.0602
17527TIP3    H173996   2.729   3.803   3.162 -0.0371 -2.1720  0.6357
17527TIP3    H273997   2.581   3.790   3.188 -0.4637 -0.6920 -0.8294
17528TIP3   OH273998   1.545   3.678  16.120 -0.8698  0.4303  0.7548
17528TIP3    H173999   1.501   3.594  16.109 -1.1926  0.6286  0.5253
17528TIP3    H274000   1.486   3.742  16.080 -1.0854  0.9004  1.8033
17529TIP3   OH274001   5.566   1.500  10.339  0.1586  0.5031 -0.6742
17529TIP3    H174002   5.583   1.588  10.305  1.4028  0.5133 -0.0570
17529TIP3    H274003   5.602   1.442  10.272 -0.3754  0.4527 -0.9272
17530TIP3   OH274004   3.576   0.135  12.800  0.1634 -0.1870  0.3561
17530TIP3    H174005   3.509   0.126  12.732  0.0096  1.7260  0.1909
17530TIP3    H274006   3.572   0.228  12.825  2.6625 -0.0162  0.4124
17531TIP3   OH274007   1.099   4.235  14.947 -0.1825 -0.1039 -0.4331
17531TIP3    H174008   1.009   4.243  14.979 -0.1823 -0.6441 -0.2698
17531TIP3    H274009   1.110   4.141  14.932  0.7803 -0.2204  0.8291
17532TIP3   OH274010   2.956   6.161   5.658 -0.5452  0.4418 -0.3112
17532TIP3    H174011   3.031   6.158   5.599 -1.0040  0.0628 -0.8805
17532TIP3    H274012   2.952   6.252   5.686  0.8538  0.2364  0.6831
17533TIP3   OH274013   0.468   6.270  11.182  0.1362  0.0615  0.2561
17533TIP3    H174014   0.499   6.354  11.213 -1.6542  0.7748  0.2315
17533TIP3    H274015   0.541   6.235  11.130  0.4344  2.2326 -0.9158
17534TIP3   OH274016   5.964   2.288  15.133  0.6872  0.3528 -0.2662
17534TIP3    H174017   5.908   2.212  15.116 -0.5384  0.9778  0.8556
17534TIP3    H274018   5.924   2.332  15.207  1.2763  2.2058 -0.9837
17535TIP3   OH274019   1.796   0.701  12.476 -0.2370  0.0733 -0.3796
17535TIP3    H174020   1.828   0.688  12.565  0.3055  0.4164 -0.5212
17535TIP3    H274021   1.870   0.678  12.420  0.1018  1.7840 -0.6916
17536TIP3   OH274022   4.756   2.791   4.063 -0.4780 -0.0513  0.0908
17536TIP3    H174023   4.839   2.790   4.111 -0.2782 -0.2568 -0.2570
17536TIP3    H274024   4.714   2.708   4.086 -0.4023 -0.1300 -0.0521
17537TIP3   OH274025   0.746   2.487  13.891 -0.2200  0.0251 -0.2606
17537TIP3    H174026   0.772   2.568  13.935 -0.9362  0.5628 -0.8006
17537TIP3    H274027   0.685   2.445  13.952  0.4937 -0.3412  0.2153
17538TIP3   OH274028   3.964   4.869  11.880  0.1083 -0.4072 -0.5230
17538TIP3    H174029   3.929   4.917  11.805 -1.1467  1.1448  0.9779
17538TIP3    H274030   3.888   4.826  11.919  0.9038 -2.0383 -0.6475
17539TIP3   OH274031   3.399   6.779   4.558 -0.1359  0.5473  0.1440
17539TIP3    H174032   3.385   6.720   4.632  0.6983 -0.1625 -0.2471
17539TIP3    H274033   3.494   6.777   4.544 -0.2158  1.2050 -0.5062
17540TIP3   OH274034   4.883   6.403   3.149  0.2723 -0.1751  0.0806
17540TIP3    H174035   4.813   6.378   3.209 -0.1273  2.5106  0.8559
17540TIP3    H274036   4.886   6.498   3.154  1.9019 -0.0128 -2.3272
17541TIP3   OH274037   0.651   6.128  14.156  0.3328 -0.5282 -0.0117
17541TIP3    H174038   0.569   6.134  14.206  0.4107  0.9385 -0.0130
17541TIP3    H274039   0.670   6.218  14.131  0.1934 -1.1985 -2.8988
17542TIP3   OH274040   4.938   2.561  15.258  0.1732 -0.4079 -0.0653
17542TIP3    H174041   5.011   2.533  15.203  0.2380  0.9915 -0.7503
17542TIP3    H274042   4.975   2.570  15.346  0.8811  0.4420 -0.4391
17543TIP3   OH274043   4.830   1.156  11.640 -0.0072 -0.7036 -0.1147
17543TIP3    H174044   4.768   1.205  11.694  0.5412  0.4947 -0.5442
17543TIP3    H274045   4.889   1.223  11.604  0.9443 -1.7077 -0.4833
17544TIP3   OH274046   3.908   6.167   3.306 -0.4456  0.7576  0.6118
17544TIP3    H174047   3.972   6.173   3.235  0.4526  0.3845  1.3790
17544TIP3    H274048   3.881   6.075   3.305 -1.0801  0.9408  0.2092
17545TIP3   OH274049   0.307   5.044  14.537  0.3207  0.3736  0.1934
17545TIP3    H174050   0.369   5.106  14.498  1.0171 -0.5513 -0.2004
17545TIP3    H274051   0.330   4.959  14.499 -0.3878 -0.1959  0.9893
17546TIP3   OH274052   4.218   6.670  11.103 -0.4415  0.0058 -0.1084
17546TIP3    H174053   4.135   6.696  11.063 -0.9497 -0.5470  0.5566
17546TIP3    H274054   4.216   6.708  11.190 -0.8332 -1.5049  0.5827
17547TIP3   OH274055   6.022   5.800  12.556 -0.3866  0.0832  0.2895
17547TIP3    H174056   5.982   5.887  12.546 -0.7799  0.0704  1.6133
17547TIP3    H274057   5.956   5.741  12.519 -1.0188  0.1902  1.1931
17548TIP3   OH274058   4.039   4.391  14.797  0.1142  0.5099  0.1768
17548TIP3    H174059   3.944   4.383  14.782  0.3963 -0.2715 -1.4250
17548TIP3    H274060   4.077   4.317  14.749  1.5279  0.6303  1.0556
17549TIP3   OH274061   0.709   0.514   1.972 -0.0471 -0.2103  0.3780
17549TIP3    H174062   0.620   0.481   1.956 -0.2458  0.0568  0.9257
17549TIP3    H274063   0.752   0.506   1.887 -0.4965 -0.6371  0.1792
17550TIP3   OH274064   4.470   4.269   2.074 -0.6206  0.3712 -0.1222
17550TIP3    H174065   4.538   4.229   2.128  0.0073 -0.5036 -1.5021
17550TIP3    H274066   4.503   4.357   2.056 -1.1211  0.9047  1.3604
17551TIP3   OH274067   5.819   0.748  16.277 -0.1877  0.2675  0.0517
17551TIP3    H174068   5.897   0.794  16.311 -2.0549  3.4336  0.4706
17551TIP3    H274069   5.840   0.731  16.185  1.0910  0.8739  0.2081
17552TIP3   OH274070   2.592   6.437  11.637 -0.0838  0.2634 -0.1003
17552TIP3    H174071   2.528   6.396  11.580 -2.2681  3.0834  0.0826
17552TIP3    H274072   2.608   6.523  11.598  2.3207  0.3272  0.8258
17553TIP3   OH274073   2.321   1.137   6.383  0.5958  0.1448 -0.5347
17553TIP3    H174074   2.329   1.231   6.367 -2.2154  0.3274 -1.4005
17553TIP3    H274075   2.246   1.128   6.442  1.9543 -1.4842  1.0570
17554TIP3   OH274076   1.957   2.820   3.727  0.9424 -0.4445  0.5160
17554TIP3    H174077   1.980   2.908   3.699 -0.3155  0.3778  1.9208
17554TIP3    H274078   1.978   2.765   3.651 -1.2933  1.4863 -1.7145
17555TIP3   OH274079   0.738   3.665  14.440 -0.3801 -0.2448 -1.1742
17555TIP3    H174080   0.651   3.706  14.442 -0.4049 -0.3095 -0.8694
17555TIP3    H274081   0.721   3.571  14.441 -0.2989 -0.2596 -0.4331
17556TIP3   OH274082   3.740   3.532   5.610  0.1577  0.5775 -0.5844
17556TIP3    H174083   3.801   3.537   5.537  0.7114 -4.0610 -0.7442
17556TIP3    H274084   3.795   3.543   5.688  0.1502  2.0446 -0.7607
17557TIP3   OH274085   2.802   0.670  13.761 -0.1022  0.9470 -0.4808
17557TIP3    H174086   2.796   0.752  13.810  0.1213  0.0978  1.0347
17557TIP3    H274087   2.711   0.647  13.741 -0.1332  1.8235 -1.3819
17558TIP3   OH274088   3.244   1.071   1.938 -0.3257  0.4660  0.2035
17558TIP3    H174089   3.217   1.030   1.857 -1.1754 -0.5477  0.9733
17558TIP3    H274090   3.330   1.034   1.957 -0.3113  0.3892 -0.0151
17559TIP3   OH274091   1.570   1.876  15.297 -0.2386  0.1493 -0.0730
17559TIP3    H174092   1.484   1.846  15.267 -1.2650  1.7238  1.1426
17559TIP3    H274093   1.612   1.797  15.331 -2.1528 -0.2867  1.4610
17560TIP3   OH274094   2.741   4.266   2.546  0.1307 -0.1266  0.6031
17560TIP3    H174095   2.695   4.350   2.550  1.4396  0.6537 -0.0378
17560TIP3    H274096   2.815   4.276   2.605  0.6165 -0.6184  0.0952
17561TIP3   OH274097   4.492   4.545   0.548 -0.1747 -0.0058 -0.4456
17561TIP3    H174098   4.436   4.587   0.483 -0.1750  0.6179 -0.0479
17561TIP3    H274099   4.547   4.486   0.497  0.7109  1.4013 -1.1869
17562TIP3   OH274100   2.248   0.613   3.429 -0.4028 -0.1155 -0.5768
17562TIP3    H174101   2.328   0.564   3.445 -0.1501  0.1767 -0.9191
17562TIP3    H274102   2.219   0.584   3.342 -1.2961 -1.0687  0.0167
17563TIP3   OH274103   6.652   2.623  14.654  0.3240 -0.2389 -0.3781
17563TIP3    H174104   6.714   2.573  14.602  0.9091  1.1682 -1.0931
17563TIP3    H274105   6.599   2.670  14.590  0.8711  1.3215  0.2511
17564TIP3   OH274106   1.452   2.294  11.222 -0.0109  0.0433 -0.0685
17564TIP3    H174107   1.410   2.225  11.273  0.5336  0.1594  0.5620
17564TIP3    H274108   1.543   2.266  11.215 -0.4016 -0.8237 -2.4737
17565TIP3   OH274109   1.883   6.623   1.103  0.1975 -0.1876 -0.0064
17565TIP3    H174110   1.830   6.666   1.036 -2.2149 -1.0905  1.1836
17565TIP3    H274111   1.938   6.692   1.139 -1.2109  1.1655 -0.3515
17566TIP3   OH274112   6.673   6.158  17.035  0.1476 -0.2199  0.1555
17566TIP3    H174113   6.711   6.100  17.103 -3.5821 -1.7507  1.1778
17566TIP3    H274114   6.648   6.098  16.965 -0.5840  0.6703 -0.3522
17567TIP3   OH274115   3.037   5.168   6.102  0.2270  0.0417  0.5782
17567TIP3    H174116   2.990   5.086   6.119 -1.1667  0.8848  1.0114
17567TIP3    H274117   2.968   5.232   6.085  1.3341  0.8557 -1.0788
17568TIP3   OH274118   1.382   2.774   4.233 -0.1406  0.5735 -0.5812
17568TIP3    H174119   1.396   2.868   4.219  0.3466  0.5723 -0.1214
17568TIP3    H274120   1.331   2.769   4.314  1.8077  0.3675  0.6962
17569TIP3   OH274121   3.235   2.228   1.242 -0.2507  0.0153  0.0600
17569TIP3    H174122   3.317   2.192   1.207 -0.9998 -1.3721 -0.3053
17569TIP3    H274123   3.207   2.165   1.307 -0.7051  0.8267  0.6674
17570TIP3   OH274124   3.089   3.575  15.709  0.9093  0.7128 -0.3984
17570TIP3    H174125   3.068   3.664  15.678  0.0624  0.3155 -1.0161
17570TIP3    H274126   3.116   3.528  15.630  1.1677  0.3624 -0.1063
17571TIP3   OH274127   3.103   6.760  12.390 -0.2028 -0.2274  0.5025
17571TIP3    H174128   3.069   6.765  12.300 -0.2415  2.0697  0.5886
17571TIP3    H274129   3.173   6.694  12.385  0.2257  0.2891 -1.3759
17572TIP3   OH274130   0.826   5.089  11.611  0.0534  0.5323  0.3458
17572TIP3    H174131   0.841   5.182  11.631 -2.8006  1.2975 -0.5412
17572TIP3    H274132   0.866   5.076  11.525  2.4556  0.2654  1.4402
17573TIP3   OH274133   1.078   1.886  13.941 -0.2185 -0.5245 -0.3104
17573TIP3    H174134   1.058   1.840  13.859 -0.4460 -0.3675 -0.3455
17573TIP3    H274135   1.061   1.978  13.922  1.1049 -0.2992 -0.5093
17574TIP3   OH274136   2.036   1.707  13.343 -0.6493 -0.2469  0.1819
17574TIP3    H174137   2.052   1.694  13.437 -1.3240 -1.1265  0.1939
17574TIP3    H274138   2.106   1.660  13.300 -0.3280  0.1728  0.2443
17575TIP3   OH274139   2.141   0.796   0.506 -0.0338  0.0306  0.3415
17575TIP3    H174140   2.234   0.813   0.520 -0.3042  0.2503  2.1926
17575TIP3    H274141   2.132   0.789   0.411  1.6840  1.0459  0.0493
17576TIP3   OH274142   6.563   2.096  13.822  0.0597  0.5157 -0.2030
17576TIP3    H174143   6.500   2.068  13.756  1.2097  0.1139 -1.1528
17576TIP3    H274144   6.573   2.021  13.880  1.9977 -0.5883 -1.8722
17577TIP3   OH274145   5.564   2.988   0.136  0.0384 -0.3525 -0.5699
17577TIP3    H174146   5.624   3.061   0.151 -2.7311  2.3416 -1.3543
17577TIP3    H274147   5.539   2.959   0.224  0.1640  0.6489 -0.1857
17578TIP3   OH274148   4.820   6.076  17.208 -0.2461  0.1089  0.0395
17578TIP3    H174149   4.906   6.116  17.206 -1.0570  1.9128 -0.5551
17578TIP3    H274150   4.837   5.982  17.202  1.6194  0.4842 -1.2396
17579TIP3   OH274151   5.466   3.717   5.718  0.4261 -0.5526  0.2839
17579TIP3    H174152   5.427   3.671   5.643  1.6780 -1.6440  0.2590
17579TIP3    H274153   5.394   3.725   5.781 -0.3894 -0.5216 -0.6255
17580TIP3   OH274154   5.345   3.032  12.339  0.5386  0.0403  0.3433
17580TIP3    H174155   5.357   3.067  12.427 -0.5319 -0.2092  0.5980
17580TIP3    H274156   5.286   3.093  12.296  0.3276 -0.3296  0.1027
17581TIP3   OH274157   0.398   3.324  12.025  0.3437 -0.0156 -0.0884
17581TIP3    H174158   0.419   3.413  12.054  0.1643  0.0713 -0.2165
17581TIP3    H274159   0.459   3.306  11.954 -0.5559  0.5650 -1.0431
17582TIP3   OH274160   6.724   3.205   4.178 -0.0208 -0.3925  0.2181
17582TIP3    H174161   6.659   3.275   4.174  0.2535 -0.1330  0.2647
17582TIP3    H274162   6.710   3.154   4.098 -1.2235 -1.1826  0.8939
17583TIP3   OH274163   3.442   6.145   2.045 -0.1227 -0.0974 -0.0278
17583TIP3    H174164   3.353   6.158   2.080  0.9232  0.1524  2.7646
17583TIP3    H274165   3.454   6.218   1.984 -2.6185 -1.4449 -2.3821
17584TIP3   OH274166   5.608   5.500  11.695  0.8262  0.5464  0.6042
17584TIP3    H174167   5.542   5.484  11.628  2.2578 -0.7752 -0.5780
17584TIP3    H274168   5.686   5.526  11.646  1.2723  1.8668  1.9498
17585TIP3   OH274169   5.502   6.525  12.870 -0.5650  0.0785  0.2208
17585TIP3    H174170   5.488   6.526  12.964 -0.2552 -0.8305  0.2768
17585TIP3    H274171   5.582   6.576  12.857  0.0883 -0.8344  0.5742
17586TIP3   OH274172   0.838   6.419   6.008  0.4719  0.1572  0.2713
17586TIP3    H174173   0.905   6.356   6.036  0.4712 -0.2550 -0.5980
17586TIP3    H274174   0.869   6.450   5.923 -0.4685 -0.0949 -0.1752
17587TIP3   OH274175   4.964   2.032  17.009  0.2853  0.3926  0.6349
17587TIP3    H174176   5.003   2.058  17.093 -0.6654 -3.6395  2.6093
17587TIP3    H274177   5.034   1.985  16.964 -0.1405 -0.4271  0.8038
17588TIP3   OH274178   5.103   0.868   1.193  0.1743 -0.8137 -0.0476
17588TIP3    H174179   5.011   0.888   1.209 -0.0028 -2.3312  0.9353
17588TIP3    H274180   5.122   0.909   1.108 -1.2141  0.0410  0.0293
17589TIP3   OH274181   2.331   4.231  13.281  0.5000 -0.1400  0.2068
17589TIP3    H174182   2.240   4.243  13.254  0.2563 -0.3992  0.8824
17589TIP3    H274183   2.356   4.146  13.245  1.3779  1.0817 -2.3155
17590TIP3   OH274184   2.132   6.533  12.634 -0.3753  0.2789  0.1233
17590TIP3    H174185   2.221   6.567  12.636  0.0499 -0.8172  0.2708
17590TIP3    H274186   2.080   6.600  12.679  0.0263  1.8576 -1.6314
17591TIP3   OH274187   4.835   2.443  14.152 -0.2425 -0.6262  0.3926
17591TIP3    H174188   4.838   2.495  14.233 -0.1585 -0.1868  0.1071
17591TIP3    H274189   4.907   2.380  14.163  0.7753  0.4213  0.0036
17592TIP3   OH274190   5.683   4.465   1.957 -0.5697 -0.4062  0.2353
17592TIP3    H174191   5.723   4.402   2.017  0.2926  0.7055  0.8652
17592TIP3    H274192   5.612   4.505   2.009  0.2687  0.6583  0.5955
17593TIP3   OH274193   5.009   6.165   5.814  0.6711  0.4908 -0.8548
17593TIP3    H174194   4.974   6.213   5.739  2.4339  0.6337 -1.6294
17593TIP3    H274195   5.036   6.233   5.876 -1.2326  0.3735  0.2110
17594TIP3   OH274196   6.675   1.282   3.648  0.2314  0.0453 -0.1737
17594TIP3    H174197   6.755   1.292   3.596 -0.2830  3.2665 -0.5693
17594TIP3    H274198   6.632   1.205   3.612  1.8814 -0.2023 -1.7488
17595TIP3   OH274199   3.315   5.506  16.937  0.4596 -0.1465  0.4586
17595TIP3    H174200   3.321   5.569  16.866  0.8631 -0.1893  0.4478
17595TIP3    H274201   3.319   5.421  16.893  0.2920 -0.1748  0.4994
17596TIP3   OH274202   1.900   1.632  15.045 -0.3709  0.4476  0.4759
17596TIP3    H174203   1.904   1.679  15.128  1.0200  0.4975  0.4077
17596TIP3    H274204   1.991   1.609  15.027 -0.7712 -0.3523 -0.5868
17597TIP3   OH274205   4.319   1.316  14.569  0.0421  0.0951 -0.8175
17597TIP3    H174206   4.335   1.356  14.483 -0.3254 -0.1208 -0.9889
17597TIP3    H274207   4.320   1.389  14.630  1.5830  0.1140 -0.8236
17598TIP3   OH274208   6.574   2.715  13.872  0.3497 -0.1938 -0.1215
17598TIP3    H174209   6.547   2.679  13.956 -0.0965  1.0037  0.2688
17598TIP3    H274210   6.665   2.741  13.884  0.1904  0.2748  0.1075
17599TIP3   OH274211   4.406   5.833   2.082  0.3691 -0.2562 -0.2770
17599TIP3    H174212   4.459   5.766   2.126  0.2502  0.3525  0.8225
17599TIP3    H274213   4.400   5.904   2.146 -2.2690 -0.5417 -0.1257
17600TIP3   OH274214   6.723   5.735  15.560  0.0843 -0.5706 -0.2346
17600TIP3    H174215   6.718   5.741  15.465  0.6361 -1.0192 -0.2955
17600TIP3    H274216   6.817   5.735  15.579  0.0060  1.2747  0.4325
17601TIP3   OH274217   1.935   2.376   2.194  0.3489 -0.1150 -0.3422
17601TIP3    H174218   2.004   2.433   2.230 -1.7495  2.7059 -0.4950
17601TIP3    H274219   1.912   2.416   2.110 -0.3900 -1.9481 -1.0604
17602TIP3   OH274220   1.953   4.554   1.297 -0.5417 -0.1566 -0.3836
17602TIP3    H174221   1.979   4.504   1.219 -0.1661  0.2820 -0.5456
17602TIP3    H274222   1.967   4.645   1.272 -1.6314  0.0623 -0.2391
17603TIP3   OH274223   2.482   1.579   6.587 -0.1697 -0.1050 -0.6015
17603TIP3    H174224   2.525   1.549   6.667  0.4587 -0.1422 -0.9470
17603TIP3    H274225   2.536   1.544   6.516 -0.8064 -0.2065 -1.0459
17604TIP3   OH274226   1.106   5.103  15.985  0.1263  0.1535 -0.2402
17604TIP3    H174227   1.126   5.023  16.033 -0.4601  0.1729  0.0506
17604TIP3    H274228   1.183   5.159  16.000 -1.3685  1.5093  3.6364
17605TIP3   OH274229   4.380   5.073   5.483 -0.0306 -0.3926 -0.7588
17605TIP3    H174230   4.326   4.995   5.470 -2.1623  0.7480  0.6954
17605TIP3    H274231   4.383   5.114   5.397 -3.0265  0.3892 -0.5961
17606TIP3   OH274232   4.305   4.249  14.116  0.1255 -0.7806 -0.2348
17606TIP3    H174233   4.243   4.179  14.136 -0.7446 -0.7592 -2.5740
17606TIP3    H274234   4.291   4.268  14.024  2.6457  0.2338 -0.4892
17607TIP3   OH274235   0.137   2.779  11.039 -0.2448  0.1427 -0.1097
17607TIP3    H174236   0.078   2.746  10.970 -0.8168 -1.5413  1.1080
17607TIP3    H274237   0.109   2.869  11.053  0.1757  0.6708 -2.3623
17608TIP3   OH274238   3.406   0.754   1.213 -0.0507 -0.7660  0.0123
17608TIP3    H174239   3.323   0.706   1.217 -1.9596  2.2129 -0.8575
17608TIP3    H274240   3.432   0.764   1.304 -1.7596 -0.0429  0.4572
17609TIP3   OH274241   1.408   4.282  13.593 -0.1100  0.4348  0.0495
17609TIP3    H174242   1.461   4.360  13.572  0.9879 -0.5843 -1.1878
17609TIP3    H274243   1.380   4.249  13.507  0.1651 -0.9990  0.4963
17610TIP3   OH274244   6.644   2.081  16.150 -0.2523  0.2786  0.1009
17610TIP3    H174245   6.684   2.151  16.097  0.0544 -0.2395 -0.3613
17610TIP3    H274246   6.652   2.112  16.240  0.9375  0.3258 -0.0058
17611TIP3   OH274247   5.714   2.510   0.631 -0.1464  0.0687  0.6159
17611TIP3    H174248   5.748   2.585   0.583 -0.4485  0.1452  0.5236
17611TIP3    H274249   5.783   2.488   0.693  1.1253 -1.2609 -1.1615
17612TIP3   OH274250   0.094   5.498  15.126  0.5778  0.0398 -0.0101
17612TIP3    H174251   0.179   5.535  15.101  0.2522  0.2216 -0.8741
17612TIP3    H274252   0.116   5.427  15.186  1.3423  0.0529 -0.2612
17613TIP3   OH274253   5.340   2.258   4.339  0.0630  0.5013  0.3998
17613TIP3    H174254   5.264   2.205   4.315  0.8510 -0.1873 -0.6797
17613TIP3    H274255   5.306   2.347   4.348 -0.7050  0.3712 -1.0185
17614TIP3   OH274256   6.750   6.541  16.317  0.4595 -1.0035  0.0184
17614TIP3    H174257   6.664   6.566  16.351 -0.0053 -0.6944 -1.3116
17614TIP3    H274258   6.775   6.465  16.369 -0.0810 -0.3934  1.2040
17615TIP3   OH274259   5.190   3.711  12.737 -0.7990  0.0008 -0.5882
17615TIP3    H174260   5.227   3.774  12.799  0.4331  1.1177 -2.3441
17615TIP3    H274261   5.112   3.677  12.780  0.2471  0.3599  1.7471
17616TIP3   OH274262   2.511   6.634   5.202  0.0834  0.2298  0.2245
17616TIP3    H174263   2.497   6.726   5.223  1.3469  0.4649  0.1202
17616TIP3    H274264   2.510   6.589   5.286 -0.1815  0.3900  0.3065
17617TIP3   OH274265   3.654   0.717  11.620 -0.1589  0.5637  0.0168
17617TIP3    H174266   3.743   0.747  11.599 -0.7938  1.6415 -1.2492
17617TIP3    H274267   3.646   0.633  11.576 -0.0266  0.8357 -0.5321
17618TIP3   OH274268   3.914   1.741   3.782  0.0055  0.1220  0.3329
17618TIP3    H174269   3.829   1.778   3.756 -1.2232 -1.0202  2.4314
17618TIP3    H274270   3.935   1.786   3.864  1.2738  0.1366  0.0120
17619TIP3   OH274271   1.728   4.674  13.457 -0.3091  0.4788 -0.0867
17619TIP3    H174272   1.735   4.594  13.508  1.7599  1.2416  0.9334
17619TIP3    H274273   1.812   4.682  13.412  0.6640  3.3222  1.8971
17620TIP3   OH274274   3.330   3.912  12.809  1.0252  0.3858 -0.4172
17620TIP3    H174275   3.296   3.984  12.862  1.7510 -0.3538  1.1149
17620TIP3    H274276   3.303   3.933  12.720 -0.2247  1.6926  0.2250
17621TIP3   OH274277   5.496   3.270   4.405 -0.9678 -0.4920  0.1573
17621TIP3    H174278   5.556   3.306   4.470 -1.2669  0.0255  0.1560
17621TIP3    H274279   5.412   3.263   4.452 -0.6760 -2.2135  0.4811
17622TIP3   OH274280   4.486   0.275   0.875  0.5877 -0.2591 -0.2487
17622TIP3    H174281   4.411   0.271   0.815  0.7411  0.8775 -0.5377
17622TIP3    H274282   4.447   0.294   0.960  0.4969 -0.2884 -0.2836
17623TIP3   OH274283   3.114   4.204  16.094 -0.2274 -0.6038 -0.2305
17623TIP3    H174284   3.185   4.266  16.109 -1.0635  0.7059 -1.4624
17623TIP3    H274285   3.120   4.142  16.167  1.3421  0.2453  0.4000
17624TIP3   OH274286   2.095   3.391  14.561  0.1334 -0.1882  0.1899
17624TIP3    H174287   2.012   3.368  14.604  0.9561 -1.1173  1.3250
17624TIP3    H274288   2.115   3.479  14.593 -0.3423 -0.0152  0.0181
17625TIP3   OH274289   4.667   2.224  15.699 -1.1805 -0.5221  0.3700
17625TIP3    H174290   4.758   2.193  15.704 -1.1342 -0.9579 -2.0072
17625TIP3    H274291   4.620   2.170  15.761 -0.1330 -1.6578  0.2142
17626TIP3   OH274292   2.337   0.579  14.781  0.0127  0.3763 -0.5254
17626TIP3    H174293   2.319   0.526  14.703 -1.4077 -1.2745  0.8315
17626TIP3    H274294   2.299   0.529  14.853  2.7195  0.9784  1.5019
17627TIP3   OH274295   5.850   0.746   5.452 -0.2879  0.8278 -0.2922
17627TIP3    H174296   5.909   0.672   5.467 -0.7482  0.0634 -2.0252
17627TIP3    H274297   5.769   0.706   5.420 -0.9566  2.0226 -0.1480
17628TIP3   OH274298   4.930   4.490  10.854 -0.4148  0.1137  0.4804
17628TIP3    H174299   4.921   4.403  10.815 -0.6311 -0.3171  1.4553
17628TIP3    H274300   5.008   4.527  10.812  1.0006 -1.4441  1.6145
17629TIP3   OH274301   3.912   1.036   0.907 -0.4776 -0.3125  0.0291
17629TIP3    H174302   3.877   1.125   0.905  0.9593  0.2821 -0.3762
17629TIP3    H274303   3.944   1.021   0.818 -2.6740 -2.1097 -0.5451
17630TIP3   OH274304   6.196   1.335   4.238  0.0345  0.1891 -0.1034
17630TIP3    H174305   6.119   1.315   4.291 -1.0850  1.9073 -1.0066
17630TIP3    H274306   6.270   1.317   4.295 -1.0484 -0.7832  1.0428
17631TIP3   OH274307   0.244   0.965  13.145  0.1301 -0.0123 -0.0994
17631TIP3    H174308   0.222   0.982  13.053  1.5459  1.6609 -0.1821
17631TIP3    H274309   0.312   1.029  13.166 -0.7002  0.2066  2.3509
17632TIP3   OH274310   2.828   2.036  16.870  0.1915  0.4189 -0.0255
17632TIP3    H174311   2.891   2.099  16.907  1.2434 -0.2537 -0.6109
17632TIP3    H274312   2.880   1.985  16.808 -0.8876 -0.3459 -0.3159
17633TIP3   OH274313   1.501   3.135  14.220 -0.7323  0.3848  0.2599
17633TIP3    H174314   1.554   3.210  14.248  1.1047 -0.1518 -1.5667
17633TIP3    H274315   1.532   3.062  14.273  1.4035 -0.2109 -1.6406
17634TIP3   OH274316   4.497   6.563  13.302 -0.2693 -0.0414  0.1960
17634TIP3    H174317   4.482   6.470  13.315 -0.4017 -0.1680 -0.7841
17634TIP3    H274318   4.436   6.588  13.232  0.8515  0.4258 -0.6606
17635TIP3   OH274319   5.125   3.184   5.406  0.2062  0.4464 -0.2531
17635TIP3    H174320   5.119   3.105   5.460  0.5302  0.0635 -0.7596
17635TIP3    H274321   5.077   3.251   5.455  0.4976  0.1140  0.5042
17636TIP3   OH274322   2.287   1.163   4.540 -0.0631  0.4286  0.0200
17636TIP3    H174323   2.332   1.152   4.455 -0.8744 -2.0528 -0.1574
17636TIP3    H274324   2.272   1.257   4.546 -0.7165  0.6462 -3.0152
17637TIP3   OH274325   5.704   4.921   3.517 -0.0892 -0.4855  0.0289
17637TIP3    H174326   5.702   5.017   3.522  0.2947 -0.2352 -2.6866
17637TIP3    H274327   5.771   4.895   3.580 -0.9345  0.9257  1.5708
17638TIP3   OH274328   0.396   4.366  14.503  0.1082 -0.0207  0.5714
17638TIP3    H174329   0.373   4.329  14.418  3.7107  0.1884 -0.6387
17638TIP3    H274330   0.346   4.448  14.508  0.5030  0.4279 -1.8044
17639TIP3   OH274331   3.100   1.208   2.758  0.4751  0.0606 -0.6093
17639TIP3    H174332   3.078   1.126   2.713 -1.0193  0.7452 -1.1761
17639TIP3    H274333   3.150   1.180   2.835 -1.1060 -1.5231 -0.0784
17640TIP3   OH274334   3.718   0.300   2.427 -0.2325  0.4123 -1.0855
17640TIP3    H174335   3.811   0.323   2.424 -0.0636 -0.2776 -1.1854
17640TIP3    H274336   3.709   0.243   2.503 -0.7914  1.3690 -0.3963
17641TIP3   OH274337   1.579   2.629  13.408 -0.1142  0.0846 -0.1850
17641TIP3    H174338   1.611   2.684  13.337 -3.4871  1.0933 -1.0968
17641TIP3    H274339   1.569   2.689  13.482  0.6348 -0.3757  0.3175
17642TIP3   OH274340   0.148   0.285   2.316  0.6320 -1.2276  0.2734
17642TIP3    H174341   0.178   0.366   2.359  1.3067  0.0574 -2.4044
17642TIP3    H274342   0.053   0.296   2.308  0.5565 -1.2909  1.0212
17643TIP3   OH274343   2.470   0.439  11.027 -0.0386 -0.1007 -0.6790
17643TIP3    H174344   2.449   0.494  10.952 -0.8291 -1.3291 -1.3997
17643TIP3    H274345   2.445   0.351  11.000 -1.5653 -0.4217  1.4837
17644TIP3   OH274346   2.569   5.477  16.194 -0.6124  0.4088  0.4052
17644TIP3    H174347   2.557   5.383  16.206 -2.6720  0.4416 -0.8422
17644TIP3    H274348   2.573   5.489  16.099 -0.2137  1.5620  0.5538
17645TIP3   OH274349   5.150   6.486   3.785 -0.3734 -0.7053  0.3951
17645TIP3    H174350   5.138   6.392   3.768  0.4424 -0.8165  0.3932
17645TIP3    H274351   5.233   6.508   3.742 -0.0165 -0.2309  1.2947
17646TIP3   OH274352   1.671   3.334   2.331  0.0661  0.8130  0.2469
17646TIP3    H174353   1.748   3.389   2.321  2.2303 -1.8763  0.9136
17646TIP3    H274354   1.658   3.328   2.426 -0.3483  0.4199  0.1690
17647TIP3   OH274355   1.979   0.999   4.134  0.0291  0.1922 -0.1740
17647TIP3    H174356   2.014   0.978   4.048  0.2621 -3.7906  0.6957
17647TIP3    H274357   1.892   0.959   4.135 -2.1736  4.4378 -0.0951
17648TIP3   OH274358   1.121   2.255   5.641  0.1392  0.0663  0.0400
17648TIP3    H174359   1.063   2.184   5.613  0.7975 -0.1346 -0.8778
17648TIP3    H274360   1.209   2.223   5.621  0.6477  0.0892  2.0228
17649TIP3   OH274361   5.413   3.651  15.628 -0.3926  0.1499 -0.8305
17649TIP3    H174362   5.446   3.563  15.646  0.3401  0.9041  2.1633
17649TIP3    H274363   5.321   3.638  15.608 -0.6446 -1.2438  0.9533
17650TIP3   OH274364   1.464   1.878   3.594 -0.3506  0.0456 -0.4319
17650TIP3    H174365   1.539   1.822   3.571 -0.2582 -0.3873  0.8149
17650TIP3    H274366   1.474   1.956   3.539  0.9494 -0.0628 -0.3778
17651TIP3   OH274367   5.980   4.414  15.328 -0.2858 -0.0301  0.4247
17651TIP3    H174368   6.062   4.380  15.293  0.0572 -2.5281  3.2900
17651TIP3    H274369   6.007   4.480  15.392 -0.4311 -0.9376  1.4586
17652TIP3   OH274370   4.309   4.491   2.263  0.1488  0.1718  0.1108
17652TIP3    H174371   4.227   4.480   2.310 -0.9740 -0.9717 -1.9835
17652TIP3    H274372   4.360   4.413   2.285  0.9745  1.1081  1.7991
17653TIP3   OH274373   2.148   6.796   0.423 -0.7188 -0.2594 -0.3745
17653TIP3    H174374   2.206   6.720   0.416 -0.5374  0.0027 -1.9141
17653TIP3    H274375   2.170   6.851   0.349 -1.8156  0.6457 -0.0608
17654TIP3   OH274376   6.146   2.569   5.346  0.0021 -0.1998  0.3616
17654TIP3    H174377   6.161   2.523   5.263 -0.8213  1.0003 -0.4874
17654TIP3    H274378   6.211   2.639   5.346 -0.3496  0.1294  0.4696
17655TIP3   OH274379   2.402   2.911   6.583  0.0933  0.4817 -0.4931
17655TIP3    H174380   2.436   3.000   6.574 -0.7418  0.8128 -0.5120
17655TIP3    H274381   2.479   2.856   6.596  0.5538  1.3318  0.4676
17656TIP3   OH274382   1.786   3.837  11.737 -0.1104  0.8118 -0.7639
17656TIP3    H174383   1.841   3.795  11.670  0.7337  1.8906 -0.7848
17656TIP3    H274384   1.697   3.814  11.713  0.3107 -2.0833 -0.0159
17657TIP3   OH274385   2.308   5.110   5.076 -0.0550  0.1415  0.0416
17657TIP3    H174386   2.267   5.196   5.065 -1.1353 -0.4852 -1.0068
17657TIP3    H274387   2.296   5.090   5.169 -1.8604  0.1363 -0.1600
17658TIP3   OH274388   4.632   4.773   3.076 -0.1265 -0.1220  0.3834
17658TIP3    H174389   4.724   4.786   3.099 -0.1357  0.6898  0.0008
17658TIP3    H274390   4.628   4.684   3.041  0.7928  0.2980 -0.8838
17659TIP3   OH274391   0.487   1.616  11.474  0.1754  0.5873  0.1364
17659TIP3    H174392   0.492   1.574  11.388 -0.1678 -1.1311  0.9039
17659TIP3    H274393   0.574   1.603  11.511  1.7336  4.9230 -1.4217
17660TIP3   OH274394   1.232   0.456  12.171  0.2783 -0.1943 -0.4359
17660TIP3    H174395   1.229   0.467  12.266  0.4512 -1.1004 -0.3116
17660TIP3    H274396   1.180   0.528  12.136  0.1848  0.1264  0.3452
17661TIP3   OH274397   0.795   1.719  16.017  0.3130 -0.4589 -0.0334
17661TIP3    H174398   0.701   1.703  16.010  0.1378 -0.7651  2.3126
17661TIP3    H274399   0.832   1.634  16.042  1.1713 -0.2433 -0.5170
17662TIP3   OH274400   2.602   1.743  17.248  0.1195 -0.1705 -0.5505
17662TIP3    H174401   2.513   1.778  17.247 -0.0642 -0.6249 -0.4565
17662TIP3    H274402   2.601   1.677  17.317  0.4008 -0.5072 -0.8669
17663TIP3   OH274403   4.423   3.210  11.069  0.5449 -0.3033 -0.0914
17663TIP3    H174404   4.374   3.190  10.989 -1.3764  0.4037  0.8313
17663TIP3    H274405   4.514   3.215  11.041 -0.1130  0.3923 -2.3299
17664TIP3   OH274406   5.821   5.424  10.450  0.0869 -0.2325  0.2605
17664TIP3    H174407   5.871   5.487  10.398  1.6182 -1.1276  0.6156
17664TIP3    H274408   5.745   5.474  10.479  1.3284  1.5220  0.6764
17665TIP3   OH274409   0.361   5.219   3.974 -0.2151  0.2331 -0.1185
17665TIP3    H174410   0.402   5.297   4.012  0.1849  0.2281 -0.5320
17665TIP3    H274411   0.343   5.162   4.049 -0.2691  0.6121  0.1578
17666TIP3   OH274412   2.093   4.914  11.243  0.2653  0.6319 -0.0327
17666TIP3    H174413   2.186   4.921  11.220  0.0820 -0.1314 -1.0746
17666TIP3    H274414   2.057   4.851  11.180 -0.3994 -1.1613  2.0101
17667TIP3   OH274415   1.442   0.761  12.088 -0.8390  0.3056  0.0432
17667TIP3    H174416   1.369   0.714  12.128 -1.1017  0.5202 -0.1768
17667TIP3    H274417   1.402   0.841  12.054 -0.7204 -0.1298 -1.1461
17668TIP3   OH274418   1.028   4.089  13.052 -0.3628 -0.5273  0.0492
17668TIP3    H174419   1.027   4.012  13.109  0.7738 -2.0468 -1.8809
17668TIP3    H274420   1.088   4.150  13.095 -0.7700 -0.9566  1.2717
17669TIP3   OH274421   3.804   0.698   0.115 -0.2047 -0.9010 -0.1201
17669TIP3    H174422   3.880   0.663   0.162 -0.1600 -2.3485 -1.1995
17669TIP3    H274423   3.772   0.624   0.063 -0.6569  0.4315 -1.8289
17670TIP3   OH274424   4.378   3.616   2.549 -0.0365  0.2604  0.3937
17670TIP3    H174425   4.325   3.580   2.619 -0.7538  1.6834  0.6285
17670TIP3    H274426   4.457   3.563   2.548 -0.2106 -0.0641  1.9791
17671TIP3   OH274427   1.473   4.669   6.077  0.0302 -0.3213 -0.4009
17671TIP3    H174428   1.406   4.601   6.067  0.5919 -0.7383 -1.4274
17671TIP3    H274429   1.552   4.631   6.039  0.4103  0.8292 -0.8083
17672TIP3   OH274430   3.935   3.048  14.066 -0.6851 -0.2754 -0.0101
17672TIP3    H174431   3.959   3.023  14.155 -1.2663 -2.2374 -0.3604
17672TIP3    H274432   3.941   2.967  14.015 -1.6520  0.5190 -1.4822
17673TIP3   OH274433   6.154   3.796  12.622 -0.0518  0.0771 -0.2864
17673TIP3    H174434   6.160   3.716  12.674 -0.0609 -0.7487 -1.5322
17673TIP3    H274435   6.174   3.866  12.684 -0.6624 -0.8228  0.9744
17674TIP3   OH274436   0.532   3.859   0.052  0.0533  0.3112  0.4871
17674TIP3    H174437   0.592   3.787   0.034 -1.1692 -0.5762 -0.1271
17674TIP3    H274438   0.553   3.885   0.142  1.9266  0.6211  0.0140
17675TIP3   OH274439   3.427   6.605  10.905  0.1196  0.1277  0.3001
17675TIP3    H174440   3.421   6.583  10.812  1.2691  1.6754 -0.1780
17675TIP3    H274441   3.473   6.531  10.944 -1.2279 -0.9907 -0.1465
17676TIP3   OH274442   3.663   0.073   5.486  0.2782  0.1198 -0.5275
17676TIP3    H174443   3.696   0.121   5.410  1.1541  1.0932  0.4405
17676TIP3    H274444   3.568   0.069   5.472  0.5244 -0.6006 -2.1539
17677TIP3   OH274445   3.430   5.854   4.842 -0.0430  0.2288 -0.0271
17677TIP3    H174446   3.417   5.937   4.889 -1.6755  0.3879 -0.6630
17677TIP3    H274447   3.342   5.817   4.836  0.4948 -0.9633 -0.8260
17678TIP3   OH274448   1.214   2.604   3.350 -0.1411  0.6718 -0.0796
17678TIP3    H174449   1.127   2.567   3.366  0.4228 -0.2293  1.0050
17678TIP3    H274450   1.204   2.698   3.369 -1.1148  0.7723 -0.9853
17679TIP3   OH274451   5.746   0.519   5.653  0.1193  0.6717 -0.0001
17679TIP3    H174452   5.710   0.605   5.676  0.2572  0.8662 -0.4996
17679TIP3    H274453   5.840   0.534   5.644  0.1933  0.3860  0.2737
17680TIP3   OH274454   5.929   0.875   1.121  0.3351 -0.1657  0.0426
17680TIP3    H174455   5.859   0.811   1.106  0.6577 -1.1999  2.4332
17680TIP3    H274456   5.884   0.950   1.161  0.3186  0.0575 -0.3869
17681TIP3   OH274457   2.371   0.337  14.289 -0.3216 -0.1660  0.7704
17681TIP3    H174458   2.461   0.306  14.289 -0.1825  0.2120  0.0272
17681TIP3    H274459   2.364   0.390  14.209 -1.1407 -0.0263  0.9279
17682TIP3   OH274460   3.359   4.190   0.725 -0.1719 -0.1257 -0.1563
17682TIP3    H174461   3.412   4.110   0.729  1.7660  1.0976 -0.0871
17682TIP3    H274462   3.404   4.245   0.662 -0.8183  1.3739  0.6505
17683TIP3   OH274463   2.433   4.025   2.137  0.0098 -0.2165  0.0160
17683TIP3    H174464   2.490   4.101   2.141  0.2311 -0.4528  2.0955
17683TIP3    H274465   2.358   4.047   2.192 -0.7358 -0.8642 -0.7023
17684TIP3   OH274466   2.314   1.773   6.632 -0.5055  0.0486  0.2829
17684TIP3    H174467   2.375   1.701   6.619  2.0315  1.5975  2.5320
17684TIP3    H274468   2.254   1.742   6.699  0.6292  0.0187  1.3075
17685TIP3   OH274469   2.667   2.766   6.603  0.8254 -0.1636 -0.4087
17685TIP3    H174470   2.692   2.684   6.644  0.0363 -0.6676 -0.9182
17685TIP3    H274471   2.685   2.833   6.670  0.0478 -0.9128  0.5796
17686TIP3   OH274472   5.854   2.523   5.065 -0.7234 -0.0712 -0.1220
17686TIP3    H174473   5.852   2.450   5.003 -0.9338 -0.0523 -0.1385
17686TIP3    H274474   5.788   2.501   5.131 -2.5854  1.2259 -1.4177
17687TIP3   OH274475   3.158   4.913  10.918 -0.2428 -0.4740  0.6321
17687TIP3    H174476   3.107   4.985  10.953 -0.9616 -0.3912 -0.5520
17687TIP3    H274477   3.094   4.856  10.876  0.3014 -1.8733  1.6453
17688TIP3   OH274478   1.246   5.166   5.059 -0.3264  0.1985 -0.4729
17688TIP3    H174479   1.189   5.233   5.020  0.7661  0.6973 -1.2587
17688TIP3    H274480   1.204   5.083   5.038 -0.4958  0.5324 -1.4941
17689TIP3   OH274481   2.507   3.281   4.068  0.0740  0.0397 -0.0814
17689TIP3    H174482   2.454   3.353   4.035  0.9996 -0.4791 -3.0881
17689TIP3    H274483   2.544   3.314   4.150 -3.7326  0.8595  1.5100
17690TIP3   OH274484   4.927   2.439  13.131 -0.3863  0.5347 -0.5137
17690TIP3    H174485   5.014   2.474  13.110 -0.6020  0.8317 -0.9528
17690TIP3    H274486   4.912   2.465  13.222  0.1233  0.1839 -0.3278
17691TIP3   OH274487   1.929   6.363  13.069 -0.1126  0.1515 -0.7125
17691TIP3    H174488   1.998   6.391  13.008  0.3238  1.4728  0.3451
17691TIP3    H274489   1.975   6.349  13.152 -0.7324 -1.4405 -0.6036
17692TIP3   OH274490   2.067   2.146  13.859  0.0036  0.5652  0.3111
17692TIP3    H174491   2.099   2.228  13.823  2.3667  0.4745  2.0305
17692TIP3    H274492   1.986   2.170  13.904  1.2317  2.2413  1.7741
17693TIP3   OH274493   0.782   5.037   3.757 -0.3999 -0.0821  0.2906
17693TIP3    H174494   0.817   4.952   3.783  0.9840  0.1220 -0.8141
17693TIP3    H274495   0.858   5.087   3.725 -1.4718  0.8518 -0.9502
17694TIP3   OH274496   0.773   0.312   2.216 -0.3902  0.0508 -0.0100
17694TIP3    H174497   0.763   0.368   2.139 -1.6292  1.0461  0.8426
17694TIP3    H274498   0.687   0.312   2.257 -0.3472 -2.2593  0.1930
17695TIP3   OH274499   2.067   3.776   0.931 -0.1557  0.3020  0.8668
17695TIP3    H174500   2.120   3.856   0.924  0.5119 -0.2000 -0.1531
17695TIP3    H274501   2.113   3.723   0.995 -0.0672  0.3490  0.8429
17696TIP3   OH274502   4.125   3.348  12.499 -0.2269 -0.0881 -0.4900
17696TIP3    H174503   4.152   3.278  12.560 -0.7594  0.7266  0.7281
17696TIP3    H274504   4.145   3.313  12.412  1.1502 -1.0492  0.1689
17697TIP3   OH274505   1.848   3.547  16.716 -0.9369 -0.0372 -0.7619
17697TIP3    H174506   1.840   3.613  16.648 -0.0918 -0.1071 -0.9447
17697TIP3    H274507   1.942   3.540  16.732 -1.1466  0.6852  1.1096
17698TIP3   OH274508   5.937   3.098  14.736 -0.1494 -0.1919  0.3241
17698TIP3    H174509   5.869   3.074  14.799 -0.6198  0.5355  0.1143
17698TIP3    H274510   5.898   3.080  14.650  0.6322 -1.5369  0.2359
17699TIP3   OH274511   5.957   1.945   3.081 -0.1884  0.4027 -0.3166
17699TIP3    H174512   5.864   1.923   3.082 -0.3217  0.7417  2.1941
17699TIP3    H274513   5.964   2.024   3.134  1.5163  0.4954 -0.6171
17700TIP3   OH274514   3.944   5.490   3.134 -0.0066  0.0479  0.0351
17700TIP3    H174515   3.959   5.397   3.121 -0.4419 -0.0457  0.1702
17700TIP3    H274516   4.020   5.533   3.095 -0.9464 -0.2371 -2.2389
17701TIP3   OH274517   4.718   5.062   4.737 -0.1630  0.3855 -0.4946
17701TIP3    H174518   4.732   5.148   4.777  0.9312  0.2770 -0.6215
17701TIP3    H274519   4.716   5.002   4.810  0.7268  0.3241 -0.5128
17702TIP3   OH274520   4.368   2.010  16.761 -0.3552 -0.0545 -0.0717
17702TIP3    H174521   4.368   1.965  16.846 -2.6149  0.9438  0.5239
17702TIP3    H274522   4.334   1.945  16.699  3.1494 -1.4779 -0.7478
17703TIP3   OH274523   2.402   2.410   0.002 -0.0249 -0.0398 -0.1172
17703TIP3    H174524   2.391   2.428  -0.091  2.1284  1.4653 -0.1791
17703TIP3    H274525   2.330   2.457   0.045 -0.8771 -0.5270 -0.9882
17704TIP3   OH274526   3.972   5.366   1.736  0.2046  0.3529 -0.0812
17704TIP3    H174527   4.040   5.345   1.800 -1.6234 -2.2321  1.1248
17704TIP3    H274528   3.910   5.421   1.784 -0.0520  0.2769 -0.3272
17705TIP3   OH274529   0.659   5.323  15.099 -0.3799 -0.4645 -0.6699
17705TIP3    H174530   0.738   5.276  15.125  0.6267  1.4921 -0.0477
17705TIP3    H274531   0.598   5.309  15.172 -1.1685 -3.0235 -1.6987
17706TIP3   OH274532   4.126   3.671   4.895 -0.3115 -0.0640  0.2325
17706TIP3    H174533   4.181   3.592   4.894 -4.6566 -3.4948  1.5759
17706TIP3    H274534   4.100   3.684   4.804  1.8292  1.1023 -0.2830
17707TIP3   OH274535   2.230   0.113  16.072 -0.3828 -0.2957  0.8734
17707TIP3    H174536   2.276   0.077  15.997  0.9475 -0.3863  1.7088
17707TIP3    H274537   2.211   0.203  16.048 -2.2028 -0.9775 -0.5403
17708TIP3   OH274538   3.982   5.046   2.810 -0.4363  0.6613 -0.0690
17708TIP3    H174539   3.904   5.011   2.853 -0.0744 -0.2585 -0.1348
17708TIP3    H274540   4.035   4.969   2.791 -0.2256  1.1245 -1.4526
17709TIP3   OH274541   4.704   1.493  13.638 -0.0807 -0.2896 -0.3881
17709TIP3    H174542   4.703   1.576  13.686  0.1679 -0.9915  0.8740
17709TIP3    H274543   4.796   1.477  13.619 -0.1719 -0.0572 -1.0274
17710TIP3   OH274544   6.727   2.313   5.214 -0.1234 -0.5070 -0.1578
17710TIP3    H174545   6.644   2.278   5.182 -1.2434  1.4308  0.4927
17710TIP3    H274546   6.741   2.393   5.163  0.2185  0.3465  1.2366
17711TIP3   OH274547   3.605   3.613  11.597  0.1922  0.3616  0.9448
17711TIP3    H174548   3.602   3.668  11.675 -0.5988  0.1928  1.0346
17711TIP3    H274549   3.518   3.619  11.559  0.7241  0.8949 -0.2560
17712TIP3   OH274550   4.221   3.513  15.404 -0.5888  0.0595 -0.6329
17712TIP3    H174551   4.262   3.594  15.434 -0.1952 -0.5848  0.6687
17712TIP3    H274552   4.129   3.536  15.391 -1.0609  0.1644  2.2459
17713TIP3   OH274553   1.119   1.936   3.132  0.0772  0.0149 -0.2862
17713TIP3    H174554   1.175   1.970   3.063  0.2389 -1.7232 -1.0647
17713TIP3    H274555   1.036   1.915   3.087 -0.5974  0.9230  0.4997
17714TIP3   OH274556   3.197   5.266  14.829  0.2969 -0.8370  0.2258
17714TIP3    H174557   3.168   5.185  14.787  1.3863 -1.1162 -0.0153
17714TIP3    H274558   3.202   5.245  14.922 -0.1392 -0.8167  0.2581
17715TIP3   OH274559   6.247   2.675   5.783  0.1056 -0.0776  0.5722
17715TIP3    H174560   6.192   2.689   5.706 -0.1149  0.9142  0.8904
17715TIP3    H274561   6.247   2.760   5.827  0.8239 -0.4364  1.2758
17716TIP3   OH274562   0.396   3.346   1.712 -0.6686  0.0250  0.2553
17716TIP3    H174563   0.379   3.253   1.696 -1.0315  0.1237  0.0612
17716TIP3    H274564   0.415   3.382   1.625  1.0288 -0.1729  0.5076
17717TIP3   OH274565   3.594   0.562   2.546  0.2383 -0.1051  0.6211
17717TIP3    H174566   3.690   0.554   2.552  0.3397  0.6556  0.1699
17717TIP3    H274567   3.568   0.494   2.484  0.4856 -0.3389  0.7737
17718TIP3   OH274568   3.640   0.756  13.547  0.1033  0.5856 -0.1845
17718TIP3    H174569   3.553   0.795  13.537 -0.7128 -0.1869  2.6554
17718TIP3    H274570   3.668   0.784  13.634  2.6440  0.6257 -0.9490
17719TIP3   OH274571   0.580   2.237  11.217  0.4498  0.1829 -0.1932
17719TIP3    H174572   0.651   2.176  11.197 -0.1600 -1.1063  1.2965
17719TIP3    H274573   0.524   2.235  11.139  1.3868  0.2758 -0.8911
17720TIP3   OH274574   5.806   3.579   0.048  0.6157  0.3314 -0.1956
17720TIP3    H174575   5.867   3.506   0.039 -0.7187 -0.6554 -1.9885
17720TIP3    H274576   5.771   3.592  -0.041 -2.6356  0.0439  0.9121
17721TIP3   OH274577   0.606   3.051   0.409  0.0200  0.4574  0.8530
17721TIP3    H174578   0.669   3.012   0.348 -0.1773 -1.9005  2.0019
17721TIP3    H274579   0.529   3.071   0.356  0.2538 -0.5143  0.1092
17722TIP3   OH274580   3.893   4.358   4.459  0.6409 -0.4370  0.0131
17722TIP3    H174581   3.922   4.448   4.474 -0.0280 -0.1615 -0.3173
17722TIP3    H274582   3.810   4.351   4.507 -2.4154  0.9455 -4.3953
17723TIP3   OH274583   4.457   2.077  11.097  0.0368 -0.0091 -0.3720
17723TIP3    H174584   4.371   2.035  11.097  0.3799 -0.7274  0.0503
17723TIP3    H274585   4.515   2.013  11.055  0.3441  0.5246 -0.7701
17724TIP3   OH274586   4.569   0.608  14.160 -0.0931 -0.3023 -0.0069
17724TIP3    H174587   4.551   0.701  14.175 -1.7811 -0.4872 -0.6824
17724TIP3    H274588   4.652   0.607  14.112 -0.0204  0.8354  0.0557
17725TIP3   OH274589   2.109   2.290  12.217 -0.0266 -0.3199  0.1121
17725TIP3    H174590   2.018   2.315  12.199 -0.3082 -0.7020  0.9681
17725TIP3    H274591   2.127   2.218  12.157 -0.1413  0.0386 -0.3617
17726TIP3   OH274592   0.784   4.517  13.255  0.4092  0.4437  0.5964
17726TIP3    H174593   0.743   4.574  13.320 -2.8396  0.6042 -1.3400
17726TIP3    H274594   0.788   4.570  13.175  1.0532 -0.8065 -0.2426
17727TIP3   OH274595   2.125   3.826  10.812  0.7729  0.9634  0.7233
17727TIP3    H174596   2.064   3.897  10.829 -0.7266  0.0459 -0.5275
17727TIP3    H274597   2.084   3.775  10.742  2.3970 -0.4057  0.6944
17728TIP3   OH274598   5.410   4.784   4.496  0.2249  0.3545  0.0833
17728TIP3    H174599   5.385   4.735   4.574 -2.3207  0.0487 -0.8217
17728TIP3    H274600   5.327   4.813   4.458  1.3102  0.2365 -2.6573
17729TIP3   OH274601   0.490   3.675   3.163  0.4153  0.4729  0.4338
17729TIP3    H174602   0.401   3.672   3.198  0.0238 -0.2810 -0.5879
17729TIP3    H274603   0.492   3.754   3.110 -0.8067 -1.2359 -2.4057
17730TIP3   OH274604   5.308   6.747  15.641 -0.3522  0.1533  0.1731
17730TIP3    H174605   5.367   6.700  15.700  1.9964  1.8675 -0.6184
17730TIP3    H274606   5.357   6.752  15.558 -2.2844  0.3712 -1.0010
17731TIP3   OH274607   2.196   0.131  14.660 -0.1007  0.0110  0.8456
17731TIP3    H174608   2.278   0.110  14.705 -0.3800 -1.6350  0.6497
17731TIP3    H274609   2.201   0.083  14.578 -0.2377  1.8259 -0.2786
17732TIP3   OH274610   2.877   4.210  15.002  0.2583 -0.9148  0.3165
17732TIP3    H174611   2.935   4.278  14.968 -0.0042 -0.3651  0.9523
17732TIP3    H274612   2.921   4.179  15.082  0.6333 -1.8618 -0.2346
17733TIP3   OH274613   6.630   6.307   0.907 -0.1189  0.0349  0.5131
17733TIP3    H174614   6.543   6.269   0.921  0.9955 -2.6781  0.5732
17733TIP3    H274615   6.686   6.262   0.969  1.2695  2.2603  0.9816
17734TIP3   OH274616   0.822   3.206  16.823  0.0010  0.4224 -0.2096
17734TIP3    H174617   0.892   3.144  16.843  1.0464  1.8191  0.6331
17734TIP3    H274618   0.785   3.229  16.909  0.1937  1.5809 -0.4177
17735TIP3   OH274619   5.120   5.426   3.821  0.0907  0.7447  0.0891
17735TIP3    H174620   5.106   5.384   3.906  2.7883 -0.0373  0.2575
17735TIP3    H274621   5.169   5.360   3.771 -3.0337  0.4200 -2.8359
17736TIP3   OH274622   4.463   1.673   4.838 -0.2682  1.0048  0.1899
17736TIP3    H174623   4.524   1.707   4.904  2.1510  0.2014 -1.4577
17736TIP3    H274624   4.431   1.752   4.793  0.0339  1.4291  0.6991
17737TIP3   OH274625   2.475   0.573   0.059 -0.3346 -0.5436  0.2586
17737TIP3    H174626   2.501   0.490   0.099  1.0247  0.0615  0.6893
17737TIP3    H274627   2.535   0.638   0.096 -2.9958  1.1516  1.9642
17738TIP3   OH274628   2.997   1.274   5.948  0.0607 -0.3348 -0.5278
17738TIP3    H174629   2.992   1.353   6.001  3.0697  0.1614 -0.8194
17738TIP3    H274630   3.018   1.205   6.011 -2.6484 -1.0268 -0.2586
17739TIP3   OH274631   1.122   1.581   0.024  0.0367 -0.3357 -0.2752
17739TIP3    H174632   1.053   1.549  -0.035  0.5691 -0.4427 -0.8416
17739TIP3    H274633   1.203   1.570  -0.025  0.3045  1.3452 -0.2753
17740TIP3   OH274634   5.578   3.610   2.739 -0.0928  0.0858 -0.4081
17740TIP3    H174635   5.579   3.689   2.793 -1.4799  0.6631 -1.1791
17740TIP3    H274636   5.594   3.539   2.801  0.6684  0.9192  0.3783
17741TIP3   OH274637   6.581   3.072   1.321 -0.7199  0.0470  0.0870
17741TIP3    H174638   6.520   3.005   1.289 -2.2824  0.7260  1.5114
17741TIP3    H274639   6.530   3.123   1.383  1.3949  0.4956  1.5656
17742TIP3   OH274640   4.675   5.332  13.066 -0.4904 -0.4246 -0.2129
17742TIP3    H174641   4.698   5.239  13.071  1.5955  0.0350 -0.2777
17742TIP3    H274642   4.734   5.367  12.999 -1.1587  0.9809 -0.0898
17743TIP3   OH274643   0.983   4.328   2.082 -0.0114  0.4629 -0.4336
17743TIP3    H174644   0.892   4.327   2.053 -0.5534  1.2845  1.1325
17743TIP3    H274645   1.030   4.277   2.016 -1.8829 -1.5270 -0.3446
17744TIP3   OH274646   2.835   4.563  13.591 -0.2743 -0.0512  0.2659
17744TIP3    H174647   2.739   4.559  13.592 -0.3132  0.2669 -0.6830
17744TIP3    H274648   2.862   4.480  13.551 -0.2620  0.6415 -1.2660
17745TIP3   OH274649   4.887   3.280  15.882 -0.4047  0.7342  0.1770
17745TIP3    H174650   4.963   3.339  15.889  0.7179 -0.7300  1.1328
17745TIP3    H274651   4.817   3.325  15.929  0.7281  0.8882  1.8122
17746TIP3   OH274652   6.067   3.303  12.573 -0.6853  0.1276  0.5712
17746TIP3    H174653   5.973   3.317  12.561 -0.7268 -0.2116  0.4681
17746TIP3    H274654   6.109   3.367  12.516 -0.8098  1.8702  2.3275
17747TIP3   OH274655   0.814   0.947  15.198  0.3835  0.3899 -0.7902
17747TIP3    H174656   0.805   1.040  15.215  2.7217  1.0576 -2.7140
17747TIP3    H274657   0.779   0.904  15.276 -1.4662  2.8148 -0.1862
17748TIP3   OH274658   6.757   5.192  16.437 -0.7331 -0.2394 -0.2618
17748TIP3    H174659   6.848   5.190  16.468 -0.5045  0.2002 -0.8977
17748TIP3    H274660   6.755   5.131  16.363 -0.3632  1.5204 -1.7971
17749TIP3   OH274661   6.718   1.879  15.405 -0.0251  0.0029  0.2603
17749TIP3    H174662   6.724   1.960  15.354 -1.7049 -1.7111 -2.9334
17749TIP3    H274663   6.770   1.816  15.356 -1.8818 -1.7876  0.4526
17750TIP3   OH274664   6.199   1.974  14.549 -0.1311 -0.2916  0.2335
17750TIP3    H174665   6.186   2.039  14.618  0.1231  1.3604 -1.2248
17750TIP3    H274666   6.288   1.940  14.565 -0.0563  0.1031  0.6711
17751TIP3   OH274667   3.333   5.487  15.684 -0.0042  0.3583 -0.3647
17751TIP3    H174668   3.360   5.480  15.775 -0.6156  2.4395  0.0203
17751TIP3    H274669   3.412   5.464  15.634  1.4881  2.7486  0.7270
17752TIP3   OH274670   3.361   2.317  17.087 -0.0271  0.0325 -0.2975
17752TIP3    H174671   3.386   2.227  17.065  1.7972  0.5489 -0.5188
17752TIP3    H274672   3.431   2.371  17.051 -0.9616  1.5379  0.0448
17753TIP3   OH274673   6.079   0.864   5.817 -0.4587 -0.4389  0.8306
17753TIP3    H174674   6.006   0.862   5.878  0.6725 -1.5206  2.2061
17753TIP3    H274675   6.096   0.772   5.797  1.8973 -0.3768  2.2619
17754TIP3   OH274676   1.221   4.536  16.894  0.2180  0.0040  0.3448
17754TIP3    H174677   1.240   4.531  16.800  0.0638  1.1624  0.2446
17754TIP3    H274678   1.174   4.618  16.905  0.1385 -0.1712  1.4288
17755TIP3   OH274679   1.891   0.642   1.532 -0.1622 -0.1526  0.3254
17755TIP3    H174680   1.806   0.612   1.499  0.7454 -1.6291 -0.7817
17755TIP3    H274681   1.902   0.730   1.494 -1.8921  0.7968  1.8465
17756TIP3   OH274682   2.405   5.745  11.208  0.4346  0.6076 -0.0333
17756TIP3    H174683   2.466   5.800  11.160  1.3966 -0.4149 -0.0375
17756TIP3    H274684   2.372   5.683  11.143 -1.2074  1.6038 -0.2010
17757TIP3   OH274685   3.071   2.831  16.268 -0.4264  0.3526 -0.1827
17757TIP3    H174686   3.165   2.844  16.271 -0.5932  1.6890 -0.0687
17757TIP3    H274687   3.052   2.815  16.175 -0.0623 -0.2557 -0.1598
17758TIP3   OH274688   1.628   6.204   6.339 -0.2197  0.6472  0.0079
17758TIP3    H174689   1.652   6.148   6.413 -2.4082 -1.1140 -0.5213
17758TIP3    H274690   1.541   6.174   6.313 -0.6614  3.0318 -1.5867
17759TIP3   OH274691   1.892   4.705   6.137  0.5777  0.0930  0.0250
17759TIP3    H174692   1.904   4.782   6.193 -0.0054  0.0542  0.2073
17759TIP3    H274693   1.879   4.633   6.198 -0.0648  0.0506 -0.1552
17760TIP3   OH274694   2.530   0.802   4.116 -0.5042  0.4579 -0.0376
17760TIP3    H174695   2.446   0.759   4.099 -0.8176  0.9856  0.1516
17760TIP3    H274696   2.533   0.813   4.211  0.0239 -0.0316  0.0110
17761TIP3   OH274697   2.837   3.972  12.785  0.2557  0.1374  0.7511
17761TIP3    H174698   2.898   3.903  12.811 -0.5308 -0.9199 -0.0963
17761TIP3    H274699   2.750   3.933  12.797 -0.1949  0.7391 -0.3716
17762TIP3   OH274700   6.502   2.321   1.503 -0.2403 -0.0795 -0.3181
17762TIP3    H174701   6.501   2.329   1.598 -1.2710 -0.8013 -0.2595
17762TIP3    H274702   6.520   2.410   1.472 -1.5633  0.5189  0.5247
17763TIP3   OH274703   2.617   0.638   2.977  0.7519 -0.2340  0.1736
17763TIP3    H174704   2.664   0.566   3.020 -0.6516 -1.2008  0.1575
17763TIP3    H274705   2.659   0.717   3.009  2.8850 -1.0524 -0.4205
17764TIP3   OH274706   2.357   0.964   3.745  0.1859 -0.2237 -0.0040
17764TIP3    H174707   2.349   1.059   3.734  0.7210 -0.3356 -1.5974
17764TIP3    H274708   2.329   0.927   3.662  0.1736 -1.4640  0.5278
17765TIP3   OH274709   5.557   4.425  14.691  0.4237  0.2672  0.9793
17765TIP3    H174710   5.604   4.508  14.681  0.6321  0.0769  0.2800
17765TIP3    H274711   5.571   4.380  14.607  0.4883 -0.5599  1.4271
17766TIP3   OH274712   3.761   4.481  16.147 -0.4113 -0.4348 -0.0180
17766TIP3    H174713   3.812   4.435  16.214  0.4404  0.1637 -0.2399
17766TIP3    H274714   3.704   4.540  16.196 -1.4146 -1.5961  0.2658
17767TIP3   OH274715   2.266   2.537   4.039 -0.2561  0.5498 -0.3610
17767TIP3    H174716   2.174   2.545   4.065 -0.0822 -0.0275  0.4522
17767TIP3    H274717   2.314   2.526   4.121  0.8069  2.9238 -0.5900
17768TIP3   OH274718   2.157   1.130   5.177 -0.9019 -0.3073  0.6611
17768TIP3    H174719   2.083   1.127   5.116 -0.7755  0.4514  0.4647
17768TIP3    H274720   2.233   1.146   5.121 -0.3512 -2.5369  0.6774
17769TIP3   OH274721   1.358   5.329   4.064  0.3547 -0.0898  0.3289
17769TIP3    H174722   1.304   5.287   3.998  1.2818 -0.0435 -0.4927
17769TIP3    H274723   1.298   5.348   4.136 -1.1407  1.5935 -1.2480
17770TIP3   OH274724   2.262   6.037  11.095  0.1718  0.5576 -0.1416
17770TIP3    H174725   2.171   6.018  11.074  0.3098 -0.6936  0.2887
17770TIP3    H274726   2.293   6.092  11.022 -0.5309 -0.1807 -1.0234
17771TIP3   OH274727   0.866   4.810  17.062 -0.6084 -0.3148 -0.4149
17771TIP3    H174728   0.832   4.875  17.124  1.6869  0.1656  0.4347
17771TIP3    H274729   0.940   4.770  17.107  0.2460 -0.9894 -2.3011
17772TIP3   OH274730   1.854   6.384  15.748  0.4403 -0.1867 -0.2353
17772TIP3    H174731   1.771   6.366  15.792 -0.0445 -2.0838 -1.7517
17772TIP3    H274732   1.917   6.329  15.794  1.0225  1.6318  1.2392
17773TIP3   OH274733   1.166   1.294   1.458 -0.2241  0.5950  0.0550
17773TIP3    H174734   1.215   1.225   1.414 -0.6430  0.0652  0.4068
17773TIP3    H274735   1.121   1.249   1.530 -0.3187  1.2733  0.4235
17774TIP3   OH274736   4.552   5.746  13.351 -0.5697 -0.0241 -0.1776
17774TIP3    H174737   4.545   5.818  13.288 -0.1117  0.6920  0.5561
17774TIP3    H274738   4.622   5.691  13.317 -1.4593 -0.5667 -1.1626
17775TIP3   OH274739   2.550   4.926   3.985 -0.2792  0.0147  0.2258
17775TIP3    H174740   2.483   4.858   3.978 -1.1669  0.9429 -0.3866
17775TIP3    H274741   2.629   4.885   3.948 -0.6892 -0.8213  0.2484
17776TIP3   OH274742   0.824   1.277   3.177  0.1383  0.3400  0.1229
17776TIP3    H174743   0.763   1.344   3.206  0.7852  1.6420 -1.4045
17776TIP3    H274744   0.911   1.311   3.199  0.4080 -1.0281  1.3386
17777TIP3   OH274745   6.760   0.235  11.480 -0.2975  0.2653  0.1780
17777TIP3    H174746   6.821   0.211  11.411  0.0084  1.6634 -0.0672
17777TIP3    H274747   6.799   0.312  11.521 -1.0156  0.1153  1.1904
17778TIP3   OH274748   4.539   1.977   1.295  0.3247 -0.1566 -0.0759
17778TIP3    H174749   4.557   1.922   1.219 -1.4794 -1.1242  0.1675
17778TIP3    H274750   4.498   2.055   1.259 -1.2374 -0.9470 -0.0668
17779TIP3   OH274751   6.225   3.463   3.222 -0.6714 -0.1354  0.2523
17779TIP3    H174752   6.226   3.462   3.126 -0.6789 -2.2360  0.2384
17779TIP3    H274753   6.315   3.487   3.246 -0.1624 -1.3775 -0.3180
17780TIP3   OH274754   4.455   1.626   5.833 -0.2966 -0.4878 -0.0178
17780TIP3    H174755   4.419   1.619   5.921 -0.1621  1.4370  0.2327
17780TIP3    H274756   4.523   1.693   5.840 -0.4164 -0.1518 -1.6318
17781TIP3   OH274757   1.115   5.093  17.116  0.2361  0.0177 -0.4749
17781TIP3    H174758   1.155   5.129  17.037 -2.5320 -1.0538 -2.5599
17781TIP3    H274759   1.176   5.025  17.145  1.3662  0.4927 -1.6381
17782TIP3   OH274760   0.348   1.661   3.483 -0.1351 -0.6124  0.7669
17782TIP3    H174761   0.341   1.571   3.450 -0.1829 -0.2556 -0.2234
17782TIP3    H274762   0.420   1.699   3.434 -1.4171  0.5082 -0.3119
17783TIP3   OH274763   2.976   5.272  17.143 -0.3211 -0.0428  0.5719
17783TIP3    H174764   2.986   5.365  17.123 -1.4160  0.3916  1.8686
17783TIP3    H274765   3.060   5.233  17.117  0.5432  1.4704  0.9443
17784TIP3   OH274766   5.029   2.116  10.855 -0.0305  0.0189  0.0081
17784TIP3    H174767   5.013   2.055  10.926 -0.7652  0.2705  0.0668
17784TIP3    H274768   5.124   2.132  10.857 -0.1417  0.6166  1.4098
17785TIP3   OH274769   0.235   1.282   1.623  0.3235 -0.4224  0.1927
17785TIP3    H174770   0.218   1.258   1.531 -1.1102 -0.3830  0.4272
17785TIP3    H274771   0.245   1.198   1.667  0.4557 -0.4579  0.0955
17786TIP3   OH274772   5.941   3.127   0.855  0.5878 -0.2031  0.9125
17786TIP3    H174773   5.890   3.158   0.931 -1.0851  0.0829 -0.2550
17786TIP3    H274774   6.023   3.095   0.892  0.9308  2.2776  2.6042
17787TIP3   OH274775   1.338   4.971   1.193 -0.0518 -0.0394  0.1781
17787TIP3    H174776   1.380   4.918   1.125  1.1825  1.4114 -0.2394
17787TIP3    H274777   1.411   5.016   1.237 -1.1184  2.7924 -0.7512
17788TIP3   OH274778   2.569   6.205   4.812 -0.0834  0.0716 -0.7098
17788TIP3    H174779   2.617   6.154   4.747 -1.6869 -2.1524 -0.2421
17788TIP3    H274780   2.604   6.175   4.897 -0.1903  0.6759 -0.4451
17789TIP3   OH274781   4.521   5.958   4.772  0.3923  0.3804 -0.2582
17789TIP3    H174782   4.516   5.869   4.805  0.3398  0.5565  0.2122
17789TIP3    H274783   4.431   5.990   4.773  0.3856  0.3828 -0.5934
17790TIP3   OH274784   1.587   4.706  12.537  0.0067 -0.3239 -0.3321
17790TIP3    H174785   1.628   4.677  12.456  1.6602  0.0225  0.3319
17790TIP3    H274786   1.616   4.642  12.602  0.8999  0.8594  0.4791
17791TIP3   OH274787   2.180   1.711   6.406  0.6063 -0.1137  0.6770
17791TIP3    H174788   2.241   1.724   6.479 -1.1368  0.8021  2.0262
17791TIP3    H274789   2.171   1.616   6.400  0.9459 -0.2101  1.5049
17792TIP3   OH274790   3.887   5.119  14.910 -0.3373  0.4001 -0.3842
17792TIP3    H174791   3.864   5.199  14.956 -0.7981 -0.2967  0.6546
17792TIP3    H274792   3.880   5.141  14.817  1.0315  1.9591 -0.1582
17793TIP3   OH274793   0.523   3.842  16.504  0.5320 -0.3391  0.0609
17793TIP3    H174794   0.550   3.927  16.541 -1.1269  0.5202 -0.5923
17793TIP3    H274795   0.583   3.828  16.430  0.7604  0.3166  0.1147
17794TIP3   OH274796   5.150   4.275  15.956 -0.2855  0.3159  0.5844
17794TIP3    H174797   5.109   4.359  15.934 -1.5854 -0.5260 -0.3793
17794TIP3    H274798   5.143   4.223  15.876 -0.4831 -1.0792  1.4686
17795TIP3   OH274799   1.075   2.370   4.855 -0.2556 -0.6284  0.7117
17795TIP3    H174800   1.045   2.392   4.767 -2.5420 -1.6972  1.1674
17795TIP3    H274801   1.069   2.452   4.904 -0.5682 -0.3945  0.2804
17796TIP3   OH274802   3.396   2.569  16.377  0.8469 -0.1537 -0.0195
17796TIP3    H174803   3.350   2.650  16.357  0.3429 -0.1593  1.0789
17796TIP3    H274804   3.435   2.583  16.463  2.6905 -0.2572 -0.7803
17797TIP3   OH274805   3.303   1.989   0.078 -0.0417  0.2704  0.0498
17797TIP3    H174806   3.252   2.057   0.123  0.8352 -0.5874  2.5333
17797TIP3    H274807   3.237   1.931   0.040 -0.8327  1.3493 -0.2756
17798TIP3   OH274808   0.931   6.715  13.891  0.1136  0.2567  0.1699
17798TIP3    H174809   1.010   6.749  13.932  0.6891  0.1707 -0.8214
17798TIP3    H274810   0.954   6.626  13.864 -0.1487  0.4004 -0.5583
17799TIP3   OH274811   0.396   0.709  13.576  0.0786  0.2913  0.6497
17799TIP3    H174812   0.376   0.790  13.530  1.5632 -0.2914 -1.1600
17799TIP3    H274813   0.433   0.738  13.660 -0.3040  1.4505  0.4371
17800TIP3   OH274814   0.817   1.870  14.480  0.0797 -0.2009  0.0356
17800TIP3    H174815   0.868   1.797  14.515 -0.7534 -0.5716  0.5092
17800TIP3    H274816   0.731   1.831  14.460 -0.7450  0.8662  1.3295
17801TIP3   OH274817   4.097   4.650  16.876 -0.3400  0.0053  0.0333
17801TIP3    H174818   4.110   4.689  16.789  0.1157 -0.5287 -0.1493
17801TIP3    H274819   4.079   4.557  16.858 -1.6302  0.1585  0.4463
17802TIP3   OH274820   5.556   6.068  15.820  0.3173 -0.2547  0.0224
17802TIP3    H174821   5.509   6.141  15.779 -1.1133 -0.1288  1.7727
17802TIP3    H274822   5.631   6.053  15.763  0.7303  2.6691 -0.3362
17803TIP3   OH274823   6.429   4.814  14.173 -0.2800 -0.0324 -0.0979
17803TIP3    H174824   6.343   4.799  14.134 -0.5732  1.5886 -0.1473
17803TIP3    H274825   6.417   4.795  14.266 -0.3036 -1.1884 -0.3232
17804TIP3   OH274826   3.062   3.507  12.849  0.5168 -0.6040 -0.4875
17804TIP3    H174827   3.025   3.440  12.905  1.6330 -0.6572  0.2088
17804TIP3    H274828   3.155   3.486  12.844  0.7420  0.4194 -0.9237
17805TIP3   OH274829   2.385   0.665  15.625 -0.4308  0.0169 -0.5113
17805TIP3    H174830   2.389   0.755  15.593 -0.5031  1.2483  2.5739
17805TIP3    H274831   2.442   0.666  15.703  1.2779 -3.1869 -1.5647
17806TIP3   OH274832   2.754   2.845  14.948 -0.5522  0.6439  0.2053
17806TIP3    H174833   2.803   2.795  15.012  0.6374  0.7269 -0.6017
17806TIP3    H274834   2.686   2.785  14.917  0.0561 -0.0376  0.1710
17807TIP3   OH274835   1.305   1.102   3.124 -0.7016  0.0242 -0.0927
17807TIP3    H174836   1.337   1.154   3.051 -1.0099  1.2066  0.5943
17807TIP3    H274837   1.231   1.052   3.088 -0.3398 -0.0279 -0.7754
17808TIP3   OH274838   2.672   0.461  10.484  0.0630 -0.0556  0.5938
17808TIP3    H174839   2.590   0.500  10.453 -0.4187 -1.0530  0.5920
17808TIP3    H274840   2.705   0.411  10.409  0.7164  0.3786  0.5742
17809TIP3   OH274841   4.996   0.091  15.980  0.3024 -0.2288  0.1393
17809TIP3    H174842   4.950   0.174  15.970 -0.7836 -0.4496  2.6011
17809TIP3    H274843   4.945   0.028  15.929 -0.1966  0.1659  0.1510
17810TIP3   OH274844   5.996   4.243  13.003  0.0908  0.2772 -0.2192
17810TIP3    H174845   5.995   4.326  12.955 -0.2933  0.4784  0.1345
17810TIP3    H274846   5.904   4.219  13.011  0.1918 -0.1291 -0.2142
17811TIP3   OH274847   5.303   6.811   5.124 -0.1796  0.6577  0.1236
17811TIP3    H174848   5.358   6.888   5.141 -0.0091  0.3895  0.8548
17811TIP3    H274849   5.337   6.775   5.042 -1.4948  2.4219 -1.2672
17812TIP3   OH274850   0.372   5.301  12.187  0.3903 -0.2379 -0.1677
17812TIP3    H174851   0.309   5.253  12.240 -0.3906 -0.9453 -1.6912
17812TIP3    H274852   0.329   5.384  12.167  0.5543 -0.1050  0.0212
17813TIP3   OH274853   5.150   3.937   5.737 -0.0685 -0.6190 -0.1910
17813TIP3    H174854   5.092   4.012   5.752  0.7404 -0.2916  1.5679
17813TIP3    H274855   5.213   3.969   5.672 -0.5812 -0.2682 -0.5269
17814TIP3   OH274856   4.323   5.190  12.076  0.2332 -0.3281 -0.2527
17814TIP3    H174857   4.272   5.124  12.122 -0.9016  0.6731  0.0026
17814TIP3    H274858   4.285   5.193  11.988  0.7479 -0.5052 -0.4851
17815TIP3   OH274859   2.971   2.938   4.284  0.5065  0.0897 -0.0642
17815TIP3    H174860   2.985   2.844   4.270 -2.0835 -0.5455  1.0413
17815TIP3    H274861   3.057   2.972   4.307  1.4980 -2.0271 -0.4121
17816TIP3   OH274862   3.034   3.318   4.810 -0.0839  0.1786 -0.1244
17816TIP3    H174863   2.979   3.305   4.887  0.4106  2.0182  0.5917
17816TIP3    H274864   3.124   3.315   4.844  0.1657  0.1753 -0.7716
17817TIP3   OH274865   1.199   4.282   4.490 -0.1648  0.4125  0.0618
17817TIP3    H174866   1.286   4.275   4.449  0.2929 -0.3020  1.1138
17817TIP3    H274867   1.185   4.196   4.530 -1.6198  0.3239 -0.5683
17818TIP3   OH274868   0.626   2.826  11.247  0.7956 -0.3404  0.1545
17818TIP3    H174869   0.623   2.756  11.312  1.2295 -0.6523 -0.1652
17818TIP3    H274870   0.577   2.792  11.172 -0.7780  0.4777  0.7446
17819TIP3   OH274871   2.226   5.771   5.246  0.2356  0.3382  0.3017
17819TIP3    H174872   2.303   5.731   5.286  0.9479  2.8299  1.6226
17819TIP3    H274873   2.154   5.710   5.265  1.4884 -0.9943  0.9159
17820TIP3   OH274874   0.380   2.599   5.851 -0.1751  0.5282  0.0916
17820TIP3    H174875   0.318   2.529   5.833 -1.5481  1.6860  0.0883
17820TIP3    H274876   0.466   2.558   5.846 -0.9282 -1.0765 -0.1574
17821TIP3   OH274877   1.684   4.705  13.739 -0.2834  0.3521  0.3287
17821TIP3    H174878   1.675   4.758  13.660  0.6820  0.0112 -0.0242
17821TIP3    H274879   1.713   4.620  13.707 -2.2169 -0.5565  0.8506
17822TIP3   OH274880   2.131   4.716   2.374 -0.7196 -0.1342 -0.2453
17822TIP3    H174881   2.120   4.677   2.287 -1.4630 -2.0430  0.6373
17822TIP3    H274882   2.159   4.806   2.357  1.2613 -1.0491 -2.4402
17823TIP3   OH274883   0.190   1.459   3.806 -0.5706 -0.2098 -0.0219
17823TIP3    H174884   0.097   1.468   3.785 -0.7900 -1.3820  0.3820
17823TIP3    H274885   0.220   1.385   3.753  0.1420  0.1844 -0.1773
17824TIP3   OH274886   6.368   1.134  14.298 -0.0030 -0.1955  0.3845
17824TIP3    H174887   6.384   1.071  14.227 -2.6875  2.2964 -2.7675
17824TIP3    H274888   6.425   1.207  14.277 -2.1532  1.3423 -0.4819
17825TIP3   OH274889   1.910   3.945  12.789  0.2037  0.3681 -0.4744
17825TIP3    H174890   1.905   3.864  12.839  0.3381 -0.0417 -1.1120
17825TIP3    H274891   1.830   3.993  12.812  0.4323  0.3443  0.3884
17826TIP3   OH274892   1.551   3.632  15.539  0.6365 -0.1774  0.1613
17826TIP3    H174893   1.504   3.562  15.493 -2.0438 -0.2404  2.6550
17826TIP3    H274894   1.634   3.593  15.564 -0.0556 -1.8780 -0.0730
17827TIP3   OH274895   0.327   5.874   5.514 -0.4717 -0.5542  0.1279
17827TIP3    H174896   0.257   5.936   5.494 -0.8283 -0.8716  0.3750
17827TIP3    H274897   0.298   5.830   5.594 -0.3685 -1.2438 -0.2008
17828TIP3   OH274898   4.052   2.483  10.803  0.3109 -0.0052  0.0537
17828TIP3    H174899   3.984   2.521  10.748 -0.6753 -2.6423 -0.7033
17828TIP3    H274900   4.037   2.389  10.798  3.7123 -0.6793  0.3012
17829TIP3   OH274901   3.513   4.735   0.972  0.0617 -0.1842  0.4888
17829TIP3    H174902   3.511   4.732   0.876  1.4320  1.3461  0.3753
17829TIP3    H274903   3.500   4.644   0.999 -1.0149 -0.5535 -1.1133
17830TIP3   OH274904   5.650   6.261   1.596  0.1549 -0.1964 -0.1423
17830TIP3    H174905   5.676   6.346   1.632 -0.5821 -0.1118  0.1885
17830TIP3    H274906   5.732   6.211   1.594  0.4208  0.1959  0.5465
17831TIP3   OH274907   4.449   5.299   5.247  0.1783  0.3770 -0.5069
17831TIP3    H174908   4.413   5.269   5.163  1.9948  0.2429 -1.2885
17831TIP3    H274909   4.416   5.388   5.257  0.3381  0.5795 -1.6315
17832TIP3   OH274910   4.938   1.089  13.179 -0.0458  0.1485  0.1662
17832TIP3    H174911   5.025   1.129  13.178 -0.3777  0.8767 -0.8822
17832TIP3    H274912   4.953   0.999  13.210  1.2875 -0.2126 -1.4105
17833TIP3   OH274913   6.181   5.837   1.307  0.1476  0.1499 -0.4526
17833TIP3    H174914   6.271   5.816   1.281 -0.0433 -0.0687 -0.9606
17833TIP3    H274915   6.127   5.790   1.244 -0.4290 -2.4073  1.7677
17834TIP3   OH274916   5.043   5.731  14.285  0.1266 -0.4635 -0.1587
17834TIP3    H174917   5.073   5.692  14.203 -1.4338 -1.1403 -0.4453
17834TIP3    H274918   5.036   5.658  14.345  1.6771  0.0897  0.7517
17835TIP3   OH274919   3.543   4.871  16.016  0.0225  0.3217 -0.2469
17835TIP3    H174920   3.561   4.879  15.922 -0.4902 -0.3178 -0.4108
17835TIP3    H274921   3.500   4.786  16.025  1.5035 -0.3434  0.8002
17836TIP3   OH274922   2.481   4.818  13.625  0.0588 -0.4779 -0.3205
17836TIP3    H174923   2.493   4.723  13.628  0.0423 -0.4577  1.0603
17836TIP3    H274924   2.445   4.840  13.711 -0.0854  0.7623 -0.6825
17837TIP3   OH274925   0.718   5.275   5.934 -0.2961 -0.5693 -0.2546
17837TIP3    H174926   0.762   5.234   5.860 -0.1699  0.1457 -0.5849
17837TIP3    H274927   0.789   5.310   5.988 -0.4262 -0.0320 -0.4238
17838TIP3   OH274928   6.059   0.592  13.719  0.3734  0.6364 -0.1198
17838TIP3    H174929   6.053   0.660  13.786  5.4171  0.7646  0.5860
17838TIP3    H274930   6.073   0.639  13.637 -2.5330  0.4106 -0.8337
17839TIP3   OH274931   3.160   0.049   3.246 -0.5629 -0.4353 -0.5765
17839TIP3    H174932   3.206   0.087   3.171 -1.0361  1.9873  0.2582
17839TIP3    H274933   3.157   0.120   3.310  0.5608 -2.6498  2.1205
17840TIP3   OH274934   4.978   0.496   5.156 -0.2825  0.7338 -0.8360
17840TIP3    H174935   4.883   0.490   5.148 -0.2716  0.0182 -0.4853
17840TIP3    H274936   5.012   0.445   5.082 -0.1599  1.8029 -1.5383
17841TIP3   OH274937   2.528   0.537  13.891 -0.1390  0.1343 -0.3062
17841TIP3    H174938   2.475   0.607  13.854 -1.8019 -0.9344 -0.0269
17841TIP3    H274939   2.505   0.536  13.984 -1.5294 -1.9058 -0.6134
17842TIP3   OH274940   5.819   3.884  11.199  0.2014  0.4682 -0.0784
17842TIP3    H174941   5.827   3.963  11.252 -0.1896  1.5278 -1.5332
17842TIP3    H274942   5.743   3.839  11.236 -0.1412  1.2515  0.2074
17843TIP3   OH274943   6.714   5.171   0.293  0.1122  0.2189  0.1968
17843TIP3    H174944   6.757   5.246   0.333  1.2908  0.1438 -0.8405
17843TIP3    H274945   6.628   5.202   0.267  0.0848  0.8131  0.9758
17844TIP3   OH274946   2.477   5.662   4.569  1.0769  0.4296 -0.2758
17844TIP3    H174947   2.390   5.622   4.572  2.2623 -2.2685  0.6990
17844TIP3    H274948   2.474   5.718   4.491 -1.0031 -0.8598 -1.2286
17845TIP3   OH274949   5.166   0.707  14.538 -0.0990 -0.1214  0.3776
17845TIP3    H174950   5.190   0.652  14.613  1.3605 -1.1915 -0.8125
17845TIP3    H274951   5.247   0.751  14.513 -0.8388  1.1601  0.1473
17846TIP3   OH274952   4.614   4.120   4.238 -0.0698 -0.3372 -0.2196
17846TIP3    H174953   4.611   4.036   4.284  0.0432 -0.6027 -0.6877
17846TIP3    H274954   4.568   4.181   4.296  0.0571 -0.6641  0.2387
17847TIP3   OH274955   3.102   3.801  14.627 -0.0080 -0.0823  0.0287
17847TIP3    H174956   3.014   3.771  14.651 -0.0275  2.0481  3.3488
17847TIP3    H274957   3.090   3.850  14.547 -2.2051  1.3807  1.1623
17848TIP3   OH274958   0.668   3.570  16.503  0.2839 -0.2982  0.4902
17848TIP3    H174959   0.601   3.562  16.435  0.7093 -0.0648  0.0384
17848TIP3    H274960   0.644   3.648  16.553 -0.7496 -1.1715  1.4237
17849TIP3   OH274961   4.838   5.478  12.895 -0.3527  0.2489  0.0364
17849TIP3    H174962   4.905   5.543  12.917  2.0812 -1.9028 -0.6695
17849TIP3    H274963   4.784   5.522  12.829  1.5301  1.4234 -0.8055
17850TIP3   OH274964   1.007   2.239  11.931  0.0892  0.3535  0.1702
17850TIP3    H174965   0.989   2.249  11.838  0.1681  1.1483  0.2319
17850TIP3    H274966   1.007   2.329  11.965  0.5697  0.1065  0.8377
17851TIP3   OH274967   2.406   6.329   2.087 -0.3779  0.0467  0.1382
17851TIP3    H174968   2.501   6.341   2.080 -0.4543  0.0066 -1.1204
17851TIP3    H274969   2.396   6.258   2.151  0.4999 -0.5980 -0.4087
17852TIP3   OH274970   2.354   3.437  11.185  0.2901  1.0459  0.4402
17852TIP3    H174971   2.305   3.514  11.156  1.0685  0.7695 -1.9143
17852TIP3    H274972   2.303   3.363  11.153  0.9287  0.6922  0.2264
17853TIP3   OH274973   3.835   5.539   6.731  0.1672  0.3388  0.0335
17853TIP3    H174974   3.908   5.591   6.766  1.4205 -0.4696 -1.3287
17853TIP3    H274975   3.813   5.581   6.648 -0.6901  0.3430  0.2477
17854TIP3   OH274976   5.235   5.165  12.053 -0.0630 -0.0653 -0.0751
17854TIP3    H174977   5.242   5.078  12.013 -0.8746 -0.3276  0.3381
17854TIP3    H274978   5.257   5.226  11.982 -0.2195 -0.5763 -0.5701
17855TIP3   OH274979   3.622   4.975   1.035 -0.0681  0.2859 -0.2199
17855TIP3    H174980   3.646   4.978   1.128 -1.9719  0.2905  0.3105
17855TIP3    H274981   3.610   4.882   1.016  0.7006  0.2527 -0.5903
17856TIP3   OH274982   3.572   1.846   5.186 -0.2928  0.8506  0.3883
17856TIP3    H174983   3.518   1.770   5.164 -0.0764  0.1289  2.1670
17856TIP3    H274984   3.561   1.857   5.281  0.0853  2.7395  0.2612
17857TIP3   OH274985   0.485   1.303  16.680  0.0321  0.5892  0.3834
17857TIP3    H174986   0.415   1.340  16.734  0.0232  1.0793  0.0487
17857TIP3    H274987   0.565   1.322  16.728  0.0826  1.5991 -0.0677
17858TIP3   OH274988   6.649   4.957  14.160  0.0935 -0.0094  0.1247
17858TIP3    H174989   6.581   4.890  14.146  0.5249 -0.3477 -0.3965
17858TIP3    H274990   6.602   5.040  14.161 -0.4572 -0.3213  0.8186
17859TIP3   OH274991   0.188   3.767   1.273  0.1273 -0.6982  0.2722
17859TIP3    H174992   0.138   3.706   1.219  1.9164 -0.8555 -1.3114
17859TIP3    H274993   0.135   3.846   1.277 -0.0284 -0.6383 -1.8734
17860TIP3   OH274994   3.276   5.809  11.951  0.5456  0.2229 -0.2623
17860TIP3    H174995   3.197   5.829  11.900  0.4683 -1.8067 -1.0140
17860TIP3    H274996   3.343   5.792  11.885  1.2703  0.5809  0.3715
17861TIP3   OH274997   0.554   1.868   2.872 -0.2982 -0.0106 -0.1835
17861TIP3    H174998   0.492   1.896   2.805 -1.0486 -0.8848  0.1226
17861TIP3    H274999   0.628   1.832   2.823 -0.2846  0.5053 -0.5487
17862TIP3   OH275000   3.397   4.204   3.637 -0.2786 -0.0925  0.7423
17862TIP3    H175001   3.303   4.217   3.628 -0.4163 -0.7040  1.2522
17862TIP3    H275002   3.429   4.287   3.673 -0.7992 -0.2947  1.7049
17863TIP3   OH275003   1.257   6.806  15.728  0.3714 -0.0148  0.2446
17863TIP3    H175004   1.167   6.798  15.695  0.0433 -0.5730  1.2401
17863TIP3    H275005   1.308   6.831  15.651 -0.3602 -1.3596 -0.7365
17864TIP3   OH275006   3.696   6.560   6.357 -0.1486  0.1415  0.1977
17864TIP3    H175007   3.788   6.587   6.352  0.3038 -1.4708 -0.6902
17864TIP3    H275008   3.672   6.572   6.449  1.0100  0.3600  0.4818
17865TIP3   OH275009   6.757   6.775  13.631 -0.7819 -0.8281  0.5508
17865TIP3    H175010   6.842   6.782  13.676 -0.8422 -2.5544  1.0030
17865TIP3    H275011   6.703   6.843  13.671  0.2576  0.0160  0.5575
17866TIP3   OH275012   0.457   6.604  11.147  0.3284 -0.4508  0.0327
17866TIP3    H175013   0.431   6.590  11.056 -1.4271 -0.0912  0.4410
17866TIP3    H275014   0.378   6.585  11.198  1.2733 -0.6483  1.4906
17867TIP3   OH275015   0.755   4.465   4.449  0.1022  0.1618 -0.4027
17867TIP3    H175016   0.805   4.542   4.422  1.4337  0.3297  2.2416
17867TIP3    H275017   0.815   4.391   4.434 -1.1779 -0.4753 -2.9570
17868TIP3   OH275018   2.093   0.029  11.991 -0.9691 -0.1272  0.3429
17868TIP3    H175019   2.062  -0.006  12.075 -2.8205  0.2454 -0.1614
17868TIP3    H275020   2.039  -0.014  11.925  0.6986 -0.6838 -0.7445
17869TIP3   OH275021   6.519   3.078   4.792  0.2749 -0.7638  0.4000
17869TIP3    H175022   6.564   3.015   4.848  0.3437 -1.3756 -0.3175
17869TIP3    H275023   6.455   3.025   4.744 -0.1290 -0.1690  0.2747
17870TIP3   OH275024   5.746   3.033  15.771  0.7180  0.5691 -0.3433
17870TIP3    H175025   5.805   2.989  15.832  0.3336  2.5751  1.5992
17870TIP3    H275026   5.725   2.966  15.706  0.5903 -1.9677  2.0822
17871TIP3   OH275027   1.425   0.034  12.224 -0.2533 -0.2337 -0.4397
17871TIP3    H175028   1.447   0.122  12.193 -0.7758  0.0021 -0.1496
17871TIP3    H275029   1.503  -0.018  12.205  1.0266  0.8256  1.5561
17872TIP3   OH275030   0.507   3.936  11.670 -0.0565  0.0738 -0.8882
17872TIP3    H175031   0.431   3.993  11.656  0.3045  0.7822 -0.0927
17872TIP3    H275032   0.488   3.891  11.753  0.0270 -0.3630 -1.1022
17873TIP3   OH275033   3.377   0.831   3.171 -0.9023 -0.0965 -0.1458
17873TIP3    H175034   3.370   0.757   3.232 -0.5121 -0.5563 -0.6502
17873TIP3    H275035   3.447   0.806   3.111 -0.2452  1.0099  0.1239
17874TIP3   OH275036   3.369   2.851   3.183  0.3805 -0.3730  0.2591
17874TIP3    H175037   3.291   2.845   3.128  0.3360  1.3329  0.0697
17874TIP3    H275038   3.442   2.843   3.122  0.3509 -0.6869  0.2627
17875TIP3   OH275039   6.618   1.404   0.189  0.1551 -0.8248  0.2529
17875TIP3    H175040   6.695   1.414   0.133 -1.3683  0.5765 -1.7475
17875TIP3    H275041   6.590   1.493   0.206 -0.0855 -1.2648  2.4248
17876TIP3   OH275042   4.343   3.849   2.418  0.0116  0.0772  0.0889
17876TIP3    H175043   4.251   3.873   2.430  1.1176  4.3890  1.7288
17876TIP3    H275044   4.350   3.760   2.453 -3.3288 -0.1142  0.5781
17877TIP3   OH275045   4.476   4.505  16.443 -0.0519  0.2369 -1.0765
17877TIP3    H175046   4.564   4.531  16.417  0.4817 -0.8988 -0.5187
17877TIP3    H275047   4.425   4.586  16.442  1.8342  1.6886  2.0354
17878TIP3   OH275048   2.030   6.064  11.383 -0.2030 -0.1027  0.1669
17878TIP3    H175049   2.010   6.082  11.292  0.1854 -0.4505  0.0113
17878TIP3    H275050   1.958   6.104  11.432  1.6534  3.8667  0.0379
17879TIP3   OH275051   2.338   5.416   3.156  0.3616 -0.7224  0.0967
17879TIP3    H175052   2.287   5.414   3.075 -0.5516 -2.0088  0.6695
17879TIP3    H275053   2.425   5.448   3.129 -0.2240 -0.1530 -1.1920
17880TIP3   OH275054   0.907   0.200   5.666  0.3898  0.8382  0.1982
17880TIP3    H175055   0.853   0.246   5.730 -1.8030 -3.2023  1.5392
17880TIP3    H275056   0.983   0.169   5.716  0.4351  0.5941 -0.0210
17881TIP3   OH275057   3.591   2.877  11.935  0.1797  0.3669 -0.0082
17881TIP3    H175058   3.507   2.860  11.979  0.1177 -3.4115 -1.2271
17881TIP3    H275059   3.656   2.833  11.990  0.9227  0.6646 -0.6353
17882TIP3   OH275060   5.492   0.041   3.396  0.1571 -0.0177 -0.0859
17882TIP3    H175061   5.571   0.062   3.347  0.5877 -0.8284  0.2429
17882TIP3    H275062   5.521   0.032   3.487  0.1946 -2.7013 -0.2611
17883TIP3   OH275063   0.142   2.587   2.612 -0.2140  0.6975 -0.7598
17883TIP3    H175064   0.203   2.550   2.676 -3.2453 -1.8360  0.9420
17883TIP3    H275065   0.182   2.567   2.527  0.3985 -2.9786  0.1933
17884TIP3   OH275066   5.247   6.120   6.186  0.0058  0.1747 -0.8607
17884TIP3    H175067   5.198   6.122   6.268  0.0651  2.1853 -0.8334
17884TIP3    H275068   5.329   6.166   6.206  1.0061 -1.2706 -1.4707
17885TIP3   OH275069   3.338   6.008   4.059 -0.7284  0.7816 -0.0531
17885TIP3    H175070   3.428   5.980   4.078 -0.6275  0.8908 -0.3599
17885TIP3    H275071   3.308   5.946   3.993 -0.8156  0.8575 -0.0836
17886TIP3   OH275072   4.152   4.752   0.893 -0.0660  0.2284 -0.7205
17886TIP3    H175073   4.214   4.706   0.837 -0.1411  0.6650 -1.1702
17886TIP3    H275074   4.162   4.844   0.868 -0.9250  0.2951 -0.8198
17887TIP3   OH275075   1.743   4.458  13.117  0.5806  1.1046  0.5181
17887TIP3    H175076   1.705   4.545  13.133  1.5749  1.3403  1.8107
17887TIP3    H275077   1.673   4.397  13.138  0.0577  1.5836  0.1922
17888TIP3   OH275078   3.060   3.280  13.599  0.2738  0.3418  0.0687
17888TIP3    H175079   3.048   3.319  13.686 -0.8714 -1.0303  0.5530
17888TIP3    H275080   3.154   3.259  13.595  0.1945 -0.3185  1.3048
17889TIP3   OH275081   6.460   2.731   2.298 -0.1135 -0.1883 -0.7371
17889TIP3    H175082   6.410   2.677   2.359  1.9775  0.4664  1.7467
17889TIP3    H275083   6.451   2.687   2.214 -2.7920 -1.3945  0.0855
17890TIP3   OH275084   1.384   4.605  12.306  0.1585  0.4919  0.2703
17890TIP3    H175085   1.424   4.518  12.307 -0.1087  0.3249 -1.3488
17890TIP3    H275086   1.300   4.593  12.350  0.3865  0.0839  0.6135
17891TIP3   OH275087   3.218   6.202   2.185  0.1219  0.4974  0.0433
17891TIP3    H175088   3.128   6.188   2.156  0.0073 -0.6926  0.9228
17891TIP3    H275089   3.243   6.121   2.228  1.7971  0.6300 -0.5846
17892TIP3   OH275090   0.846   3.472  11.527 -0.1353  0.4411  0.5799
17892TIP3    H175091   0.925   3.437  11.568  0.1992  0.8856  0.3185
17892TIP3    H275092   0.878   3.519  11.450 -0.5408  1.6162  1.1087
17893TIP3   OH275093   3.908   6.359   3.517  0.0066  0.5993 -0.3886
17893TIP3    H175094   3.927   6.292   3.451 -0.0712  0.2745 -0.0806
17893TIP3    H275095   3.977   6.348   3.583 -0.7960 -0.1065  0.3660
17894TIP3   OH275096   1.483   6.014  12.330 -0.4320  0.1202  0.3648
17894TIP3    H175097   1.496   6.082  12.397  2.3728  0.4880 -0.4443
17894TIP3    H275098   1.484   5.932  12.379  1.0827  0.4156  0.8736
17895TIP3   OH275099   4.068   2.103   1.519 -0.0014 -0.2006  0.0879
17895TIP3    H175100   4.153   2.134   1.486  0.2146 -1.2817 -0.4045
17895TIP3    H275101   4.004   2.142   1.459  0.2717 -0.7311 -0.5629
17896TIP3   OH275102   0.796   1.794   1.114  0.2610 -0.1679  0.3171
17896TIP3    H175103   0.845   1.829   1.188  0.9625 -0.0808 -0.1839
17896TIP3    H275104   0.817   1.700   1.114  1.7004  0.1297 -0.8399
17897TIP3   OH275105   0.184   1.746   2.833 -0.1234 -0.7361 -0.0175
17897TIP3    H175106   0.173   1.702   2.917  0.2927 -1.6842 -0.4537
17897TIP3    H275107   0.185   1.839   2.855  1.3490 -1.0116  1.1929
17898TIP3   OH275108   6.266   3.564  15.311  0.2017  0.0727 -0.4990
17898TIP3    H175109   6.278   3.659  15.311 -0.6037  0.2138 -1.9834
17898TIP3    H275110   6.179   3.551  15.348  0.4687 -0.1215  0.0649
17899TIP3   OH275111   4.225   2.604  13.736 -0.1431 -0.0764  0.0945
17899TIP3    H175112   4.314   2.619  13.768  0.8896  1.1563 -3.0131
17899TIP3    H275113   4.204   2.515  13.767  2.2974 -0.5555  0.5981
17900TIP3   OH275114   3.122   0.374  12.606  0.3218  0.0161 -0.3272
17900TIP3    H175115   3.043   0.344  12.563  0.8998 -0.5621 -1.0074
17900TIP3    H275116   3.119   0.469  12.599  0.6239 -0.0777 -2.0637
17901TIP3   OH275117   6.441   6.559  16.027 -0.3130  0.6640  0.9893
17901TIP3    H175118   6.347   6.559  16.046 -0.4168  2.1687  0.6442
17901TIP3    H275119   6.477   6.487  16.079 -1.7647 -0.4672  0.4983
17902TIP3   OH275120   4.703   3.573   0.163  0.4962 -0.3378 -0.4679
17902TIP3    H175121   4.783   3.582   0.215  1.0547 -0.8849 -1.2070
17902TIP3    H275122   4.729   3.602   0.075 -0.3327  0.2222 -0.5454
17903TIP3   OH275123   6.557   1.695   4.352 -0.6727  0.1166  0.5153
17903TIP3    H175124   6.582   1.762   4.415  1.1166  1.1710 -1.2086
17903TIP3    H275125   6.557   1.740   4.267  0.6195 -2.0243 -0.7134
17904TIP3   OH275126   5.365   1.937   1.730  0.1280 -0.3497 -0.3354
17904TIP3    H175127   5.344   1.962   1.640 -2.8395  0.2825  0.4080
17904TIP3    H275128   5.376   1.842   1.727 -0.2663 -0.3778 -1.3413
17905TIP3   OH275129   6.355   0.348   4.160  0.5339  0.8623 -0.0786
17905TIP3    H175130   6.315   0.261   4.165  0.4913  0.9325  0.9500
17905TIP3    H275131   6.323   0.384   4.077 -0.1581  0.2462 -0.0913
17906TIP3   OH275132   0.722   3.285  17.067  0.0096 -0.0223  0.0021
17906TIP3    H175133   0.750   3.357  17.124  1.4821  0.0580 -0.7765
17906TIP3    H275134   0.628   3.300  17.054 -0.0092  0.8947  1.0566
17907TIP3   OH275135   4.384   0.389  16.892  0.6402 -0.1439  0.2611
17907TIP3    H175136   4.326   0.313  16.892  0.1540  0.1228 -2.4793
17907TIP3    H275137   4.472   0.353  16.893  0.4096 -0.7585 -0.4251
17908TIP3   OH275138   4.871   4.100  15.888 -0.0893 -0.4147 -0.1258
17908TIP3    H175139   4.807   4.029  15.876  1.4999 -1.5741 -2.4968
17908TIP3    H275140   4.955   4.055  15.895  0.9406  1.2103 -1.4174
17909TIP3   OH275141   6.016   3.283  13.411 -0.3222  0.2157 -0.0990
17909TIP3    H175142   5.924   3.267  13.391 -1.2939  0.4968  3.5040
17909TIP3    H275143   6.057   3.196  13.404 -0.9152  0.0007 -1.2408
17910TIP3   OH275144   3.070   5.803   1.050 -0.5764  0.3419  0.0852
17910TIP3    H175145   3.140   5.745   1.021 -1.1455 -1.0568  1.3845
17910TIP3    H275146   3.112   5.888   1.063  0.3985  0.0998 -1.2630
17911TIP3   OH275147   0.243   1.537   0.889 -0.2297 -0.7179 -0.4443
17911TIP3    H175148   0.274   1.627   0.884 -0.2908 -0.7426 -1.5094
17911TIP3    H275149   0.150   1.545   0.908 -0.3388 -0.5293 -1.0235
17912TIP3   OH275150   5.402   1.730  14.202 -0.2015  0.4580  0.1780
17912TIP3    H175151   5.485   1.743  14.248 -0.4261 -0.4336  0.8587
17912TIP3    H275152   5.347   1.802  14.231  0.1285  0.6936  0.2207
17913TIP3   OH275153   4.191   0.636  11.601  0.6132 -0.1182 -0.0588
17913TIP3    H175154   4.205   0.730  11.589  0.2327 -0.0282  0.1811
17913TIP3    H275155   4.278   0.602  11.625  0.4500  0.4398  1.4788
17914TIP3   OH275156   5.757   3.863  16.678 -0.4400 -0.4440  0.2846
17914TIP3    H175157   5.678   3.838  16.629 -0.2441 -0.8089  0.1451
17914TIP3    H275158   5.728   3.930  16.739 -0.3296  1.5226 -1.6923
17915TIP3   OH275159   1.293   0.192   1.485  0.2987 -0.2427  0.2028
17915TIP3    H175160   1.330   0.150   1.408  1.5181 -1.1127  1.2163
17915TIP3    H275161   1.318   0.284   1.477  2.0303 -0.6560  0.4392
17916TIP3   OH275162   4.909   6.466  15.102 -0.1213 -0.3415  0.0427
17916TIP3    H175163   4.896   6.543  15.158  0.1723  0.3438 -0.7959
17916TIP3    H275164   4.911   6.502  15.013  1.4483 -1.1177 -0.2783
17917TIP3   OH275165   0.364   3.082  13.201  0.0148 -0.5812  0.8818
17917TIP3    H175166   0.395   3.005  13.153 -0.5439 -0.4135  0.2481
17917TIP3    H275167   0.413   3.079  13.283  1.3357 -0.6220  0.1337
17918TIP3   OH275168   4.434   4.917  15.840 -0.4857  0.4833 -0.2315
17918TIP3    H175169   4.392   4.833  15.857  0.1974  0.3845  1.1482
17918TIP3    H275170   4.483   4.936  15.921 -0.4828  2.1197 -0.5838
17919TIP3   OH275171   0.489   2.447   0.396  0.2776  0.3083 -0.2051
17919TIP3    H175172   0.548   2.518   0.421  0.5713 -0.0091 -0.0104
17919TIP3    H275173   0.424   2.490   0.339  0.7565  0.6327 -0.5169
17920TIP3   OH275174   0.117   4.502   5.976 -0.3682 -0.2067 -0.1800
17920TIP3    H175175   0.069   4.466   6.051 -0.9753 -0.8640 -0.8558
17920TIP3    H275176   0.099   4.596   5.979 -2.1837 -0.4928 -0.7084
17921TIP3   OH275177   1.563   5.792   3.598  0.7886 -0.4721 -0.4963
17921TIP3    H175178   1.480   5.840   3.591  0.5225 -0.8404  0.1122
17921TIP3    H275179   1.591   5.780   3.507 -0.5476 -1.6057 -0.7826
17922TIP3   OH275180   0.497   0.611  12.567  0.2650  0.9324  0.1348
17922TIP3    H175181   0.576   0.558  12.574 -0.8943 -1.2715 -1.9257
17922TIP3    H275182   0.457   0.605  12.654  1.2735  0.2851  0.5753
17923TIP3   OH275183   1.724   0.924  13.787 -0.2305  0.3927  0.2391
17923TIP3    H175184   1.817   0.913  13.805 -0.4548 -0.5492  0.8390
17923TIP3    H275185   1.718   1.011  13.747  0.8201  0.7295  0.7889
17924TIP3   OH275186   3.241   3.049   5.493 -0.6031 -0.2651 -0.0000
17924TIP3    H175187   3.290   2.995   5.431 -0.7679  0.0370 -0.3940
17924TIP3    H275188   3.247   3.002   5.576  2.1992  0.8031  0.5145
17925TIP3   OH275189   4.634   4.287   2.566  0.0474 -0.0326  0.3344
17925TIP3    H175190   4.598   4.202   2.542 -0.6952  0.6336 -1.0416
17925TIP3    H275191   4.716   4.293   2.517  1.4894 -1.0119  2.4756
17926TIP3   OH275192   1.990   5.524  13.642  0.4550  0.2894 -0.1639
17926TIP3    H175193   1.991   5.586  13.714 -1.4883 -0.0921  0.2242
17926TIP3    H275194   2.057   5.557  13.581  1.2516  1.2973  1.2041
17927TIP3   OH275195   6.003   3.425  14.474 -0.0554  0.0503  0.2610
17927TIP3    H175196   6.019   3.424  14.569 -0.9339 -1.2106  0.4261
17927TIP3    H275197   6.088   3.447  14.436  0.0768  1.5853  1.3640
17928TIP3   OH275198   4.628   4.986  15.490  0.1624  0.1988  0.2911
17928TIP3    H175199   4.716   4.953  15.508  0.0479  0.2103  0.8857
17928TIP3    H275200   4.639   5.080  15.479  0.5459 -0.0295 -1.7620
17929TIP3   OH275201   2.941   4.594  11.314  0.5012  0.0154 -0.2383
17929TIP3    H175202   2.912   4.658  11.379  0.7485 -0.7834  0.6921
17929TIP3    H275203   2.890   4.614  11.236 -0.1479  0.7082  0.3436
17930TIP3   OH275204   0.709   4.151  12.475 -0.5247  0.0237 -0.5528
17930TIP3    H175205   0.662   4.123  12.397  0.4787 -0.4158 -1.0090
17930TIP3    H275206   0.790   4.101  12.474  0.3281  1.3564 -0.2239
17931TIP3   OH275207   5.309   3.203  11.210  0.2416 -0.0909 -0.4854
17931TIP3    H175208   5.357   3.206  11.127 -1.1934 -0.1179 -1.3711
17931TIP3    H275209   5.219   3.183  11.184 -0.3138  0.2396  1.0679
17932TIP3   OH275210   2.835   5.941   4.988  0.4203 -0.0722  0.3487
17932TIP3    H175211   2.791   5.893   4.918  0.7109  0.1551  0.0045
17932TIP3    H275212   2.928   5.929   4.971  0.5310 -1.5494  1.7653
17933TIP3   OH275213   1.440   0.396   5.305  0.3496  0.0490  0.1161
17933TIP3    H175214   1.508   0.408   5.371  0.1514  0.1118  0.3063
17933TIP3    H275215   1.358   0.419   5.349  0.3568  1.3936 -0.5136
17934TIP3   OH275216   0.189   3.521  12.957  0.0030  0.2837 -0.3755
17934TIP3    H175217   0.233   3.589  12.906 -2.5373  0.4457 -2.5853
17934TIP3    H275218   0.099   3.522  12.925 -0.4748 -3.2152  0.4820
17935TIP3   OH275219   5.671   0.927  11.413 -0.2046 -0.4883  0.3817
17935TIP3    H175220   5.622   0.888  11.340 -0.4597  0.8148 -0.1757
17935TIP3    H275221   5.606   0.945  11.480 -0.1538 -0.6032  0.4633
17936TIP3   OH275222   1.115   6.456  16.014 -0.0974  0.3077 -0.2063
17936TIP3    H175223   1.144   6.547  16.011 -0.1541  0.3023 -2.2075
17936TIP3    H275224   1.036   6.454  15.960 -0.5212 -0.8069  0.4156
17937TIP3   OH275225   3.697   3.826  16.538 -0.3456  0.7474 -0.1268
17937TIP3    H175226   3.789   3.808  16.519  0.4296  0.2515  3.4083
17937TIP3    H275227   3.660   3.740  16.558 -0.4693  1.3106  2.3619
17938TIP3   OH275228   3.509   3.719  16.016 -0.4939  0.6014  0.1256
17938TIP3    H175229   3.551   3.749  16.097 -0.4986  1.7929 -0.2935
17938TIP3    H275230   3.477   3.799  15.975  0.2269  0.1185 -1.4587
17939TIP3   OH275231   0.380   1.582   3.173  0.0673  0.5059  0.5648
17939TIP3    H175232   0.294   1.544   3.193  0.6204 -2.1841 -1.6514
17939TIP3    H275233   0.360   1.664   3.128 -1.3340  0.1781  0.5488
17940TIP3   OH275234   3.229   5.618   3.014 -0.0737  0.4283  0.0783
17940TIP3    H175235   3.178   5.643   2.937  0.9011 -2.5886 -1.7087
17940TIP3    H275236   3.305   5.675   3.013  0.2439  0.0175 -1.6264
17941TIP3   OH275237   2.012   0.905  13.862 -0.1547 -0.3204 -0.0154
17941TIP3    H175238   2.056   0.959  13.796 -0.7311  0.4257  0.1921
17941TIP3    H275239   2.082   0.850  13.898  0.3010 -0.2547 -0.7561
17942TIP3   OH275240   3.039   6.715   5.036  0.2917  0.5001  0.0712
17942TIP3    H175241   3.055   6.749   4.948  2.2480  0.9186  0.5577
17942TIP3    H275242   2.943   6.714   5.044  0.0686  0.4866 -2.0287
17943TIP3   OH275243   2.590   5.224  13.531  0.2463 -0.2841 -0.0687
17943TIP3    H175244   2.662   5.252  13.587 -1.3026  1.7960  1.0439
17943TIP3    H275245   2.590   5.287  13.458 -1.4368  0.8882  0.8670
17944TIP3   OH275246   1.286   3.845   5.642  0.1165 -0.1214  0.4054
17944TIP3    H175247   1.253   3.902   5.712 -0.4126 -1.5482  1.3570
17944TIP3    H275248   1.235   3.870   5.565 -0.2044  0.5881  0.8355
17945TIP3   OH275249   4.744   1.358   6.359 -0.1440  0.3590  0.5804
17945TIP3    H175250   4.805   1.292   6.391 -0.5011 -0.4197 -0.3216
17945TIP3    H275251   4.795   1.410   6.297 -0.3589 -0.2101 -0.0753
17946TIP3   OH275252   5.706   2.048   0.334  0.6423 -0.7789 -0.2737
17946TIP3    H175253   5.740   1.962   0.310  0.7008 -1.2860  1.5072
17946TIP3    H275254   5.620   2.030   0.372 -0.4622  0.2209 -2.1443
17947TIP3   OH275255   1.929   6.368   1.504 -0.0027 -0.3324 -0.2633
17947TIP3    H175256   2.009   6.401   1.463 -0.1881  0.9604  0.3488
17947TIP3    H275257   1.860   6.386   1.440 -0.0088 -0.1147 -0.1965
17948TIP3   OH275258   1.627   1.621  15.336  0.0742  0.6970 -0.7491
17948TIP3    H175259   1.560   1.561  15.369 -1.4604  2.4507 -0.5335
17948TIP3    H275260   1.709   1.572  15.345 -0.8592 -0.6378  1.2639
17949TIP3   OH275261   0.432   1.331   2.458  0.3296 -0.0686  0.0066
17949TIP3    H175262   0.337   1.333   2.457  0.3035  2.3270  0.6379
17949TIP3    H275263   0.457   1.404   2.401  1.7321  0.6575  1.4857
17950TIP3   OH275264   0.340   4.731   1.716  0.0269 -0.0533  0.6791
17950TIP3    H175265   0.433   4.751   1.732  0.1555  0.2558 -0.3658
17950TIP3    H275266   0.314   4.679   1.792  0.5647  1.3570  1.8961
17951TIP3   OH275267   5.985   4.723   1.100 -0.4359  0.1452 -0.3663
17951TIP3    H175268   6.024   4.764   1.177 -1.4017 -0.1828  0.3191
17951TIP3    H275269   5.963   4.635   1.128 -4.2569  1.1182  0.2711
17952TIP3   OH275270   6.666   2.580  15.042 -0.0830 -0.5271  0.3750
17952TIP3    H175271   6.632   2.659  15.001 -0.5901 -0.0844  1.6077
17952TIP3    H275272   6.714   2.535  14.972  0.9019  1.2514 -0.1450
17953TIP3   OH275273   1.871   0.735  17.188 -0.1052  0.2329  0.2153
17953TIP3    H175274   1.922   0.674  17.241  1.2061  0.3550 -0.8707
17953TIP3    H275275   1.821   0.678  17.129 -2.3087  0.0444  2.1270
17954TIP3   OH275276   4.578   3.925  11.983 -0.0448  0.6780 -0.5648
17954TIP3    H175277   4.542   3.999  12.033 -0.1423 -0.5892  1.3150
17954TIP3    H275278   4.530   3.849  12.015  0.3659 -0.2861 -2.1596
17955TIP3   OH275279   4.204   1.280  13.273 -0.5469  0.5243 -0.0276
17955TIP3    H175280   4.181   1.352  13.215  0.4937  1.0265  0.1539
17955TIP3    H275281   4.263   1.319  13.337 -0.1544 -0.4415  0.2169
17956TIP3   OH275282   5.661   3.515   4.841  0.4854 -0.0948 -0.1589
17956TIP3    H175283   5.625   3.552   4.922  1.9306  0.6765  0.1580
17956TIP3    H275284   5.749   3.486   4.865  2.0197  2.6235 -2.0222
17957TIP3   OH275285   5.941   2.397   4.107  0.0274 -0.1926 -0.2571
17957TIP3    H175286   6.023   2.381   4.059  0.3370  0.7014 -0.0506
17957TIP3    H275287   5.898   2.467   4.058 -0.3334 -0.2577 -0.0322
17958TIP3   OH275288   4.860   0.631  15.349  0.1521 -0.2691 -0.4659
17958TIP3    H175289   4.802   0.700  15.317 -0.1942 -1.0768 -1.6214
17958TIP3    H275290   4.802   0.563  15.381  0.3392 -1.7228 -2.9553
17959TIP3   OH275291   4.960   2.659   4.446 -0.4876 -0.0521 -0.0103
17959TIP3    H175292   4.946   2.704   4.362  2.7714  2.4493  0.5873
17959TIP3    H275293   5.024   2.590   4.425  1.2510  1.3432  0.5438
17960TIP3   OH275294   4.975   2.386  17.120 -0.4996 -0.8380  0.3288
17960TIP3    H175295   5.065   2.378  17.153  0.5259  0.2887 -1.9605
17960TIP3    H275296   4.972   2.328  17.044 -1.3672 -0.0075 -0.2905
17961TIP3   OH275297   6.428   0.046   5.706  0.1415  0.7764 -0.4060
17961TIP3    H175298   6.383  -0.032   5.674 -0.8236 -0.2023  3.0146
17961TIP3    H275299   6.487   0.013   5.774  0.4720  2.9218  0.4009
17962TIP3   OH275300   0.548   6.286  17.242 -0.2700 -0.6194 -0.1268
17962TIP3    H175301   0.600   6.251  17.170  0.9806 -1.8883  1.3012
17962TIP3    H275302   0.471   6.230  17.247  0.0223 -1.0134 -0.0057
17963TIP3   OH275303   2.782   5.641   6.265 -0.0245 -0.4077 -0.1747
17963TIP3    H175304   2.782   5.734   6.242  1.6651 -0.1060  0.8840
17963TIP3    H275305   2.727   5.600   6.198 -1.5206  1.4414 -0.1760
17964TIP3   OH275306   1.140   4.550   0.891  0.5302 -0.5962  0.1297
17964TIP3    H175307   1.064   4.607   0.887  0.4431 -0.6751 -4.4830
17964TIP3    H275308   1.105   4.465   0.919 -0.2721  0.2235  1.7766
17965TIP3   OH275309   1.696   3.703  14.215  0.0809 -1.0214 -0.1100
17965TIP3    H175310   1.639   3.686  14.289  0.3002 -0.6200  0.1544
17965TIP3    H275311   1.647   3.764  14.160  0.5255 -0.1501  0.4527
17966TIP3   OH275312   2.771   0.924  13.853  0.3336  0.2415  0.1909
17966TIP3    H175313   2.741   0.949  13.766  0.6709 -3.1583 -1.0448
17966TIP3    H275314   2.858   0.963  13.860  0.0908  0.9972 -0.7278
17967TIP3   OH275315   5.672   0.697   1.051  0.0938 -0.4675 -0.0893
17967TIP3    H175316   5.581   0.725   1.061  0.6561  0.9994  1.3201
17967TIP3    H275317   5.687   0.638   1.125  1.1284  1.7813  1.6220
17968TIP3   OH275318   5.026   5.156   3.722 -0.0721  0.3384 -0.4601
17968TIP3    H175319   4.961   5.216   3.685 -0.9487 -1.1512 -1.4331
17968TIP3    H275320   5.108   5.180   3.678 -0.8587 -0.6317 -2.6169
17969TIP3   OH275321   4.171   0.257   0.872  0.2468 -0.5645 -0.7215
17969TIP3    H175322   4.165   0.288   0.782  1.0683  0.5187 -0.4308
17969TIP3    H275323   4.201   0.166   0.865 -1.6929 -1.1779 -1.5802
17970TIP3   OH275324   1.398   2.067  14.121 -0.0343 -0.2753  0.0553
17970TIP3    H175325   1.319   2.044  14.168  0.5796 -1.1771  0.6802
17970TIP3    H275326   1.371   2.135  14.060 -1.6958 -1.8150 -1.0367
17971TIP3   OH275327   5.770   4.564  17.122  0.1189 -0.3039  0.0420
17971TIP3    H175328   5.822   4.552  17.042  0.1849  1.5564 -0.2297
17971TIP3    H275329   5.827   4.616  17.180 -0.6829  0.0606  0.5188
17972TIP3   OH275330   3.850   3.101  16.460 -0.1364 -0.4043 -0.4739
17972TIP3    H175331   3.912   3.128  16.528 -0.6853 -0.8135  0.2089
17972TIP3    H275332   3.865   3.162  16.388  2.0840 -1.3783 -0.9201
17973TIP3   OH275333   0.716   0.793   4.786 -0.3578  0.4733 -0.1633
17973TIP3    H175334   0.687   0.860   4.847  0.7220 -0.0783  0.9992
17973TIP3    H275335   0.706   0.711   4.835  3.2884  0.2483  0.4604
17974TIP3   OH275336   6.489   0.994  16.962  0.4138  0.5178 -0.1423
17974TIP3    H175337   6.409   0.974  17.011 -0.5304 -1.1930 -2.2073
17974TIP3    H275338   6.559   0.982  17.025 -0.9008  1.4473  1.5701
17975TIP3   OH275339   2.148   6.391  16.134  0.3271 -0.2812  0.1469
17975TIP3    H175340   2.182   6.306  16.161  0.0572 -0.0213  1.3703
17975TIP3    H275341   2.225   6.449  16.136  0.1166 -0.0085  1.5419
17976TIP3   OH275342   6.100   3.194  13.927  0.5194 -0.4851 -0.0904
17976TIP3    H175343   6.082   3.107  13.965  1.1350 -0.2124  0.8496
17976TIP3    H275344   6.050   3.195  13.845  0.2321 -1.5990  0.0561
17977TIP3   OH275345   0.209   2.356   5.592 -0.5989  0.0770  0.4773
17977TIP3    H175346   0.202   2.369   5.497  1.1890  0.7341  0.3941
17977TIP3    H275347   0.129   2.394   5.627 -1.5223 -0.6051 -0.7919
17978TIP3   OH275348   0.523   2.422   0.019 -0.2867 -0.2839  0.2743
17978TIP3    H175349   0.572   2.407  -0.062  0.5361  2.6809  0.1057
17978TIP3    H275350   0.588   2.408   0.089 -0.1616  0.1034  0.2392
17979TIP3   OH275351   4.883   6.753   1.584 -0.1774  0.1061  0.2472
17979TIP3    H175352   4.908   6.820   1.521 -1.8116  0.4319 -0.0929
17979TIP3    H275353   4.809   6.791   1.632 -1.1030 -1.4000  0.0861
17980TIP3   OH275354   4.485   5.475   2.267  0.2736  0.2247 -0.2297
17980TIP3    H175355   4.499   5.399   2.211 -0.7142  0.6544 -1.0879
17980TIP3    H275356   4.390   5.477   2.281  0.4383  0.4926  0.9487
17981TIP3   OH275357   3.980   2.237  11.832  0.6132  0.1820 -0.2157
17981TIP3    H175358   3.995   2.328  11.805  0.6461  1.0604  2.4905
17981TIP3    H275359   4.061   2.192  11.807  1.3766  1.3278  0.0880
17982TIP3   OH275360   2.752   6.711   6.023  0.0565 -0.4478  1.1447
17982TIP3    H175361   2.680   6.709   5.959 -1.2422 -0.8214  2.5640
17982TIP3    H275362   2.788   6.623   6.021 -1.7508 -1.2990  2.7951
17983TIP3   OH275363   3.551   5.716  16.106 -0.1278 -0.1040 -0.0067
17983TIP3    H175364   3.624   5.682  16.054 -0.2791 -0.4576  0.0120
17983TIP3    H275365   3.490   5.751  16.041  0.1333  0.3482 -0.0152
17984TIP3   OH275366   2.098   1.151  15.030 -0.2346 -0.0532  0.3115
17984TIP3    H175367   2.062   1.211  15.095 -2.4257  0.4086 -1.2069
17984TIP3    H275368   2.104   1.067  15.075 -0.0052  0.6276  1.5939
17985TIP3   OH275369   5.860   0.922   0.518 -0.0873  0.3967 -0.0587
17985TIP3    H175370   5.878   0.899   0.609 -0.7386  0.2596  0.0391
17985TIP3    H275371   5.925   0.989   0.497  0.7222 -0.2960  0.1857
17986TIP3   OH275372   5.228   4.225   4.899 -0.0607  0.3257 -0.0599
17986TIP3    H175373   5.229   4.319   4.883  1.2223 -0.2163 -4.0212
17986TIP3    H275374   5.173   4.189   4.830 -0.7803 -1.9044  1.5371
17987TIP3   OH275375   3.474   0.484  17.205  0.3885  0.6716  0.0172
17987TIP3    H175376   3.441   0.569  17.235 -0.8863  0.0303  0.4952
17987TIP3    H275377   3.397   0.440  17.167  0.9313 -0.4413  0.1643
17988TIP3   OH275378   2.219   1.065   3.979 -0.1488  0.6918  0.3822
17988TIP3    H175379   2.225   0.971   3.995 -0.0726  0.7583  0.7555
17988TIP3    H275380   2.306   1.099   4.004 -0.7441  1.1160  2.0026
17989TIP3   OH275381   5.235   6.593   0.714 -0.2067  0.3684 -0.4748
17989TIP3    H175382   5.187   6.580   0.796 -0.3457  2.0461 -0.2514
17989TIP3    H275383   5.272   6.681   0.722  2.4033 -0.6080 -0.9194
17990TIP3   OH275384   2.074   2.660   4.501  0.1928 -0.0153  0.2148
17990TIP3    H175385   2.157   2.705   4.484  0.7109 -1.3639 -1.0432
17990TIP3    H275386   2.086   2.619   4.587  0.3760  0.7265  0.5555
17991TIP3   OH275387   1.857   0.521   2.821  0.1658  0.4079 -0.1524
17991TIP3    H175388   1.945   0.556   2.834 -0.8134  3.0119  0.1251
17991TIP3    H275389   1.863   0.430   2.849  2.0522  1.3214  3.0298
17992TIP3   OH275390   1.757   5.612  15.707  0.3041  0.2329  0.2048
17992TIP3    H175391   1.691   5.543  15.720  0.4496  0.1440  0.4690
17992TIP3    H275392   1.814   5.605  15.783 -0.3455  1.3931  0.8170
17993TIP3   OH275393   4.158   3.189   2.366 -0.0837  0.1513 -0.2431
17993TIP3    H175394   4.244   3.219   2.336 -0.0835  0.4589  0.0566
17993TIP3    H275395   4.175   3.151   2.452 -0.4943  1.6797  0.5416
17994TIP3   OH275396   3.543   6.198   0.097  0.3127 -0.4112  0.1597
17994TIP3    H175397   3.615   6.167   0.040  0.5951  0.5490 -0.0309
17994TIP3    H275398   3.575   6.184   0.186  0.5318 -0.4548  0.0749
17995TIP3   OH275399   1.647   4.779  12.876 -0.6156 -0.3324 -0.5173
17995TIP3    H175400   1.684   4.699  12.839  0.0396  0.8945 -2.7091
17995TIP3    H275401   1.555   4.779  12.847 -0.6703 -0.3872 -0.3449
17996TIP3   OH275402   4.714   0.832   5.203  0.5575 -0.7914  0.1529
17996TIP3    H175403   4.798   0.866   5.234  0.8026 -0.5448 -0.7577
17996TIP3    H275404   4.676   0.788   5.280 -0.2374  2.3566  1.6986
17997TIP3   OH275405   0.561   2.610  14.751  0.2130 -0.4956  0.0624
17997TIP3    H175406   0.575   2.607  14.656  0.0475  0.5468 -0.0148
17997TIP3    H275407   0.487   2.671  14.761  1.0885  0.4689  0.9277
17998TIP3   OH275408   1.510   0.139   0.181  0.1044  0.5091 -0.6842
17998TIP3    H175409   1.546   0.103   0.261 -0.3107  0.5653 -0.4669
17998TIP3    H275410   1.559   0.097   0.111 -0.5390 -0.6616 -0.4440
17999TIP3   OH275411   1.432   0.081   1.282 -0.3237  0.1577  0.5152
17999TIP3    H175412   1.414   0.118   1.196  1.1347  1.0249  0.5425
17999TIP3    H275413   1.517   0.119   1.307 -0.3534 -0.6717  1.9954
18000TIP3   OH275414   2.934   1.927   5.347 -0.1896  0.2177  0.4026
18000TIP3    H175415   2.905   1.922   5.255  0.2119 -2.4071  0.3515
18000TIP3    H275416   2.964   1.839   5.367  0.8147  1.0316  2.7451
18001TIP3   OH275417   2.060   2.029  12.065 -0.5679 -0.0171 -0.2402
18001TIP3    H175418   1.972   2.067  12.062 -0.6250 -0.1689 -2.3832
18001TIP3    H275419   2.048   1.941  12.099 -1.0367  0.4096  0.7311
18002TIP3   OH275420   0.886   5.939  12.729 -0.5748 -0.1764 -0.0606
18002TIP3    H175421   0.815   5.941  12.665  0.2905 -0.3128 -1.0692
18002TIP3    H275422   0.966   5.938  12.675  0.2278  1.2411  1.0356
18003TIP3   OH275423   6.020   1.062   3.615  0.3148 -0.3211  0.2052
18003TIP3    H175424   6.073   1.014   3.678 -0.4072 -0.5936  0.6151
18003TIP3    H275425   5.932   1.026   3.625  0.2553 -0.6584 -1.2453
18004TIP3   OH275426   5.056   1.476   5.234 -0.1784 -0.8617 -0.7357
18004TIP3    H175427   4.982   1.472   5.175  0.1919  0.3288 -1.3103
18004TIP3    H275428   5.083   1.568   5.233  2.4125 -1.5408 -1.9606
18005TIP3   OH275429   6.687   2.490  13.544  0.3733 -0.2483  0.4776
18005TIP3    H175430   6.660   2.469  13.454 -1.5857  1.0544  0.7020
18005TIP3    H275431   6.608   2.479  13.596  1.3343 -0.3794  1.9706
18006TIP3   OH275432   1.378   3.454  16.088 -0.3946 -0.0119 -0.3225
18006TIP3    H175433   1.391   3.360  16.077  1.0708  0.0109  0.9672
18006TIP3    H275434   1.322   3.479  16.014 -1.3373 -1.9922 -0.3419
18007TIP3   OH275435   6.755   2.039  16.836 -0.2923  0.0967  0.6923
18007TIP3    H175436   6.843   2.005  16.853  0.0210  0.4271 -0.2299
18007TIP3    H275437   6.759   2.131  16.864 -0.4169  0.0450  0.8809
18008TIP3   OH275438   4.112   4.532  14.107 -0.6015  0.2613 -0.1738
18008TIP3    H175439   4.206   4.514  14.110 -0.4588  0.4247 -2.1212
18008TIP3    H275440   4.099   4.608  14.163  0.8049  1.5784 -1.5652
18009TIP3   OH275441   1.586   3.112  14.887  0.7027 -0.0047 -0.5971
18009TIP3    H175442   1.556   3.198  14.855 -2.1572 -1.0265 -0.9517
18009TIP3    H275443   1.604   3.062  14.808  1.3624 -0.0722 -0.4088
18010TIP3   OH275444   4.034   4.083  16.998  0.3995  0.4035 -0.8736
18010TIP3    H175445   4.124   4.088  17.030  0.3742 -0.3112 -0.6924
18010TIP3    H275446   3.997   4.005  17.039  0.1669 -0.1584 -2.1053
18011TIP3   OH275447   2.455   5.242  12.333  0.0277 -0.0964 -0.2938
18011TIP3    H175448   2.433   5.175  12.398  1.1636 -1.3352 -1.1125
18011TIP3    H275449   2.521   5.297  12.376 -2.3373  1.8467  1.1174
18012TIP3   OH275450   5.236   4.024  13.773  0.2671 -0.6214 -0.0171
18012TIP3    H175451   5.178   4.052  13.703 -0.5114 -0.6485  0.6009
18012TIP3    H275452   5.317   4.074  13.759 -0.4648  0.6131  0.0355
18013TIP3   OH275453   5.930   3.712  14.718  0.1879  0.4244 -0.0923
18013TIP3    H175454   5.911   3.621  14.742  0.8242  0.2918 -0.0834
18013TIP3    H275455   5.955   3.754  14.800 -0.1856  0.6361 -0.0817
18014TIP3   OH275456   5.444   0.951  11.261  0.1202  0.0224 -0.4495
18014TIP3    H175457   5.413   0.861  11.251  0.9519 -0.4522  0.9785
18014TIP3    H275458   5.370   0.999  11.298 -0.3274 -0.0619 -1.2256
18015TIP3   OH275459   1.973   4.404  16.678  0.0727 -0.5141  0.5839
18015TIP3    H175460   2.021   4.427  16.757 -1.2649 -0.9214  1.5471
18015TIP3    H275461   1.969   4.486  16.628  3.7964 -0.9550 -0.7416
18016TIP3   OH275462   5.002   0.618   0.853  0.3105 -0.1602  0.4796
18016TIP3    H175463   4.967   0.706   0.841  2.0672  0.4812 -0.2568
18016TIP3    H275464   4.963   0.587   0.935 -1.3947  0.7545  0.0397
18017TIP3   OH275465   3.527   4.224  14.884 -0.5739  0.2754  0.2300
18017TIP3    H175466   3.518   4.317  14.905 -2.0559 -0.3821  2.9232
18017TIP3    H275467   3.468   4.210  14.810 -0.4941  1.3962 -0.0708
18018TIP3   OH275468   4.517   5.917  12.369 -0.5522  0.1883 -0.0508
18018TIP3    H175469   4.539   5.836  12.414 -0.8766  0.6830  1.0219
18018TIP3    H275470   4.436   5.946  12.410 -0.5562  0.9505 -0.5801
18019TIP3   OH275471   4.435   2.444   4.868  0.2714 -0.5420 -0.1902
18019TIP3    H175472   4.465   2.528   4.834 -0.3826 -0.3864 -0.3934
18019TIP3    H275473   4.378   2.467   4.941  0.6703 -0.8380  0.2252
18020TIP3   OH275474   1.643   2.379  12.819  0.0524 -0.5445 -0.0861
18020TIP3    H175475   1.555   2.354  12.793 -0.9696  0.3069  2.2462
18020TIP3    H275476   1.633   2.409  12.910  2.1007  2.7779 -0.7714
18021TIP3   OH275477   0.651   2.607  11.414 -0.1563 -0.1117  0.2672
18021TIP3    H175478   0.702   2.527  11.405  0.2516  0.2772 -1.2485
18021TIP3    H275479   0.562   2.577  11.435  0.2395 -0.8932  0.8634
18022TIP3   OH275480   4.852   5.769   2.836 -0.1869  0.0806 -0.0837
18022TIP3    H175481   4.923   5.811   2.884 -0.7161  1.9454 -0.8230
18022TIP3    H275482   4.806   5.717   2.901 -0.2215  1.6531  1.2122
18023TIP3   OH275483   1.816   2.834   2.954  0.6834  0.8734  0.2108
18023TIP3    H175484   1.875   2.909   2.945  1.0850  0.7395  1.4411
18023TIP3    H275485   1.850   2.769   2.893  1.1182  1.2292  0.0716
18024TIP3   OH275486   5.601   2.387   3.903 -0.6441  0.2695  0.5359
18024TIP3    H175487   5.634   2.457   3.960 -0.9645  0.6865  0.2095
18024TIP3    H275488   5.553   2.432   3.834 -0.5508 -0.2545  0.1217
18025TIP3   OH275489   1.016   1.765   5.197 -0.1214 -0.4266  0.3527
18025TIP3    H175490   1.082   1.771   5.128 -1.3341 -0.7301 -0.8880
18025TIP3    H275491   1.006   1.855   5.228  0.1479 -0.2144 -0.1661
18026TIP3   OH275492   0.031   5.727  13.128 -0.1414 -0.5520  0.1956
18026TIP3    H175493  -0.022   5.786  13.076  1.1084  1.2084  0.8136
18026TIP3    H275494   0.070   5.666  13.065 -0.3814  0.1578 -0.6458
18027TIP3   OH275495   5.425   2.750  16.094 -0.0861  0.1145 -0.0554
18027TIP3    H175496   5.397   2.839  16.075 -0.4134  0.1005  0.3547
18027TIP3    H275497   5.344   2.699  16.101  0.1029 -0.2384 -0.4012
18028TIP3   OH275498   1.744   4.632   4.846  0.0242  0.7959  0.3453
18028TIP3    H175499   1.810   4.632   4.778  0.3099 -1.5834  0.5528
18028TIP3    H275500   1.778   4.572   4.913 -2.5956 -1.1155  0.1271
18029TIP3   OH275501   2.801   5.623   5.510 -0.0839 -0.4022 -0.0924
18029TIP3    H175502   2.852   5.695   5.545 -2.2511  1.5705 -0.7317
18029TIP3    H275503   2.805   5.555   5.577  2.0255  0.2722  0.5266
18030TIP3   OH275504   4.119   6.558   5.972  0.3476  0.3725  0.1137
18030TIP3    H175505   4.141   6.475   5.930 -1.8963 -1.1605  1.7345
18030TIP3    H275506   4.179   6.564   6.047 -0.1678 -0.3505  0.5974
18031TIP3   OH275507   0.544   1.703  15.933  0.0170 -0.0564  0.0371
18031TIP3    H175508   0.460   1.663  15.953  0.1482 -0.6178 -0.5110
18031TIP3    H275509   0.525   1.762  15.860  0.1644 -0.4321 -0.3040
18032TIP3   OH275510   6.233   0.515  11.302  0.0695 -0.4019 -0.1609
18032TIP3    H175511   6.225   0.555  11.215  0.8256  1.0360  0.3917
18032TIP3    H275512   6.164   0.557  11.354 -0.6822 -1.5935 -0.1588
18033TIP3   OH275513   0.274   3.064  11.389 -0.3627  0.4514  0.3097
18033TIP3    H175514   0.309   3.098  11.306  0.0097 -0.3839  0.1180
18033TIP3    H275515   0.259   2.971  11.372 -1.3610  0.5085  0.8346
18034TIP3   OH275516   6.525   0.500  11.364 -0.0011 -0.1878 -0.3050
18034TIP3    H175517   6.463   0.573  11.370 -0.7476 -0.8322  0.0350
18034TIP3    H275518   6.474   0.424  11.393  0.6805 -0.8924 -0.9468
18035TIP3   OH275519   1.542   5.953  10.549 -0.4148 -0.2305 -0.1619
18035TIP3    H175520   1.451   5.942  10.524 -0.3366  0.3508 -0.7205
18035TIP3    H275521   1.567   5.868  10.586 -1.4935 -0.0507  1.0373
18036TIP3   OH275522   6.004   1.657  14.360 -0.3045  0.1942  0.2749
18036TIP3    H175523   6.004   1.563  14.381 -1.8434  0.4583  1.5964
18036TIP3    H275524   6.001   1.700  14.445 -0.5517  1.4303 -0.3482
18037TIP3   OH275525   3.125   1.743  13.162  0.6153  0.2681  0.0237
18037TIP3    H175526   3.030   1.739  13.157  0.5465 -0.6871  1.3900
18037TIP3    H275527   3.144   1.818  13.218  0.6767  0.5773 -0.4100
18038TIP3   OH275528   6.503   0.479   0.933  0.0604  0.2365  0.9262
18038TIP3    H175529   6.495   0.461   0.840  0.8840  0.6568  0.7656
18038TIP3    H275530   6.488   0.573   0.940 -3.4441 -0.2318  1.6580
18039TIP3   OH275531   6.784   2.440  14.479  0.5128 -0.2996 -0.2478
18039TIP3    H175532   6.873   2.466  14.502 -0.6198  1.6126  2.5603
18039TIP3    H275533   6.767   2.484  14.395  1.7479  0.5318 -0.0921
18040TIP3   OH275534   3.687   6.267  14.618  0.5474 -0.0090 -0.2669
18040TIP3    H175535   3.748   6.324  14.569  0.6312  0.2309  0.1070
18040TIP3    H275536   3.652   6.324  14.686  1.2160 -0.6038  0.6014
18041TIP3   OH275537   0.245   3.021  16.950  0.2326 -0.0012 -0.1157
18041TIP3    H175538   0.274   3.099  16.901  2.1417  0.4483  1.5720
18041TIP3    H275539   0.222   3.055  17.036  2.2056 -1.3902  1.0286
18042TIP3   OH275540   0.124   0.692  11.158 -0.0900  0.2130 -0.2613
18042TIP3    H175541   0.182   0.768  11.144 -0.5414  0.5738 -0.1949
18042TIP3    H275542   0.067   0.719  11.230  0.7948 -0.7936  0.8610
18043TIP3   OH275543   6.197   1.129   4.784  0.2314 -0.4835  0.0441
18043TIP3    H175544   6.134   1.142   4.855 -1.5986 -1.1148 -1.3943
18043TIP3    H275545   6.183   1.203   4.726  0.9801 -0.5226 -0.1918
18044TIP3   OH275546   2.435   0.554  10.771 -0.6124 -0.6211  0.1583
18044TIP3    H175547   2.369   0.623  10.774 -1.2022 -1.1609 -0.1063
18044TIP3    H275548   2.392   0.482  10.724  0.2009 -0.9432 -0.1105
18045TIP3   OH275549   2.081   6.038   1.428  0.0156 -0.3907  0.0595
18045TIP3    H175550   2.032   5.977   1.483  0.7346 -0.2391  0.8744
18045TIP3    H275551   2.042   6.124   1.447 -0.3812 -0.4647 -0.4003
18046TIP3   OH275552   3.511   3.629   3.694 -0.2067  0.5339 -0.2213
18046TIP3    H175553   3.593   3.663   3.729 -0.4725 -0.2736  1.2526
18046TIP3    H275554   3.525   3.535   3.685 -0.9734  0.3774  0.0994
18047TIP3   OH275555   1.948   5.917  12.685  0.1616  0.9471 -0.3410
18047TIP3    H175556   1.936   6.009  12.711  0.2655  0.8494  0.0634
18047TIP3    H275557   2.028   5.917  12.633  0.5607  0.9769  0.2581
18048TIP3   OH275558   6.133   5.632   5.487 -0.0041  0.8288 -0.2310
18048TIP3    H175559   6.112   5.614   5.578 -1.3115  0.9924 -0.4765
18048TIP3    H275560   6.130   5.727   5.480  1.0324  0.8715 -0.2472
18049TIP3   OH275561   0.372   5.332   0.595 -0.0428 -0.6033  0.2264
18049TIP3    H175562   0.415   5.340   0.680  1.4526 -2.2982 -0.2890
18049TIP3    H275563   0.430   5.377   0.534  0.1968 -1.4998 -0.2337
18050TIP3   OH275564   1.797   6.648  16.282 -0.2098 -0.2186  0.1598
18050TIP3    H175565   1.848   6.698  16.346  0.4187 -0.2588 -0.2919
18050TIP3    H275566   1.858   6.636  16.209 -0.7199 -0.6929 -0.1885
18051TIP3   OH275567   2.395   2.600  16.427 -0.4740  0.1859  0.1042
18051TIP3    H175568   2.483   2.637  16.426 -1.0227  1.5255 -0.9232
18051TIP3    H275569   2.394   2.544  16.505  1.3677 -0.0975 -0.0194
18052TIP3   OH275570   3.355   3.584  12.588 -0.2278 -0.2070 -0.0554
18052TIP3    H175571   3.404   3.665  12.576 -0.7314  0.0103 -0.6908
18052TIP3    H275572   3.265   3.606  12.564 -0.6592 -0.5911  1.1448
18053TIP3   OH275573   6.204   6.049   3.899 -0.5257  0.7463  0.2713
18053TIP3    H175574   6.273   6.022   3.960 -0.1577  1.3037  0.1088
18053TIP3    H275575   6.246   6.045   3.813 -1.4954 -1.6158 -0.1685
18054TIP3   OH275576   3.108   1.848   2.435  0.1612 -0.1636  0.1744
18054TIP3    H175577   3.069   1.910   2.373 -1.7816 -0.2716  1.2195
18054TIP3    H275578   3.201   1.846   2.410 -0.4866 -0.1188 -2.6312
18055TIP3   OH275579   3.049   1.466   2.657 -0.3892 -0.0198 -0.0220
18055TIP3    H175580   3.074   1.410   2.730 -0.4176  0.7414  0.5878
18055TIP3    H275581   3.104   1.544   2.667 -1.3826  0.7045  0.0283
18056TIP3   OH275582   2.167   5.061  16.539  0.3154 -0.1684 -0.3925
18056TIP3    H175583   2.098   5.127  16.550  0.0225 -0.2848 -1.4473
18056TIP3    H275584   2.121   4.979  16.522  0.6817 -0.1182 -1.8366
18057TIP3   OH275585   2.255   0.478   0.477  0.0196 -0.2612  0.0878
18057TIP3    H175586   2.280   0.536   0.406 -0.3252  0.4865  0.5591
18057TIP3    H275587   2.312   0.503   0.550 -0.2489 -0.4017  0.3486
18058TIP3   OH275588   4.432   2.485  14.200  0.4624 -0.4173  0.0389
18058TIP3    H175589   4.438   2.561  14.258  0.6402 -1.8971  2.0848
18058TIP3    H275590   4.340   2.484  14.172  0.9922  1.9045 -2.0703
18059TIP3   OH275591   2.648   0.928  13.581  0.1435  0.0301 -0.1684
18059TIP3    H175592   2.564   0.920  13.628  0.4530  0.5648  0.4919
18059TIP3    H275593   2.625   0.918  13.489 -0.7108  0.5797 -0.0253
18060TIP3   OH275594   0.800   2.550   3.156  0.0009 -0.5194  0.4688
18060TIP3    H175595   0.742   2.474   3.145 -0.6322 -0.0095  0.2119
18060TIP3    H275596   0.744   2.625   3.136  1.1363 -0.0845 -1.2885
18061TIP3   OH275597   6.105   0.823  14.991 -0.1008 -0.2595 -0.0750
18061TIP3    H175598   6.017   0.790  14.972 -1.0406  0.7765  2.0396
18061TIP3    H275599   6.133   0.867  14.911 -0.5618 -2.4344 -1.5176
18062TIP3   OH275600   3.244   3.320  17.058 -0.1564  0.0570  0.7787
18062TIP3    H175601   3.289   3.340  17.140  1.8505 -2.0059  0.2879
18062TIP3    H275602   3.188   3.246  17.079  0.3682 -0.4814  0.2989
18063TIP3   OH275603   1.461   5.451  16.824 -0.1382 -0.5177 -0.6995
18063TIP3    H175604   1.443   5.437  16.917 -0.1125  0.4887 -0.5325
18063TIP3    H275605   1.383   5.416  16.780 -0.8854  0.4516 -0.1930
18064TIP3   OH275606   0.501   2.790  13.366  0.2029  0.5024  0.1976
18064TIP3    H175607   0.475   2.767  13.277  1.7216 -1.1411  0.1087
18064TIP3    H275608   0.445   2.737  13.423  1.6558 -1.2880  0.0649
18065TIP3   OH275609   2.142   4.759  14.934  0.0597  0.3266  0.1464
18065TIP3    H175610   2.071   4.766  14.871 -0.2962  0.3467  0.5500
18065TIP3    H275611   2.164   4.665  14.934 -0.4433  0.2093  0.5473
18066TIP3   OH275612   2.327   2.818   3.161  0.2334 -0.7759 -0.3656
18066TIP3    H175613   2.374   2.816   3.245  0.6867  0.3342 -0.5836
18066TIP3    H275614   2.235   2.827   3.186  0.1118 -2.6091  0.0541
18067TIP3   OH275615   4.604   4.519  14.725 -0.5415 -0.1605  0.3744
18067TIP3    H175616   4.526   4.575  14.727 -0.5160 -0.1019 -0.1855
18067TIP3    H275617   4.676   4.578  14.749 -0.5099  0.0577 -0.2466
18068TIP3   OH275618   4.617   2.853  11.114 -0.5576 -0.2641  0.0483
18068TIP3    H175619   4.676   2.789  11.074 -1.8606 -1.0845 -0.5877
18068TIP3    H275620   4.537   2.804  11.134 -1.3759  1.0366  0.0751
18069TIP3   OH275621   1.132   4.821  12.956  0.2006  0.6595 -0.6626
18069TIP3    H175622   1.124   4.916  12.956  0.4180  0.6950  0.3775
18069TIP3    H275623   1.058   4.791  12.903 -0.3034  1.3875 -0.4050
18070TIP3   OH275624   4.342   2.157  11.396 -0.2244 -0.5810  0.2671
18070TIP3    H175625   4.396   2.236  11.399  0.2735 -0.8488 -0.9839
18070TIP3    H275626   4.403   2.085  11.412 -0.9357 -0.6873  3.0827
18071TIP3   OH275627   4.789   2.851  16.875 -0.1511  0.2059 -0.6214
18071TIP3    H175628   4.826   2.781  16.821 -0.3518  0.4724 -1.1063
18071TIP3    H275629   4.707   2.814  16.909  0.2067 -0.1322 -0.1102
18072TIP3   OH275630   5.081   4.888   5.482 -0.0592 -0.3715  0.3254
18072TIP3    H175631   5.094   4.868   5.389  1.5582 -1.3044  0.7124
18072TIP3    H275632   5.019   4.961   5.483  0.0067 -0.2591 -1.4843
18073TIP3   OH275633   1.058   1.795   0.643  0.2666  0.1657 -0.0525
18073TIP3    H175634   1.041   1.712   0.688 -0.3735  0.4948  0.3301
18073TIP3    H275635   1.116   1.842   0.703 -0.8116  0.7198  0.5868
18074TIP3   OH275636   1.147   3.682   4.950  0.0467 -0.4696 -0.1798
18074TIP3    H175637   1.071   3.626   4.965  0.2773 -0.3673  1.5900
18074TIP3    H275638   1.220   3.633   4.989  0.2425  1.0118  1.4452
18075TIP3   OH275639   5.370   0.756  15.288  0.0414  0.1393 -0.5043
18075TIP3    H175640   5.394   0.691  15.354 -0.9174  0.7329  0.4681
18075TIP3    H275641   5.277   0.740  15.272 -0.2837  1.4600 -0.0152
18076TIP3   OH275642   4.437   3.163  15.650 -0.1454 -0.0965  0.1278
18076TIP3    H175643   4.472   3.145  15.563 -0.5703 -1.7182  0.2601
18076TIP3    H275644   4.346   3.190  15.635  0.4102  1.7924 -0.0526
18077TIP3   OH275645   6.445   6.496   4.933 -0.0234  0.0802  0.1610
18077TIP3    H175646   6.470   6.550   5.007  1.6816 -2.0151  1.2408
18077TIP3    H275647   6.518   6.503   4.872 -0.6449  0.4606 -0.5509
18078TIP3   OH275648   6.457   0.737   2.762 -0.3174  0.0438  0.0475
18078TIP3    H175649   6.459   0.646   2.793 -1.5130  0.1406  0.4616
18078TIP3    H275650   6.377   0.773   2.800 -0.5173  0.9016 -1.1376
18079TIP3   OH275651   2.693   5.397   3.490  0.3894 -0.4613 -0.1637
18079TIP3    H175652   2.771   5.388   3.436  0.7680  0.2340  0.2682
18079TIP3    H275653   2.715   5.463   3.556 -0.3279 -0.7380  0.3751
18080TIP3   OH275654   0.428   6.195  15.335  0.2620  0.0614  0.0595
18080TIP3    H175655   0.412   6.202  15.241  1.2714  1.2935 -0.0405
18080TIP3    H275656   0.342   6.213  15.375  0.2809  1.7292 -0.5854
18081TIP3   OH275657   4.123   1.373   4.932  0.3007  0.3316  0.2640
18081TIP3    H175658   4.032   1.376   4.962  0.4104  1.6755  0.5259
18081TIP3    H275659   4.174   1.361   5.012  0.3249 -1.6737  0.0006
18082TIP3   OH275660   1.902   3.137   3.089  0.3475 -0.3191 -0.3225
18082TIP3    H175661   1.997   3.132   3.103  0.3809 -0.7581 -0.6649
18082TIP3    H275662   1.864   3.118   3.174  0.5634 -0.8376 -0.3376
18083TIP3   OH275663   4.149   5.083   0.219  0.5214  0.5342 -0.2822
18083TIP3    H175664   4.078   5.141   0.247 -1.5389 -1.7638 -0.4124
18083TIP3    H275665   4.169   5.111   0.130  0.6346  1.9530  0.1566
18084TIP3   OH275666   5.557   3.179   3.267 -0.0438 -0.0730  0.6820
18084TIP3    H175667   5.529   3.267   3.239  0.6700  0.3386  1.2244
18084TIP3    H275668   5.481   3.143   3.312 -0.0392  0.6506  1.2922
18085TIP3   OH275669   2.913   3.281   4.301 -0.3054 -0.3745  0.5310
18085TIP3    H175670   2.982   3.343   4.325 -0.2625 -0.2714  0.1479
18085TIP3    H275671   2.923   3.208   4.362 -0.0369 -0.2288  0.6591
18086TIP3   OH275672   0.940   5.131   4.062  0.4039 -0.1249  0.5249
18086TIP3    H175673   0.968   5.218   4.034 -0.9088 -0.6665 -2.9362
18086TIP3    H275674   1.010   5.073   4.034 -0.4323 -0.5631 -0.7427
18087TIP3   OH275675   3.937   4.408  10.841 -0.1072  0.3253 -0.1771
18087TIP3    H175676   3.947   4.450  10.756 -0.2666  1.7108  0.4508
18087TIP3    H275677   3.996   4.457  10.899  1.0969 -1.5260  0.2262
18088TIP3   OH275678   2.236   3.664  14.534  0.0219  0.7436  0.0779
18088TIP3    H175679   2.319   3.617  14.546 -0.0512  0.6015  0.0364
18088TIP3    H275680   2.190   3.651  14.617 -0.1047  0.5255 -0.0236
18089TIP3   OH275681   2.737   0.862  15.905 -0.4533  0.0176  0.2078
18089TIP3    H175682   2.677   0.897  15.839 -0.8970  1.1570  1.1696
18089TIP3    H275683   2.821   0.904  15.887 -0.0937 -1.0446 -0.7082
18090TIP3   OH275684   0.328   5.183   5.591 -0.1279  0.2060 -0.3837
18090TIP3    H175685   0.336   5.095   5.628  1.5514  0.9628  1.2075
18090TIP3    H275686   0.273   5.230   5.654 -0.5846  0.4587 -0.9634
18091TIP3   OH275687   6.320   5.912  15.843  0.4604  0.7095 -0.6051
18091TIP3    H175688   6.364   5.959  15.772 -1.6714  1.2054 -1.6852
18091TIP3    H275689   6.260   5.976  15.881 -0.2657 -0.2551 -0.0597
18092TIP3   OH275690   3.584   2.148  15.435 -0.8597 -0.1094 -0.6877
18092TIP3    H175691   3.623   2.227  15.398 -3.4403  0.5858 -2.2234
18092TIP3    H275692   3.524   2.181  15.502 -2.2084 -0.6883 -1.5695
18093TIP3   OH275693   4.449   2.292   1.168  0.4599 -0.1824  0.2242
18093TIP3    H175694   4.508   2.328   1.234 -0.0277  0.1760  0.4721
18093TIP3    H275695   4.414   2.368   1.123 -0.7933 -0.3094  0.9393
18094TIP3   OH275696   6.414   6.234   2.348 -0.4401  0.4385  0.0592
18094TIP3    H175697   6.460   6.269   2.424 -0.7174 -0.0659  0.4711
18094TIP3    H275698   6.331   6.281   2.347 -0.1204  0.9942 -0.3896
18095TIP3   OH275699   2.660   6.573  12.815  0.8392 -0.2538 -0.2683
18095TIP3    H175700   2.755   6.561  12.817  0.9259  0.3150  1.3276
18095TIP3    H275701   2.645   6.644  12.879 -0.3871  1.7787 -2.6462
18096TIP3   OH275702   1.928   4.990   2.375 -0.3638  0.3064 -0.1580
18096TIP3    H175703   1.844   5.031   2.357 -1.3388 -0.6035  1.9761
18096TIP3    H275704   1.909   4.922   2.439  2.0186  0.1825  0.5312
18097TIP3   OH275705   1.757   3.986  13.410  0.4186 -0.0958  0.0875
18097TIP3    H175706   1.826   3.936  13.366  0.2063  0.5272 -0.9834
18097TIP3    H275707   1.678   3.968  13.360 -0.0700 -0.2537  0.8913
18098TIP3   OH275708   0.410   1.544  14.404  0.3161 -0.8794  0.1886
18098TIP3    H175709   0.346   1.597  14.452 -0.8129 -1.7846 -0.2500
18098TIP3    H275710   0.487   1.599  14.397 -0.5812  0.4482  0.3343
18099TIP3   OH275711   6.108   0.109  10.400 -0.5043  0.2514  0.1266
18099TIP3    H175712   6.058   0.052  10.458 -0.4930  1.0366  0.9359
18099TIP3    H275713   6.049   0.183  10.383  0.1222  0.8518  0.5263
18100TIP3   OH275714   2.890   4.953   4.067  0.2681 -0.0316  1.0924
18100TIP3    H175715   2.956   4.930   4.001  0.7791 -0.4609  1.7445
18100TIP3    H275716   2.869   5.045   4.048 -0.9710 -0.6419 -0.8281
18101TIP3   OH275717   6.477   1.678  11.162  0.0046  0.3666 -0.4809
18101TIP3    H175718   6.402   1.681  11.102  1.1103  2.4567 -1.9066
18101TIP3    H275719   6.543   1.627  11.116 -0.0576 -0.3263  0.1812
18102TIP3   OH275720   3.354   6.480  17.095 -0.1828  0.0502  0.4220
18102TIP3    H175721   3.441   6.443  17.081 -1.0041 -1.9570  0.2373
18102TIP3    H275722   3.333   6.460  17.186 -0.4677  0.5032  0.4590
18103TIP3   OH275723   5.960   1.207  16.050 -0.8743  0.1451 -0.2118
18103TIP3    H175724   5.996   1.202  16.139 -1.1747  0.3420 -0.0753
18103TIP3    H275725   6.036   1.221  15.994 -0.8101  1.4320  0.1594
18104TIP3   OH275726   2.410   3.738   2.526 -0.2895  0.4000  0.0093
18104TIP3    H175727   2.340   3.677   2.503 -1.1495  1.9024 -1.6133
18104TIP3    H275728   2.365   3.811   2.569  0.0677  1.7816 -1.8218
18105TIP3   OH275729   1.459   4.639   0.551 -0.3238 -0.4561  0.1642
18105TIP3    H175730   1.471   4.679   0.637 -1.8229  0.3701  0.0222
18105TIP3    H275731   1.371   4.601   0.554 -0.4994 -0.2036 -1.0757
18106TIP3   OH275732   3.562   1.917  12.194  0.3151 -0.1884 -0.2588
18106TIP3    H175733   3.595   1.984  12.134 -1.2368  0.1783 -0.7413
18106TIP3    H275734   3.560   1.961  12.279 -0.7419  0.4337 -0.5816
18107TIP3   OH275735   5.516   5.955   2.479 -0.0197 -0.6814  0.2670
18107TIP3    H175736   5.511   5.867   2.516 -0.7451 -0.0342  1.8371
18107TIP3    H275737   5.443   6.002   2.521  0.9644  0.9355  0.2380
18108TIP3   OH275738   0.512   6.131   1.049 -0.1463 -0.3094 -0.3375
18108TIP3    H175739   0.486   6.099   1.135  0.4841  1.6654  0.6312
18108TIP3    H275740   0.472   6.069   0.987 -0.7862 -1.6361  1.3429
18109TIP3   OH275741   3.846   5.905   3.222  0.0606  0.0021 -0.3271
18109TIP3    H175742   3.824   5.892   3.130 -0.4812 -0.8287 -0.0928
18109TIP3    H275743   3.933   5.866   3.231  1.0089  1.8757 -0.9064
18110TIP3   OH275744   3.066   5.201   1.739  0.0002 -0.1631  0.6144
18110TIP3    H175745   3.039   5.233   1.825 -0.9277  1.0133 -0.0816
18110TIP3    H275746   2.988   5.159   1.704  0.6029 -1.3370  0.6489
18111TIP3   OH275747   1.447   2.092   3.989  0.0815 -0.4858 -0.1544
18111TIP3    H175748   1.431   2.148   3.914 -1.0710 -0.1149  0.3532
18111TIP3    H275749   1.540   2.067   3.981  1.0811  2.6900  0.4085
18112TIP3   OH275750   4.328   3.448  12.092 -0.5345  0.3405 -0.0251
18112TIP3    H175751   4.406   3.485  12.133 -0.8035 -1.0872  1.8836
18112TIP3    H275752   4.360   3.406  12.012  0.3859  1.1208 -0.0840
18113TIP3   OH275753   3.116   4.396   0.144  0.6021  0.6171  0.8055
18113TIP3    H175754   3.172   4.473   0.134  2.4487 -0.8088 -0.6899
18113TIP3    H275755   3.092   4.373   0.054 -0.6101 -0.0935  1.2869
18114TIP3   OH275756   3.701   3.993  13.716  0.0677 -0.1712 -0.7804
18114TIP3    H175757   3.792   3.980  13.740 -0.4198 -2.3977  0.1513
18114TIP3    H275758   3.667   4.056  13.780  0.8219  0.2839 -0.8266
18115TIP3   OH275759   2.272   1.041   4.908  0.4927 -0.3131  0.1574
18115TIP3    H175760   2.216   1.112   4.877  0.4828 -0.4080 -0.0463
18115TIP3    H275761   2.211   0.976   4.943  0.5024 -0.2166  0.3494
18116TIP3   OH275762   5.795   5.991   0.109 -0.1337  0.2372  0.0812
18116TIP3    H175763   5.713   5.942   0.101 -0.2540  0.3357  0.7094
18116TIP3    H275764   5.826   5.999   0.018  0.1675 -1.4548  0.0076
18117TIP3   OH275765   0.743   5.343   0.511 -0.0113  0.0641 -0.2923
18117TIP3    H175766   0.778   5.264   0.471  1.0576  0.2343  0.2678
18117TIP3    H275767   0.811   5.372   0.571 -1.5310 -0.1423  1.6335
18118TIP3   OH275768   3.528   0.309  16.233  0.0912 -0.1010  0.1477
18118TIP3    H175769   3.442   0.327  16.270 -0.6329  0.2009 -1.5907
18118TIP3    H275770   3.568   0.395  16.221 -0.6750  0.0227 -1.9508
18119TIP3   OH275771   3.917   1.536  14.789  0.1638 -0.2423 -0.3647
18119TIP3    H175772   3.824   1.557  14.798  0.2598  0.4926 -0.9602
18119TIP3    H275773   3.938   1.559  14.699  0.7211 -1.2728 -0.5143
18120TIP3   OH275774   0.546   4.830   6.596 -0.3652 -0.5178 -0.0808
18120TIP3    H175775   0.458   4.849   6.627  0.7312  3.7086  0.9966
18120TIP3    H275776   0.547   4.862   6.505 -0.1862 -1.6096 -0.4824
18121TIP3   OH275777   3.765   6.017   2.553  0.2682 -0.2331  0.0457
18121TIP3    H175778   3.693   5.961   2.581  0.0414 -0.3052 -0.6663
18121TIP3    H275779   3.774   6.082   2.622  1.1064 -1.6546  1.3368
18122TIP3   OH275780   3.289   1.266  15.680  0.2259  0.1330 -0.2548
18122TIP3    H175781   3.242   1.349  15.672  0.8808  0.3884 -1.8849
18122TIP3    H275782   3.373   1.282  15.636  0.4090 -1.3389 -0.4842
18123TIP3   OH275783   1.907   1.429  16.693 -0.2358 -0.1455  0.4458
18123TIP3    H175784   1.970   1.419  16.622 -1.8214  0.7917 -1.1961
18123TIP3    H275785   1.901   1.343  16.733  0.7408 -0.6955 -0.5534
18124TIP3   OH275786   0.124   6.065  16.348 -0.5324  0.3211  0.0983
18124TIP3    H175787   0.117   6.005  16.422  0.7123  2.2110  1.8380
18124TIP3    H275788   0.216   6.063  16.324 -0.8845 -0.1062 -1.3373
18125TIP3   OH275789   2.503   4.333   1.539 -0.2389 -0.6712  0.1820
18125TIP3    H175790   2.409   4.332   1.554 -0.4773 -3.2196 -0.9582
18125TIP3    H275791   2.533   4.248   1.572  1.4469 -0.4432 -0.6878
18126TIP3   OH275792   0.018   1.344   6.355  0.0475  0.0530 -0.4182
18126TIP3    H175793   0.095   1.397   6.335  0.1661  1.8795  3.8235
18126TIP3    H275794   0.052   1.255   6.366  1.1818  0.4514 -0.5577
18127TIP3   OH275795   4.439   5.305   2.541 -0.8758 -0.3098 -0.1414
18127TIP3    H175796   4.435   5.397   2.512  0.2931 -0.3349 -0.4497
18127TIP3    H275797   4.474   5.258   2.466 -1.1033 -0.9528  0.1493
18128TIP3   OH275798   2.431   2.586  11.263  0.2210  0.0393  0.4219
18128TIP3    H175799   2.525   2.598  11.249  0.1905 -0.6768 -0.4528
18128TIP3    H275800   2.420   2.588  11.358  1.2634 -0.9451  0.5724
18129TIP3   OH275801   3.873   3.741  13.927  0.6897 -0.5658 -0.6605
18129TIP3    H175802   3.859   3.785  14.011 -0.5676 -0.7233 -0.7609
18129TIP3    H275803   3.908   3.809  13.870 -0.6501  0.1709 -0.6412
18130TIP3   OH275804   4.776   5.700   4.267 -0.0600  0.3665 -0.3979
18130TIP3    H175805   4.731   5.661   4.191 -0.5667 -0.7684  0.4597
18130TIP3    H275806   4.844   5.637   4.289  0.3263  0.8745 -0.1292
18131TIP3   OH275807   1.286   1.308  14.235  0.3765  0.3652  0.4876
18131TIP3    H175808   1.225   1.321  14.162  0.4025  1.9259  0.7065
18131TIP3    H275809   1.281   1.390  14.285  1.2268 -0.2283  1.5898
18132TIP3   OH275810   1.957   5.767  15.188  0.3698  0.5475 -0.3737
18132TIP3    H175811   1.990   5.760  15.278  0.3371 -2.7463 -0.4701
18132TIP3    H275812   1.945   5.860  15.174  1.3191  1.2633  2.6942
18133TIP3   OH275813   4.772   4.975   4.344  0.3529  0.2489  0.0079
18133TIP3    H175814   4.778   5.069   4.359  1.5050  0.0772  0.7861
18133TIP3    H275815   4.702   4.945   4.402 -0.2934  0.6784 -0.5455
18134TIP3   OH275816   6.508   0.779  13.377 -0.1220  0.1794  0.4435
18134TIP3    H175817   6.512   0.685  13.396  0.1559 -0.3393 -1.8637
18134TIP3    H275818   6.575   0.818  13.432  1.4621 -1.3491 -0.3152
18135TIP3   OH275819   5.135   1.404  16.562  0.1262  0.2450 -0.3975
18135TIP3    H175820   5.069   1.358  16.510  0.3375  0.5274 -0.9278
18135TIP3    H275821   5.172   1.468  16.501 -0.0862  1.0437  0.2901
18136TIP3   OH275822   3.226   4.590  11.432 -0.4784 -0.1600 -0.4312
18136TIP3    H175823   3.242   4.672  11.478 -1.5535  0.3347 -0.8949
18136TIP3    H275824   3.144   4.605  11.385  0.2700 -0.8612 -2.0092
18137TIP3   OH275825   6.398   4.235  17.213  0.0932  0.4640  0.0600
18137TIP3    H175826   6.367   4.153  17.251 -1.7784  1.3709  0.6505
18137TIP3    H275827   6.493   4.227  17.211 -0.0727 -2.4508 -1.6246
18138TIP3   OH275828   1.563   4.930   5.598 -0.2104  0.1101 -0.4985
18138TIP3    H175829   1.571   4.852   5.542  2.4088  0.4657 -0.7251
18138TIP3    H275830   1.469   4.946   5.603 -0.9750 -3.7497  0.5195
18139TIP3   OH275831   3.271   4.919   5.352  0.2497 -0.2950  0.5066
18139TIP3    H175832   3.197   4.951   5.300 -0.3563 -1.2437  0.7531
18139TIP3    H275833   3.294   4.836   5.310  2.8533  1.1420 -1.1484
18140TIP3   OH275834   3.787   1.593  15.075  0.3559  0.4072 -0.3528
18140TIP3    H175835   3.718   1.531  15.049  0.7147  0.2368 -0.9274
18140TIP3    H275836   3.807   1.571  15.166  0.4690 -0.3232 -0.5481
18141TIP3   OH275837   1.309   5.391  10.990 -0.5043  0.0039  0.4582
18141TIP3    H175838   1.215   5.407  10.980 -0.7619 -1.0635  1.0800
18141TIP3    H275839   1.319   5.297  10.979  0.7052  0.2634 -1.0738
18142TIP3   OH275840   5.441   4.575   5.565 -0.2199 -0.0554 -0.5346
18142TIP3    H175841   5.354   4.607   5.587  1.2416  2.3785  2.3329
18142TIP3    H275842   5.457   4.503   5.626 -0.1224 -0.3805 -0.9362
18143TIP3   OH275843   4.928   2.454   2.024  0.6194 -0.1994 -0.1049
18143TIP3    H175844   5.022   2.447   2.039  0.4362 -0.2924  1.1271
18143TIP3    H275845   4.915   2.422   1.935  1.6698 -0.8663 -0.0352
18144TIP3   OH275846   1.836   3.151   2.081  0.0733 -0.5365 -0.4871
18144TIP3    H175847   1.815   3.239   2.050  0.2610  0.0325  0.8918
18144TIP3    H275848   1.761   3.127   2.136  0.0271 -1.2410 -0.8492
18145TIP3   OH275849   3.326   4.696  15.954  0.2562 -0.8214  0.3646
18145TIP3    H175850   3.268   4.699  16.030 -2.2905  1.4097 -1.4667
18145TIP3    H275851   3.293   4.623  15.902  0.1780 -0.5924  0.0943
18146TIP3   OH275852   3.969   3.028   0.839 -0.3846 -0.0110 -0.0897
18146TIP3    H175853   4.017   2.946   0.837 -1.2374 -0.5568  0.6695
18146TIP3    H275854   4.015   3.085   0.779  2.8005  0.3833  2.4646
18147TIP3   OH275855   4.901   5.624  13.404  0.6338  0.1913 -0.7803
18147TIP3    H175856   4.897   5.719  13.394 -0.1068  0.4337  1.3321
18147TIP3    H275857   4.811   5.595  13.388  0.8055 -0.1299 -1.1621
18148TIP3   OH275858   4.054   5.054  13.994 -0.6119 -0.2109  0.0598
18148TIP3    H175859   4.129   4.999  14.016 -1.4273 -1.9021 -1.1413
18148TIP3    H275860   4.078   5.096  13.911 -0.3115  0.6406  0.5682
18149TIP3   OH275861   2.623   2.863   5.496 -0.2085  0.3900  0.5666
18149TIP3    H175862   2.589   2.874   5.407  0.4573 -0.8919  0.1174
18149TIP3    H275863   2.639   2.952   5.528 -3.0690  1.0385  0.4789
18150TIP3   OH275864   3.208   0.633   6.327 -0.2316 -0.0391  0.2250
18150TIP3    H175865   3.190   0.601   6.238 -0.6317 -1.0792  0.6593
18150TIP3    H275866   3.183   0.725   6.325  1.5643  0.4928 -1.2633
18151TIP3   OH275867   4.921   1.578  15.804 -0.1827 -0.2686 -0.2613
18151TIP3    H175868   4.927   1.673  15.813  0.4348 -0.2008 -1.2151
18151TIP3    H275869   4.873   1.564  15.722  0.4413 -0.7590 -0.5604
18152TIP3   OH275870   0.402   5.526   4.067 -0.5129  0.0708 -0.4248
18152TIP3    H175871   0.497   5.530   4.061 -0.1835  0.6095  3.2553
18152TIP3    H275872   0.371   5.586   3.999  1.7454  0.0889 -1.5086
18153TIP3   OH275873   6.261   3.600  16.187 -0.0311  0.1794 -0.3695
18153TIP3    H175874   6.328   3.552  16.236 -2.4885 -1.1721  1.9155
18153TIP3    H275875   6.217   3.533  16.135 -0.0917  0.9389 -1.3277
18154TIP3   OH275876   2.103   3.999  11.456 -0.3458  0.3588 -0.3140
18154TIP3    H175877   2.128   4.037  11.371 -1.2409 -1.3772 -1.4138
18154TIP3    H275878   2.010   3.978  11.445 -0.5447  0.3499  1.2197
18155TIP3   OH275879   2.079   4.364   6.126  0.3583  0.3721 -0.1805
18155TIP3    H175880   2.035   4.383   6.209  1.6741  1.8582  0.2232
18155TIP3    H275881   2.111   4.449   6.096 -0.0278 -0.1502 -2.2003
18156TIP3   OH275882   0.116   4.007  13.267 -0.5203  0.3097  0.0323
18156TIP3    H175883   0.082   3.985  13.180 -0.5594  0.7678 -0.0714
18156TIP3    H275884   0.203   3.966  13.270 -0.9825 -0.6767  0.2147
18157TIP3   OH275885   2.362   2.951   1.531  0.4430  1.0677 -0.0313
18157TIP3    H175886   2.288   2.995   1.490  0.4261  0.5256 -0.5983
18157TIP3    H275887   2.362   2.982   1.621 -0.7956  0.6664  0.1207
18158TIP3   OH275888   5.857   2.185  14.285  0.0848  0.0187 -0.1412
18158TIP3    H175889   5.765   2.159  14.284 -0.5436  2.0851 -0.4801
18158TIP3    H275890   5.885   2.173  14.376 -0.8444  0.3961  0.2041
18159TIP3   OH275891   6.753   0.742  12.974 -0.3338 -0.3094 -0.6849
18159TIP3    H175892   6.794   0.826  12.956  0.8326 -1.0884 -1.8230
18159TIP3    H275893   6.825   0.678  12.968 -0.9815 -1.3004  1.1258
18160TIP3   OH275894   0.290   0.732  15.057  0.0778 -0.4068  0.2006
18160TIP3    H175895   0.226   0.725  15.128  0.4504 -0.6925  0.5137
18160TIP3    H275896   0.356   0.793  15.089 -0.0750 -0.0508 -0.1532
18161TIP3   OH275897   2.639   1.720  12.929  0.6818 -0.5722  0.1582
18161TIP3    H175898   2.557   1.767  12.915 -0.5856 -2.6175  0.3472
18161TIP3    H275899   2.675   1.707  12.841  0.4592 -0.3028  0.0262
18162TIP3   OH275900   5.401   5.037   5.793 -0.8938 -0.1236  0.0994
18162TIP3    H175901   5.366   5.106   5.849 -0.8739  0.6650 -0.8236
18162TIP3    H275902   5.496   5.041   5.805 -0.6590  1.7669 -1.8454
18163TIP3   OH275903   2.042   3.741   2.378  0.6325 -0.6695 -0.5335
18163TIP3    H175904   2.009   3.830   2.390  1.3367 -0.4859  0.1623
18163TIP3    H275905   2.075   3.739   2.289  2.6070  0.4704  0.0955
18164TIP3   OH275906   2.307   0.736  11.493  0.0685  0.1360 -0.5260
18164TIP3    H175907   2.278   0.727  11.402 -1.4056 -2.8826  0.1189
18164TIP3    H275908   2.330   0.648  11.520  1.1745  1.0609  1.8690
18165TIP3   OH275909   2.287   2.950  12.342  0.1283  0.5699  0.1264
18165TIP3    H175910   2.328   2.938  12.257 -0.3250 -0.6831  0.0609
18165TIP3    H275911   2.358   2.979  12.399  0.7720 -0.0278 -0.3501
18166TIP3   OH275912   1.027   0.969  17.205  0.0681  0.4509  0.4905
18166TIP3    H175913   1.019   0.876  17.225 -2.6223  0.4501 -0.1840
18166TIP3    H275914   1.039   0.972  17.110 -2.0022  0.7686  0.1848
18167TIP3   OH275915   2.881   5.329  11.654 -0.2809 -0.0836 -0.3526
18167TIP3    H175916   2.882   5.233  11.658 -1.6007 -0.0958  0.5682
18167TIP3    H275917   2.789   5.350  11.636 -0.1823  1.0230  0.3972
18168TIP3   OH275918   0.793   4.403   6.614  0.1058 -0.2765 -0.0383
18168TIP3    H175919   0.708   4.428   6.651 -0.4707 -0.1372 -1.3941
18168TIP3    H275920   0.784   4.421   6.521  0.7480 -2.6191 -0.6178
18169TIP3   OH275921   1.034   0.281   5.428 -0.0260  0.4413  0.4070
18169TIP3    H175922   0.998   0.259   5.513 -0.2637  1.4526  0.5752
18169TIP3    H275923   1.072   0.198   5.396 -0.4824 -0.0897  1.2053
18170TIP3   OH275924   2.096   5.082  12.704 -0.4479  0.4128 -0.5325
18170TIP3    H175925   2.100   5.047  12.793  1.3199 -1.7811 -1.3822
18170TIP3    H275926   2.003   5.080  12.682 -1.0571  1.8843  1.5117
18171TIP3   OH275927   2.461   3.762   2.253  0.6975 -0.0406  0.0459
18171TIP3    H175928   2.457   3.852   2.222 -1.8698 -0.2289 -0.4335
18171TIP3    H275929   2.446   3.769   2.348 -2.4834  0.0031 -0.3305
18172TIP3   OH275930   5.693   5.251  16.000 -0.3926  0.1361 -0.0658
18172TIP3    H175931   5.657   5.176  16.047 -1.8908  0.0623 -1.2536
18172TIP3    H275932   5.638   5.260  15.922  0.9586  1.2783 -0.9586
18173TIP3   OH275933   0.053   2.727   2.858 -0.8145 -0.1641 -0.4638
18173TIP3    H175934  -0.006   2.802   2.863 -0.4985  0.0252  0.9500
18173TIP3    H275935   0.097   2.736   2.774 -1.9292  0.3389 -1.0211
18174TIP3   OH275936   1.306   4.993  11.620 -0.3442 -0.9772 -0.0751
18174TIP3    H175937   1.391   4.950  11.607 -0.4281 -0.4810 -2.8839
18174TIP3    H275938   1.278   5.018  11.532 -2.3248  0.9969  1.0112
18175TIP3   OH275939   3.510   4.314   4.180 -0.0462  0.2398 -0.2246
18175TIP3    H175940   3.604   4.300   4.193 -0.0442 -0.5681 -0.9715
18175TIP3    H275941   3.470   4.231   4.209 -0.6154  0.8728  0.8627
18176TIP3   OH275942   4.381   5.429  15.434 -0.0968 -0.1883 -0.7560
18176TIP3    H175943   4.433   5.393  15.506  1.5137  1.9479 -0.7470
18176TIP3    H275944   4.443   5.435  15.361 -0.5396  1.5364 -1.0389
18177TIP3   OH275945   6.519   0.712   1.743  0.7853 -0.1684 -0.1238
18177TIP3    H175946   6.464   0.635   1.726 -1.0538  0.9604  0.4125
18177TIP3    H275947   6.554   0.735   1.657 -0.8507 -0.0429 -0.8054
18178TIP3   OH275948   0.200   0.335   3.419 -0.1250  0.1568  0.3770
18178TIP3    H175949   0.155   0.381   3.348  1.1523 -1.1998 -1.3825
18178TIP3    H275950   0.191   0.394   3.494  0.1141  2.5623 -1.3609
18179TIP3   OH275951   6.420   6.353  16.767 -0.0362  0.3024  0.4813
18179TIP3    H175952   6.507   6.359  16.806 -0.0535  0.9997  0.4139
18179TIP3    H275953   6.379   6.438  16.783 -2.1772 -1.1447  3.9393
18180TIP3   OH275954   5.382   1.092  13.083 -0.5845 -0.7408  0.4731
18180TIP3    H175955   5.412   1.019  13.027 -0.4528 -0.0761 -0.3443
18180TIP3    H275956   5.463   1.135  13.110 -0.7243  0.3612 -0.7834
18181TIP3   OH275957   2.257   2.756   2.407  0.1092 -0.1624  0.0261
18181TIP3    H175958   2.198   2.798   2.469 -0.1457  0.9222 -0.9216
18181TIP3    H275959   2.223   2.780   2.321  1.5980  0.0338 -0.5389
18182TIP3   OH275960   1.713   2.163   1.362  0.1130  0.0676 -0.2669
18182TIP3    H175961   1.799   2.120   1.358  0.4630  0.4560  1.8840
18182TIP3    H275962   1.657   2.109   1.307  1.5788 -0.5750 -1.2045
18183TIP3   OH275963   0.071   1.093   5.426 -0.2467 -0.4187  0.2545
18183TIP3    H175964   0.138   1.158   5.403  0.1572 -0.3924  1.4541
18183TIP3    H275965  -0.008   1.125   5.383  0.2516  0.1362 -0.2846
18184TIP3   OH275966   5.414   1.075   5.881  0.5010 -0.0265 -0.2657
18184TIP3    H175967   5.497   1.049   5.842 -0.1278  0.1307 -1.7536
18184TIP3    H275968   5.439   1.119   5.963  1.8321 -0.6217 -0.3307
18185TIP3   OH275969   6.765   3.326  14.553 -0.1950  0.5560 -0.1244
18185TIP3    H175970   6.800   3.237  14.562 -0.6171  0.3391 -0.5511
18185TIP3    H275971   6.762   3.341  14.458  0.2409  1.1789 -0.0497
18186TIP3   OH275972   4.510   3.066  11.302  0.0288  0.2618  0.1411
18186TIP3    H175973   4.460   3.106  11.231  0.7750  1.3774  0.2157
18186TIP3    H275974   4.582   3.021  11.258 -0.0049  0.2063  0.1418
18187TIP3   OH275975   2.419   4.115  12.127  0.1564  0.3849  0.4544
18187TIP3    H175976   2.353   4.046  12.120  1.3924 -0.7632 -0.2829
18187TIP3    H275977   2.503   4.069  12.127  1.0535  1.9022 -0.7135
18188TIP3   OH275978   5.253   1.344  17.153 -0.4342 -0.1104 -0.1809
18188TIP3    H175979   5.209   1.419  17.113 -0.4565 -1.1065 -2.1337
18188TIP3    H275980   5.203   1.326  17.232 -1.0769  1.2523 -0.2508
18189TIP3   OH275981   0.622   6.513  11.723  0.2210 -0.0073  0.1335
18189TIP3    H175982   0.575   6.567  11.660 -1.7363 -0.6805  0.9413
18189TIP3    H275983   0.583   6.535  11.807  0.2036 -1.7719  0.6270
18190TIP3   OH275984   6.801   0.701  15.602  0.4741 -0.0588 -0.2858
18190TIP3    H175985   6.778   0.623  15.552 -0.2941 -0.5050  0.7089
18190TIP3    H275986   6.723   0.757  15.596  0.9575  0.5673 -0.8549
18191TIP3   OH275987   1.146   4.138   0.097 -0.1946  0.1886 -0.9550
18191TIP3    H175988   1.191   4.085   0.031  0.8835  1.9930 -1.7172
18191TIP3    H275989   1.216   4.173   0.152 -1.0485 -0.9172  0.9192
18192TIP3   OH275990   0.604   3.262   3.918 -0.1024  0.4311  0.3565
18192TIP3    H175991   0.559   3.346   3.927 -0.5935  0.0279  2.3354
18192TIP3    H275992   0.669   3.262   3.988 -1.6483 -1.6875  1.9490
18193TIP3   OH275993   3.334   3.942   1.203  0.6239  0.2053 -0.2854
18193TIP3    H175994   3.398   3.920   1.271 -1.5181  1.2672  2.2912
18193TIP3    H275995   3.256   3.892   1.228 -0.0349  0.0835 -2.4444
18194TIP3   OH275996   5.808   0.135  11.373  0.4332 -0.3415 -0.2997
18194TIP3    H175997   5.744   0.154  11.442  0.2248 -0.2672 -0.5134
18194TIP3    H275998   5.863   0.065  11.409  2.6578  2.0980  1.4619
18195TIP3   OH275999   2.368   5.228  12.698  0.8991 -0.4202  0.1828
18195TIP3    H176000   2.308   5.161  12.665  2.3983 -1.5699 -0.3418
18195TIP3    H276001   2.312   5.291  12.743 -0.7771 -0.9991 -0.9989
18196TIP3   OH276002   6.322   0.367  14.689 -0.7014 -0.0690 -0.1807
18196TIP3    H176003   6.353   0.414  14.612 -0.1170 -1.3079 -0.7240
18196TIP3    H276004   6.375   0.401  14.761 -0.1821 -0.0025 -0.5887
18197TIP3   OH276005   5.061   4.523  15.665  0.2350  0.0498  0.4055
18197TIP3    H176006   5.058   4.428  15.657 -1.0113  0.0118  1.1681
18197TIP3    H276007   5.005   4.555  15.594 -0.3390  0.1569  0.8951
18198TIP3   OH276008   0.552   1.713  14.952  0.3887  0.0838  0.5901
18198TIP3    H176009   0.577   1.801  14.925  1.5218 -0.2817  0.3770
18198TIP3    H276010   0.463   1.722  14.987  0.2755  1.1979  0.0445
18199TIP3   OH276011   0.955   5.902  11.879 -0.1943  0.2947  0.5182
18199TIP3    H176012   0.860   5.908  11.864 -0.1038 -0.7525 -0.6122
18199TIP3    H276013   0.984   5.832  11.821  1.7412  2.5566 -1.4794
18200TIP3   OH276014   2.552   4.442   0.001 -0.1140 -0.3487 -0.3141
18200TIP3    H176015   2.504   4.384  -0.058  0.8720 -0.0996 -1.3721
18200TIP3    H276016   2.588   4.384   0.068  0.2040 -0.8561 -0.9220
18201TIP3   OH276017   2.584   1.730   6.266  0.7096 -0.5619  0.5621
18201TIP3    H176018   2.625   1.729   6.179 -1.6849 -0.4977 -0.6466
18201TIP3    H276019   2.599   1.642   6.300  0.2331 -1.1536 -0.6876
18202TIP3   OH276020   0.675   2.439  12.023  0.3419 -0.6358 -0.5087
18202TIP3    H176021   0.727   2.430  11.944 -0.7408  0.1916 -1.3416
18202TIP3    H276022   0.637   2.353  12.038  0.7204 -0.8458 -0.7643
18203TIP3   OH276023   2.779   2.612  15.552 -0.5510 -0.6442  0.3176
18203TIP3    H176024   2.860   2.608  15.602  0.7859 -1.5912 -1.7682
18203TIP3    H276025   2.793   2.682  15.488 -0.5207 -2.1027 -1.3531
18204TIP3   OH276026   4.644   6.258   3.916 -0.6462  0.5476 -0.1009
18204TIP3    H176027   4.684   6.245   3.831 -2.2418 -0.2894 -0.7739
18204TIP3    H276028   4.644   6.172   3.957 -0.5743  0.7913  0.4207
18205TIP3   OH276029   1.564   4.573   0.317  0.2031 -0.4071 -0.9198
18205TIP3    H176030   1.572   4.659   0.277  0.1974 -0.0254 -0.1067
18205TIP3    H276031   1.540   4.590   0.408  0.2224 -1.2649 -0.7427
18206TIP3   OH276032   6.173   3.513   5.844 -0.0063 -0.8897  0.2278
18206TIP3    H176033   6.154   3.456   5.918  0.2881 -0.7514  0.4118
18206TIP3    H276034   6.242   3.571   5.875 -0.9889  0.2351  0.3697
18207TIP3   OH276035   6.500   5.992  15.609 -0.3323  0.1285 -0.2306
18207TIP3    H176036   6.510   5.897  15.607 -1.8716 -0.0464 -0.3615
18207TIP3    H276037   6.575   6.025  15.559 -1.3382 -1.1684 -2.7550
18208TIP3   OH276038   3.702   2.857  15.352  0.1852 -0.4327  0.0646
18208TIP3    H176039   3.754   2.930  15.386  1.1689 -0.5022 -1.2564
18208TIP3    H276040   3.621   2.898  15.321  1.1397  0.2765 -1.5870
18209TIP3   OH276041   2.992   6.675   2.153 -0.2625 -0.4173  0.2177
18209TIP3    H176042   3.033   6.757   2.125  0.6604 -0.8584  0.2629
18209TIP3    H276043   2.956   6.637   2.073  0.3699 -0.5580 -0.0000
18210TIP3   OH276044   5.046   2.223  11.433  0.2222 -0.3891  0.3561
18210TIP3    H176045   5.030   2.317  11.426 -1.7174 -0.4872  2.1905
18210TIP3    H276046   5.132   2.216  11.474  0.0658  0.6221  0.8878
18211TIP3   OH276047   0.040   5.501  11.510  0.1605  0.7940 -0.1572
18211TIP3    H176048   0.117   5.553  11.488 -0.0231  2.0507  1.8692
18211TIP3    H276049   0.074   5.415  11.532  0.7888  0.8553 -0.8615
18212TIP3   OH276050   6.394   4.296   2.521  0.2212  0.2914  0.0835
18212TIP3    H176051   6.389   4.206   2.489 -1.2042  0.4842 -0.3299
18212TIP3    H276052   6.479   4.328   2.490  0.3133 -0.5978 -0.6276
18213TIP3   OH276053   3.064   5.688   4.435  0.4256 -0.7115  0.1032
18213TIP3    H176054   3.040   5.617   4.494  3.4085 -1.1318  0.9645
18213TIP3    H276055   3.056   5.649   4.347 -3.9253 -0.1124 -0.0213
18214TIP3   OH276056   5.932   6.796   3.962  0.1046  0.5430  0.6185
18214TIP3    H176057   5.925   6.807   4.057  1.4384 -2.1180  1.1163
18214TIP3    H276058   6.027   6.795   3.945 -0.0488 -1.3895 -0.3546
18215TIP3   OH276059   6.139   3.565   4.354 -0.0278 -0.5993 -0.0739
18215TIP3    H176060   6.175   3.647   4.321 -0.8779  0.0657  0.5741
18215TIP3    H276061   6.115   3.516   4.276 -0.2574  0.1270 -0.4741
18216TIP3   OH276062   2.298   0.514  12.334 -0.0967  0.4483  0.6170
18216TIP3    H176063   2.317   0.492  12.243  0.3694  0.0432  0.8108
18216TIP3    H276064   2.381   0.545  12.370  0.4059 -1.8432  1.6110
18217TIP3   OH276065   0.158   6.089  12.701  0.3980 -0.4630 -0.8595
18217TIP3    H176066   0.088   6.078  12.637 -2.2790 -0.4176  1.8010
18217TIP3    H276067   0.113   6.123  12.779  3.5959  0.4935  0.7196
18218TIP3   OH276068   6.007   3.542   5.585 -0.3197  0.0545 -0.0480
18218TIP3    H176069   6.066   3.530   5.660  1.4614  1.3240 -1.1595
18218TIP3    H276070   6.008   3.458   5.540 -1.2171 -0.6437  1.1804
18219TIP3   OH276071   5.677   2.829   5.823 -0.1835 -0.3330 -0.1755
18219TIP3    H176072   5.687   2.902   5.883 -1.0715 -1.5032  1.4799
18219TIP3    H276073   5.762   2.785   5.824 -0.0560 -0.0823 -0.1277
18220TIP3   OH276074   2.181   2.352   5.604 -0.2587  0.1947  0.0662
18220TIP3    H176075   2.122   2.279   5.622  0.5912 -0.4581  0.2354
18220TIP3    H276076   2.123   2.429   5.604 -1.4084 -0.6139 -1.6165
18221TIP3   OH276077   4.005   6.742   3.675 -0.2159  0.2895  0.2542
18221TIP3    H176078   4.080   6.760   3.732 -0.9619  0.5105  1.2099
18221TIP3    H276079   4.042   6.731   3.588  0.9937 -0.2379  0.8084
18222TIP3   OH276080   6.093   6.095  10.531 -0.1820 -0.2368 -0.4165
18222TIP3    H176081   6.114   6.006  10.503  1.1163  0.1684 -0.8145
18222TIP3    H276082   6.058   6.085  10.620  0.6352 -1.0939 -0.1813
18223TIP3   OH276083   6.544   0.207   2.584 -0.3831  0.6277 -0.6903
18223TIP3    H176084   6.467   0.150   2.581  0.8047 -1.0334 -2.4454
18223TIP3    H276085   6.618   0.147   2.573  1.1381  2.2514  0.1560
18224TIP3   OH276086   3.085   5.689   2.795  0.1702 -0.0908  0.3814
18224TIP3    H176087   3.012   5.638   2.761  0.3836  0.8667 -1.6812
18224TIP3    H276088   3.076   5.775   2.753  1.1985  0.7839  1.8438
18225TIP3   OH276089   4.955   3.491  12.335 -0.3266  0.1295  0.2638
18225TIP3    H176090   4.875   3.467  12.383 -0.8599 -1.8594 -1.4747
18225TIP3    H276091   4.939   3.581  12.307 -1.9396 -0.1813  0.0649
18226TIP3   OH276092   5.828   4.421   4.844  0.0246  0.6385  0.7688
18226TIP3    H176093   5.770   4.419   4.768  0.0062  1.1332  0.7661
18226TIP3    H276094   5.913   4.447   4.809  0.8172 -2.1089  0.4290
18227TIP3   OH276095   1.802   1.581  13.321 -0.5613 -0.2460 -0.8315
18227TIP3    H176096   1.871   1.643  13.343 -1.2688  1.0328 -2.0712
18227TIP3    H276097   1.745   1.580  13.398 -0.5153  0.6299 -0.7765
18228TIP3   OH276098   0.159   1.676  13.227  0.8441  0.5177 -0.4753
18228TIP3    H176099   0.200   1.673  13.313  0.0643 -1.1003 -0.1383
18228TIP3    H276100   0.203   1.749  13.182  3.0100 -0.1882  0.3967
18229TIP3   OH276101   2.314   6.004   3.537  0.0657 -0.5901 -0.1475
18229TIP3    H176102   2.353   6.014   3.450  0.6216  2.7843  0.3746
18229TIP3    H276103   2.388   5.991   3.596 -0.1182 -0.5362  0.0990
18230TIP3   OH276104   1.816   4.121  13.655 -0.2814 -0.0175 -0.7014
18230TIP3    H176105   1.789   4.078  13.574 -0.0127  0.8547 -1.2680
18230TIP3    H276106   1.739   4.116  13.712 -0.8141  0.2402 -1.3857
18231TIP3   OH276107   1.665   5.223  16.433  0.5082  0.3084  0.0117
18231TIP3    H176108   1.667   5.215  16.529  1.7643  0.0579 -0.0238
18231TIP3    H276109   1.641   5.314  16.417 -0.3569  0.1917  0.5451
18232TIP3   OH276110   3.931   2.416   1.181  0.2403 -0.2400  0.0467
18232TIP3    H176111   3.976   2.332   1.169  0.1991 -0.3964  0.9738
18232TIP3    H276112   3.945   2.438   1.273 -0.2506  0.4828 -0.0482
18233TIP3   OH276113   2.543   1.114  11.908  0.1570 -1.0867 -0.1194
18233TIP3    H176114   2.448   1.118  11.912  0.1117 -1.1134 -0.9613
18233TIP3    H276115   2.565   1.140  11.819  1.1006  1.4532  0.7603
18234TIP3   OH276116   1.147   5.250   1.454  0.3255  0.3297  0.0765
18234TIP3    H176117   1.059   5.219   1.474 -0.3070  2.6193  1.1296
18234TIP3    H276118   1.145   5.270   1.360 -0.2261  0.2255  0.0648
18235TIP3   OH276119   1.559   2.434  17.048  0.1981  0.6958  0.6619
18235TIP3    H176120   1.475   2.445  17.093  0.5824 -0.2499  1.6516
18235TIP3    H276121   1.621   2.413  17.117  0.8577 -0.5814 -0.2706
18236TIP3   OH276122   5.101   2.964  16.308  0.1595  0.2642  0.2290
18236TIP3    H176123   5.194   2.968  16.284  0.0786 -1.2263 -0.4609
18236TIP3    H276124   5.097   3.000  16.396  1.3300  0.7088  0.1189
18237TIP3   OH276125   6.397   0.365  15.958 -0.6043 -0.2385 -0.2731
18237TIP3    H176126   6.430   0.286  15.916  0.0044 -0.0964 -0.0699
18237TIP3    H276127   6.446   0.371  16.040 -0.7775  0.2525 -0.2040
18238TIP3   OH276128   2.847   4.268  12.439 -0.1463 -0.3225  0.3052
18238TIP3    H176129   2.797   4.348  12.420  1.6646  1.3741  2.1817
18238TIP3    H276130   2.858   4.226  12.354  1.6517  3.2193 -1.4508
18239TIP3   OH276131   3.380   3.317  13.251  0.1651  0.1627  0.3710
18239TIP3    H176132   3.325   3.239  13.250  0.4032 -0.0104  0.6192
18239TIP3    H276133   3.452   3.295  13.309  1.2068 -0.1084 -0.9748
18240TIP3   OH276134   1.811   2.927  12.727  0.2733  0.3361 -0.1982
18240TIP3    H176135   1.746   2.957  12.664 -1.4943 -1.8469  0.4337
18240TIP3    H276136   1.887   2.904  12.675  0.3151  2.2162 -1.0467
18241TIP3   OH276137   5.680   3.952   3.227 -0.4356  0.1863  0.3568
18241TIP3    H176138   5.741   4.011   3.183  0.6229 -1.9282 -1.1852
18241TIP3    H276139   5.631   4.009   3.287 -0.1973  2.8088 -1.7178
18242TIP3   OH276140   1.258   6.760   5.989  0.8669  0.4514  0.2886
18242TIP3    H176141   1.269   6.753   6.084 -0.3035  1.7665  0.5526
18242TIP3    H276142   1.223   6.848   5.975  0.6414  0.1410 -1.3359
18243TIP3   OH276143   6.155   1.489   1.539 -0.1859 -0.3056 -0.0471
18243TIP3    H176144   6.102   1.443   1.604 -0.3573  1.1592  0.8891
18243TIP3    H276145   6.245   1.472   1.564 -0.1978 -1.8142 -0.9372
18244TIP3   OH276146   2.218   5.198   3.297  0.3197  0.0506 -0.3214
18244TIP3    H176147   2.202   5.135   3.225 -0.7258  1.5538 -1.4677
18244TIP3    H276148   2.263   5.271   3.255 -0.7104  1.1571  0.4625
18245TIP3   OH276149   1.965   2.840  15.247  0.2574 -0.2489 -0.5109
18245TIP3    H176150   1.970   2.916  15.305  1.6230 -0.4900 -0.2817
18245TIP3    H276151   2.056   2.813  15.234 -0.1325 -1.2081 -1.4408
18246TIP3   OH276152   0.742   5.724  11.798  0.4143 -0.3368  0.4606
18246TIP3    H176153   0.752   5.645  11.852 -0.0403 -1.6548 -1.2674
18246TIP3    H276154   0.774   5.697  11.712  0.2511  1.3965 -0.1774
18247TIP3   OH276155   3.623   6.359   6.176  0.0501  0.2133 -0.2111
18247TIP3    H176156   3.666   6.273   6.172  0.2087  0.3178 -0.9906
18247TIP3    H276157   3.637   6.389   6.265  0.4378 -0.3489 -0.0755
18248TIP3   OH276158   4.981   1.625  10.659  0.9810  0.1188  0.1229
18248TIP3    H176159   4.968   1.545  10.608  1.3034  0.1480 -0.0059
18248TIP3    H276160   5.019   1.687  10.597 -1.0015  0.9933 -0.2938
18249TIP3   OH276161   1.512   0.912   5.220 -0.1845 -0.2504  0.4987
18249TIP3    H176162   1.506   0.967   5.298 -0.1650 -1.1787  1.1809
18249TIP3    H276163   1.603   0.919   5.192 -0.4948  1.1401 -0.2598
18250TIP3   OH276164   2.869   5.730   1.844  0.0745  0.8656  0.2020
18250TIP3    H176165   2.951   5.685   1.866 -0.0696  0.3792 -0.2441
18250TIP3    H276166   2.872   5.738   1.749 -0.6847  0.2967  0.1283
18251TIP3   OH276167   2.820   0.698   5.820  0.0408  0.4575 -0.1555
18251TIP3    H176168   2.803   0.659   5.905  1.9722 -1.2406 -0.4649
18251TIP3    H276169   2.851   0.625   5.766  0.0671  1.7213 -1.9386
18252TIP3   OH276170   1.721   2.341   2.363  0.1041 -0.9904 -0.6065
18252TIP3    H176171   1.767   2.316   2.444 -0.1712 -1.6226 -0.6378
18252TIP3    H276172   1.781   2.401   2.319 -1.2809  2.5353  1.8877
18253TIP3   OH276173   6.437   0.949  11.911 -0.2041  0.6610 -0.4193
18253TIP3    H176174   6.358   0.943  11.965  0.4821 -0.0235  0.5379
18253TIP3    H276175   6.405   0.944  11.821 -1.2455  0.3490 -0.0442
18254TIP3   OH276176   2.121   2.621  15.806  0.2058 -0.5338  0.2605
18254TIP3    H176177   2.148   2.584  15.890  1.7347 -1.4619 -0.6049
18254TIP3    H276178   2.131   2.550  15.744 -1.0341  0.1006 -0.7210
18255TIP3   OH276179   1.631   3.612  12.029 -0.7212  0.0743 -1.0820
18255TIP3    H176180   1.689   3.632  12.103 -1.2201  0.0386 -0.6754
18255TIP3    H276181   1.661   3.526  11.998 -0.9978 -0.2636 -0.4343
18256TIP3   OH276182   1.702   6.621  11.474  0.2818  0.0629 -0.3213
18256TIP3    H176183   1.701   6.560  11.548  0.1114  0.7876  0.2802
18256TIP3    H276184   1.648   6.578  11.408 -0.0239 -0.3403  0.1778
18257TIP3   OH276185   3.012   4.331  16.691  0.0541 -0.3237  0.5581
18257TIP3    H176186   2.996   4.421  16.720 -4.1616 -1.2556  1.8146
18257TIP3    H276187   3.018   4.338  16.596 -0.6666  1.2810  0.5917
18258TIP3   OH276188   3.524   5.846  13.566  0.3367 -0.1001  0.1555
18258TIP3    H176189   3.473   5.842  13.648 -0.7771 -0.6807 -0.5402
18258TIP3    H276190   3.471   5.901  13.509  0.4682 -0.7439 -0.5962
18259TIP3   OH276191   2.424   6.576  16.462 -0.2994 -0.4900 -0.2694
18259TIP3    H176192   2.350   6.592  16.404 -0.9270 -0.3009  0.5600
18259TIP3    H276193   2.500   6.574  16.404 -0.9904 -1.0401 -1.1765
18260TIP3   OH276194   2.738   4.469  14.922 -0.0633 -0.2869 -0.3788
18260TIP3    H176195   2.765   4.425  15.003 -0.1765 -0.3103 -0.3546
18260TIP3    H276196   2.792   4.547  14.919  0.1749 -0.4521 -0.4464
18261TIP3   OH276197   5.533   0.175   6.059  0.3316  0.0600  0.3722
18261TIP3    H176198   5.459   0.233   6.076  0.6090  0.9600 -1.3219
18261TIP3    H276199   5.493   0.091   6.036 -0.1419  0.3003  0.3119
18262TIP3   OH276200   6.528   5.395  13.610  0.5151 -0.5292 -0.0205
18262TIP3    H176201   6.617   5.429  13.612  0.7594 -0.8152 -2.7792
18262TIP3    H276202   6.537   5.303  13.635  0.7595 -0.2134  1.1067
18263TIP3   OH276203   2.752   1.928   0.712  0.1936  0.4617 -0.2948
18263TIP3    H176204   2.700   1.878   0.775 -1.2178  0.3940 -1.4546
18263TIP3    H276205   2.687   1.979   0.663  1.0908 -0.3467 -2.4487
18264TIP3   OH276206   2.497   5.191   1.933 -0.0880 -0.2432  0.1284
18264TIP3    H176207   2.532   5.242   2.006 -1.3728 -1.9353  2.0228
18264TIP3    H276208   2.574   5.155   1.890  0.7152  1.1134  0.3728
18265TIP3   OH276209   3.171   2.507   5.844 -0.1013 -0.5781 -0.4053
18265TIP3    H176210   3.096   2.558   5.814  0.8513  0.7968 -0.5323
18265TIP3    H276211   3.196   2.454   5.768 -0.8762 -0.9894 -0.3864
18266TIP3   OH276212   3.057   4.375  12.118  0.0317  0.2736  0.0070
18266TIP3    H176213   3.119   4.309  12.088  0.9877  0.3296  1.7115
18266TIP3    H276214   3.036   4.426  12.040 -0.1047 -1.5233 -1.1729
18267TIP3   OH276215   6.776   3.444   5.078  0.3835  0.1305  0.0262
18267TIP3    H176216   6.827   3.399   5.144  0.5144 -0.0397 -0.1914
18267TIP3    H276217   6.697   3.391   5.067  0.6729 -0.2077 -0.4439
18268TIP3   OH276218   2.794   4.712   5.354  0.0821 -0.4076 -0.3871
18268TIP3    H176219   2.746   4.744   5.278 -1.1057 -1.4831 -0.1229
18268TIP3    H276220   2.728   4.667   5.406  1.1436 -0.8104  0.6374
18269TIP3   OH276221   5.184   2.562  15.087 -0.3248  0.5019 -0.4038
18269TIP3    H176222   5.252   2.626  15.065 -0.6915  0.5063 -1.6011
18269TIP3    H276223   5.231   2.481  15.101 -0.1483  0.0593 -3.0307
18270TIP3   OH276224   3.652   3.871   2.340 -0.5914  0.0203  0.5846
18270TIP3    H176225   3.675   3.862   2.248 -1.7010  1.8523  0.0590
18270TIP3    H276226   3.646   3.966   2.354 -0.4547 -0.2059  2.5515
18271TIP3   OH276227   6.129   2.345  15.563  0.1655 -0.1672 -0.1353
18271TIP3    H176228   6.116   2.256  15.530  0.7894 -0.5467  0.5980
18271TIP3    H276229   6.077   2.349  15.644  0.7454 -0.1258  0.2415
18272TIP3   OH276230   6.397   0.938   0.724  0.3833  0.2807  0.1355
18272TIP3    H176231   6.341   1.011   0.750  2.2151  1.6646  0.4308
18272TIP3    H276232   6.457   0.975   0.660  0.6149 -1.2869 -0.6095
18273TIP3   OH276233   6.718   1.798   3.226  0.0373  0.3511  0.1222
18273TIP3    H176234   6.700   1.862   3.157  0.9172  0.2219 -0.2439
18273TIP3    H276235   6.809   1.814   3.250  0.9740 -2.0929 -1.4211
18274TIP3   OH276236   0.798   2.733  14.014  0.4870  0.5062  0.4605
18274TIP3    H176237   0.836   2.744  13.927 -3.4529  0.2677 -1.5376
18274TIP3    H276238   0.778   2.823  14.043  2.0562  0.6038  1.3001
18275TIP3   OH276239   6.787   2.151  13.224  0.2547 -0.8638 -0.1003
18275TIP3    H176240   6.876   2.170  13.195  0.7308 -0.7594  1.3644
18275TIP3    H276241   6.797   2.085  13.293 -0.8190 -1.0191 -0.0675
18276TIP3   OH276242   1.483   3.844   1.394  0.2375 -0.6100 -0.2855
18276TIP3    H176243   1.464   3.834   1.301 -0.4153 -1.0975 -0.1101
18276TIP3    H276244   1.563   3.794   1.408  3.0987  3.1115 -1.4420
18277TIP3   OH276245   0.481   4.663  14.501 -0.4063 -0.2370 -0.3363
18277TIP3    H176246   0.429   4.726  14.451 -1.0092 -1.3131 -1.0960
18277TIP3    H276247   0.495   4.590  14.441  0.6319 -0.6611  0.3897
18278TIP3   OH276248   1.924   2.553   3.223 -0.3453  0.2873 -0.1072
18278TIP3    H176249   1.897   2.480   3.278 -0.7704  0.3633 -0.2153
18278TIP3    H276250   1.855   2.618   3.233 -0.3902  0.3341 -0.6684
18279TIP3   OH276251   0.693   2.052   2.516 -0.2153  0.5279 -0.1678
18279TIP3    H176252   0.663   1.990   2.449  0.5492  0.5773 -0.5692
18279TIP3    H276253   0.786   2.066   2.496  0.1474  0.2173  1.1509
18280TIP3   OH276254   6.392   3.556   0.966  0.1956 -0.3242  0.0319
18280TIP3    H176255   6.376   3.466   0.936  0.4177  0.3441 -2.3747
18280TIP3    H276256   6.324   3.573   1.031 -1.4104 -1.4495 -1.2709
18281TIP3   OH276257   4.715   4.271   2.916 -0.1633 -0.0614  0.3084
18281TIP3    H176258   4.624   4.250   2.896 -0.1223  1.4362 -1.9385
18281TIP3    H276259   4.765   4.224   2.849  0.6153  0.0027  0.8398
18282TIP3   OH276260   4.118   1.535   3.799  0.1184  0.4193  0.2207
18282TIP3    H176261   4.196   1.576   3.838 -0.5352 -0.2629  2.3877
18282TIP3    H276262   4.053   1.606   3.795  0.3317  0.6011 -0.0462
18283TIP3   OH276263   0.901   3.475  11.960 -0.2169  0.1491  0.4179
18283TIP3    H176264   0.982   3.499  11.915 -0.8562 -0.2224 -1.0071
18283TIP3    H276265   0.891   3.381  11.941 -1.9769  0.6026 -1.1487
18284TIP3   OH276266   6.436   0.997  14.804  0.2096 -0.1257 -0.2125
18284TIP3    H176267   6.462   1.076  14.757  2.5077 -0.6483  0.0700
18284TIP3    H276268   6.511   0.976  14.861 -1.0605 -1.4891  1.0788
18285TIP3   OH276269   3.225   1.451  15.355 -0.0833 -0.1829  0.3570
18285TIP3    H176270   3.149   1.397  15.337  0.3277 -0.5066 -0.4353
18285TIP3    H276271   3.300   1.394  15.339  0.4192  1.0507 -2.1740
18286TIP3   OH276272   3.511   2.782  13.839 -0.2359 -0.4368  0.2040
18286TIP3    H176273   3.506   2.783  13.744  1.0948 -1.6179  0.0902
18286TIP3    H276274   3.546   2.868  13.863 -1.0626  0.0560 -0.3166
18287TIP3   OH276275   4.498   4.139   5.889 -0.0609  0.4044  0.0920
18287TIP3    H176276   4.547   4.221   5.900 -0.3663  0.9332 -2.0250
18287TIP3    H276277   4.564   4.071   5.899  1.4305  1.1126 -3.2652
18288TIP3   OH276278   3.829   4.090   2.153 -0.3717  0.5043  0.0690
18288TIP3    H176279   3.753   4.132   2.111 -1.1341  0.1610  1.0546
18288TIP3    H276280   3.847   4.014   2.098 -0.0046  1.2103 -0.8173
18289TIP3   OH276281   0.394   3.201   0.764 -0.5239 -0.1530  0.2350
18289TIP3    H176282   0.386   3.195   0.859  2.3468  2.2190  0.7846
18289TIP3    H276283   0.401   3.111   0.734 -1.0254 -0.9328  2.3353
18290TIP3   OH276284   0.042   3.479   6.186 -0.4210  0.1243  0.3343
18290TIP3    H176285   0.084   3.562   6.209  0.7008 -0.1357 -0.7235
18290TIP3    H276286  -0.036   3.505   6.137  0.3433  0.5606 -0.6832
18291TIP3   OH276287   6.276   2.320   2.281 -1.0303 -0.6722 -0.2559
18291TIP3    H176288   6.281   2.367   2.198 -1.3114  0.9667  0.6051
18291TIP3    H276289   6.367   2.301   2.304 -0.7546  0.9433  0.1444
18292TIP3   OH276290   0.884   1.539  17.142  0.3599  0.0303  0.2230
18292TIP3    H176291   0.822   1.612  17.144 -0.6366 -0.8003  0.7049
18292TIP3    H276292   0.941   1.557  17.067 -1.4532  0.0475 -1.2147
18293TIP3   OH276293   4.782   3.260  11.138 -0.0299 -0.2774 -0.7362
18293TIP3    H176294   4.825   3.330  11.187  1.0190 -2.3360  1.4954
18293TIP3    H276295   4.839   3.184  11.149 -2.4510 -2.2217 -0.6852
18294TIP3   OH276296   3.923   5.828   5.236 -0.4598  0.2518 -0.7119
18294TIP3    H176297   3.888   5.866   5.317 -2.0767  1.4857 -1.9163
18294TIP3    H276298   3.982   5.895   5.201  1.5079 -0.9204  0.1721
18295TIP3   OH276299   3.047   3.923  14.362  0.4972 -0.0106 -0.0909
18295TIP3    H176300   3.088   4.009  14.357 -0.5011  0.4429 -0.9719
18295TIP3    H276301   2.957   3.938  14.332 -0.1738 -1.0555  1.2819
18296TIP3   OH276302   4.921   2.399   5.498 -0.1556  0.3449 -0.0679
18296TIP3    H176303   4.888   2.336   5.562 -1.3871  0.0504 -0.9581
18296TIP3    H276304   4.994   2.354   5.456  0.5583  0.4784  0.9941
18297TIP3   OH276305   2.640   4.618  12.864 -0.3093 -0.0129  0.5980
18297TIP3    H176306   2.659   4.633  12.772 -1.8064  1.7567  0.5271
18297TIP3    H276307   2.665   4.699  12.908 -1.6147 -0.0102  1.4016
18298TIP3   OH276308   3.390   2.163   2.986 -0.7050 -0.1191 -0.5153
18298TIP3    H176309   3.346   2.149   2.903 -0.0732 -1.2892 -0.6723
18298TIP3    H276310   3.326   2.136   3.052 -0.7204 -0.4852 -0.6800
18299TIP3   OH276311   5.882   3.878  15.344  0.6332 -0.2570 -0.4358
18299TIP3    H176312   5.862   3.816  15.414  1.7407  0.5571  0.6619
18299TIP3    H276313   5.969   3.911  15.366 -0.3818  2.5747 -0.2486
18300TIP3   OH276314   6.011   2.712   1.838  0.4857  0.4201 -0.1126
18300TIP3    H176315   6.007   2.807   1.824  0.5224  0.3388 -0.7135
18300TIP3    H276316   6.005   2.702   1.933 -1.0220  0.9554 -0.1072
18301TIP3   OH276317   0.891   0.644  14.785 -0.1695  0.7709  0.3622
18301TIP3    H176318   0.802   0.610  14.791 -0.2437  0.7475 -0.6763
18301TIP3    H276319   0.885   0.717  14.723  1.0801 -1.3727 -2.5596
18302TIP3   OH276320   5.498   1.532   1.230  0.0866 -0.3465  0.0453
18302TIP3    H176321   5.489   1.627   1.236  1.4155 -0.0961 -1.1926
18302TIP3    H276322   5.490   1.514   1.136  1.8831 -1.1789  0.0061
18303TIP3   OH276323   0.024   0.107   4.933 -0.0475 -0.0934  0.1940
18303TIP3    H176324  -0.010   0.058   4.858  0.1903  0.3954 -0.2496
18303TIP3    H276325   0.096   0.053   4.966 -1.9526 -1.7190  1.8903
18304TIP3   OH276326   6.025   5.174  10.974 -0.3280  0.0299 -0.1390
18304TIP3    H176327   5.978   5.237  10.919 -2.0733 -0.7657  0.3427
18304TIP3    H276328   6.030   5.095  10.921  0.6440  0.1536 -0.2411
18305TIP3   OH276329   4.838   5.867  12.027 -0.4313 -0.2322  0.2681
18305TIP3    H176330   4.822   5.830  12.114 -0.3144 -1.3873 -0.1838
18305TIP3    H276331   4.816   5.796  11.967  1.8582 -0.3038 -0.5556
18306TIP3   OH276332   1.284   2.363  16.671  0.3280 -0.5245  0.0629
18306TIP3    H176333   1.315   2.279  16.706  1.9208  0.6515  1.6595
18306TIP3    H276334   1.190   2.362  16.687  0.6752 -0.9774  2.5657
18307TIP3   OH276335   1.583   6.417  16.604 -0.2511  0.5551  0.5879
18307TIP3    H176336   1.577   6.482  16.534 -1.1065  1.1737  1.2101
18307TIP3    H276337   1.514   6.442  16.666 -0.3378 -0.7205  1.0363
18308TIP3   OH276338   6.292   5.032  14.109  0.4953 -0.1774  0.3821
18308TIP3    H176339   6.341   4.969  14.162  0.5082 -1.0368 -0.6072
18308TIP3    H276340   6.323   5.117  14.138  2.0762 -0.6768  0.2748
18309TIP3   OH276341   0.912   6.104   6.365  0.0854 -0.2887  0.2217
18309TIP3    H176342   1.002   6.129   6.386  0.3729  0.3257 -1.5837
18309TIP3    H276343   0.890   6.036   6.430  1.9039 -0.5937  0.5686
18310TIP3   OH276344   1.282   3.643  15.287  0.4393 -0.2522 -0.2937
18310TIP3    H176345   1.348   3.709  15.264  0.3492  0.1843  0.6765
18310TIP3    H276346   1.333   3.564  15.303  0.6740 -0.0686 -0.1220
18311TIP3   OH276347   1.719   5.145   2.337  0.8281  0.3975 -0.1519
18311TIP3    H176348   1.757   5.197   2.266  1.1445 -0.6365 -0.7725
18311TIP3    H276349   1.649   5.200   2.372  2.8269  2.3499  0.9998
18312TIP3   OH276350   6.514   4.426   6.304  0.0367 -0.2050 -0.1292
18312TIP3    H176351   6.522   4.429   6.400 -2.0527  1.6172  0.0661
18312TIP3    H276352   6.430   4.382   6.288  0.3667 -0.4883 -1.1451
18313TIP3   OH276353   6.340   4.026   2.107  0.1198 -0.4942 -0.1899
18313TIP3    H176354   6.250   4.011   2.075  0.1023 -1.7585  0.3730
18313TIP3    H276355   6.355   4.119   2.094 -0.2461 -0.7321 -2.9265
18314TIP3   OH276356   3.059   0.666   3.809 -0.3929 -0.3742  0.3848
18314TIP3    H176357   3.012   0.584   3.825 -0.3671 -0.3371  0.6557
18314TIP3    H276358   2.992   0.726   3.776 -0.4242 -0.4824  0.2473
18315TIP3   OH276359   3.512   4.731   3.166 -0.5040 -0.0589  0.2888
18315TIP3    H176360   3.455   4.807   3.159  0.0715  0.8928  4.1064
18315TIP3    H276361   3.467   4.672   3.226  1.0292 -0.7687  0.7935
18316TIP3   OH276362   5.789   4.668  13.724  0.9435 -0.2826 -0.8647
18316TIP3    H176363   5.783   4.680  13.819 -1.5893 -0.1317 -1.0005
18316TIP3    H276364   5.805   4.756  13.690 -0.5195  0.0685 -0.7030
18317TIP3   OH276365   0.602   6.719   2.737  0.3085 -0.0008  0.1176
18317TIP3    H176366   0.585   6.760   2.652  0.2094  1.0250  0.6148
18317TIP3    H276367   0.681   6.763   2.769  0.9304 -1.0976  0.1105
18318TIP3   OH276368   2.447   2.373   1.347 -0.0628  0.5580 -0.1309
18318TIP3    H176369   2.384   2.436   1.315  1.2261  1.8581 -0.2092
18318TIP3    H276370   2.396   2.294   1.365 -2.0220  2.0950  1.5117
18319TIP3   OH276371   0.612   6.188  12.958 -0.3977  0.0171  0.0410
18319TIP3    H176372   0.525   6.220  12.934 -1.1437 -0.4288  1.9789
18319TIP3    H276373   0.615   6.099  12.923 -0.6794  0.0712 -0.1245
18320TIP3   OH276374   2.560   4.562  11.249  0.1715  0.3933 -0.0720
18320TIP3    H176375   2.629   4.546  11.185 -1.2596  0.4923 -1.7180
18320TIP3    H276376   2.552   4.479  11.297  0.0856 -0.2942 -1.2314
18321TIP3   OH276377   2.056   3.248  10.897  0.0249  0.0554 -0.0130
18321TIP3    H176378   1.962   3.231  10.904 -0.3227  1.6795 -0.4773
18321TIP3    H276379   2.085   3.191  10.826 -0.0943 -2.2833  1.6962
18322TIP3   OH276380   0.119   2.537  15.850 -0.4335  0.5241 -0.6039
18322TIP3    H176381   0.035   2.572  15.877 -0.2367 -0.3791  1.3393
18322TIP3    H276382   0.179   2.559  15.921  1.0149  1.1476 -1.9337
18323TIP3   OH276383   6.166   3.821  12.192 -0.3788 -0.0567 -0.4082
18323TIP3    H176384   6.152   3.864  12.107  0.3273  2.2908  0.5554
18323TIP3    H276385   6.082   3.830  12.237 -0.1553  0.6581 -0.1049
18324TIP3   OH276386   4.340   6.550   5.636 -0.3625  0.2785 -0.2896
18324TIP3    H176387   4.324   6.468   5.591 -1.6463  0.3260  0.0378
18324TIP3    H276388   4.258   6.598   5.628 -0.4191  0.5413  1.5710
18325TIP3   OH276389   6.670   5.202  12.799  0.0019 -0.0353  0.2500
18325TIP3    H176390   6.702   5.240  12.717  1.0726  1.0047  1.0943
18325TIP3    H276391   6.575   5.207  12.793 -0.1208 -2.4780 -2.0302
18326TIP3   OH276392   4.672   2.364   4.616  0.2043  0.0411 -0.3906
18326TIP3    H176393   4.750   2.337   4.665  0.4879 -0.7956 -1.2680
18326TIP3    H276394   4.663   2.298   4.547 -0.8534  0.5458 -0.7583
18327TIP3   OH276395   4.902   1.576   5.984  0.0094 -0.4811  0.0832
18327TIP3    H176396   4.924   1.553   5.894 -0.4794 -1.4001  0.1890
18327TIP3    H276397   4.874   1.668   5.980  1.1649 -0.1340 -0.4940
18328TIP3   OH276398   0.201   3.777   1.634 -0.1362 -0.3191 -0.0922
18328TIP3    H176399   0.112   3.786   1.600  0.3757  1.8912 -1.0481
18328TIP3    H276400   0.248   3.729   1.567 -0.2405 -0.0442 -0.3675
18329TIP3   OH276401   3.420   6.620  14.511 -0.1385 -0.1538  0.2978
18329TIP3    H176402   3.468   6.657  14.438  2.5520 -1.5793  1.2199
18329TIP3    H276403   3.434   6.682  14.583 -0.6687 -0.0124  0.2866
18330TIP3   OH276404   1.534   1.150  16.581  0.3439 -0.3598 -0.5170
18330TIP3    H176405   1.567   1.230  16.622  1.7666 -0.5184 -1.2766
18330TIP3    H276406   1.573   1.080  16.633 -2.8665 -0.6830  1.7186
18331TIP3   OH276407   2.008   1.972   4.065  1.0508  0.1350 -0.4478
18331TIP3    H176408   1.954   1.900   4.098 -0.9168  1.7650  0.0855
18331TIP3    H276409   2.098   1.948   4.090  0.0907 -0.4969  2.9256
18332TIP3   OH276410   0.226   2.375   4.402 -0.2265 -1.3364 -0.1270
18332TIP3    H176411   0.249   2.455   4.355 -1.8943  0.7349  2.2496
18332TIP3    H276412   0.309   2.343   4.437  0.5836 -1.1591 -1.7816
18333TIP3   OH276413   2.099   3.166  17.027 -0.2073  0.3277 -0.2900
18333TIP3    H176414   2.140   3.250  17.005  0.2503 -0.0652 -0.9894
18333TIP3    H276415   2.099   3.117  16.944  0.6606 -0.8345  0.3613
18334TIP3   OH276416   0.882   1.132   3.520  0.0071 -0.1206 -0.1525
18334TIP3    H176417   0.850   1.173   3.600 -0.3613  0.5761 -0.6474
18334TIP3    H276418   0.934   1.200   3.477 -0.4942 -0.2060 -0.9182
18335TIP3   OH276419   3.886   0.233   2.817 -0.1479 -0.2466  0.3227
18335TIP3    H176420   3.866   0.142   2.838  0.1365 -0.1217  1.1831
18335TIP3    H276421   3.807   0.282   2.839  0.1638 -0.1103  1.2036
18336TIP3   OH276422   0.628   1.307   4.257  0.8032 -0.0545 -0.5690
18336TIP3    H176423   0.569   1.382   4.244  1.1357 -0.0658 -2.4109
18336TIP3    H276424   0.669   1.324   4.341 -1.2477  0.3511  0.4238
18337TIP3   OH276425   0.280   0.196   4.608  0.1312  0.4992  0.4654
18337TIP3    H176426   0.231   0.121   4.573 -0.5512  0.5305  1.3026
18337TIP3    H276427   0.319   0.162   4.689  0.7924  0.7236  0.2431
18338TIP3   OH276428   2.991   6.781  14.122  0.2045 -0.6778  0.0126
18338TIP3    H176429   2.929   6.849  14.147 -2.2572 -1.9735 -2.1436
18338TIP3    H276430   3.070   6.830  14.096 -0.3450  1.0994  1.4572
18339TIP3   OH276431   4.264   2.682   5.892  0.1446 -0.1027  0.2941
18339TIP3    H176432   4.213   2.660   5.814 -1.2075 -0.2166  1.1867
18339TIP3    H276433   4.355   2.684   5.861 -0.0314 -3.0024 -0.6861
18340TIP3   OH276434   2.266   1.093  11.558 -0.1272 -0.1566 -0.5969
18340TIP3    H176435   2.232   1.041  11.485 -0.0049 -0.3282 -0.5343
18340TIP3    H276436   2.313   1.165  11.516 -0.9025  0.3105 -0.6852
18341TIP3   OH276437   1.917   5.294  10.774  0.1791 -0.3855 -0.4107
18341TIP3    H176438   1.995   5.347  10.760  0.6497 -1.1019 -0.5651
18341TIP3    H276439   1.918   5.231  10.701 -1.9937  1.2689 -1.9917
18342TIP3   OH276440   2.192   3.537  13.176 -0.5755 -0.5114 -0.0565
18342TIP3    H176441   2.165   3.500  13.260  1.1259 -2.7696 -0.3884
18342TIP3    H276442   2.112   3.542  13.125 -1.4058 -0.4586  1.1950
18343TIP3   OH276443   6.098   0.304   2.773 -0.6532  0.6327  0.7303
18343TIP3    H176444   6.058   0.218   2.780 -0.6478  0.4198 -1.3169
18343TIP3    H276445   6.065   0.352   2.849  0.1535 -1.4441  2.4955
18344TIP3   OH276446   4.152   1.725   2.040  0.1574 -0.8501  0.8301
18344TIP3    H176447   4.074   1.757   1.996  1.5591 -0.1507 -1.2963
18344TIP3    H276448   4.206   1.804   2.053  1.6138 -1.6546 -0.1362
18345TIP3   OH276449   0.793   5.601  11.388  0.4765 -0.0880 -0.1531
18345TIP3    H176450   0.748   5.685  11.395 -0.4730 -0.5347 -0.7806
18345TIP3    H276451   0.736   5.547  11.334  1.3082 -0.9873 -0.1623
18346TIP3   OH276452   5.398   2.090  16.094 -0.2553 -0.8635  0.2182
18346TIP3    H176453   5.420   2.034  16.168  2.9180 -0.4719 -0.2917
18346TIP3    H276454   5.373   2.029  16.024  1.1116 -1.5500  0.3013
18347TIP3   OH276455   1.100   0.688  12.532 -0.1933 -0.0522  0.5533
18347TIP3    H176456   1.185   0.720  12.562  0.3669 -0.3210 -0.7049
18347TIP3    H276457   1.092   0.601  12.570  1.0575 -0.8892 -0.9686
18348TIP3   OH276458   6.801   6.297   2.513  0.1457 -0.2711 -0.2053
18348TIP3    H176459   6.759   6.277   2.597  3.4314  0.7679  1.8967
18348TIP3    H276460   6.806   6.213   2.468 -1.4904 -0.9026  0.7269
18349TIP3   OH276461   5.105   1.160   0.615  0.4673 -0.3346 -0.7902
18349TIP3    H176462   5.148   1.083   0.653  1.1737  0.7425  0.6934
18349TIP3    H276463   5.012   1.137   0.616  0.7338 -1.4952 -1.1572
18350TIP3   OH276464   1.594   4.100   1.428  0.1329 -0.0282  0.4240
18350TIP3    H176465   1.599   4.185   1.384  0.1125 -0.7756 -1.0712
18350TIP3    H276466   1.540   4.046   1.371  2.1576 -1.8002  0.0359
18351TIP3   OH276467   0.487   3.845  15.147 -0.3185 -0.0917 -0.1934
18351TIP3    H176468   0.581   3.845  15.130 -0.5368 -0.0483 -1.5193
18351TIP3    H276469   0.462   3.937  15.141 -0.7196 -0.2666 -1.6672
18352TIP3   OH276470   0.346   1.759   1.782  0.1193 -0.0992  0.4144
18352TIP3    H176471   0.365   1.826   1.848 -2.1882  0.4242  0.6197
18352TIP3    H276472   0.431   1.739   1.744  1.0135  2.3003  0.9543
18353TIP3   OH276473   6.262   2.469  15.051 -0.0545  0.5648 -0.2154
18353TIP3    H176474   6.179   2.448  15.009 -0.1816  0.3544  0.1353
18353TIP3    H276475   6.247   2.453  15.144  0.5434 -0.0035 -0.2103
18354TIP3   OH276476   1.944   4.300   3.972 -0.1832 -0.1430 -0.4627
18354TIP3    H176477   1.848   4.303   3.969 -0.1516  0.1980 -1.4832
18354TIP3    H276478   1.968   4.379   4.020 -0.3890  0.1952 -0.9122
18355TIP3   OH276479   2.780   2.424  17.048  0.0964 -0.1934  0.5084
18355TIP3    H176480   2.767   2.507  17.095 -0.7611  0.8560 -1.4356
18355TIP3    H276481   2.871   2.400  17.067  0.5257  1.4636  0.7321
18356TIP3   OH276482   1.426   2.460   4.219 -0.1323 -0.2463  0.1361
18356TIP3    H176483   1.407   2.553   4.231  0.1397 -0.4641  2.6253
18356TIP3    H276484   1.509   2.446   4.264 -1.3916 -2.1678  2.0108
18357TIP3   OH276485   6.324   6.240  12.922  0.3565 -0.0990  0.4680
18357TIP3    H176486   6.313   6.194  12.839  0.6838  0.4732  0.0978
18357TIP3    H276487   6.409   6.213  12.954 -0.0610 -0.8481  0.9635
18358TIP3   OH276488   5.424   5.636  16.463 -0.1499  0.2645  0.5458
18358TIP3    H176489   5.464   5.701  16.406  0.3112 -0.9121 -0.5241
18358TIP3    H276490   5.387   5.571  16.404 -0.4905 -0.5188  1.5784
18359TIP3   OH276491   0.857   3.704  14.158 -0.0300  0.6019  0.7695
18359TIP3    H176492   0.922   3.774  14.147 -0.4413  0.8898  0.1049
18359TIP3    H276493   0.852   3.691  14.253  0.5275  1.0222  0.8647
18360TIP3   OH276494   4.705   6.730  11.952  0.1153 -0.3961 -0.0424
18360TIP3    H176495   4.800   6.728  11.946  0.3879  1.0572  2.3592
18360TIP3    H276496   4.682   6.651  12.001  0.2644 -0.0568  0.5948
18361TIP3   OH276497   1.445   1.208   6.023 -0.5320 -0.2927 -0.0057
18361TIP3    H176498   1.522   1.184   5.971 -1.3829 -0.3175 -1.3107
18361TIP3    H276499   1.454   1.158   6.104  0.8458 -0.2486 -0.1195
18362TIP3   OH276500   3.774   5.822   1.912  0.5062 -0.0024  0.3260
18362TIP3    H176501   3.793   5.907   1.952 -0.5038 -0.1475  1.1492
18362TIP3    H276502   3.680   5.824   1.895  0.6784 -0.4961 -0.7916
18363TIP3   OH276503   5.222   4.943  11.906  0.2460  0.4326  0.1706
18363TIP3    H176504   5.148   4.938  11.846 -0.0561 -0.4965  0.6008
18363TIP3    H276505   5.299   4.930  11.851 -0.0149 -0.2300 -0.0449
18364TIP3   OH276506   5.166   2.482   3.525 -0.4002  0.4873  0.0507
18364TIP3    H176507   5.182   2.416   3.592 -0.6723 -0.5712 -0.8943
18364TIP3    H276508   5.090   2.531   3.557 -1.3165 -0.8124 -0.0265
18365TIP3   OH276509   4.732   0.102  12.172 -0.0491  0.1398  0.1852
18365TIP3    H176510   4.723   0.060  12.086  1.0842  1.0198 -0.3824
18365TIP3    H276511   4.789   0.043  12.221 -0.1360 -0.0178  0.1004
18366TIP3   OH276512   4.543   4.867   1.449  0.3960 -0.1204 -0.1465
18366TIP3    H176513   4.544   4.854   1.354 -0.1913 -0.7055 -0.0778
18366TIP3    H276514   4.451   4.888   1.469  0.5605  0.2238  0.2660
18367TIP3   OH276515   5.234   6.685   1.832 -0.2353  0.3009  0.0912
18367TIP3    H176516   5.291   6.621   1.787 -1.1034 -0.5807  0.2005
18367TIP3    H276517   5.202   6.638   1.908 -1.3040  0.6932 -0.1013
18368TIP3   OH276518   2.447   3.007   1.122  0.6408  0.0529 -0.0022
18368TIP3    H176519   2.361   3.047   1.116  0.1155 -0.7319  1.6272
18368TIP3    H276520   2.488   3.023   1.037 -1.1802  0.2803 -0.8727
18369TIP3   OH276521   1.590   4.835   4.501 -0.7828  0.5038  0.1419
18369TIP3    H176522   1.502   4.870   4.517 -0.4905  1.5191 -0.3725
18369TIP3    H276523   1.634   4.843   4.586 -2.0589 -2.8659  1.2945
18370TIP3   OH276524   5.383   6.123   5.811 -0.2721 -0.2183  0.2419
18370TIP3    H176525   5.414   6.176   5.737  0.3029 -0.4535  0.3129
18370TIP3    H276526   5.315   6.067   5.773  0.0660 -0.3872 -0.1302
18371TIP3   OH276527   6.387   0.306  13.628 -0.4992  0.4001 -0.0307
18371TIP3    H176528   6.461   0.296  13.687 -1.2807 -0.9653  0.7850
18371TIP3    H276529   6.312   0.320  13.686 -1.2156 -0.5000 -0.7033
18372TIP3   OH276530   3.169   5.080  11.566 -0.0734 -0.4446 -0.1271
18372TIP3    H176531   3.191   5.149  11.503  0.2865  1.1414  1.6453
18372TIP3    H276532   3.074   5.082  11.571 -0.0184  1.1654  1.1473
18373TIP3   OH276533   6.323   5.807  13.208  0.2195  0.0715  0.6574
18373TIP3    H176534   6.369   5.890  13.222 -1.5872  0.9911  1.4679
18373TIP3    H276535   6.254   5.806  13.274  1.4945 -3.1339  2.1706
18374TIP3   OH276536   0.915   0.364   3.736 -0.1464 -0.1389 -0.1439
18374TIP3    H176537   0.836   0.419   3.739 -0.1027 -0.0410 -0.6643
18374TIP3    H276538   0.920   0.334   3.646 -0.4657 -1.4559  0.2596
18375TIP3   OH276539   4.018   6.362   0.519  0.3471  0.8241 -0.1081
18375TIP3    H176540   4.105   6.323   0.529 -0.5901 -0.8527  2.5741
18375TIP3    H276541   3.985   6.327   0.437  1.5035  0.0048 -0.2462
18376TIP3   OH276542   2.616   4.865  10.495  0.4487 -0.0358  0.5084
18376TIP3    H176543   2.654   4.821  10.572  0.5690  0.3482  0.6723
18376TIP3    H276544   2.628   4.803  10.424 -1.3048 -1.1822  1.1474
18377TIP3   OH276545   0.143   1.666   4.946 -0.0723 -0.3023 -0.3003
18377TIP3    H176546   0.081   1.600   4.978  1.3977 -0.6166  2.1225
18377TIP3    H276547   0.205   1.616   4.892 -0.5881 -0.3684 -0.8465
18378TIP3   OH276548   1.587   6.076  14.824  0.4336 -0.0253  0.0404
18378TIP3    H176549   1.590   6.128  14.905  3.6844 -1.8276  1.2854
18378TIP3    H276550   1.664   6.104  14.775 -0.4838 -0.2787 -1.6202
18379TIP3   OH276551   4.039   4.640   4.018 -0.0342  0.2392  0.4783
18379TIP3    H176552   4.009   4.716   3.968 -0.8810 -1.0030 -1.0235
18379TIP3    H276553   4.024   4.663   4.109 -1.0112  1.5533  0.0171
18380TIP3   OH276554   1.051   3.117  11.270 -0.5503 -0.8297  0.5317
18380TIP3    H176555   1.070   3.051  11.203  2.6198 -0.1902  0.6460
18380TIP3    H276556   0.974   3.163  11.237 -0.2691 -1.8229 -1.7044
18381TIP3   OH276557   5.484   3.045  10.720  0.2515  0.8056 -0.5622
18381TIP3    H176558   5.558   3.059  10.662  1.4475  1.0984  0.9651
18381TIP3    H276559   5.469   3.130  10.762  0.3448  0.2713  0.5886
18382TIP3   OH276560   0.308   3.577  10.590 -0.3687 -0.1088  0.1286
18382TIP3    H176561   0.326   3.490  10.625 -0.6720  0.7613  2.6097
18382TIP3    H276562   0.388   3.626  10.605 -0.5669  0.3439 -0.2673
18383TIP3   OH276563   5.236   0.381   0.416  0.4289  0.2861 -0.4953
18383TIP3    H176564   5.313   0.359   0.468 -0.2707  1.7620  1.2596
18383TIP3    H276565   5.170   0.315   0.441  0.7329 -0.2735 -1.1289
18384TIP3   OH276566   0.821   4.576   2.412  0.2320  0.0809 -0.2165
18384TIP3    H176567   0.828   4.566   2.507  0.9937  0.1653 -0.2524
18384TIP3    H276568   0.796   4.489   2.381 -0.1087  0.0767  0.0666
18385TIP3   OH276569   2.005   0.238  14.915  0.1649 -0.2983 -0.4715
18385TIP3    H176570   1.970   0.201  14.834  0.7844 -0.3528 -0.7194
18385TIP3    H276571   1.929   0.242  14.974 -0.5100  0.7074 -1.3809
18386TIP3   OH276572   3.517   1.583   0.778 -0.3130  0.4232 -0.0314
18386TIP3    H176573   3.499   1.579   0.872 -1.2783  0.3263 -0.2076
18386TIP3    H276574   3.554   1.670   0.765 -0.1952  0.4482  0.4358
18387TIP3   OH276575   0.979   4.105   4.680 -0.8273  0.1051 -0.1374
18387TIP3    H176576   0.890   4.131   4.705 -0.9396 -2.9485  3.7220
18387TIP3    H276577   1.036   4.153   4.741  0.2883  1.7325 -2.3090
18388TIP3   OH276578   0.853   5.444   3.552  0.1980  0.4153 -0.2264
18388TIP3    H176579   0.795   5.368   3.563  0.3930 -0.0976 -2.4046
18388TIP3    H276580   0.816   5.509   3.612 -1.9222 -0.3092 -0.6359
18389TIP3   OH276581   6.758   0.263  15.684 -0.4404  0.1589 -0.4829
18389TIP3    H176582   6.681   0.278  15.738 -0.6748  0.8947 -1.0011
18389TIP3    H276583   6.811   0.202  15.734 -1.0856  0.1074  0.1502
18390TIP3   OH276584   5.504   2.261   0.163  0.1723 -0.6282 -0.1420
18390TIP3    H176585   5.426   2.279   0.110  0.2051  0.3942  0.1386
18390TIP3    H276586   5.483   2.179   0.208 -1.1756  0.1379  0.6937
18391TIP3   OH276587   0.046   0.787   0.797  0.2391 -0.5451  0.6531
18391TIP3    H176588   0.057   0.854   0.865 -0.5636  1.1668 -0.8111
18391TIP3    H276589   0.027   0.707   0.845  0.0229  0.5392  2.4607
18392TIP3   OH276590   0.902   2.847   6.551  0.0037  0.3985 -0.0477
18392TIP3    H176591   0.914   2.920   6.612 -2.0706  0.2615  0.5855
18392TIP3    H276592   0.883   2.772   6.606  0.7097 -0.3396 -0.7721
18393TIP3   OH276593   5.190   3.523  11.550 -0.1836 -0.1694  0.0846
18393TIP3    H176594   5.183   3.428  11.543 -0.0360 -0.2462  0.9573
18393TIP3    H276595   5.138   3.546  11.627  1.2433  0.2542  0.9552
18394TIP3   OH276596   3.156   1.536   3.959  0.4405 -0.7310 -0.6407
18394TIP3    H176597   3.158   1.454   3.911  0.7693 -1.3240  0.3670
18394TIP3    H276598   3.175   1.512   4.049  0.6925  0.4721 -0.3554
18395TIP3   OH276599   3.833   2.313   5.088 -0.4353 -0.9520  0.2680
18395TIP3    H176600   3.928   2.298   5.088 -0.4712 -1.5763 -2.1905
18395TIP3    H276601   3.824   2.407   5.100  0.4672 -0.9619  1.1269
18396TIP3   OH276602   2.466   2.755   0.682 -0.4529 -0.5698  0.2182
18396TIP3    H176603   2.548   2.793   0.651 -0.6195  1.3374  1.8865
18396TIP3    H276604   2.403   2.774   0.611 -0.7952  3.5175  1.3394
18397TIP3   OH276605   0.720   0.207  15.889 -0.3236 -0.1583  0.1879
18397TIP3    H176606   0.661   0.149  15.936  0.2304  0.4089  1.6364
18397TIP3    H276607   0.719   0.288  15.940  1.2374  0.0631 -0.0999
18398TIP3   OH276608   1.535   5.802   2.657 -0.1390  0.2817  0.1169
18398TIP3    H176609   1.448   5.788   2.621 -0.1840 -1.2445  0.7400
18398TIP3    H276610   1.594   5.794   2.582 -0.5712  3.2917 -0.7134
18399TIP3   OH276611   3.741   4.503  10.569 -0.1940  0.7641  0.2644
18399TIP3    H176612   3.836   4.507  10.578 -0.0283 -0.0621 -0.8663
18399TIP3    H276613   3.724   4.414  10.538 -1.3162  0.9934  0.1879
18400TIP3   OH276614   5.748   3.046   1.746  0.2078  0.1217  0.6762
18400TIP3    H176615   5.662   3.074   1.713  0.2012 -0.8477 -0.1714
18400TIP3    H276616   5.730   3.017   1.836  0.0948  2.1043  1.3422
18401TIP3   OH276617   1.347   1.114   1.618  0.2246  0.2976  0.2713
18401TIP3    H176618   1.283   1.042   1.621 -1.7137  1.7957 -1.5137
18401TIP3    H276619   1.394   1.100   1.535  0.1090  0.8457  0.1102
18402TIP3   OH276620   4.388   5.755  15.187  0.3792  0.0670 -0.6067
18402TIP3    H176621   4.340   5.677  15.159 -0.1496  0.0685  0.2464
18402TIP3    H276622   4.421   5.793  15.106 -2.4059  0.9380 -1.4554
18403TIP3   OH276623   5.287   4.426   3.783  0.5683 -0.0740 -0.3921
18403TIP3    H176624   5.308   4.472   3.865  0.5254 -0.1476 -0.3395
18403TIP3    H276625   5.320   4.337   3.797  1.2165  0.1067 -0.7331
18404TIP3   OH276626   0.735   1.342  16.766 -0.1503  0.3219 -0.1399
18404TIP3    H176627   0.770   1.429  16.784  0.2317 -0.1370  1.4942
18404TIP3    H276628   0.811   1.284  16.767 -0.4252 -0.0820 -1.0051
18405TIP3   OH276629   6.396   0.132  12.127  0.2238  0.7652  0.0356
18405TIP3    H176630   6.412   0.110  12.035  1.6660  1.9760 -0.0558
18405TIP3    H276631   6.394   0.048  12.172 -0.4429  0.1603 -1.0939
18406TIP3   OH276632   3.565   5.241   3.683  0.4900  0.4486 -0.8921
18406TIP3    H176633   3.540   5.255   3.775  0.9322 -0.2948 -0.6446
18406TIP3    H276634   3.489   5.199   3.644  0.1597  1.1032 -0.9656
18407TIP3   OH276635   5.957   3.777   6.660 -0.1515  1.0890 -0.1608
18407TIP3    H176636   5.981   3.711   6.595 -1.1353  0.9501 -0.3950
18407TIP3    H276637   6.041   3.808   6.695  0.5066  2.3746 -2.6492
18408TIP3   OH276638   2.071   2.230   4.166 -0.8013  0.3310 -0.6417
18408TIP3    H176639   2.036   2.199   4.249 -0.2949  0.8393 -0.2268
18408TIP3    H276640   2.051   2.161   4.103 -1.3367  0.0202 -0.1318
18409TIP3   OH276641   1.814   1.480   4.065 -0.5768 -0.0062  0.3334
18409TIP3    H176642   1.899   1.471   4.107  0.7323 -0.7373 -2.2685
18409TIP3    H276643   1.823   1.557   4.009 -0.5985 -1.6222 -2.0245
18410TIP3   OH276644   5.933   2.338   5.421 -0.0525 -0.4728 -0.2372
18410TIP3    H176645   5.974   2.421   5.399 -1.1199  0.5410  1.3363
18410TIP3    H276646   5.985   2.304   5.494 -0.4158 -0.4972  0.0160
18411TIP3   OH276647   1.238   1.052   2.858  0.2312  0.0069  0.1745
18411TIP3    H176648   1.151   1.014   2.872  1.0903 -1.3922  2.1848
18411TIP3    H276649   1.222   1.146   2.846 -1.5747 -0.2735  0.2097
18412TIP3   OH276650   0.593   1.604   5.676 -0.4178 -0.1538 -0.2301
18412TIP3    H176651   0.556   1.679   5.632 -3.8964 -1.4008  0.2771
18412TIP3    H276652   0.535   1.588   5.750  0.1442 -3.3098 -0.3193
18413TIP3   OH276653   4.114   0.867  17.084  0.0450 -0.1145  0.1328
18413TIP3    H176654   4.184   0.871  17.150  0.6590 -1.2533 -0.4125
18413TIP3    H276655   4.053   0.802  17.119  0.0868 -0.3078 -0.1530
18414TIP3   OH276656   1.745   1.208  14.798 -0.0324  0.1881 -0.0011
18414TIP3    H176657   1.723   1.294  14.761  0.9662  1.3740  1.9850
18414TIP3    H276658   1.840   1.202  14.789 -0.0759 -0.6375  0.0356
18415TIP3   OH276659   3.148   3.297   5.849  0.4189  0.1512 -0.1510
18415TIP3    H176660   3.210   3.232   5.815  1.3052  0.2967  1.1360
18415TIP3    H276661   3.064   3.251   5.849  0.6165 -0.2430 -1.3609
18416TIP3   OH276662   0.119   5.503   3.888 -0.5711  0.1660 -0.6757
18416TIP3    H176663   0.187   5.565   3.912  0.9018 -2.2931  2.1319
18416TIP3    H276664   0.047   5.521   3.950  0.6344 -1.9859  1.5128
18417TIP3   OH276665   0.833   1.343   0.651  0.5175 -0.4979  0.4218
18417TIP3    H176666   0.922   1.365   0.625  0.4272 -0.4076  0.1825
18417TIP3    H276667   0.843   1.274   0.716  0.9948  2.4215  3.7672
18418TIP3   OH276668   5.171   2.680  16.357  1.0284  0.4633 -0.0320
18418TIP3    H176669   5.188   2.629  16.277 -2.8415 -0.2612 -0.5505
18418TIP3    H276670   5.172   2.771  16.327  0.3492  0.2373 -0.7626
18419TIP3   OH276671   1.596   0.830   1.606 -0.4750  0.3931  0.0707
18419TIP3    H176672   1.664   0.881   1.652 -1.2956  2.4401 -0.8642
18419TIP3    H276673   1.640   0.797   1.528 -0.1714  0.4344  0.2198
18420TIP3   OH276674   0.999   5.728  11.661  0.2107  0.6424  0.3794
18420TIP3    H176675   1.066   5.773  11.610  0.6182 -1.6635 -1.3063
18420TIP3    H276676   1.000   5.638  11.627 -0.9464 -0.5007  3.1021
18421TIP3   OH276677   0.981   1.091  15.477 -0.1725  0.2457 -0.0292
18421TIP3    H176678   0.934   1.012  15.503 -1.9077  0.5915 -1.8472
18421TIP3    H276679   0.935   1.162  15.520  0.3392  0.4124  0.2581
18422TIP3   OH276680   6.262   3.733  14.770 -0.7251  0.2817  0.0193
18422TIP3    H176681   6.200   3.695  14.832 -0.5729  0.0424  0.0266
18422TIP3    H276682   6.339   3.754  14.823 -0.3990 -0.3938 -0.1750
18423TIP3   OH276683   5.731   2.175  15.493  0.1368 -0.5009 -0.1456
18423TIP3    H176684   5.768   2.088  15.476  1.7755  0.1162  0.1213
18423TIP3    H276685   5.706   2.172  15.586 -0.2325 -0.8325 -0.2539
18424TIP3   OH276686   2.841   0.359   3.044  0.4674  0.2513  0.4524
18424TIP3    H176687   2.870   0.450   3.046  0.5826  0.2226  0.1188
18424TIP3    H276688   2.860   0.326   3.132 -0.2098  0.7420  0.7901
18425TIP3   OH276689   2.294   3.035   2.976  0.2390 -0.2085  0.3514
18425TIP3    H176690   2.270   3.109   3.032 -0.4830  0.1545 -0.4074
18425TIP3    H276691   2.309   2.963   3.036 -2.9509 -0.5173  0.9304
18426TIP3   OH276692   5.511   1.484  12.510  0.4874 -0.4353  0.1882
18426TIP3    H176693   5.571   1.511  12.580 -0.2534  0.7623  0.3700
18426TIP3    H276694   5.557   1.509  12.429  0.9586 -1.0394  0.2566
18427TIP3   OH276695   5.027   5.075  14.422 -0.0165  0.5267  0.0596
18427TIP3    H176696   5.092   5.136  14.457 -0.5298  2.2156 -1.7138
18427TIP3    H276697   4.943   5.119  14.436 -0.4618 -0.1133 -0.5525
18428TIP3   OH276698   0.377   5.431   1.789 -0.4942  0.1383 -0.1332
18428TIP3    H176699   0.442   5.364   1.812 -0.0907 -0.2924 -2.3035
18428TIP3    H276700   0.294   5.384   1.787 -0.3808 -0.0524 -0.5152
18429TIP3   OH276701   5.591   3.987  13.367 -0.2327 -0.2490 -0.2264
18429TIP3    H176702   5.575   4.081  13.374 -1.6282 -0.3702 -1.3050
18429TIP3    H276703   5.588   3.955  13.457 -0.7375  0.5875  0.0626
18430TIP3   OH276704   6.416   1.435   1.571 -0.4416 -0.1098 -0.4705
18430TIP3    H176705   6.410   1.428   1.476  1.1417 -1.9551 -0.4979
18430TIP3    H276706   6.454   1.352   1.599  1.3755  1.2830  1.5428
18431TIP3   OH276707   2.200   5.497  11.198  0.2196  0.2052 -0.5221
18431TIP3    H176708   2.165   5.497  11.287 -1.4165  1.0087 -1.1444
18431TIP3    H276709   2.288   5.459  11.207  0.2265  0.6105  1.4777
18432TIP3   OH276710   4.109   2.245   2.885 -0.3807 -0.1680  0.4397
18432TIP3    H176711   4.147   2.187   2.950  1.2831  0.4530  0.0690
18432TIP3    H276712   4.071   2.317   2.936 -1.0841 -0.7992  0.8148
18433TIP3   OH276713   3.040   4.568  10.972  0.4262  0.1860  0.2232
18433TIP3    H176714   2.967   4.509  10.954  0.4930 -0.1383  0.9752
18433TIP3    H276715   3.022   4.646  10.919 -1.8800  1.2226  2.3472
18434TIP3   OH276716   5.066   0.767   1.860  0.1796 -0.1067 -0.1091
18434TIP3    H176717   5.068   0.697   1.925  0.8630  0.5454  0.5980
18434TIP3    H276718   5.157   0.775   1.830 -0.3411 -1.3325 -2.2055
18435TIP3   OH276719   1.663   6.496   3.134  0.2681  0.7054  0.1346
18435TIP3    H176720   1.663   6.424   3.197 -1.9253  0.3562 -0.2042
18435TIP3    H276721   1.699   6.457   3.053 -0.7582  0.0048 -0.0026
18436TIP3   OH276722   3.406   3.888   0.615  0.3683 -0.3215  0.6703
18436TIP3    H176723   3.485   3.942   0.611  0.5985 -0.6414  0.8109
18436TIP3    H276724   3.412   3.832   0.537 -0.1894  0.2847  0.1802
18437TIP3   OH276725   3.652   1.112  17.244 -0.6378 -0.2427 -0.3538
18437TIP3    H176726   3.561   1.093  17.265 -0.6394 -1.3768 -1.3609
18437TIP3    H276727   3.690   1.029  17.217  1.0083 -0.0301  1.0693
18438TIP3   OH276728   6.591   5.981   4.066 -0.1563  0.0315  0.6215
18438TIP3    H176729   6.531   6.017   4.132 -0.1531  1.3554 -0.0632
18438TIP3    H276730   6.611   6.056   4.009 -0.1903 -1.0761 -0.8980
18439TIP3   OH276731   2.338   1.253   3.693  0.4512  0.3452 -0.4614
18439TIP3    H176732   2.408   1.311   3.721  1.1900 -1.0526  0.7399
18439TIP3    H276733   2.265   1.311   3.673  1.2493  1.6992  0.4119
18440TIP3   OH276734   2.126   1.740   0.935  0.9119 -0.2632  0.0925
18440TIP3    H176735   2.079   1.668   0.978  0.0011  0.7086  0.7772
18440TIP3    H276736   2.101   1.733   0.843 -0.6535  0.2675  0.4539
18441TIP3   OH276737   6.803   6.619   0.420  0.0376 -0.3193 -0.7089
18441TIP3    H176738   6.794   6.698   0.366  0.0162 -1.0100 -1.7553
18441TIP3    H276739   6.724   6.568   0.400 -1.1096  0.3959  1.7067
18442TIP3   OH276740   2.161   3.435  12.759 -0.1219 -0.3655  0.3281
18442TIP3    H176741   2.244   3.448  12.805 -0.1978  0.7508  0.1858
18442TIP3    H276742   2.139   3.344  12.775  0.4471 -0.3202  1.5210
18443TIP3   OH276743   5.522   2.236   2.354  0.3660  0.6985  0.2591
18443TIP3    H176744   5.482   2.249   2.440  0.1805 -0.4137  0.3671
18443TIP3    H276745   5.553   2.322   2.328 -1.2180  1.4134  0.6284
18444TIP3   OH276746   3.067   6.520  15.914 -0.4026 -0.3911  0.0787
18444TIP3    H176747   2.994   6.499  15.856  0.2231  0.9591 -1.2741
18444TIP3    H276748   3.095   6.436  15.949 -1.3506 -1.1553 -0.9426
18445TIP3   OH276749   5.156   3.082   1.800 -0.3089  0.2866 -0.4061
18445TIP3    H176750   5.163   3.029   1.721 -3.0157  0.7756 -1.0758
18445TIP3    H276751   5.165   3.172   1.770 -1.8347  0.5041 -0.2783
18446TIP3   OH276752   0.207   1.405   4.210  0.0591 -0.0044 -0.2793
18446TIP3    H176753   0.200   1.354   4.291 -0.6406 -0.6827 -0.7465
18446TIP3    H276754   0.290   1.452   4.218  1.3756 -2.1822 -0.3483
18447TIP3   OH276755   5.878   6.238   2.647 -0.5693  0.0544 -0.1408
18447TIP3    H176756   5.785   6.222   2.665 -0.8669  1.5876 -0.2465
18447TIP3    H276757   5.895   6.324   2.683  0.7320 -0.0553 -0.4715
18448TIP3   OH276758   3.377   2.401   3.299  0.3631  0.7793  0.2720
18448TIP3    H176759   3.364   2.306   3.293 -0.6510  0.9238 -0.1982
18448TIP3    H276760   3.396   2.428   3.210  3.2209  0.7229  0.7955
18449TIP3   OH276761   1.932   3.172   1.843  0.6837 -0.8146  0.0753
18449TIP3    H176762   1.922   3.148   1.935  2.2518  0.4043  0.6074
18449TIP3    H276763   2.026   3.185   1.832  0.3671  0.5442 -1.3029
18450TIP3   OH276764   1.634   3.645   2.601 -0.2640 -0.4834 -0.0209
18450TIP3    H176765   1.665   3.653   2.511  0.7339 -0.4221  0.3245
18450TIP3    H276766   1.710   3.665   2.655 -1.5038  2.2367  0.8840
18451TIP3   OH276767   3.499   2.614   1.024  0.8265  1.0158 -0.2126
18451TIP3    H176768   3.516   2.691   0.970  0.1288  0.0643 -1.8415
18451TIP3    H276769   3.558   2.547   0.990  0.3542  0.3857  0.1836
18452TIP3   OH276770   4.966   3.420  12.601 -0.8676  0.4759 -0.4890
18452TIP3    H176771   5.039   3.455  12.550 -0.8708 -0.0289 -0.8559
18452TIP3    H276772   4.961   3.475  12.678 -0.1684  0.5855 -0.5208
18453TIP3   OH276773   2.209   1.616  12.976  0.1376  0.1441  0.0676
18453TIP3    H176774   2.137   1.572  12.930  1.3128 -2.6064  0.6686
18453TIP3    H276775   2.255   1.665  12.908 -0.7856 -0.1379 -0.7874
18454TIP3   OH276776   4.162   2.175   5.477  0.2174  0.5198 -0.2741
18454TIP3    H176777   4.086   2.150   5.529 -0.4820  1.5338 -0.7907
18454TIP3    H276778   4.221   2.100   5.484  0.8090  1.1147  3.1606
18455TIP3   OH276779   0.489   6.497   3.175  0.2845 -0.4163 -0.3253
18455TIP3    H176780   0.421   6.497   3.242  1.4949  0.1946  0.9326
18455TIP3    H276781   0.465   6.569   3.117  0.3959  0.4722  0.7009
18456TIP3   OH276782   4.256   0.486  16.509  0.0088  0.2824  0.1817
18456TIP3    H176783   4.316   0.551  16.546 -0.7085  1.0943 -0.0558
18456TIP3    H276784   4.298   0.402  16.528  0.5775  0.7679  1.1766
18457TIP3   OH276785   5.938   6.160  15.354 -0.2870  0.2809  1.0795
18457TIP3    H176786   5.894   6.216  15.291  1.4944 -0.3313 -0.8108
18457TIP3    H276787   5.964   6.219  15.425  2.3496  2.2222 -1.2480
18458TIP3   OH276788   6.251   4.648   2.784  0.0451  0.4007 -0.8968
18458TIP3    H176789   6.300   4.728   2.764  0.0229  0.1604 -1.9611
18458TIP3    H276790   6.160   4.678   2.790  0.2594  0.8076  0.8634
18459TIP3   OH276791   4.452   5.635   0.747 -0.1318 -0.0022  0.1478
18459TIP3    H176792   4.473   5.728   0.748  0.4296 -0.0523  3.2962
18459TIP3    H276793   4.516   5.597   0.687  0.1933  1.5033 -0.5029
18460TIP3   OH276794   2.996   3.281   5.073 -0.2303 -0.4530  0.0805
18460TIP3    H176795   3.086   3.274   5.103  0.9240 -0.2617 -3.0124
18460TIP3    H276796   2.953   3.334   5.140  2.0807 -0.0337  1.3466
18461TIP3   OH276797   4.279   0.515   2.579 -0.2260 -0.6451 -0.6149
18461TIP3    H176798   4.246   0.489   2.665 -1.8669  0.0175 -1.0055
18461TIP3    H276799   4.240   0.601   2.563 -0.6831 -1.1523 -2.4138
18462TIP3   OH276800   2.785   0.697  12.825 -0.0682 -0.1368  0.2881
18462TIP3    H176801   2.806   0.698  12.731  0.5925 -1.2205  0.4101
18462TIP3    H276802   2.766   0.605  12.844 -1.7003  0.2826  0.9127
18463TIP3   OH276803   3.231   1.281   5.086  0.1063 -0.0837  0.7625
18463TIP3    H176804   3.239   1.189   5.107  0.9696  0.0689  1.1370
18463TIP3    H276805   3.220   1.283   4.991  0.6891 -0.5364  0.6830
18464TIP3   OH276806   3.926   5.738  13.785  0.0316 -0.4556  0.0229
18464TIP3    H176807   4.013   5.716  13.752 -0.6191 -2.1816 -0.6608
18464TIP3    H276808   3.868   5.725  13.710 -0.7860  1.0804  0.3471
18465TIP3   OH276809   3.146   5.142   1.034  0.4058 -0.9403  0.4809
18465TIP3    H176810   3.086   5.109   0.968 -2.5538  3.6981  0.3278
18465TIP3    H276811   3.106   5.118   1.117 -0.6537  0.3438  0.3835
18466TIP3   OH276812   5.318   6.243   2.613 -0.7418  0.2133  0.7749
18466TIP3    H176813   5.285   6.332   2.598 -0.1299  0.6803  2.0598
18466TIP3    H276814   5.240   6.191   2.629 -1.1459  0.3925 -0.4524
18467TIP3   OH276815   5.894   1.376   5.051  0.5195  0.3397 -0.4680
18467TIP3    H176816   5.979   1.348   5.016 -0.3075 -0.4039 -2.0215
18467TIP3    H276817   5.913   1.403   5.141  2.3326 -0.1269 -0.6539
18468TIP3   OH276818   6.781   4.406  12.325  0.2573 -0.2756  0.2299
18468TIP3    H176819   6.748   4.378  12.240  0.9139 -1.0917  0.2346
18468TIP3    H276820   6.871   4.436  12.307  0.0748  0.4405  0.4786
18469TIP3   OH276821   6.100   1.277   1.338 -0.4515 -0.1875 -0.3859
18469TIP3    H176822   6.029   1.228   1.379  0.0809 -0.1130  0.6606
18469TIP3    H276823   6.116   1.351   1.397  0.4262 -0.1434 -0.6589
18470TIP3   OH276824   2.745   1.504   0.119  0.2654 -0.6237  0.3215
18470TIP3    H176825   2.746   1.438   0.189  1.0232 -0.7411  0.2073
18470TIP3    H276826   2.812   1.567   0.145  0.2407 -0.4363 -0.0788
18471TIP3   OH276827   3.598   5.125  14.350 -0.0628 -0.2759  0.5668
18471TIP3    H176828   3.541   5.201  14.360 -0.1060 -0.0162 -1.2840
18471TIP3    H276829   3.559   5.075  14.279  1.3268 -0.7352  0.0853
18472TIP3   OH276830   3.773   6.583  14.705 -0.8422  0.3472 -0.2820
18472TIP3    H176831   3.788   6.554  14.615 -1.1092 -0.0213 -0.2132
18472TIP3    H276832   3.685   6.550  14.726 -1.3374  1.6009 -0.3426
18473TIP3   OH276833   3.463   1.262  13.044 -0.3422 -0.5468  0.2933
18473TIP3    H176834   3.428   1.341  13.085  2.0136  0.1973  1.0484
18473TIP3    H276835   3.500   1.212  13.116  0.8030 -0.8959 -0.4978
18474TIP3   OH276836   0.250   1.856  14.353 -0.1032 -0.7387 -0.3739
18474TIP3    H176837   0.280   1.839  14.443  2.2472  0.8474 -0.7709
18474TIP3    H276838   0.201   1.938  14.360 -0.3568 -0.8850 -0.4548
18475TIP3   OH276839   0.044   5.653   3.654 -0.0179 -0.3199  0.0218
18475TIP3    H176840   0.067   5.593   3.726 -0.3018 -1.8603 -1.1133
18475TIP3    H276841   0.112   5.636   3.588 -0.5840  0.0061 -0.6482
18476TIP3   OH276842   3.461   2.600  15.426 -0.5520  0.0201 -0.1888
18476TIP3    H176843   3.450   2.684  15.469 -2.4127  0.2473 -1.0283
18476TIP3    H276844   3.554   2.579  15.438 -0.6100  0.8721  2.3820
18477TIP3   OH276845   2.506   2.860  12.178  0.3340  0.0961  0.3457
18477TIP3    H176846   2.542   2.946  12.199  2.3982 -0.6588  0.2306
18477TIP3    H276847   2.543   2.802  12.245  0.3081 -0.9587 -0.5131
18478TIP3   OH276848   3.389   0.095  12.595 -0.0181 -0.8703  0.0532
18478TIP3    H176849   3.362   0.140  12.515 -0.6148  1.5326  1.5000
18478TIP3    H276850   3.307   0.067  12.635  0.2119 -1.1715  0.3211
18479TIP3   OH276851   0.387   4.672  17.032  0.3530 -0.0736 -0.1605
18479TIP3    H176852   0.457   4.656  16.969  0.3646 -0.8261  0.0279
18479TIP3    H276853   0.393   4.765  17.053  0.8066  0.0272 -0.7253
18480TIP3   OH276854   4.049   4.237   3.433 -0.5475 -0.0791  0.5079
18480TIP3    H176855   3.990   4.257   3.360 -2.1270  0.1718  1.8090
18480TIP3    H276856   4.105   4.167   3.400 -0.7495  0.5006 -1.1770
18481TIP3   OH276857   3.057   6.130   1.082 -0.3143  0.1182  0.1136
18481TIP3    H176858   2.980   6.175   1.046 -0.0610  1.0513  0.6992
18481TIP3    H276859   3.131   6.176   1.044 -0.0486  0.2929  0.8317
18482TIP3   OH276860   6.021   3.694  13.110 -0.3627 -0.5498 -0.1143
18482TIP3    H176861   6.013   3.788  13.125 -0.4652 -0.3193 -1.5093
18482TIP3    H276862   5.936   3.658  13.134 -0.2808 -0.3293  0.5570
18483TIP3   OH276863   2.388   4.415   5.471 -0.5555  0.0866  0.4783
18483TIP3    H176864   2.428   4.329   5.458 -0.3199  0.4412 -1.4757
18483TIP3    H276865   2.296   4.396   5.491 -0.5751 -0.6340 -0.2407
18484TIP3   OH276866   1.188   3.434  12.505 -0.5629  0.6764 -0.0339
18484TIP3    H176867   1.230   3.349  12.515 -1.1639  0.3075 -0.5460
18484TIP3    H276868   1.240   3.479  12.439 -1.6369 -0.2481 -1.5735
18485TIP3   OH276869   3.119   5.079  13.255  0.0897 -0.4560  0.0646
18485TIP3    H176870   3.170   5.019  13.310  0.0196 -0.5404  0.0366
18485TIP3    H276871   3.029   5.047  13.261 -0.3454  0.8696  1.7652
18486TIP3   OH276872   1.426   1.320   0.987 -0.2080  0.2422  0.4009
18486TIP3    H176873   1.522   1.319   0.991 -0.0971  0.1560 -1.4674
18486TIP3    H276874   1.402   1.230   0.963 -0.6613  0.5884 -0.4861
18487TIP3   OH276875   4.173   4.114  16.304 -0.0465 -0.0077 -0.0745
18487TIP3    H176876   4.260   4.110  16.264  0.4363  1.7325  0.7030
18487TIP3    H276877   4.140   4.200  16.281 -1.9005 -0.8971 -0.9352
18488TIP3   OH276878   1.730   5.120   5.417  0.2037 -0.2664  0.1699
18488TIP3    H176879   1.732   5.216   5.413  1.0539 -0.3181 -1.2967
18488TIP3    H276880   1.649   5.100   5.465 -1.0438  1.1525 -1.2085
18489TIP3   OH276881   2.086   6.315  15.149 -0.3463 -0.2059 -0.3883
18489TIP3    H176882   2.156   6.272  15.099  0.3051  0.0427  0.2925
18489TIP3    H276883   2.130   6.389  15.191 -0.3518 -1.6111  2.3068
18490TIP3   OH276884   2.825   6.344   2.783  0.7423  0.5791 -0.3691
18490TIP3    H176885   2.761   6.319   2.716 -2.0692  0.3434  2.1849
18490TIP3    H276886   2.798   6.295   2.861  3.2544  1.5316  1.2094
18491TIP3   OH276887   2.812   0.772  16.643 -0.4589  0.5387 -0.1968
18491TIP3    H176888   2.776   0.743  16.559 -1.6360  0.8083  0.1984
18491TIP3    H276889   2.747   0.833  16.678 -0.6465 -0.5383  1.5078
18492TIP3   OH276890   4.527   1.704  11.718 -0.3526 -0.2452 -0.6561
18492TIP3    H176891   4.529   1.611  11.697  1.2054 -0.6928  1.1732
18492TIP3    H276892   4.482   1.709  11.803 -1.2525  0.7978 -1.1615
18493TIP3   OH276893   0.948   0.429   0.770  0.4787 -0.1054  0.5099
18493TIP3    H176894   0.974   0.372   0.842 -2.2592 -0.8796  0.9846
18493TIP3    H276895   0.967   0.378   0.691  1.1412 -0.2770  0.7709
18494TIP3   OH276896   1.190   2.210   2.366  0.2251  0.2177  0.3913
18494TIP3    H176897   1.167   2.136   2.422  0.2716 -0.3079 -0.2787
18494TIP3    H276898   1.241   2.268   2.423 -0.8082  0.3206  1.2526
18495TIP3   OH276899   2.513   4.285   6.623  0.0319 -0.8824 -0.2754
18495TIP3    H176900   2.527   4.209   6.680  0.5636 -0.4380  0.1982
18495TIP3    H276901   2.601   4.309   6.595 -0.2377 -1.2355 -1.4816
18496TIP3   OH276902   2.946   5.814  13.129  0.1683 -0.3173 -0.2264
18496TIP3    H176903   2.860   5.855  13.121  0.8934  1.3838  0.1541
18496TIP3    H276904   2.974   5.838  13.218  0.9709 -0.9904 -0.2957
18497TIP3   OH276905   0.071   0.115   3.036 -0.1841  0.2314 -0.4946
18497TIP3    H176906   0.038   0.198   3.071 -1.2381 -0.6495  0.7219
18497TIP3    H276907   0.140   0.089   3.097 -1.0570 -0.6187  0.1622
18498TIP3   OH276908   4.273   0.379  13.087  0.8572  0.6037 -0.0812
18498TIP3    H176909   4.276   0.421  13.001 -1.4095 -2.2919 -1.7377
18498TIP3    H276910   4.184   0.394  13.119  0.6254 -1.1398  0.1870
18499TIP3   OH276911   4.493   3.519  13.964 -0.5194 -0.4508  0.1396
18499TIP3    H176912   4.472   3.461  14.037 -1.6259  1.2905  1.2912
18499TIP3    H276913   4.569   3.569  13.994  0.1644 -1.0060 -0.6599
18500TIP3   OH276914   4.569   0.860   1.311  0.0152 -0.3351  0.6690
18500TIP3    H176915   4.586   0.898   1.397 -0.1070  0.6461  0.2748
18500TIP3    H276916   4.500   0.915   1.274  1.3399  0.4197 -0.8008
18501TIP3   OH276917   0.774   5.190  11.026  0.1755  0.5758 -0.0078
18501TIP3    H176918   0.842   5.202  10.959  1.1347 -0.0032  0.8214
18501TIP3    H276919   0.694   5.223  10.985  0.9470  1.2743 -1.0265
18502TIP3   OH276920   6.169   6.632   5.198 -0.8273  0.5106  0.0227
18502TIP3    H176921   6.156   6.714   5.246  1.2194  1.5853 -1.0926
18502TIP3    H276922   6.261   6.634   5.173 -0.7142 -2.1513 -0.0958
18503TIP3   OH276923   0.199   0.704  13.214 -0.0345 -0.4196  0.1969
18503TIP3    H176924   0.212   0.798  13.197 -0.8000 -0.4622 -0.7189
18503TIP3    H276925   0.133   0.702  13.283 -0.4153 -0.2724 -0.1524
18504TIP3   OH276926   4.615   6.504   3.661 -0.0760  0.6855  0.2451
18504TIP3    H176927   4.622   6.548   3.576 -0.8901  1.5717  0.6168
18504TIP3    H276928   4.694   6.451   3.667  0.2060  0.9458 -0.8752
18505TIP3   OH276929   1.730   0.524   6.168 -0.1610  0.0598 -0.2345
18505TIP3    H176930   1.680   0.515   6.249  0.2994 -2.6034 -0.1690
18505TIP3    H276931   1.821   0.527   6.196 -0.0128 -0.6061 -0.6271
18506TIP3   OH276932   0.227   2.863   5.108  0.0180  0.2522  0.0817
18506TIP3    H176933   0.307   2.845   5.058 -0.9469 -1.5061 -0.9408
18506TIP3    H276934   0.182   2.931   5.057  0.0467 -0.0231 -0.3193
18507TIP3   OH276935   4.390   6.476  12.756  0.0438  0.0986  0.2030
18507TIP3    H176936   4.475   6.500  12.793  0.9665 -0.8741 -1.1860
18507TIP3    H276937   4.364   6.398  12.806  0.3003 -0.0001  0.1847
18508TIP3   OH276938   1.889   2.445   4.503  0.1818 -0.5452  0.1850
18508TIP3    H176939   1.889   2.446   4.599  1.4801  0.8292  0.2146
18508TIP3    H276940   1.952   2.514   4.479 -1.7061  0.6590 -1.6486
18509TIP3   OH276941   2.753   2.034   5.577  0.6909  0.0993  0.0983
18509TIP3    H176942   2.841   2.011   5.549  0.9240  1.3438 -0.2720
18509TIP3    H276943   2.765   2.073   5.664  0.3460 -0.8839  0.5952
18510TIP3   OH276944   4.106   4.409   4.282 -0.1464 -0.2295 -0.1194
18510TIP3    H176945   4.072   4.322   4.304 -1.7414  0.5044  0.4828
18510TIP3    H276946   4.093   4.460   4.362  1.1339  0.4733 -0.3475
18511TIP3   OH276947   0.607   5.647  17.083  0.5565  0.6893  0.1475
18511TIP3    H176948   0.525   5.598  17.076  0.5025  0.9330 -1.3060
18511TIP3    H276949   0.584   5.727  17.131  0.2973  0.0745  1.0807
18512TIP3   OH276950   2.105   1.853  15.660 -0.0532 -0.4410 -0.3950
18512TIP3    H176951   2.127   1.881  15.571  0.2351  0.2155 -0.1190
18512TIP3    H276952   2.126   1.759  15.661 -1.2187 -0.7407 -1.3826
18513TIP3   OH276953   0.762   3.428   2.616  0.1536 -0.6314 -0.4826
18513TIP3    H176954   0.838   3.398   2.567  1.3180  0.0503  0.8240
18513TIP3    H276955   0.760   3.372   2.694  0.1738  0.2806  0.1855
18514TIP3   OH276956   0.728   5.353   0.119 -0.2882 -0.2753 -0.2624
18514TIP3    H176957   0.698   5.306   0.197  2.3692 -0.0470  0.9937
18514TIP3    H276958   0.753   5.283   0.057 -3.3907 -0.4847 -1.4919
18515TIP3   OH276959   2.200   2.546  14.698  0.0211  0.1402  0.0814
18515TIP3    H176960   2.262   2.485  14.739 -0.6099 -0.4880  0.1114
18515TIP3    H276961   2.240   2.632  14.710  1.0623 -0.2837 -0.2085
18516TIP3   OH276962   2.363   4.919   6.198  0.6166  0.4132  0.3845
18516TIP3    H176963   2.447   4.879   6.221  1.1256  1.9793  1.3756
18516TIP3    H276964   2.341   4.879   6.114  2.8204  0.6469 -0.3829
18517TIP3   OH276965   6.603   2.103  11.107  0.1226 -0.0939  0.5785
18517TIP3    H176966   6.661   2.131  11.177 -1.0096 -0.9304  1.9248
18517TIP3    H276967   6.549   2.034  11.147 -1.6233  0.4789 -0.6443
18518TIP3   OH276968   4.872   5.113  16.455  0.1616 -0.3478 -0.1904
18518TIP3    H176969   4.964   5.139  16.459  0.4254 -0.8461 -2.0246
18518TIP3    H276970   4.827   5.189  16.419 -0.0984 -0.2294  0.3751
18519TIP3   OH276971   2.937   0.737   1.499 -0.0442 -0.1067  0.2000
18519TIP3    H176972   2.965   0.723   1.590  1.1486 -1.8284 -0.3760
18519TIP3    H276973   2.868   0.673   1.485 -1.2030  1.0858  0.2636
18520TIP3   OH276974   0.146   5.534  12.969  0.3240  0.0775 -0.4496
18520TIP3    H176975   0.088   5.461  12.992  0.1714  0.2917 -0.1547
18520TIP3    H276976   0.154   5.529  12.873 -0.5991  0.3574 -0.5518
18521TIP3   OH276977   6.616   5.401   0.763 -0.5257 -0.4332 -0.2838
18521TIP3    H176978   6.655   5.315   0.745 -1.4546 -0.9528  0.1100
18521TIP3    H276979   6.652   5.426   0.848  1.7239  0.7717 -1.4651
18522TIP3   OH276980   0.925   5.225  15.116 -0.1404  0.2095  0.3205
18522TIP3    H176981   0.956   5.313  15.097  0.9987 -0.0440  0.9523
18522TIP3    H276982   0.995   5.167  15.085 -2.2636 -0.7642 -3.3579
18523TIP3   OH276983   2.570   6.663  14.056  0.0277  0.5250 -0.3463
18523TIP3    H176984   2.660   6.638  14.076 -0.2789 -3.5346 -2.8292
18523TIP3    H276985   2.568   6.671  13.960 -2.2534  0.1263 -0.3957
18524TIP3   OH276986   0.029   0.410   1.149 -0.0071  0.4145  0.1067
18524TIP3    H176987  -0.054   0.369   1.172  0.1172  0.0048 -0.1574
18524TIP3    H276988   0.049   0.467   1.223  0.3226 -0.7931  0.9913
18525TIP3   OH276989   0.134   4.924   0.893  0.3160  0.3285 -0.0640
18525TIP3    H176990   0.197   4.878   0.947 -0.6417 -0.9567  0.0167
18525TIP3    H276991   0.071   4.857   0.867 -0.2437  1.2798 -1.2877
18526TIP3   OH276992   4.405   5.749   6.841 -0.0927 -0.2066  0.0567
18526TIP3    H176993   4.386   5.811   6.911  0.1749 -1.1419  0.9858
18526TIP3    H276994   4.372   5.665   6.873  3.4171 -1.4671  0.8081
18527TIP3   OH276995   1.538   4.036   0.923  0.0937  0.5103 -0.0084
18527TIP3    H176996   1.630   4.034   0.895 -0.6816 -1.4206 -2.9361
18527TIP3    H276997   1.492   4.073   0.848 -1.5692  1.3831  1.3871
18528TIP3   OH276998   3.444   6.801   4.123  0.3275  0.4059 -0.0262
18528TIP3    H176999   3.376   6.746   4.163  0.5663 -0.4714 -0.7980
18528TIP3    H277000   3.472   6.752   4.046  0.8210  1.4449 -0.5267
18529TIP3   OH277001   5.358   2.198  10.513  0.0651  0.0901  0.2768
18529TIP3    H177002   5.433   2.141  10.532  0.8684  1.2269  0.6348
18529TIP3    H277003   5.282   2.149  10.546  0.7119 -0.8192  0.4609
18530TIP3   OH277004   5.161   6.418   4.357  0.0541 -0.3854 -0.0498
18530TIP3    H177005   5.178   6.422   4.451  0.7875 -0.9684 -0.1410
18530TIP3    H277006   5.148   6.325   4.340 -0.6657 -0.2177 -0.4350
18531TIP3   OH277007   2.469   1.885  14.269  0.4071 -0.1247  0.3608
18531TIP3    H177008   2.506   1.804  14.234 -0.8654 -0.3552 -0.5006
18531TIP3    H277009   2.514   1.955  14.221 -0.0354 -0.3921 -0.4672
18532TIP3   OH277010   4.933   5.400   0.322  0.6365 -0.5163 -0.5474
18532TIP3    H177011   4.917   5.494   0.308 -0.1826 -0.1454  2.2101
18532TIP3    H277012   4.853   5.369   0.365  0.9516 -2.4829 -1.2938
18533TIP3   OH277013   0.767   2.321   6.030  0.0395 -0.3771  1.1943
18533TIP3    H177014   0.703   2.362   5.972  1.3485  0.3884  0.2477
18533TIP3    H277015   0.714   2.285   6.102 -1.5445 -0.7390 -0.0990
18534TIP3   OH277016   6.661   4.398   5.646 -0.0830 -0.0879  0.3865
18534TIP3    H177017   6.753   4.419   5.629 -0.0509 -1.3695 -1.3001
18534TIP3    H277018   6.617   4.482   5.650  1.0617  0.5190  0.6241
18535TIP3   OH277019   1.455   4.759   5.172  0.6341  0.0955  0.3573
18535TIP3    H177020   1.426   4.844   5.140 -0.0256 -0.1448  0.2971
18535TIP3    H277021   1.542   4.775   5.208  0.8602  0.6322 -0.3930
18536TIP3   OH277022   3.002   5.384  16.805 -0.1168 -0.1028  0.2744
18536TIP3    H177023   3.054   5.435  16.743  0.1871  0.4691  0.9878
18536TIP3    H277024   3.002   5.436  16.885  0.5472 -1.3888  1.1474
18537TIP3   OH277025   5.428   5.784  14.093  0.1475 -0.1203  0.1008
18537TIP3    H177026   5.358   5.763  14.031  1.2051  2.2418 -2.0895
18537TIP3    H277027   5.502   5.729  14.065  0.3946  0.3905 -0.2639
18538TIP3   OH277028   3.418   4.203   5.985 -0.3939  0.2041 -0.7560
18538TIP3    H177029   3.478   4.270   6.019 -0.2300 -0.0672 -0.4963
18538TIP3    H277030   3.396   4.232   5.897  3.5529 -1.8249 -2.6731
18539TIP3   OH277031   2.553   0.044  11.977  0.3212 -0.8572 -0.0205
18539TIP3    H177032   2.626   0.044  11.915  2.3765  1.3843  2.1882
18539TIP3    H277033   2.476   0.058  11.923  1.9330  0.3598 -2.1552
18540TIP3   OH277034   1.178   4.816  17.130 -0.0039 -0.1518 -0.1028
18540TIP3    H177035   1.257   4.762  17.130 -1.0297 -1.7213  0.6901
18540TIP3    H277036   1.153   4.822  17.038  1.9693  1.9013 -0.6117
18541TIP3   OH277037   2.094   0.844   0.235  0.7516  0.5511  0.4144
18541TIP3    H177038   2.167   0.830   0.176  1.1194  2.7234  0.2912
18541TIP3    H277039   2.023   0.877   0.179 -0.1965 -1.0076  0.6182
18542TIP3   OH277040   6.062   4.546   3.722 -0.2670 -0.0530  0.9682
18542TIP3    H177041   6.083   4.550   3.816 -0.6371  1.4298  1.0016
18542TIP3    H277042   6.106   4.466   3.692  1.0762  0.2173  2.1061
18543TIP3   OH277043   0.124   0.581   2.663 -0.4311  0.7001  0.1346
18543TIP3    H177044   0.063   0.562   2.592  0.6138 -0.0020 -0.6011
18543TIP3    H277045   0.167   0.497   2.681  1.2805  1.4540 -0.2941
18544TIP3   OH277046   3.402   4.463  15.454  0.2206  0.3519  0.0636
18544TIP3    H177047   3.321   4.515  15.456 -0.5719 -0.8173 -0.1684
18544TIP3    H277048   3.463   4.512  15.509 -0.9315  0.8349  0.9768
18545TIP3   OH277049   2.143   2.407   0.448  0.6099 -0.0514  0.2364
18545TIP3    H177050   2.052   2.410   0.478  0.4169  0.3675 -0.3756
18545TIP3    H277051   2.182   2.487   0.482  0.3985  0.4101 -0.5825
18546TIP3   OH277052   4.613   5.480  15.268 -0.1128 -0.3049  0.5114
18546TIP3    H177053   4.619   5.574  15.281  0.2235 -0.3089  0.3960
18546TIP3    H277054   4.688   5.444  15.317  0.1765 -0.4551 -0.0396
18547TIP3   OH277055   0.671   1.154  16.332 -0.3603 -0.4267  0.0891
18547TIP3    H177056   0.608   1.211  16.288 -0.3349 -0.2021  0.3396
18547TIP3    H277057   0.659   1.173  16.425  1.0502  0.6690  0.0906
18548TIP3   OH277058   4.555   4.843   5.360 -0.1703  0.5442  0.0005
18548TIP3    H177059   4.602   4.885   5.288  0.2541 -0.3532 -0.2656
18548TIP3    H277060   4.467   4.827   5.326 -0.0858  0.4730 -0.1856
18549TIP3   OH277061   4.436   4.287   2.366  0.5246 -0.1775 -0.1127
18549TIP3    H177062   4.423   4.197   2.396 -2.0701  0.6827  1.6828
18549TIP3    H277063   4.505   4.322   2.422  0.5683 -0.6584  0.1316
18550TIP3   OH277064   2.631   3.877   1.015  0.0996 -0.5510  0.4584
18550TIP3    H177065   2.564   3.812   0.997 -0.6381  0.7070 -1.5827
18550TIP3    H277066   2.630   3.887   1.111 -0.1273 -3.0781  0.7762
18551TIP3   OH277067   6.478   2.925  12.208 -0.0553  0.1350  0.0083
18551TIP3    H177068   6.463   2.943  12.301  1.0720 -1.4981  0.5553
18551TIP3    H277069   6.525   3.002  12.176  0.1779  0.4043  0.9655
18552TIP3   OH277070   0.262   1.450  15.167 -0.1052 -0.0628 -0.0208
18552TIP3    H177071   0.198   1.400  15.117 -1.3120  2.3353 -1.0472
18552TIP3    H277072   0.343   1.443  15.116 -1.0596  1.5072 -1.8705
18553TIP3   OH277073   4.577   0.608   0.511 -0.0619  0.1938 -0.0733
18553TIP3    H177074   4.647   0.609   0.576 -0.0833  1.1293 -0.0444
18553TIP3    H277075   4.559   0.516   0.495  0.0343 -0.0497  1.1560
18554TIP3   OH277076   4.493   1.568   1.392  0.2567 -0.3065 -0.1860
18554TIP3    H177077   4.525   1.498   1.449  0.5921  0.2112  0.2726
18554TIP3    H277078   4.449   1.629   1.451  0.8959  0.4006 -0.4334
18555TIP3   OH277079   5.541   6.207  15.442 -0.0378  0.0659 -0.0250
18555TIP3    H177080   5.456   6.239  15.410 -0.7668 -1.2900  0.4467
18555TIP3    H277081   5.559   6.261  15.519 -0.4815  0.3596 -0.1222
18556TIP3   OH277082   0.633   3.025   3.751 -0.2710  0.2965 -0.1494
18556TIP3    H177083   0.697   2.972   3.800  1.4317  1.0349 -1.4880
18556TIP3    H277084   0.630   3.108   3.798  0.2530  0.4863 -0.4435
18557TIP3   OH277085   4.624   1.858   5.827  0.3887 -0.4194  0.6678
18557TIP3    H177086   4.588   1.911   5.898 -0.0790 -0.6373  0.5989
18557TIP3    H277087   4.688   1.915   5.785 -0.3630  0.2269  0.3728
18558TIP3   OH277088   0.364   1.295  12.481 -0.1331 -0.5727  0.3367
18558TIP3    H177089   0.303   1.304  12.554 -0.4697 -2.2764  0.3135
18558TIP3    H277090   0.309   1.295  12.403  0.2412  1.4509  0.0043
18559TIP3   OH277091   0.026   1.524   0.388 -0.1488  0.2921 -0.3913
18559TIP3    H177092   0.074   1.552   0.466 -0.3112 -1.6116  0.4677
18559TIP3    H277093  -0.026   1.600   0.362 -1.2800  0.5374  2.3046
18560TIP3   OH277094   5.375   5.319  14.820 -0.3327 -0.0415 -0.0351
18560TIP3    H177095   5.334   5.271  14.892 -1.7572  0.6707 -0.3334
18560TIP3    H277096   5.305   5.375  14.786  1.1490  2.0066  0.1076
18561TIP3   OH277097   4.634   3.206   2.127  0.4750 -0.4145 -0.1864
18561TIP3    H177098   4.687   3.139   2.084 -1.4659 -1.6669 -0.7394
18561TIP3    H277099   4.610   3.266   2.056 -1.1407 -1.4241 -0.5370
18562TIP3   OH277100   4.599   4.381  13.919  0.1206 -0.3023 -0.2001
18562TIP3    H177101   4.667   4.314  13.925  0.1601 -0.2583 -0.1623
18562TIP3    H277102   4.518   4.331  13.904 -0.3347 -0.5884  2.6327
18563TIP3   OH277103   1.555   5.471   6.258 -0.0795  0.6057  0.1671
18563TIP3    H177104   1.486   5.420   6.301  1.3585 -1.4573  0.1849
18563TIP3    H277105   1.632   5.459   6.314  0.9254  0.8014 -1.1262
18564TIP3   OH277106   3.457   3.725   4.644 -0.4635  0.0152  0.3934
18564TIP3    H177107   3.502   3.753   4.724  0.9662  0.6812 -0.5999
18564TIP3    H277108   3.496   3.640   4.624 -1.1560 -0.3656  0.6445
18565TIP3   OH277109   1.423   5.077   4.499 -0.4316  0.1284  0.2224
18565TIP3    H177110   1.491   5.135   4.467 -1.0387  0.0871 -1.2077
18565TIP3    H277111   1.448   5.058   4.590  1.5744 -0.0851 -0.3366
18566TIP3   OH277112   5.668   4.015   2.440  0.1017  0.0307  0.1595
18566TIP3    H177113   5.751   4.011   2.392 -0.5368 -0.7486 -0.9204
18566TIP3    H277114   5.611   3.952   2.395 -1.7785  2.0380 -0.4622
18567TIP3   OH277115   4.445   4.474   4.885  0.2349 -0.2758  0.2111
18567TIP3    H177116   4.518   4.457   4.945  0.4505  2.9695  1.0262
18567TIP3    H277117   4.474   4.548   4.832 -1.4003 -0.7376 -1.4234
18568TIP3   OH277118   6.801   0.073  14.737  0.5602  0.0335 -0.3610
18568TIP3    H177119   6.768   0.051  14.824  1.0185 -0.7507 -0.3762
18568TIP3    H277120   6.893   0.095  14.752  0.9514 -1.2224 -0.7887
18569TIP3   OH277121   1.750   0.428   4.536  0.0354  0.3707  0.4252
18569TIP3    H177122   1.724   0.513   4.502  1.6995 -0.2953 -2.9244
18569TIP3    H277123   1.678   0.370   4.513  0.5408  0.2028 -0.8276
18570TIP3   OH277124   2.620   4.744   5.891 -0.0863 -0.0769 -0.0299
18570TIP3    H177125   2.529   4.715   5.897  0.2267 -1.2072 -0.4365
18570TIP3    H277126   2.668   4.684   5.949  0.3444  0.8206  0.5688
18571TIP3   OH277127   1.196   4.538  14.575 -0.1784  0.2238 -0.1167
18571TIP3    H177128   1.181   4.626  14.540 -2.0691  0.1273  0.3250
18571TIP3    H277129   1.109   4.509  14.602  0.8552 -0.5710  2.6131
18572TIP3   OH277130   0.555   0.424  15.009  0.0250 -0.3711  0.2177
18572TIP3    H177131   0.647   0.418  14.981 -0.0287  0.3094 -0.1467
18572TIP3    H277132   0.552   0.379  15.093  0.7175 -0.3124  0.2805
18573TIP3   OH277133   0.714   4.262   6.310 -0.4420  0.2617  0.0835
18573TIP3    H177134   0.748   4.172   6.316 -1.9371 -0.4554 -1.3568
18573TIP3    H277135   0.662   4.273   6.390  1.9288  0.9140  1.6610
18574TIP3   OH277136   6.802   2.279  15.952 -0.2315  0.3390  0.4042
18574TIP3    H177137   6.784   2.327  15.871 -0.4177  0.2035  0.3653
18574TIP3    H277138   6.760   2.330  16.020 -2.2504 -0.8429  0.1193
18575TIP3   OH277139   0.925   5.028  16.514  0.0583  0.1947 -0.7584
18575TIP3    H177140   0.874   4.978  16.450 -1.0309  0.4974 -0.1582
18575TIP3    H277141   0.861   5.057  16.578  1.2249 -0.6288  0.8397
18576TIP3   OH277142   6.664   1.952   2.932  0.5016 -0.6205  0.2302
18576TIP3    H177143   6.573   1.925   2.938 -0.1739  1.3487 -0.3758
18576TIP3    H277144   6.693   1.919   2.847 -0.5277  1.0284 -0.8253
18577TIP3   OH277145   5.278   5.120  11.631 -0.2651 -0.2229 -0.2207
18577TIP3    H177146   5.271   5.027  11.610 -0.5247  0.0308 -1.3081
18577TIP3    H277147   5.372   5.138  11.631 -0.1742 -0.6327  0.7265
18578TIP3   OH277148   2.630   4.600  17.039 -0.7230  0.6259 -0.0378
18578TIP3    H177149   2.623   4.555  17.123  0.0039  0.8970  0.1702
18578TIP3    H277150   2.675   4.682  17.058 -1.7154  1.2955 -0.4805
18579TIP3   OH277151   4.312   0.580   0.876  0.1256 -0.0992  0.2377
18579TIP3    H177152   4.384   0.628   0.916  0.4019 -1.3387  1.2698
18579TIP3    H277153   4.302   0.502   0.929  0.6941 -2.0070 -2.2476
18580TIP3   OH277154   1.024   5.610   6.218 -0.8057  0.0474 -0.4478
18580TIP3    H177155   0.934   5.594   6.247 -0.7180  1.6488  0.8535
18580TIP3    H277156   1.030   5.705   6.207  0.7311 -0.0167 -0.4533
18581TIP3   OH277157   4.907   0.105   3.448  0.7679 -0.6268  1.1180
18581TIP3    H177158   4.834   0.110   3.386  1.4461  2.4273  0.3638
18581TIP3    H277159   4.976   0.060   3.400  0.2300 -1.2026  0.8773
18582TIP3   OH277160   3.479   5.502  11.100 -0.0644 -0.1623 -0.4071
18582TIP3    H177161   3.475   5.583  11.150  1.9756  0.0172 -0.4452
18582TIP3    H277162   3.572   5.493  11.076 -0.6203 -1.3291 -2.3461
18583TIP3   OH277163   2.439   0.574  12.696 -0.6671  0.0477  0.0669
18583TIP3    H177164   2.497   0.565  12.620  0.5683 -0.3656  1.0093
18583TIP3    H277165   2.360   0.614  12.662  1.0592  2.9123 -0.8860
18584TIP3   OH277166   5.984   2.044   1.809  0.4104 -0.0581  0.1585
18584TIP3    H177167   6.060   2.102   1.798 -0.9543  1.6956 -0.5919
18584TIP3    H277168   5.911   2.095   1.775 -1.2562 -1.3605  1.6283
18585TIP3   OH277169   6.085   3.111  17.078  0.0533 -0.0218  0.0732
18585TIP3    H177170   6.013   3.050  17.092  0.5829 -0.7040 -0.0873
18585TIP3    H277171   6.116   3.092  16.989  0.5258  0.1560  0.1940
18586TIP3   OH277172   1.838   5.688   2.864 -0.2874  0.3594  0.2103
18586TIP3    H177173   1.915   5.633   2.876 -0.7282 -0.3327 -0.0151
18586TIP3    H277174   1.858   5.740   2.786 -0.3317 -0.3654 -0.3086
18587TIP3   OH277175   0.639   1.173   2.937 -0.3601 -0.1190  0.3921
18587TIP3    H177176   0.733   1.171   2.919 -0.1184 -4.7314  1.0348
18587TIP3    H277177   0.598   1.174   2.851  0.3388 -0.6257  0.0465
18588TIP3   OH277178   2.116   1.028  17.057  0.0848  0.5869  0.3586
18588TIP3    H177179   2.199   0.990  17.028  0.4704  0.5539  1.4435
18588TIP3    H277180   2.127   1.122  17.045  0.2869  0.5823  0.4890
18589TIP3   OH277181   4.086   0.616   2.823 -0.3161 -0.2970 -0.0691
18589TIP3    H177182   4.114   0.689   2.877 -2.6667  2.4970 -2.2649
18589TIP3    H277183   4.034   0.561   2.882 -1.0451  1.4811  1.0228
18590TIP3   OH277184   1.858   2.874   6.639 -0.2245 -0.3651  0.5096
18590TIP3    H177185   1.799   2.900   6.568  0.1698  0.0561  0.3252
18590TIP3    H277186   1.811   2.898   6.719 -1.0656 -1.6986  0.4292
18591TIP3   OH277187   0.581   4.518   2.012 -0.2892  0.0861 -0.1985
18591TIP3    H177188   0.625   4.434   2.024 -0.4431  0.2023  1.3383
18591TIP3    H277189   0.565   4.523   1.917 -0.4807 -1.7037 -0.2998
18592TIP3   OH277190   2.075   1.812   4.471 -0.2167  0.3162 -0.1888
18592TIP3    H177191   2.156   1.760   4.473  0.9338  2.0171 -0.3835
18592TIP3    H277192   2.062   1.839   4.562 -1.8752 -1.7807  0.2740
18593TIP3   OH277193   1.185   3.149   5.094 -0.3318  0.6450 -0.0979
18593TIP3    H177194   1.247   3.203   5.045  0.8435 -0.0367  0.5911
18593TIP3    H277195   1.189   3.184   5.183  1.8205 -1.6092  0.8214
18594TIP3   OH277196   5.996   1.220   4.394  0.0714 -0.3230 -0.4018
18594TIP3    H177197   5.934   1.197   4.326  0.1599 -0.3083 -0.4875
18594TIP3    H277198   5.942   1.256   4.465  0.1149  1.4648 -1.2090
18595TIP3   OH277199   6.017   0.583   3.445  0.4946  0.0131  0.0165
18595TIP3    H177200   5.939   0.637   3.458  0.1822 -0.3978 -0.1305
18595TIP3    H277201   6.004   0.543   3.359  0.8579 -0.0739  0.0038
18596TIP3   OH277202   1.409   6.235  12.124  0.2390 -0.0316  0.0095
18596TIP3    H177203   1.449   6.317  12.156 -2.5821  1.0918  0.9908
18596TIP3    H277204   1.441   6.168  12.185 -0.3058  1.0482  1.5664
18597TIP3   OH277205   1.339   1.135   5.222  0.3205  0.3892 -0.4277
18597TIP3    H177206   1.260   1.088   5.247  0.1011  0.7117 -0.5107
18597TIP3    H277207   1.376   1.166   5.305  0.1173  0.6234 -0.4230
18598TIP3   OH277208   2.370   5.005  13.460  0.1809  0.1480  0.1152
18598TIP3    H177209   2.430   5.077  13.479  1.3545 -0.5248 -0.8905
18598TIP3    H277210   2.385   4.942  13.529 -0.2855  0.5168  0.5607
18599TIP3   OH277211   4.488   3.371   1.922  0.2936 -0.4076  0.4252
18599TIP3    H177212   4.421   3.307   1.895  1.1412 -0.9298 -0.5085
18599TIP3    H277213   4.471   3.448   1.868 -0.2084 -0.1413  0.9534
18600TIP3   OH277214   5.411   1.967   4.463 -0.5769 -0.7155  0.4516
18600TIP3    H177215   5.344   1.908   4.427 -0.2319  0.4675 -2.3807
18600TIP3    H277216   5.387   2.054   4.430  0.5793  0.2888  2.0776
18601TIP3   OH277217   5.835   0.956   3.293 -0.4149  0.1223  0.0415
18601TIP3    H177218   5.928   0.976   3.304 -0.2876 -0.1162 -0.5596
18601TIP3    H277219   5.808   1.008   3.217 -0.6111 -0.2956 -0.1777
18602TIP3   OH277220   4.742   6.258  17.018 -0.2727 -0.4245  0.1008
18602TIP3    H177221   4.828   6.253  16.978 -0.0608 -1.0189  0.6145
18602TIP3    H277222   4.726   6.170  17.052 -1.7203 -0.7417 -1.2684
18603TIP3   OH277223   4.701   4.776   0.404 -0.2329 -0.1349 -0.5690
18603TIP3    H177224   4.722   4.869   0.398  0.3714 -0.2869 -0.8340
18603TIP3    H277225   4.709   4.743   0.314 -2.5773 -0.0018 -0.8854
18604TIP3   OH277226   6.182   4.652  14.116 -0.2486 -0.0602  0.2917
18604TIP3    H177227   6.113   4.586  14.114 -0.9118  0.6391  0.1476
18604TIP3    H277228   6.183   4.689  14.028  0.7259 -0.4818  0.1089
18605TIP3   OH277229   5.630   6.602  14.297 -0.2706 -0.4207  0.1315
18605TIP3    H177230   5.635   6.512  14.330  0.1798 -1.1012 -1.7014
18605TIP3    H277231   5.564   6.643  14.352  1.9397 -0.7930  3.3666
18606TIP3   OH277232   3.579   1.207  12.810  0.2913  0.0408  0.1308
18606TIP3    H177233   3.542   1.222  12.897 -0.1506 -3.3631  0.6770
18606TIP3    H277234   3.671   1.232  12.819 -0.1494  1.4540  0.9930
18607TIP3   OH277235   3.018   0.378  16.335  0.3359 -0.1949  0.1921
18607TIP3    H177236   2.988   0.465  16.363 -1.1799 -0.3390 -0.8637
18607TIP3    H277237   2.957   0.317  16.377  0.1813 -0.6088 -0.6170
18608TIP3   OH277238   0.683   3.115  14.344 -0.5569  0.5543  0.5209
18608TIP3    H177239   0.675   3.190  14.402  2.4558  1.3907  0.0286
18608TIP3    H277240   0.726   3.149  14.266 -1.3286 -1.2325 -0.7582
18609TIP3   OH277241   4.286   6.715  16.026  0.4282  0.0436  0.3351
18609TIP3    H177242   4.233   6.793  16.008  0.0598 -0.3932 -0.5069
18609TIP3    H277243   4.315   6.684  15.940  0.7421 -0.6334  0.6712
18610TIP3   OH277244   4.136   4.841   4.465 -0.0474 -0.9109  0.0679
18610TIP3    H177245   4.169   4.909   4.523 -1.9972 -0.4025  0.6497
18610TIP3    H277246   4.195   4.842   4.390  0.4737  0.8146  0.4770
18611TIP3   OH277247   2.933   4.283  14.471 -0.4508 -0.0055 -1.3880
18611TIP3    H177248   2.982   4.327  14.401 -0.2490  2.9160  0.4444
18611TIP3    H277249   2.851   4.331  14.477  0.3655  1.2619  1.6610
18612TIP3   OH277250   3.755   5.269   4.254  0.3934  0.0676 -0.3592
18612TIP3    H177251   3.795   5.183   4.239 -1.4283 -0.6110 -1.6174
18612TIP3    H277252   3.661   5.253   4.247  0.0269  2.2373 -1.0155
18613TIP3   OH277253   3.834   5.948   4.836  0.3877 -0.1522 -0.1231
18613TIP3    H177254   3.922   5.917   4.816  0.7702 -0.4354  1.8291
18613TIP3    H277255   3.807   5.898   4.913 -1.1378  0.5510 -0.1566
18614TIP3   OH277256   3.816   3.934   3.506  0.4483  0.6796  0.2760
18614TIP3    H177257   3.791   3.845   3.532  1.5439  0.3829  0.3671
18614TIP3    H277258   3.876   3.963   3.574  1.6600  0.7150 -0.7679
18615TIP3   OH277259   1.635   3.747  13.851 -0.0891 -0.2791 -0.2569
18615TIP3    H177260   1.571   3.769  13.782  0.6892 -0.7707 -1.1588
18615TIP3    H277261   1.713   3.796  13.826  0.5495 -1.3191 -0.3406
18616TIP3   OH277262   4.511   3.628   0.767 -0.0600 -0.1087  0.6414
18616TIP3    H177263   4.430   3.615   0.817 -1.0448  1.1262 -0.5502
18616TIP3    H277264   4.538   3.539   0.743 -1.8136 -0.5055 -0.0547
18617TIP3   OH277265   1.703   0.633  10.323  0.2981 -0.2400  0.8582
18617TIP3    H177266   1.706   0.577  10.400 -0.8747 -0.6309  0.6385
18617TIP3    H277267   1.610   0.646  10.306  0.4798 -1.2580 -1.2838
18618TIP3   OH277268   5.318   2.044   2.334 -0.2361  0.2503 -0.2415
18618TIP3    H177269   5.389   2.098   2.300 -0.4169  1.0799  0.6563
18618TIP3    H277270   5.341   1.954   2.308  0.8336  0.5759 -0.4573
18619TIP3   OH277271   2.739   0.323   5.507  0.3177  0.0026  0.6647
18619TIP3    H177272   2.793   0.285   5.438 -0.3724 -1.2342  0.7729
18619TIP3    H277273   2.796   0.388   5.549  1.4626 -0.7144  0.2750
18620TIP3   OH277274   4.999   0.648  16.825 -0.0922 -0.6322  0.8006
18620TIP3    H177275   4.946   0.727  16.815  1.6628  0.5446  0.2451
18620TIP3    H277276   5.028   0.649  16.916  1.4477  0.4537  0.3503
18621TIP3   OH277277   2.741   2.687  11.717 -0.2129 -0.1629  0.4009
18621TIP3    H177278   2.665   2.665  11.663 -1.2472 -0.2440  1.8071
18621TIP3    H277279   2.722   2.775  11.751  1.1503  0.5388 -0.5784
18622TIP3   OH277280   3.553   6.559   5.270 -0.1782  0.4353 -0.1091
18622TIP3    H177281   3.566   6.524   5.182  0.0182 -1.0627  0.4838
18622TIP3    H277282   3.612   6.507   5.325  0.7452  2.2651  0.7238
18623TIP3   OH277283   1.891   3.580  11.844 -0.1312  0.6965  0.0138
18623TIP3    H177284   1.845   3.651  11.799 -0.4594  0.0775 -0.6230
18623TIP3    H277285   1.925   3.525  11.774  0.4631  0.4340  0.5032
18624TIP3   OH277286   4.521   3.887  11.505 -0.3238  0.2426 -0.1683
18624TIP3    H177287   4.592   3.929  11.554 -1.0270  1.9127 -0.5205
18624TIP3    H277288   4.446   3.947  11.515 -0.4460  0.8053 -3.4279
18625TIP3   OH277289   6.169   3.430   3.546  0.5184 -0.0906  0.0503
18625TIP3    H177290   6.149   3.494   3.477  1.6624  0.5518  0.2918
18625TIP3    H277291   6.141   3.473   3.627  0.1826 -0.3968  0.0999
18626TIP3   OH277292   4.449   6.059   4.216 -0.1675  1.0938  0.1602
18626TIP3    H177293   4.527   6.098   4.177  0.2135  0.3569  0.1693
18626TIP3    H277294   4.418   6.124   4.279  0.5411  1.3139  0.2832
18627TIP3   OH277295   6.386   5.874   5.223 -0.1415  0.1059  0.1117
18627TIP3    H177296   6.350   5.829   5.146 -0.6269  0.3960  0.1626
18627TIP3    H277297   6.316   5.870   5.288  0.1436  0.1552  0.4225
18628TIP3   OH277298   1.400   5.845   4.776  0.1379  0.2051 -0.4978
18628TIP3    H177299   1.341   5.812   4.709  2.0288 -2.3328 -1.0756
18628TIP3    H277300   1.487   5.817   4.747  1.1085 -0.4380  2.6677
18629TIP3   OH277301   5.798   1.695  10.436  0.1103 -0.1267  0.4524
18629TIP3    H177302   5.733   1.762  10.459 -0.8412 -0.9523  0.2586
18629TIP3    H277303   5.835   1.725  10.353  2.1390  1.8525  1.9703
18630TIP3   OH277304   6.689   1.762  14.982  0.2368 -0.2665 -0.0376
18630TIP3    H177305   6.779   1.737  14.961  0.3101 -0.9686  1.0401
18630TIP3    H277306   6.689   1.776  15.077 -0.9507 -1.0510  0.1051
18631TIP3   OH277307   5.159   5.003   4.733  0.9789 -0.5319 -0.3782
18631TIP3    H177308   5.088   4.945   4.759  1.6809 -0.0650  2.9637
18631TIP3    H277309   5.238   4.949   4.741  1.4891  0.4096  1.3651
18632TIP3   OH277310   4.815   0.443  14.087 -0.4727  0.2552 -0.1788
18632TIP3    H177311   4.886   0.472  14.144  0.1774 -1.2849 -0.1650
18632TIP3    H277312   4.786   0.360  14.124 -0.3281 -0.5714 -1.8126
18633TIP3   OH277313   2.112   4.918  14.156  0.1575 -0.0227  0.4579
18633TIP3    H177314   2.072   4.834  14.178 -0.5602  0.0600 -0.4325
18633TIP3    H277315   2.037   4.977  14.142  0.6491  0.8055  1.1945
18634TIP3   OH277316   4.049   0.084  13.005 -0.1154 -0.0975  0.1951
18634TIP3    H177317   4.055   0.051  12.916 -0.9999  1.7898 -0.6177
18634TIP3    H277318   3.978   0.148  13.003 -0.7843 -0.6497  2.4835
18635TIP3   OH277319   5.586   1.491  11.939  0.1078 -0.0556  0.5739
18635TIP3    H177320   5.510   1.467  11.886 -1.1682 -0.5395  2.5245
18635TIP3    H277321   5.585   1.587  11.940  0.7595  0.0060 -1.0360
18636TIP3   OH277322   6.686   0.340  17.016 -0.9562  0.3321  0.3000
18636TIP3    H177323   6.690   0.329  16.921 -0.8334  0.4122  0.2943
18636TIP3    H277324   6.598   0.373  17.033 -0.4748  1.7898  0.0557
18637TIP3   OH277325   6.577   2.677  15.523 -0.1994 -0.3041  0.2363
18637TIP3    H177326   6.501   2.732  15.543  0.2264 -0.1904  1.7010
18637TIP3    H277327   6.645   2.739  15.495 -0.7281 -0.4387 -1.4020
18638TIP3   OH277328   5.360   0.612  16.906 -0.3517 -0.0081 -0.1075
18638TIP3    H177329   5.329   0.655  16.986 -0.7135 -1.7272  0.7234
18638TIP3    H277330   5.455   0.619  16.910 -0.3730  0.0164  0.4246
18639TIP3   OH277331   5.109   2.085   5.571 -0.6387 -0.5223 -0.2135
18639TIP3    H177332   5.127   2.025   5.643 -0.5883  0.3678  0.5316
18639TIP3    H277333   5.179   2.150   5.576  0.1563 -1.1866 -1.9205
18640TIP3   OH277334   0.966   5.388  13.973 -0.6422 -0.2294  0.3680
18640TIP3    H177335   0.871   5.389  13.961 -0.7951 -2.3286  0.9837
18640TIP3    H277336   0.990   5.296  13.964  1.6976  0.4805 -2.1139
18641TIP3   OH277337   5.537   5.630  14.420 -0.6089 -0.0864  0.8083
18641TIP3    H177338   5.593   5.682  14.362 -1.4941  0.0209  0.0305
18641TIP3    H277339   5.597   5.589  14.481  0.2786  0.3676  0.2561
18642TIP3   OH277340   3.674   4.969   1.342  0.4492  0.3349 -0.1388
18642TIP3    H177341   3.712   4.927   1.418 -1.7848 -1.0256  0.3289
18642TIP3    H277342   3.626   5.044   1.377 -0.6617 -0.3486 -0.1396
18643TIP3   OH277343   1.961   3.285   1.452  0.2166  0.1074  0.2925
18643TIP3    H177344   1.898   3.286   1.524  1.3140  0.0086  1.2746
18643TIP3    H277345   1.908   3.265   1.375 -0.5087 -3.7685  1.5630
18644TIP3   OH277346   2.675   0.709  11.346  0.0119  0.0180 -0.4317
18644TIP3    H177347   2.615   0.699  11.273  0.4381 -1.0499 -0.6507
18644TIP3    H277348   2.731   0.631  11.343  1.1330  0.7674  0.0198
18645TIP3   OH277349   0.974   6.587   0.560  0.5315 -0.4054 -0.0416
18645TIP3    H177350   1.034   6.630   0.499  1.5254 -0.0591  1.1345
18645TIP3    H277351   0.897   6.565   0.507  2.2189 -2.1381 -1.9633
18646TIP3   OH277352   6.756   4.652  14.671  0.1159  0.2573 -0.0891
18646TIP3    H177353   6.726   4.672  14.582  0.2727  1.8853  0.1855
18646TIP3    H277354   6.741   4.733  14.720 -2.7022 -1.4029  2.1512
18647TIP3   OH277355   6.500   3.332   3.052  0.3857 -0.1331  0.3754
18647TIP3    H177356   6.500   3.369   2.964 -2.0765  2.8956  1.4754
18647TIP3    H277357   6.450   3.251   3.044  0.7701 -0.2517 -1.0916
18648TIP3   OH277358   4.055   3.490   2.371  0.1814 -0.0865 -0.5143
18648TIP3    H177359   4.021   3.494   2.282 -0.8281 -0.0328 -0.1365
18648TIP3    H277360   4.101   3.406   2.376  0.5216  0.0553 -1.1758
18649TIP3   OH277361   2.430   3.875   6.146  0.0651 -0.0809  0.0797
18649TIP3    H177362   2.452   3.875   6.239 -1.1483 -0.8698  0.3874
18649TIP3    H277363   2.343   3.836   6.142  1.0104 -2.2034 -1.5940
18650TIP3   OH277364   2.147   4.624   6.412 -0.2303 -0.6779  0.3197
18650TIP3    H177365   2.178   4.622   6.321 -0.8504 -0.2383  0.0894
18650TIP3    H277366   2.187   4.547   6.452 -0.1550 -1.0256 -0.3968
18651TIP3   OH277367   1.216   4.882   5.386  0.1452 -0.0112  0.2389
18651TIP3    H177368   1.266   4.929   5.453  0.6724  1.4905 -1.1364
18651TIP3    H277369   1.241   4.791   5.396 -0.2267  0.0775  2.4275
18652TIP3   OH277370   5.664   4.047  14.817  0.0939  0.0219 -0.2551
18652TIP3    H177371   5.676   3.959  14.781 -1.1856 -0.6527  0.8717
18652TIP3    H277372   5.683   4.037  14.911  1.0429  1.2121 -0.3053
18653TIP3   OH277373   6.390   1.825  13.244  0.2143 -0.0702  0.8416
18653TIP3    H177374   6.375   1.898  13.304  0.4759  0.7940 -0.1364
18653TIP3    H277375   6.304   1.785  13.233 -0.3354  1.3297 -0.1892
18654TIP3   OH277376   2.595   3.014   1.373  0.1844  0.3085  0.0902
18654TIP3    H177377   2.542   3.006   1.293 -0.5036  1.9624  0.3259
18654TIP3    H277378   2.535   2.988   1.444  0.5530 -0.4216  0.1375
18655TIP3   OH277379   2.276   2.034   6.017 -0.6901 -0.2891  0.4546
18655TIP3    H177380   2.362   2.075   6.016 -1.5101  1.5242  0.5246
18655TIP3    H277381   2.289   1.952   6.065  0.7887  0.4191  1.3357
18656TIP3   OH277382   1.336   3.134  11.752  0.2962 -0.5662  0.2859
18656TIP3    H177383   1.271   3.102  11.690 -0.9441  2.3345 -0.0792
18656TIP3    H277384   1.300   3.113  11.838 -1.2074  0.9595  0.0825
18657TIP3   OH277385   1.899   2.128   0.634  0.4217  0.1486 -0.2861
18657TIP3    H177386   1.984   2.101   0.669  0.9499  0.5865 -1.2056
18657TIP3    H277387   1.850   2.158   0.711  0.6285 -1.2956  0.4283
18658TIP3   OH277388   2.442   6.792  14.394 -0.9654 -0.2179 -0.4046
18658TIP3    H177389   2.466   6.883  14.372 -1.4783  0.1869  0.6556
18658TIP3    H277390   2.386   6.764  14.322 -0.7727  0.2905 -0.7630
18659TIP3   OH277391   5.607   1.486  15.199  0.1108 -0.0604 -0.5597
18659TIP3    H177392   5.555   1.504  15.120 -1.2364  1.2044  0.5516
18659TIP3    H277393   5.606   1.391  15.206  0.3104 -0.2094 -2.0857
18660TIP3   OH277394   2.652   4.540   2.454 -0.2705 -0.0334 -0.8836
18660TIP3    H177395   2.715   4.513   2.387  0.6564  0.5388 -0.2633
18660TIP3    H277396   2.613   4.620   2.419 -0.8487 -0.5173 -1.3763
18661TIP3   OH277397   3.240   5.923  15.488 -0.4650  0.1633 -0.0662
18661TIP3    H177398   3.314   5.983  15.495 -1.7312  1.8186 -0.2905
18661TIP3    H277399   3.207   5.936  15.399 -2.3055  1.0447  0.7101
18662TIP3   OH277400   5.809   0.541  13.089  0.3034  0.4000 -0.1002
18662TIP3    H177401   5.841   0.620  13.046  1.0748 -0.1649 -0.6139
18662TIP3    H277402   5.889   0.493  13.113 -0.1209 -1.0512 -1.4010
18663TIP3   OH277403   0.125   3.994  15.068 -0.2476 -0.3090 -0.4951
18663TIP3    H177404   0.064   4.034  15.005 -1.1537  0.5040  0.8308
18663TIP3    H277405   0.123   3.901  15.047 -4.0099 -0.7790  1.0104
18664TIP3   OH277406   3.885   0.738  15.631 -0.3272 -0.0558 -0.0801
18664TIP3    H177407   3.948   0.779  15.692 -1.4193  0.3357  0.8184
18664TIP3    H277408   3.939   0.707  15.559  0.9347  0.0852  0.7667
18665TIP3   OH277409   2.486   6.397   1.502  0.1045  0.2118 -0.3107
18665TIP3    H177410   2.550   6.345   1.453  2.5114  2.4448  0.2328
18665TIP3    H277411   2.507   6.382   1.594 -1.1080 -0.0740 -0.0542
18666TIP3   OH277412   1.011   1.241  16.821  0.2861 -0.5393 -0.6455
18666TIP3    H177413   1.008   1.205  16.910 -0.4556  0.3426 -0.2950
18666TIP3    H277414   1.101   1.272  16.811  0.4588 -0.9183 -0.3285
18667TIP3   OH277415   2.621   5.657  12.786  0.5311  0.1906  0.2186
18667TIP3    H177416   2.611   5.639  12.692  0.9678  0.5058  0.1075
18667TIP3    H277417   2.632   5.571  12.826  0.4359  0.0597 -0.0344
18668TIP3   OH277418   1.454   0.083  15.521 -0.5341 -0.2871 -0.2895
18668TIP3    H177419   1.465   0.109  15.613 -1.8683  0.7924 -0.3967
18668TIP3    H277420   1.454   0.166  15.473  1.2813 -0.8883 -1.4469
18669TIP3   OH277421   4.557   0.442   3.834 -0.0340  0.1728  0.4252
18669TIP3    H177422   4.511   0.496   3.898 -2.5705  0.3974 -1.4557
18669TIP3    H277423   4.500   0.367   3.819 -1.7305  2.0394 -4.4251
18670TIP3   OH277424   0.100   5.020  16.231  0.0541  0.2625  0.0583
18670TIP3    H177425   0.095   4.925  16.218 -0.5343  0.1480  1.0141
18670TIP3    H277426   0.027   5.055  16.180 -0.6403  0.0545  0.8842
18671TIP3   OH277427   4.154   4.022  14.016 -0.4024 -0.4045 -0.4798
18671TIP3    H177428   4.199   3.952  13.969  0.2071  0.7222 -1.6023
18671TIP3    H277429   4.126   4.084  13.949 -0.7897  0.5286  0.5002
18672TIP3   OH277430   6.248   2.665  13.194 -0.0444  0.0417 -0.2543
18672TIP3    H177431   6.206   2.743  13.159 -1.0941 -0.8280 -0.9923
18672TIP3    H277432   6.333   2.696  13.226 -0.4121  1.4599 -0.5784
18673TIP3   OH277433   5.813   4.767   5.505 -0.0591 -0.2949  0.1849
18673TIP3    H177434   5.738   4.731   5.460 -0.1082 -2.1804  1.6494
18673TIP3    H277435   5.884   4.764   5.441 -0.8459  0.0516 -0.7166
18674TIP3   OH277436   0.882   2.113   0.324  0.0367 -0.2999  0.4732
18674TIP3    H177437   0.844   2.050   0.385  1.5672 -0.4223  1.3599
18674TIP3    H277438   0.881   2.069   0.239 -1.7586 -0.2782  0.4516
18675TIP3   OH277439   3.160   3.993  15.275  0.4223 -0.0539 -0.2190
18675TIP3    H177440   3.234   4.045  15.306 -0.5196  1.2491 -0.0753
18675TIP3    H277441   3.098   4.057  15.241 -0.7028 -1.1039 -0.2233
18676TIP3   OH277442   6.667   4.812   6.055 -0.0748 -0.0372 -0.5188
18676TIP3    H177443   6.679   4.816   6.150 -1.6120 -1.7251 -0.1857
18676TIP3    H277444   6.751   4.782   6.022  0.0379 -0.9018  0.4838
18677TIP3   OH277445   6.744   4.075   0.349  0.1497  0.5302 -0.3240
18677TIP3    H177446   6.792   4.026   0.417 -1.3279 -0.8091 -0.1851
18677TIP3    H277447   6.734   4.163   0.386  0.5343  0.1996  0.6164
18678TIP3   OH277448   1.551   2.646   1.391 -0.2919 -0.6287 -0.3544
18678TIP3    H177449   1.504   2.565   1.409  0.5944 -1.4201 -1.4397
18678TIP3    H277450   1.483   2.711   1.372 -1.0345 -0.9534  1.0667
18679TIP3   OH277451   0.550   6.677   2.457 -0.6246  0.3244 -0.2289
18679TIP3    H177452   0.559   6.769   2.432 -1.2740 -0.1072 -2.2317
18679TIP3    H277453   0.456   6.666   2.476 -0.7895 -0.2065 -1.3017
18680TIP3   OH277454   4.720   3.395   5.547 -0.2771 -0.1082  0.3273
18680TIP3    H177455   4.641   3.340   5.553 -1.2708  1.2662  0.3207
18680TIP3    H277456   4.769   3.375   5.627 -0.1383 -1.6789 -0.1234
18681TIP3   OH277457   3.498   1.262   2.832 -0.3594  0.0096  0.0277
18681TIP3    H177458   3.514   1.336   2.891 -3.1835  1.5672 -0.9600
18681TIP3    H277459   3.489   1.187   2.891 -0.9556  1.1259  1.4366
18682TIP3   OH277460   0.728   5.951  12.202 -0.2828 -0.8305  0.0466
18682TIP3    H177461   0.668   5.900  12.148 -0.6229  0.1737 -0.5588
18682TIP3    H277462   0.738   6.034  12.155  1.1605 -0.7692  0.4159
18683TIP3   OH277463   3.790   0.959  13.393 -0.5313 -0.1693 -0.5671
18683TIP3    H177464   3.760   0.890  13.334 -0.6112 -0.0635 -0.6513
18683TIP3    H277465   3.808   0.914  13.475 -2.4634  0.0017 -0.0037
18684TIP3   OH277466   2.715   2.140   2.762 -0.4123 -0.0005  0.4202
18684TIP3    H177467   2.777   2.086   2.713 -2.3217 -0.2100 -1.9158
18684TIP3    H277468   2.721   2.226   2.721 -0.7793  0.2940  0.9780
18685TIP3   OH277469   5.721   1.134  13.452 -0.4209 -0.5410  0.1129
18685TIP3    H177470   5.632   1.100  13.440 -0.3846 -0.2929 -1.0259
18685TIP3    H277471   5.777   1.068  13.413 -0.1593 -0.3680  0.1928
18686TIP3   OH277472   3.148   1.813   4.732 -0.5079 -0.1149 -0.6331
18686TIP3    H177473   3.125   1.904   4.750  0.5117  0.0603 -0.0991
18686TIP3    H277474   3.216   1.818   4.665  0.8860 -0.3482  0.7084
18687TIP3   OH277475   4.074   3.486  16.568  0.2322 -0.2489  0.7579
18687TIP3    H177476   4.119   3.522  16.492  1.6045  0.0582  1.6661
18687TIP3    H277477   4.061   3.393  16.546  0.0074 -0.0182 -0.1104
18688TIP3   OH277478   1.439   1.786  11.985 -0.2115  0.1644 -0.1314
18688TIP3    H177479   1.428   1.881  11.987 -0.6333  0.1169  0.0006
18688TIP3    H277480   1.491   1.769  11.907  0.8449  0.5942  0.4711
18689TIP3   OH277481   0.002   6.366   1.405  0.2141 -0.3938  0.0351
18689TIP3    H177482  -0.048   6.322   1.474  1.4135  0.2907  1.4133
18689TIP3    H277483   0.093   6.349   1.428  0.8098  3.4049  1.1965
18690TIP3   OH277484   4.606   6.606   1.236  0.0781  0.1944 -0.0210
18690TIP3    H177485   4.568   6.687   1.269  2.1738  1.4772 -0.5699
18690TIP3    H277486   4.695   6.630   1.208  0.0857 -1.8344 -2.0845
18691TIP3   OH277487   1.221   4.115  13.698  0.1716 -0.3660 -0.6196
18691TIP3    H177488   1.129   4.140  13.709  0.4929  0.4655  0.2437
18691TIP3    H277489   1.261   4.190  13.655  0.7831 -0.0314  0.4931
18692TIP3   OH277490   1.608   3.953   5.256 -0.3033 -0.1504  0.0162
18692TIP3    H177491   1.548   3.987   5.190  2.2946  1.6821 -1.5825
18692TIP3    H277492   1.586   4.002   5.336 -0.9224  0.4292 -0.4998
18693TIP3   OH277493   0.992   4.183   5.524 -0.3315 -0.0546  0.5009
18693TIP3    H177494   0.937   4.152   5.596 -1.7655 -1.7449 -1.2152
18693TIP3    H277495   0.956   4.269   5.502 -1.3036 -0.4620  0.4331
18694TIP3   OH277496   5.849   6.574  16.582 -0.6403 -0.6870  0.8300
18694TIP3    H177497   5.764   6.619  16.584 -0.8487 -0.8545 -1.3560
18694TIP3    H277498   5.909   6.634  16.625 -0.9478  1.7487 -1.8369
18695TIP3   OH277499   2.615   5.589  14.469  0.2884 -0.7138  0.4367
18695TIP3    H177500   2.640   5.545  14.550  3.0402 -0.5999 -0.2362
18695TIP3    H277501   2.651   5.534  14.399  2.3808  1.5939 -0.4767
18696TIP3   OH277502   3.748   5.292  15.925  0.2590 -0.1726  0.4501
18696TIP3    H177503   3.770   5.199  15.921  0.9892 -0.0552  1.3284
18696TIP3    H277504   3.817   5.335  15.875  1.3051  0.0801  2.0432
18697TIP3   OH277505   2.223   1.695   2.929 -0.0504  0.2508 -0.0005
18697TIP3    H177506   2.316   1.701   2.952 -0.1851 -2.1727  1.5385
18697TIP3    H277507   2.222   1.638   2.851 -0.2524 -0.2031  0.3284
18698TIP3   OH277508   2.076   4.823   2.669 -0.0516  0.3771  0.1306
18698TIP3    H177509   2.052   4.913   2.646 -0.3022 -0.2480 -2.3539
18698TIP3    H277510   2.004   4.770   2.636  0.7652 -0.8549  0.2754
18699TIP3   OH277511   1.568   4.124   5.945  0.3783  0.2155 -0.0517
18699TIP3    H177512   1.579   4.033   5.972  0.1759 -0.1600 -1.1912
18699TIP3    H277513   1.655   4.163   5.956  1.3829 -1.0209 -2.7496
18700TIP3   OH277514   0.427   6.694   3.948 -0.0988 -0.0122  0.2389
18700TIP3    H177515   0.336   6.702   3.918 -0.6875  0.0378  1.9428
18700TIP3    H277516   0.478   6.682   3.867 -1.9911 -3.9275 -0.6530
18701TIP3   OH277517   3.747   5.816  11.254 -0.2539  0.2492  0.1088
18701TIP3    H177518   3.652   5.809  11.249 -0.1949 -1.5382  0.9352
18701TIP3    H277519   3.779   5.770  11.176 -0.0425 -0.2005  0.4601
18702TIP3   OH277520   1.109   5.297   3.893 -0.1600 -0.5397  0.0399
18702TIP3    H177521   1.071   5.244   3.823 -1.7756 -0.5434  0.8699
18702TIP3    H277522   1.138   5.377   3.849 -1.4122 -0.4190 -0.6211
18703TIP3   OH277523   5.891   2.769  14.605 -0.1444 -0.2320 -0.0380
18703TIP3    H177524   5.832   2.843  14.588  1.7606  1.3897  0.0853
18703TIP3    H277525   5.929   2.788  14.691  1.4724 -0.5566 -0.6492
18704TIP3   OH277526   5.618   1.522  12.260  0.4250  0.2942  0.1067
18704TIP3    H177527   5.664   1.604  12.274  1.9546 -0.5325  0.1004
18704TIP3    H277528   5.614   1.513  12.165  1.0017 -0.0405  0.1133
18705TIP3   OH277529   5.617   2.171  13.398 -0.3489 -0.1069  0.0968
18705TIP3    H177530   5.609   2.211  13.312 -2.5299  0.2506  0.4139
18705TIP3    H277531   5.592   2.241  13.459  2.9858  0.2549  1.2251
18706TIP3   OH277532   1.307   4.847   0.870  0.0323  0.3997 -0.1249
18706TIP3    H177533   1.365   4.917   0.900  0.4952 -0.3682  0.8651
18706TIP3    H277534   1.296   4.791   0.947 -0.5008 -0.4957 -0.8280
18707TIP3   OH277535   5.279   2.005   3.990 -0.2020 -0.1598 -0.0792
18707TIP3    H177536   5.210   2.064   4.021 -0.1223 -0.4517  0.6887
18707TIP3    H277537   5.354   2.024   4.047  0.0618 -0.4685 -0.3237
18708TIP3   OH277538   4.334   4.856  16.376  0.3174 -0.1121  0.5859
18708TIP3    H177539   4.412   4.882  16.425  1.1757  0.2173 -0.8705
18708TIP3    H277540   4.314   4.931  16.321 -0.3654 -0.6059  0.1372
18709TIP3   OH277541   3.021   5.520   0.815 -0.2728  0.4920  0.0719
18709TIP3    H177542   3.082   5.499   0.886  0.5657 -0.9218 -1.0119
18709TIP3    H277543   3.073   5.510   0.735 -1.5765  0.5850 -0.8157
18710TIP3   OH277544   0.287   0.895  12.116  0.1037  0.5655 -0.4236
18710TIP3    H177545   0.244   0.903  12.201  1.8332  0.6470  0.4773
18710TIP3    H277546   0.216   0.906  12.052 -1.0235  1.7852  0.9763
18711TIP3   OH277547   1.503   2.741   4.731 -0.2431  0.3721 -0.0358
18711TIP3    H177548   1.463   2.768   4.814  0.8820  1.1945  0.2601
18711TIP3    H277549   1.582   2.794   4.725  1.2827 -1.8192 -0.1825
18712TIP3   OH277550   1.332   4.994   3.541 -0.3278 -0.2487 -0.1812
18712TIP3    H177551   1.301   4.920   3.593  0.1378 -1.2554 -1.2829
18712TIP3    H277552   1.331   5.068   3.601 -0.8852 -1.1297  0.9302
18713TIP3   OH277553   0.391   2.473  12.164  1.3283 -0.2307  0.0093
18713TIP3    H177554   0.443   2.393  12.160  1.8126  0.1150 -0.8209
18713TIP3    H277555   0.455   2.543  12.167  0.9593  0.1188  2.7480
18714TIP3   OH277556   2.795   3.222  13.947  0.0138 -0.1915 -0.2909
18714TIP3    H177557   2.776   3.196  13.856 -0.6367 -1.3290  0.1474
18714TIP3    H277558   2.890   3.211  13.955  0.2441  0.9562 -1.1259
18715TIP3   OH277559   2.701   2.887  12.772 -0.3772 -0.0378  0.0279
18715TIP3    H177560   2.683   2.794  12.787 -2.5393  0.0018 -1.7699
18715TIP3    H277561   2.770   2.888  12.706 -0.2505 -0.3602  0.1542
18716TIP3   OH277562   5.892   4.424  12.732  0.0153  0.1015 -0.2039
18716TIP3    H177563   5.812   4.476  12.740  0.2448  0.1940  2.1318
18716TIP3    H277564   5.959   4.488  12.709 -0.3678  0.2019 -1.0819
18717TIP3   OH277565   4.611   5.121   0.157  0.4337 -0.6549  0.1948
18717TIP3    H177566   4.546   5.149   0.221  0.8872  0.1423  0.3280
18717TIP3    H277567   4.653   5.203   0.129  0.3461 -1.0080 -1.0109
18718TIP3   OH277568   3.064   2.111  16.994 -0.0432 -0.6093  0.2356
18718TIP3    H177569   3.022   2.110  17.080  0.3962  0.1226  0.4678
18718TIP3    H277570   3.154   2.082  17.010  0.6732  1.5464  0.3946
18719TIP3   OH277571   3.055   6.275   3.980  0.0414  0.1292  0.2252
18719TIP3    H177572   3.043   6.321   4.063 -0.9962  1.3119 -0.5446
18719TIP3    H277573   3.099   6.338   3.923 -2.9741  0.9720 -1.4117
18720TIP3   OH277574   5.014   6.112   3.809 -0.5699 -0.0313  0.1555
18720TIP3    H177575   5.090   6.078   3.855 -0.6910  0.5917  0.8314
18720TIP3    H277576   5.050   6.173   3.744 -0.4799  0.1023  0.3307
18721TIP3   OH277577   6.774   1.956   0.231 -0.9388 -0.2309  0.5619
18721TIP3    H177578   6.695   2.009   0.244  1.1417  3.7370 -1.1688
18721TIP3    H277579   6.806   1.982   0.144  2.6829 -0.9852  1.5089
18722TIP3   OH277580   2.871   5.201   4.681 -0.4807  0.1584  0.0503
18722TIP3    H177581   2.809   5.239   4.619 -0.6424  0.3744  0.3388
18722TIP3    H277582   2.952   5.190   4.631 -0.5322  0.5665 -0.1281
18723TIP3   OH277583   4.621   5.782   0.484 -0.3001  0.5497  0.4772
18723TIP3    H177584   4.664   5.816   0.405  0.4430  1.0530  1.0763
18723TIP3    H277585   4.678   5.811   0.556  1.6742 -3.7630  0.9537
18724TIP3   OH277586   4.126   5.192   3.318  0.3502  0.7318  0.1880
18724TIP3    H177587   4.104   5.193   3.224 -0.5536 -1.2701  0.3360
18724TIP3    H277588   4.048   5.228   3.361  0.5522  1.1482  0.2074
18725TIP3   OH277589   6.261   0.351  12.278  0.5129 -0.0236  0.5042
18725TIP3    H177590   6.344   0.322  12.240  0.9680  1.1386  0.5459
18725TIP3    H277591   6.263   0.317  12.368  1.3543  0.6899  0.7791
18726TIP3   OH277592   1.733   1.253  15.794 -0.2000  0.0045 -0.2596
18726TIP3    H177593   1.700   1.336  15.830 -2.3441 -1.3355  1.0721
18726TIP3    H277594   1.690   1.244  15.709  0.6389  0.5837 -0.7625
18727TIP3   OH277595   6.308   2.797  16.907 -0.1470  0.2406 -0.4210
18727TIP3    H177596   6.272   2.868  16.855  0.2811  0.9697  0.2578
18727TIP3    H277597   6.237   2.773  16.967  0.3094  1.3788  0.6169
18728TIP3   OH277598   1.934   2.092  14.554  0.4229 -0.8462 -0.2297
18728TIP3    H177599   1.915   2.147  14.478  3.4483  0.3428 -0.2889
18728TIP3    H277600   1.945   2.004  14.517 -1.3380 -0.9363 -0.6191
18729TIP3   OH277601   3.398   6.090   2.683  0.6837  0.7290  0.5822
18729TIP3    H177602   3.363   6.178   2.692  1.5681  0.9765  1.9088
18729TIP3    H277603   3.387   6.050   2.769  0.9185 -0.2139  0.1912
18730TIP3   OH277604   3.619   6.631  16.571 -0.4694 -0.0821 -0.3630
18730TIP3    H177605   3.624   6.720  16.606  0.3923 -0.3921  0.3551
18730TIP3    H277606   3.703   6.618  16.526 -0.4509 -0.6350 -0.1820
18731TIP3   OH277607   4.559   0.846   1.855 -0.2570  0.4627 -0.6974
18731TIP3    H177608   4.489   0.800   1.900 -0.2226  0.1522 -0.9557
18731TIP3    H277609   4.639   0.811   1.893 -0.1949  2.8233  1.6509
18732TIP3   OH277610   4.742   2.746   3.766 -0.5966 -0.1324 -0.1687
18732TIP3    H177611   4.755   2.807   3.839 -0.1812  1.3126 -1.3975
18732TIP3    H277612   4.783   2.664   3.796  0.4902  0.7299  0.8161
18733TIP3   OH277613   0.113   6.073   5.533  0.2340 -0.0319  0.2895
18733TIP3    H177614   0.113   6.125   5.614 -1.6824  0.6913 -0.1262
18733TIP3    H277615   0.068   6.129   5.470 -0.6075 -1.6364 -0.5666
18734TIP3   OH277616   0.941   2.412   2.293  0.5561  0.2412  0.6215
18734TIP3    H177617   0.980   2.325   2.295 -1.4884 -0.7502 -0.2161
18734TIP3    H277618   0.847   2.397   2.280  0.2170  2.5784 -0.1803
18735TIP3   OH277619   4.031   1.818  11.194  0.0777 -0.0263 -0.1524
18735TIP3    H177620   4.060   1.887  11.254 -0.3113 -1.6117  2.0059
18735TIP3    H277621   3.937   1.831  11.186 -0.1944 -0.9229  1.2052
18736TIP3   OH277622   0.727   0.293   5.194  0.0751  0.2515 -0.4874
18736TIP3    H177623   0.747   0.204   5.221 -0.4679  0.2561 -0.0511
18736TIP3    H277624   0.679   0.283   5.112  0.2858  0.1538 -0.5976
18737TIP3   OH277625   5.883   3.291  15.661  0.2898  0.5715  0.1239
18737TIP3    H177626   5.966   3.289  15.710  0.3568 -0.3262 -0.0037
18737TIP3    H277627   5.847   3.203  15.674  0.6118  0.0876 -1.9590
18738TIP3   OH277628   4.855   2.684  16.655  0.4452  0.7461  0.1254
18738TIP3    H177629   4.810   2.605  16.627  1.6260 -0.5085  1.5473
18738TIP3    H277630   4.826   2.752  16.594  0.3083 -1.0310 -1.8835
18739TIP3   OH277631   4.152   1.148   2.352  0.4328 -0.0073  0.1521
18739TIP3    H177632   4.137   1.150   2.447 -0.0492 -1.2284  0.1067
18739TIP3    H277633   4.073   1.110   2.316  0.8677 -0.1146 -0.6974
18740TIP3   OH277634   5.023   5.002   0.812  0.0027  0.3596 -0.2057
18740TIP3    H177635   5.104   4.999   0.863 -1.1582 -0.0649  1.7245
18740TIP3    H277636   5.023   5.089   0.773  0.5662  1.0429  1.2404
18741TIP3   OH277637   5.096   2.423   4.384  0.5256 -0.6883 -0.2036
18741TIP3    H177638   5.059   2.365   4.451 -0.1904  0.2701  0.2574
18741TIP3    H277639   5.046   2.403   4.305 -2.5488  1.9438  0.8440
18742TIP3   OH277640   0.167   4.915   3.505 -0.1246  0.2717  0.3987
18742TIP3    H177641   0.118   4.882   3.581 -0.8780  2.3691  0.8992
18742TIP3    H277642   0.099   4.948   3.446  0.5506  0.4583 -0.2817
18743TIP3   OH277643   0.726   2.316  16.581 -0.1036  0.4607 -0.2515
18743TIP3    H177644   0.680   2.327  16.498  1.7188  1.6035 -1.1584
18743TIP3    H277645   0.819   2.315  16.558  0.4032 -0.9898  1.6077
18744TIP3   OH277646   3.304   1.845  12.472 -0.3087  0.5600 -0.4465
18744TIP3    H177647   3.314   1.908  12.543  0.6089 -0.3949  0.3073
18744TIP3    H277648   3.391   1.805  12.463 -0.5084  0.3959 -1.8478
18745TIP3   OH277649   3.248   4.051  13.374 -0.0507  0.0140 -0.1973
18745TIP3    H177650   3.229   3.960  13.349 -0.3369  0.5617 -2.1722
18745TIP3    H277651   3.252   4.049  13.469  5.1696 -3.1584 -0.0583
18746TIP3   OH277652   3.761   2.535  12.319 -0.2118 -0.2332 -0.2658
18746TIP3    H177653   3.814   2.569  12.390 -1.1471 -0.5864  0.6383
18746TIP3    H277654   3.790   2.444  12.310 -1.1987 -0.6897  0.8147
18747TIP3   OH277655   5.573   2.541   4.450  0.0597 -0.1626  0.6034
18747TIP3    H177656   5.586   2.466   4.508 -1.5146 -0.3971  0.6860
18747TIP3    H277657   5.542   2.611   4.508 -0.1672  0.0286  0.2524
18748TIP3   OH277658   4.406   3.910   4.116  0.3405  0.1868 -0.6297
18748TIP3    H177659   4.384   3.975   4.182 -0.0086 -0.4456 -0.1065
18748TIP3    H277660   4.445   3.960   4.044  0.2789  0.9369 -0.1490
18749TIP3   OH277661   3.241   6.167  15.081 -0.1144 -0.2887 -0.3608
18749TIP3    H177662   3.218   6.245  15.132 -0.1530 -1.4573  1.5372
18749TIP3    H277663   3.324   6.188  15.039  0.5090  0.3767  1.1243
18750TIP3   OH277664   5.407   5.634   5.287 -0.8547  0.1683 -0.2709
18750TIP3    H177665   5.334   5.694   5.304 -0.0390  1.6595 -1.7772
18750TIP3    H277666   5.371   5.567   5.229 -1.3788  0.0334  0.1965
18751TIP3   OH277667   0.534   2.014   3.968 -0.3947  0.2923  0.2492
18751TIP3    H177668   0.533   2.094   3.915  1.1372 -1.0012 -1.9119
18751TIP3    H277669   0.543   2.045   4.058 -1.4242  2.5684 -0.3424
18752TIP3   OH277670   5.028   3.886  16.994 -0.5342  0.5240 -0.2942
18752TIP3    H177671   5.076   3.969  17.002  2.0169 -0.8957 -0.0257
18752TIP3    H277672   5.082   3.822  17.040 -2.5932 -1.2744 -0.2357
18753TIP3   OH277673   4.941   4.660  16.243 -0.2336 -0.1860 -0.3178
18753TIP3    H177674   5.024   4.615  16.261 -0.2773 -0.9574 -1.8538
18753TIP3    H277675   4.966   4.752  16.234  0.0399 -0.0101  1.6774
18754TIP3   OH277676   4.614   2.513  15.746 -0.2031  0.7010 -0.3468
18754TIP3    H177677   4.559   2.491  15.821  1.5048 -0.3994  0.6588
18754TIP3    H277678   4.647   2.428  15.715  1.6442  1.3623 -0.3144
18755TIP3   OH277679   2.296   6.442   3.388 -0.3302  0.0830 -0.3829
18755TIP3    H177680   2.319   6.397   3.306  0.2110  0.0688 -0.2311
18755TIP3    H277681   2.214   6.487   3.369  0.1184  0.5985 -1.1379
18756TIP3   OH277682   5.570   3.879  13.651  0.5294  0.7800  0.3828
18756TIP3    H177683   5.616   3.899  13.733  1.8903 -0.4076 -0.0482
18756TIP3    H277684   5.586   3.786  13.636 -2.0266  0.3096  0.1511
18757TIP3   OH277685   2.690   5.426  11.870  0.0474  0.7895  0.0113
18757TIP3    H177686   2.656   5.352  11.921 -1.0736  1.3459  0.1050
18757TIP3    H277687   2.612   5.471  11.838  0.7129  0.8581 -1.6351
18758TIP3   OH277688   2.078   5.735   1.104 -0.2428 -0.5282  0.4501
18758TIP3    H177689   2.112   5.812   1.058  1.2327 -0.4201  1.6484
18758TIP3    H277690   1.983   5.743   1.095 -0.1774  1.8547  1.1733
18759TIP3   OH277691   1.354   4.860   2.183 -0.3416  0.3888 -0.0073
18759TIP3    H177692   1.379   4.787   2.126  0.3108  0.6398 -0.0528
18759TIP3    H277693   1.267   4.836   2.215 -0.2208 -0.3168 -0.1796
18760TIP3   OH277694   0.384   6.094   2.682  0.0522 -0.3063 -0.2863
18760TIP3    H177695   0.363   6.032   2.612 -0.5107 -1.4477  0.8579
18760TIP3    H277696   0.479   6.086   2.693  0.2566  0.4127 -1.3820
18761TIP3   OH277697   2.803   0.244   1.422 -0.1220 -0.6204 -0.6274
18761TIP3    H177698   2.727   0.236   1.364 -1.4489 -0.3610  0.9927
18761TIP3    H277699   2.817   0.156   1.456  1.2653 -0.9782 -2.0129
18762TIP3   OH277700   3.021   1.527  16.286  0.3775  0.5176 -0.4050
18762TIP3    H177701   2.977   1.446  16.313  1.4013 -0.0209 -0.2564
18762TIP3    H277702   3.061   1.560  16.367  0.4044  0.8811 -0.5652
18763TIP3   OH277703   3.467   3.042  12.577 -0.0183  1.0312 -0.1521
18763TIP3    H177704   3.543   2.995  12.544 -0.7593 -0.4810  0.2171
18763TIP3    H277705   3.402   3.034  12.508 -0.7656 -0.1036  0.6431
18764TIP3   OH277706   6.206   1.096  13.806  0.2264  0.9671 -0.4695
18764TIP3    H177707   6.299   1.117  13.796  0.9464 -1.7072 -0.2042
18764TIP3    H277708   6.194   1.015  13.755 -1.4772  0.1735  1.0901
18765TIP3   OH277709   6.014   0.512   0.178 -0.3029 -0.1448 -0.6479
18765TIP3    H177710   6.042   0.429   0.138  1.3290  0.0387  0.0454
18765TIP3    H277711   5.923   0.497   0.201 -0.2018 -1.5608 -1.0428
18766TIP3   OH277712   6.202   1.049   0.923  0.1442  0.1304  0.3032
18766TIP3    H177713   6.228   1.141   0.920  1.5986 -0.2171  1.2137
18766TIP3    H277714   6.255   1.011   0.993  0.6862 -1.7369 -1.0436
18767TIP3   OH277715   3.384   5.915  13.812  0.3786 -0.3447  0.1693
18767TIP3    H177716   3.309   5.974  13.817  0.1407 -0.4975 -1.0951
18767TIP3    H277717   3.387   5.871  13.897 -0.7397 -0.0686  0.3613
18768TIP3   OH277718   4.437   3.643   3.929 -0.3547  0.0506  1.1367
18768TIP3    H177719   4.451   3.705   4.000  0.0738  0.3001  0.8359
18768TIP3    H277720   4.525   3.615   3.904 -0.2879  1.9136 -1.0334
18769TIP3   OH277721   2.615   3.905  14.479 -0.2685 -0.2295 -0.0250
18769TIP3    H177722   2.597   3.856  14.559 -0.6436 -0.0386  0.0069
18769TIP3    H277723   2.578   3.992  14.494  0.8169  0.2362  0.1150
18770TIP3   OH277724   5.877   1.037  14.584 -0.6996  0.3357 -0.2939
18770TIP3    H177725   5.888   1.126  14.552  3.0979  0.4506  0.8063
18770TIP3    H277726   5.896   0.982  14.508 -2.4727  0.4022 -0.8248
18771TIP3   OH277727   0.221   0.843   2.399  0.6736  0.2722  0.0919
18771TIP3    H177728   0.281   0.907   2.361 -0.0032 -0.5030 -2.5097
18771TIP3    H277729   0.186   0.795   2.324 -1.7961 -0.5477  1.6147
18772TIP3   OH277730   4.282   5.272  14.215  0.3053 -0.0117 -0.2649
18772TIP3    H177731   4.246   5.356  14.184  1.1491  1.7953  3.1710
18772TIP3    H277732   4.362   5.296  14.261 -0.5975 -2.3337  2.8740
18773TIP3   OH277733   2.411   3.511   5.643 -0.0157 -0.0129 -0.3309
18773TIP3    H177734   2.409   3.591   5.694 -0.0405  0.2385 -0.7244
18773TIP3    H277735   2.499   3.507   5.606 -0.0952 -0.0341 -0.5212
18774TIP3   OH277736   6.187   0.267   5.363 -0.3948 -0.5279 -0.2140
18774TIP3    H177737   6.115   0.283   5.302  1.2000 -0.4913 -2.1916
18774TIP3    H277738   6.214   0.354   5.392  0.8799 -0.2491 -2.0325
18775TIP3   OH277739   0.928   3.441   3.986  0.0155 -0.3973 -0.2872
18775TIP3    H177740   0.955   3.522   3.941 -2.0336  0.7132  0.3743
18775TIP3    H277741   0.978   3.372   3.942  0.8721  1.0670 -1.7426
18776TIP3   OH277742   3.884   0.822   4.875  0.1569 -0.0091  0.2324
18776TIP3    H177743   3.859   0.770   4.799 -0.4736 -0.4209  0.7153
18776TIP3    H277744   3.821   0.894   4.877 -0.4089 -0.5083  0.8862
18777TIP3   OH277745   4.679   6.301   0.106  0.1547  0.5100 -0.2771
18777TIP3    H177746   4.705   6.215   0.074 -0.6972 -0.9341  2.5709
18777TIP3    H277747   4.717   6.363   0.044  3.3741 -1.7559 -0.7934
18778TIP3   OH277748   5.783   5.908   4.903  0.0310  0.4007 -0.1818
18778TIP3    H177749   5.689   5.906   4.920 -0.4865 -2.5243 -2.5277
18778TIP3    H277750   5.793   5.967   4.828  0.3076  1.7380  0.8707
18779TIP3   OH277751   0.460   3.052  13.694 -0.0765  0.0331 -0.4549
18779TIP3    H177752   0.387   3.110  13.716  1.3883  1.5323  0.7574
18779TIP3    H277753   0.470   3.062  13.599  1.2690  3.3903 -0.1244
18780TIP3   OH277754   2.512   1.420  12.640 -0.4121 -0.2076 -0.2738
18780TIP3    H177755   2.557   1.347  12.682 -1.9309 -0.3936  1.1296
18780TIP3    H277756   2.575   1.492  12.642  0.1515 -0.7109  0.7596
18781TIP3   OH277757   1.494   6.098   4.529  0.0126 -0.1360  0.2097
18781TIP3    H177758   1.494   6.124   4.621  0.2245  1.5959 -0.2311
18781TIP3    H277759   1.580   6.124   4.497 -0.5161  0.4890 -0.7640
18782TIP3   OH277760   2.400   6.594   5.993  0.4688 -0.7033 -0.2323
18782TIP3    H177761   2.312   6.580   6.028  0.2377 -0.1449 -0.5770
18782TIP3    H277762   2.455   6.608   6.070  0.4741 -2.1588  0.0537
18783TIP3   OH277763   0.681   6.290   3.614  0.8483  1.0170 -0.0596
18783TIP3    H177764   0.643   6.261   3.532  0.0929 -0.6584  0.8305
18783TIP3    H277765   0.611   6.338   3.658  1.1961  1.7601 -0.2901
18784TIP3   OH277766   6.458   5.552   5.645 -0.0028 -0.9166  0.0867
18784TIP3    H177767   6.389   5.493   5.673  0.5876 -1.1586  1.0726
18784TIP3    H277768   6.538   5.518   5.686  0.2895  0.8076  1.0746
18785TIP3   OH277769   5.028   1.738  16.589 -0.1767  0.0025 -0.4362
18785TIP3    H177770   4.954   1.679  16.574  0.4582 -1.0392  0.3350
18785TIP3    H277771   5.096   1.708  16.529 -0.3374  0.8888 -1.0682
18786TIP3   OH277772   6.195   5.206  13.556 -0.0481 -0.4626  0.2490
18786TIP3    H177773   6.217   5.224  13.648 -1.5998  0.6418  0.4301
18786TIP3    H277774   6.264   5.146  13.527 -1.0077 -3.1002  2.9360
18787TIP3   OH277775   6.303   0.277   0.310  0.1441  0.0709 -0.2736
18787TIP3    H177776   6.270   0.321   0.389 -1.5037 -0.3058 -0.7190
18787TIP3    H277777   6.338   0.194   0.342  1.7969  0.9654  0.3597
18788TIP3   OH277778   3.067   4.825   4.522  0.4408 -0.3561 -0.4324
18788TIP3    H177779   3.122   4.876   4.582 -0.4140 -0.0299  0.0983
18788TIP3    H277780   3.091   4.856   4.435  2.1509 -1.2831 -0.3232
18789TIP3   OH277781   5.630   5.368  14.439  0.1427  0.1700  0.2527
18789TIP3    H177782   5.651   5.312  14.364 -0.3211  0.1867  0.1060
18789TIP3    H277783   5.709   5.421  14.451  0.4754 -0.3020  0.2073
18790TIP3   OH277784   6.732   3.246  11.390  0.3800 -0.0291 -0.6195
18790TIP3    H177785   6.677   3.260  11.314 -2.6106  0.4302  1.4565
18790TIP3    H277786   6.733   3.151  11.403  0.3817 -0.0622 -0.8697
18791TIP3   OH277787   1.458   5.520  12.588  0.3613 -0.0341  0.2731
18791TIP3    H177788   1.417   5.467  12.520  1.4809 -0.1792 -0.3140
18791TIP3    H277789   1.520   5.576  12.541  1.1059 -0.0880  1.1580
18792TIP3   OH277790   1.243   1.685  15.712 -1.0928  0.1033 -0.0235
18792TIP3    H177791   1.187   1.711  15.639 -2.0212 -0.1396  0.5755
18792TIP3    H277792   1.332   1.701  15.682 -1.5383  3.1783 -0.0046
18793TIP3   OH277793   5.767   6.535  14.563 -0.0993 -0.4862 -0.9616
18793TIP3    H177794   5.694   6.570  14.615  0.6415  1.5724 -1.2336
18793TIP3    H277795   5.758   6.440  14.572 -2.0796 -0.2747  0.0160
18794TIP3   OH277796   0.942   3.380  14.357 -0.6423  0.2851 -0.1252
18794TIP3    H177797   0.848   3.363  14.350 -0.2586 -2.0902 -0.4937
18794TIP3    H277798   0.972   3.387  14.267 -0.3140  0.0591 -0.0340
18795TIP3   OH277799   1.622   0.667   4.171 -0.5141 -0.5275  0.5727
18795TIP3    H177800   1.554   0.609   4.138 -1.9374  0.7508  1.1238
18795TIP3    H277801   1.699   0.647   4.118 -1.5587 -1.3914 -0.6795
18796TIP3   OH277802   5.955   2.343   3.525  0.2093  0.5788 -0.1765
18796TIP3    H177803   5.886   2.392   3.481 -0.5954 -0.1053  0.2984
18796TIP3    H277804   5.920   2.326   3.613  0.6841 -0.4036 -0.1704
18797TIP3   OH277805   0.212   2.539  16.116  0.2862 -0.1266 -0.3053
18797TIP3    H177806   0.166   2.478  16.174 -0.7334  0.4248 -0.5135
18797TIP3    H277807   0.157   2.617  16.114  1.7066  0.9248  0.1604
18798TIP3   OH277808   0.690   1.144  12.664 -0.7166  0.3812  0.2725
18798TIP3    H177809   0.673   1.235  12.688 -1.3599  0.1899  0.5623
18798TIP3    H277810   0.669   1.140  12.570  0.0276  0.6987  0.0878
18799TIP3   OH277811   1.550   1.141  17.161  0.3957  0.3067  0.1070
18799TIP3    H177812   1.568   1.071  17.223  0.0050  0.5682  0.5167
18799TIP3    H277813   1.485   1.196  17.204  1.5891  1.6188  0.3164
18800TIP3   OH277814   4.421   6.121   0.697 -0.4454 -0.1636 -0.3291
18800TIP3    H177815   4.478   6.089   0.767 -0.0833  1.1458 -0.0063
18800TIP3    H277816   4.342   6.067   0.704 -0.9793  0.7917  1.9989
18801TIP3   OH277817   5.252   4.721  10.992 -0.3158  0.7096 -0.2543
18801TIP3    H177818   5.234   4.716  10.898  0.1689 -1.5456 -0.2881
18801TIP3    H277819   5.339   4.683  11.001 -0.2569  1.1354  1.0868
18802TIP3   OH277820   4.867   1.866  15.803 -0.0579 -0.2487 -0.1762
18802TIP3    H177821   4.853   1.932  15.734 -3.3056  0.3102  0.8088
18802TIP3    H277822   4.918   1.911  15.870 -1.2509  0.9762 -0.0328
18803TIP3   OH277823   3.319   5.370   4.200  0.8905 -0.1144 -0.7536
18803TIP3    H177824   3.353   5.447   4.245  0.1191  0.5895 -1.3312
18803TIP3    H277825   3.235   5.399   4.163  0.2404 -1.4449 -0.3769
18804TIP3   OH277826   3.165   1.116  15.410 -0.9927  0.2864 -0.2737
18804TIP3    H177827   3.076   1.090  15.385 -1.0331 -1.2393  1.1930
18804TIP3    H277828   3.159   1.129  15.505  0.4419 -0.3636 -0.0685
18805TIP3   OH277829   4.729   3.272  14.470 -0.2372  0.5098 -0.3334
18805TIP3    H177830   4.700   3.355  14.507 -1.3321  1.0991 -2.3621
18805TIP3    H277831   4.742   3.290  14.377  3.0041 -0.7210 -0.2520
18806TIP3   OH277832   5.509   2.117   2.899  0.1646  0.4563  0.6176
18806TIP3    H177833   5.488   2.024   2.892 -2.1652  1.0749 -2.6048
18806TIP3    H277834   5.437   2.155   2.950  0.2222  0.7381  0.4926
18807TIP3   OH277835   0.979   1.884  12.543 -0.0199  0.0092  0.2719
18807TIP3    H177836   0.961   1.813  12.482  0.3451  0.6038 -0.5624
18807TIP3    H277837   0.962   1.964  12.492  2.2615  0.5569  0.2525
18808TIP3   OH277838   1.771   5.613  15.068 -0.2488 -0.3731 -0.2629
18808TIP3    H177839   1.836   5.670  15.110 -1.9079  1.0207  0.5615
18808TIP3    H277840   1.774   5.637  14.976 -0.2273  0.3349 -0.0833
18809TIP3   OH277841   1.419   5.509   1.473 -0.2738  0.9381  0.2197
18809TIP3    H177842   1.351   5.491   1.408  0.5172  0.5962 -0.5406
18809TIP3    H277843   1.450   5.422   1.499  1.0526  1.1019 -0.7319
18810TIP3   OH277844   2.988   3.801   0.914  0.2185  0.8502  0.2835
18810TIP3    H177845   2.934   3.745   0.971  0.0041  0.7384 -0.0305
18810TIP3    H277846   2.982   3.888   0.955  0.0645  0.7715  0.4329
18811TIP3   OH277847   0.093   1.243   0.307 -0.0104  0.2493  0.0939
18811TIP3    H177848   0.041   1.313   0.345 -1.7424 -0.0428 -1.5630
18811TIP3    H277849   0.072   1.166   0.360  1.3558  0.7541  1.4724
18812TIP3   OH277850   1.634   2.057   2.345  0.4243 -0.0176  0.1353
18812TIP3    H177851   1.651   2.141   2.302 -0.2077 -1.6385 -3.6863
18812TIP3    H277852   1.719   2.029   2.378  0.7455  1.7818  0.9656
18813TIP3   OH277853   5.382   6.587   3.115  0.0665 -0.0057  0.3495
18813TIP3    H177854   5.391   6.500   3.074  0.1927  1.3186 -2.6958
18813TIP3    H277855   5.472   6.616   3.129  0.1925  0.9802 -1.9767
18814TIP3   OH277856   4.251   6.152   0.354  0.4540  0.0252 -0.2701
18814TIP3    H177857   4.316   6.192   0.411  1.8168 -2.1222 -0.2184
18814TIP3    H277858   4.173   6.142   0.409  1.5457 -1.4567  1.0927
18815TIP3   OH277859   2.531   6.249   5.250 -0.6505  0.6920  0.3223
18815TIP3    H177860   2.614   6.256   5.296 -0.9496  1.0162  0.8261
18815TIP3    H277861   2.474   6.313   5.293 -0.7371  1.5011 -0.9581
18816TIP3   OH277862   6.645   6.143   5.721 -0.1722 -0.0558 -0.0109
18816TIP3    H177863   6.644   6.223   5.774 -0.7459 -0.2285  0.2496
18816TIP3    H277864   6.688   6.078   5.778  1.0630  0.2684 -0.5411
18817TIP3   OH277865   4.106   6.592   0.333  0.1018 -0.5770 -0.0001
18817TIP3    H177866   4.128   6.659   0.398 -1.6505 -0.2002  0.2624
18817TIP3    H277867   4.067   6.521   0.383 -0.0109 -0.8759 -0.5009
18818TIP3   OH277868   4.284   2.678   3.918  0.6254 -0.0913  0.7622
18818TIP3    H177869   4.217   2.745   3.907  1.0397  0.3561  0.9343
18818TIP3    H277870   4.249   2.621   3.987  0.7711  0.5946  1.4197
18819TIP3   OH277871   2.215   2.052  13.547  0.2180  0.1413  0.0424
18819TIP3    H177872   2.209   1.992  13.473  1.5044 -0.2893  0.2676
18819TIP3    H277873   2.293   2.023  13.595 -0.8483  0.0866  1.8436
18820TIP3   OH277874   2.670   4.289   5.471 -0.4791 -0.0879 -0.1371
18820TIP3    H177875   2.743   4.234   5.443  0.8531  0.0868  2.6384
18820TIP3    H277876   2.703   4.379   5.461 -1.3457  0.1146 -1.3616
18821TIP3   OH277877   6.774   5.287  14.388 -0.2081  0.0518 -0.0111
18821TIP3    H177878   6.734   5.374  14.396  1.4682  0.7204  2.0588
18821TIP3    H277879   6.829   5.293  14.309  1.2240  1.5190  1.0259
18822TIP3   OH277880   0.816   5.102   3.411  0.6665  0.1865 -0.0820
18822TIP3    H177881   0.861   5.029   3.453 -0.7197 -0.1162  0.9495
18822TIP3    H277882   0.754   5.060   3.352  2.0206  0.6022 -1.9062
18823TIP3   OH277883   6.808   4.691  12.863 -0.4240 -0.2999 -0.4129
18823TIP3    H177884   6.899   4.673  12.837 -0.6452 -1.0275 -0.7079
18823TIP3    H277885   6.806   4.785  12.877  0.2661 -0.2068 -0.8599
18824TIP3   OH277886   0.254   5.307  11.867  0.1629  0.0669  0.0572
18824TIP3    H177887   0.261   5.266  11.953  0.3850 -1.9201 -0.8375
18824TIP3    H277888   0.321   5.375  11.867  0.7566 -0.4795  1.1687
18825TIP3   OH277889   2.575   5.749   0.329 -0.1257 -0.2357 -0.4482
18825TIP3    H177890   2.598   5.677   0.387 -0.6179 -0.0797 -0.0496
18825TIP3    H277891   2.479   5.755   0.336 -0.0054  1.1802  0.4049
18826TIP3   OH277892   3.636   6.211  11.425 -0.1555 -0.2723  0.3440
18826TIP3    H177893   3.676   6.125  11.440 -0.2643 -0.5864 -1.0525
18826TIP3    H277894   3.548   6.191  11.395  0.0995  0.2959 -0.8223
18827TIP3   OH277895   1.106   1.706   3.361 -0.1631 -0.4323  0.4301
18827TIP3    H177896   1.070   1.774   3.305 -0.1128  1.4890  2.5589
18827TIP3    H277897   1.191   1.741   3.389 -0.3227 -1.1364  1.9153
18828TIP3   OH277898   3.358   4.119  13.755 -0.3630  1.0384  0.3936
18828TIP3    H177899   3.411   4.097  13.831  0.8113  0.1741 -0.6514
18828TIP3    H277900   3.345   4.036  13.709 -1.1647  1.5186 -0.2901
18829TIP3   OH277901   0.097   5.933   0.606 -0.3922 -0.3063  0.6176
18829TIP3    H177902   0.049   5.950   0.525  1.5108  0.8782 -0.3317
18829TIP3    H277903   0.120   5.840   0.603  0.5226 -0.0545 -0.7181
18830TIP3   OH277904   3.628   3.740   5.123 -0.4944 -0.1255 -0.1329
18830TIP3    H177905   3.698   3.796   5.157  0.1705  0.9616 -3.0404
18830TIP3    H277906   3.651   3.652   5.153 -0.3348  0.7507  2.6201
18831TIP3   OH277907   2.393   3.577  16.903  0.2501 -0.4291  0.3017
18831TIP3    H177908   2.437   3.659  16.881 -1.6528  0.6056  0.1137
18831TIP3    H277909   2.413   3.563  16.996 -0.4176  0.9499  0.6807
18832TIP3   OH277910   4.795   5.173   1.693 -0.3049 -0.5822  0.2247
18832TIP3    H177911   4.846   5.253   1.702 -0.6130 -0.4530  0.8320
18832TIP3    H277912   4.790   5.158   1.599  0.0476 -0.0782  0.1237
18833TIP3   OH277913   0.077   6.026   0.856 -0.2503 -0.0956  0.1301
18833TIP3    H177914  -0.014   6.000   0.874 -0.2752 -0.1017 -0.0076
18833TIP3    H277915   0.099   5.980   0.775 -0.5248  0.8672 -0.5029
18834TIP3   OH277916   1.486   6.172  13.697  0.4048 -0.2471  0.1046
18834TIP3    H177917   1.466   6.092  13.648  1.9918  0.0750 -1.1578
18834TIP3    H277918   1.496   6.239  13.629 -0.1660  0.8721  1.0938
18835TIP3   OH277919   4.519   2.845  16.646 -0.3251  0.1447  0.4858
18835TIP3    H177920   4.511   2.756  16.679  0.3954  0.4122  1.4374
18835TIP3    H277921   4.584   2.840  16.576 -2.8856 -0.6816 -2.0116
18836TIP3   OH277922   5.878   1.128  13.916  0.3428  0.3922  0.7759
18836TIP3    H177923   5.957   1.150  13.965  0.2192  1.3413  0.5680
18836TIP3    H277924   5.810   1.122  13.983  0.3716  0.7048  0.8357
18837TIP3   OH277925   3.868   5.113   6.280  0.3932 -0.5446 -0.1878
18837TIP3    H177926   3.880   5.053   6.207  0.5280  0.6048 -1.1489
18837TIP3    H277927   3.939   5.176   6.272 -1.0618  1.1272 -0.6498
18838TIP3   OH277928   6.645   2.038   4.403  0.4907  0.2437  0.2813
18838TIP3    H177929   6.676   1.981   4.333  0.8595 -0.3130  0.8895
18838TIP3    H277930   6.695   2.119   4.391  1.4264 -0.2783  0.6236
18839TIP3   OH277931   4.876   1.753  11.475  0.3088  0.3458 -0.4766
18839TIP3    H177932   4.835   1.771  11.560  0.4824 -1.4287  0.0167
18839TIP3    H277933   4.950   1.813  11.472  0.9714 -0.3267  1.1569
18840TIP3   OH277934   4.576   2.723   1.356 -0.1870  0.4253 -0.0980
18840TIP3    H177935   4.535   2.709   1.271 -0.6291  3.1699 -0.4292
18840TIP3    H277936   4.663   2.759   1.336  0.1680 -0.0096  0.6128
18841TIP3   OH277937   4.404   3.551  14.260 -0.4197  0.0620 -0.0273
18841TIP3    H177938   4.468   3.551  14.330 -1.8358  0.0668  1.3269
18841TIP3    H277939   4.413   3.638  14.220  1.8038 -0.6704 -1.2622
18842TIP3   OH277940   3.063   2.840   4.569  0.2439  0.0898  0.3575
18842TIP3    H177941   3.124   2.845   4.643  2.2174  1.4512 -1.2532
18842TIP3    H277942   3.005   2.915   4.580  0.4658  0.2311  0.5724
18843TIP3   OH277943   0.478   1.529   4.266 -0.1179 -0.0602 -0.1041
18843TIP3    H177944   0.466   1.592   4.195 -1.2589  0.5660  0.6206
18843TIP3    H277945   0.469   1.581   4.346 -2.4530 -1.3182  0.5419
18844TIP3   OH277946   5.786   6.660   3.789  0.4675  0.0038 -0.1488
18844TIP3    H177947   5.790   6.572   3.826 -3.0379  0.3541  1.4002
18844TIP3    H277948   5.821   6.717   3.858 -1.1008  0.1552  0.5539
18845TIP3   OH277949   4.626   1.344   1.455 -0.1788  0.2117  0.2266
18845TIP3    H177950   4.720   1.334   1.467 -0.3765 -0.0014  1.6695
18845TIP3    H277951   4.586   1.278   1.511 -1.2140  1.3520  0.9025
18846TIP3   OH277952   6.057   6.095  14.303 -0.0738  0.5112  0.5168
18846TIP3    H177953   5.998   6.126  14.371 -1.7086 -1.8235  0.3051
18846TIP3    H277954   6.099   6.017  14.342 -0.0011 -0.0519 -0.6446
18847TIP3   OH277955   1.583   5.244   0.565 -0.0529 -0.1469  0.3165
18847TIP3    H177956   1.544   5.159   0.547  0.5035 -0.2548 -0.4098
18847TIP3    H277957   1.550   5.267   0.652 -2.3121  0.1079 -0.5393
18848TIP3   OH277958   3.712   5.839  17.221  0.5129  0.7687  0.6253
18848TIP3    H177959   3.618   5.852  17.211  0.5132  0.6347  0.4384
18848TIP3    H277960   3.741   5.808  17.135  0.7807  1.1256  0.5877
18849TIP3   OH277961   2.845   0.018   3.811 -0.0471 -0.1018 -0.1453
18849TIP3    H177962   2.915  -0.046   3.800 -0.3297 -0.4441  0.0202
18849TIP3    H277963   2.830   0.051   3.722  1.8866  1.6860  0.1185
18850TIP3   OH277964   4.064   4.949   4.928  1.2153  0.0061  0.8409
18850TIP3    H177965   4.005   4.994   4.989 -0.2111  0.3011 -0.6834
18850TIP3    H277966   4.133   5.013   4.910  1.2455  0.1854  1.5417
18851TIP3   OH277967   3.146   1.245  16.489 -0.0213  0.1990  0.2202
18851TIP3    H177968   3.193   1.210  16.565 -0.7842 -0.0935  0.5598
18851TIP3    H277969   3.096   1.319  16.523 -0.2844  0.1341 -0.0201
18852TIP3   OH277970   5.645   2.899  13.590 -0.0858  0.0979 -0.2897
18852TIP3    H177971   5.726   2.901  13.641 -0.5514  0.0403  0.4589
18852TIP3    H277972   5.671   2.860  13.506  0.5339 -0.5381  0.1823
18853TIP3   OH277973   5.459   3.767   4.405 -0.2161 -0.3691  0.2617
18853TIP3    H177974   5.505   3.699   4.455 -1.5240 -1.6274 -0.1619
18853TIP3    H277975   5.413   3.819   4.471  0.6208 -0.0014  0.5747
18854TIP3   OH277976   6.246   1.739   1.450 -0.3637  0.2271  0.3152
18854TIP3    H177977   6.196   1.665   1.486  1.1297 -0.8216  0.3245
18854TIP3    H277978   6.259   1.716   1.358 -0.1559  0.6272  0.2455
18855TIP3   OH277979   3.226   2.112  11.435  0.1280  0.5041 -0.7994
18855TIP3    H177980   3.244   2.181  11.499  2.3447  0.5328 -1.3814
18855TIP3    H277981   3.262   2.033  11.474  0.8077  0.3803 -1.6385
18856TIP3   OH277982   3.875   1.629  17.202  0.4827 -0.6834 -0.5557
18856TIP3    H177983   3.911   1.655  17.287 -0.7605 -2.5626  0.6184
18856TIP3    H277984   3.904   1.539  17.189  1.4462 -0.1417 -2.6391
18857TIP3   OH277985   6.690   4.941  14.552  0.6908 -0.1690 -0.2577
18857TIP3    H177986   6.737   5.003  14.608 -0.7375 -1.1942  2.2183
18857TIP3    H277987   6.613   4.989  14.522  0.6377 -0.1351 -0.0629
18858TIP3   OH277988   1.051   0.143   1.935 -0.1488 -0.2550  0.3042
18858TIP3    H177989   0.981   0.123   1.873  1.5846  1.7490 -2.5357
18858TIP3    H277990   1.112   0.070   1.927 -0.1440 -0.2175  0.0102
18859TIP3   OH277991   0.330   3.952   5.526 -0.1617 -0.3700  0.2725
18859TIP3    H177992   0.383   3.969   5.448 -0.7632  1.7645  0.2718
18859TIP3    H277993   0.372   4.003   5.596 -0.0187 -1.7194  1.2105
18860TIP3   OH277994   1.996   1.147   0.057  0.2799 -0.2282 -0.3492
18860TIP3    H177995   1.932   1.091   0.100  1.0620 -0.1084  1.0437
18860TIP3    H277996   2.016   1.102  -0.025  0.4297 -1.6903  0.4426
18861TIP3   OH277997   3.154   4.013   3.579  0.1912  0.1780  0.5528
18861TIP3    H177998   3.194   4.036   3.495 -0.2099 -0.1913  0.2542
18861TIP3    H277999   3.085   4.078   3.591 -0.6929 -0.6160 -0.1066
18862TIP3   OH278000   4.871   6.278  11.686 -0.0294 -0.2987 -0.0460
18862TIP3    H178001   4.800   6.225  11.724  0.7936 -0.8558  0.7579
18862TIP3    H278002   4.827   6.333  11.621 -1.4671  0.5610  1.5726
18863TIP3   OH278003   4.217   2.284  15.110 -0.2676 -0.0232 -0.1174
18863TIP3    H178004   4.275   2.355  15.085  0.7502 -0.5191  0.7409
18863TIP3    H278005   4.260   2.205  15.077 -2.2132 -0.1854 -2.5675
18864TIP3   OH278006   3.536   0.415  15.222 -0.2418 -0.1173 -0.3002
18864TIP3    H178007   3.598   0.488  15.214 -0.4798  0.4117  2.0420
18864TIP3    H278008   3.559   0.372  15.304 -0.8043 -2.0618 -1.0989
18865TIP3   OH278009   6.754   3.665  12.518  0.2343 -0.2496 -0.1904
18865TIP3    H178010   6.847   3.667  12.538  0.0555 -0.3808  0.6978
18865TIP3    H278011   6.728   3.756  12.511  0.2379 -0.1876  0.5268
18866TIP3   OH278012   1.012   5.910  16.511  0.0314  0.1929 -0.1949
18866TIP3    H178013   1.066   5.923  16.589  0.3075 -0.7981 -0.2031
18866TIP3    H278014   1.074   5.881  16.443 -0.5337 -1.4840 -0.0579
18867TIP3   OH278015   1.044   2.833   3.432 -0.1864  0.6558  0.7627
18867TIP3    H178016   0.953   2.805   3.445  0.0927 -0.9954 -0.5381
18867TIP3    H278017   1.039   2.908   3.373 -0.6796  0.3550  0.4244
18868TIP3   OH278018   3.286   5.424  11.617  0.4667  0.0312 -0.5406
18868TIP3    H178019   3.285   5.379  11.532  0.9370 -0.9302 -0.0572
18868TIP3    H278020   3.340   5.368  11.673 -0.5961  0.1509  0.6584
18869TIP3   OH278021   1.325   1.131  14.923 -0.0433 -0.2178  0.3590
18869TIP3    H178022   1.287   1.163  15.005  1.4250 -3.5422  2.5553
18869TIP3    H278023   1.409   1.175  14.916  0.1019 -0.3814  1.0147
18870TIP3   OH278024   1.857   3.916  16.347  0.3197 -0.1978 -0.1892
18870TIP3    H178025   1.890   4.003  16.369 -0.2398 -0.4600  1.9061
18870TIP3    H278026   1.927   3.876  16.295  0.8386  1.2469 -0.6597
18871TIP3   OH278027   4.032   1.490  13.975  0.0800 -0.3020 -0.0021
18871TIP3    H178028   4.063   1.581  13.984  0.5859 -0.4879  0.1701
18871TIP3    H278029   4.032   1.474  13.881 -1.9741  0.5362 -0.2019
18872TIP3   OH278030   0.172   4.187   4.162  0.1904  0.2529  0.2723
18872TIP3    H178031   0.258   4.224   4.141 -0.5225  1.1408 -1.2234
18872TIP3    H278032   0.141   4.238   4.237 -0.0497  1.5860 -0.7034
18873TIP3   OH278033   0.090   0.584   0.445  0.0299  0.1167  0.2824
18873TIP3    H178034  -0.001   0.576   0.473  0.1667 -0.6573  0.5163
18873TIP3    H278035   0.141   0.550   0.518  0.4711 -0.1761 -0.1606
18874TIP3   OH278036   5.977   0.448   3.925  0.3887  0.0384  0.6113
18874TIP3    H178037   5.957   0.377   3.986  0.6361 -1.5714 -1.1091
18874TIP3    H278038   5.895   0.464   3.879  1.0506 -1.3250 -1.1495
18875TIP3   OH278039   0.412   4.701   4.091 -0.3017  0.8962 -0.6874
18875TIP3    H178040   0.397   4.659   4.176  0.0570 -1.1192 -1.5715
18875TIP3    H278041   0.505   4.726   4.093 -0.7094  2.5589  0.1685
18876TIP3   OH278042   1.267   5.897   1.478 -0.1536  0.1023  0.4666
18876TIP3    H178043   1.338   5.865   1.534  1.6084  1.1402 -1.0573
18876TIP3    H278044   1.266   5.992   1.492 -1.8108  0.0368  1.0437
18877TIP3   OH278045   6.289   6.656  15.351 -0.8361 -0.5617  1.0038
18877TIP3    H178046   6.286   6.731  15.411 -0.7259  0.8750 -0.6947
18877TIP3    H278047   6.320   6.584  15.405 -1.4621  0.4630  2.8536
18878TIP3   OH278048   2.171   0.457  13.334  0.2570 -0.1478 -0.9367
18878TIP3    H178049   2.145   0.372  13.298  0.0097 -0.1623 -0.7322
18878TIP3    H278050   2.114   0.520  13.289  0.7435 -0.0401 -1.4104
18879TIP3   OH278051   2.760   1.066  11.393  0.6882  0.0910 -0.2611
18879TIP3    H178052   2.688   1.008  11.419  1.6362 -0.1558  2.0616
18879TIP3    H278053   2.723   1.120  11.323 -0.9967 -1.6037 -0.7727
18880TIP3   OH278054   6.027   3.395   6.459 -0.1861 -0.0716  0.4675
18880TIP3    H178055   6.057   3.341   6.531  2.3777 -0.6011 -0.8705
18880TIP3    H278056   6.061   3.352   6.381 -1.6456  1.2418 -0.9651
18881TIP3   OH278057   3.266   0.801  14.113 -0.5051  0.0950 -0.1468
18881TIP3    H178058   3.202   0.872  14.118  0.9645  1.3710  1.8557
18881TIP3    H278059   3.347   0.838  14.149  1.2399 -1.6389 -1.9801
18882TIP3   OH278060   6.563   2.212  11.986 -0.1867  0.0691  0.1199
18882TIP3    H178061   6.523   2.136  11.943 -0.5729  0.6082 -0.4832
18882TIP3    H278062   6.490   2.269  12.006  0.1006  0.2574  0.6339
18883TIP3   OH278063   1.079   2.508   4.609  0.3781 -0.2712  0.3943
18883TIP3    H178064   1.083   2.597   4.576 -1.5863 -0.4076 -0.2861
18883TIP3    H278065   1.167   2.473   4.594 -0.0954 -0.0661 -3.9721
18884TIP3   OH278066   3.109   2.330  16.785  0.1194  0.4842 -0.1445
18884TIP3    H178067   3.065   2.364  16.863  0.3792 -0.6439  0.5289
18884TIP3    H278068   3.146   2.246  16.814  0.7814  0.3572 -1.3084
18885TIP3   OH278069   0.873   4.126  14.291 -0.1285 -0.0560 -0.8106
18885TIP3    H178070   0.820   4.048  14.273  0.8192 -0.6805 -0.9759
18885TIP3    H278071   0.955   4.092  14.326  0.6103  0.8144 -1.6302
18886TIP3   OH278072   0.822   3.324  16.447  0.3021 -0.1497 -0.5532
18886TIP3    H178073   0.755   3.391  16.460  2.3939  1.4731  3.5378
18886TIP3    H278074   0.777   3.241  16.464 -1.0924  0.6998  0.0365
18887TIP3   OH278075   6.446   1.270   3.309  0.4162  0.1817 -0.5128
18887TIP3    H178076   6.506   1.263   3.235  0.5697 -0.0574 -0.3673
18887TIP3    H278077   6.462   1.357   3.345 -0.0070  0.4953 -1.0555
18888TIP3   OH278078   2.994   6.103   2.076  0.1350 -0.0882 -0.1234
18888TIP3    H178079   2.998   6.028   2.135 -1.0611 -0.4103 -0.4171
18888TIP3    H278080   3.001   6.065   1.988 -0.4636  0.1301 -0.2724
18889TIP3   OH278081   5.201   2.031  16.829 -0.1374  0.5816  0.2655
18889TIP3    H178082   5.137   1.993  16.768 -1.4528  2.1021  0.6374
18889TIP3    H278083   5.229   2.112  16.786  0.3843  0.6928  0.8136
18890TIP3   OH278084   5.598   0.575  14.614  0.2421 -0.3818 -0.0303
18890TIP3    H178085   5.679   0.626  14.618 -0.6827  1.0879  1.1678
18890TIP3    H278086   5.621   0.498  14.562  1.8270  1.0229 -1.5345
18891TIP3   OH278087   2.136   2.122   1.392 -0.1185  0.6445  0.0995
18891TIP3    H178088   2.060   2.068   1.368 -0.4785  0.8009  0.8389
18891TIP3    H278089   2.100   2.190   1.449  0.8102 -0.3153  1.9367
18892TIP3   OH278090   6.610   3.311  16.679  0.2971 -0.0421 -0.0601
18892TIP3    H178091   6.569   3.279  16.598 -0.4396 -0.0359  0.3039
18892TIP3    H278092   6.680   3.248  16.696  0.6264  0.0929 -0.8342
18893TIP3   OH278093   3.609   2.396  11.667  0.3620 -0.0035 -0.5015
18893TIP3    H178094   3.633   2.458  11.736 -2.5315 -0.3280  0.9431
18893TIP3    H278095   3.541   2.442  11.617 -0.4087 -1.2652 -0.6352
18894TIP3   OH278096   5.328   3.038   3.315 -0.4020  0.9114  0.2647
18894TIP3    H178097   5.251   3.004   3.269  0.6867  0.7705 -1.5511
18894TIP3    H278098   5.379   2.959   3.336  0.2837  1.1295 -0.5232
18895TIP3   OH278099   1.632   3.209  16.542  0.0074  0.3238  0.3972
18895TIP3    H178100   1.569   3.183  16.475 -2.3098  2.6153  1.5035
18895TIP3    H278101   1.650   3.301  16.523  2.1436  0.0396  0.8548
18896TIP3   OH278102   2.749   0.232  15.408  0.2976 -0.3008  0.4732
18896TIP3    H178103   2.792   0.278  15.336  2.8550 -0.2830  1.8987
18896TIP3    H278104   2.741   0.141  15.378  0.0467 -0.0114 -0.3439
18897TIP3   OH278105   5.604   6.557   0.137 -0.3392 -0.0337 -0.2597
18897TIP3    H178106   5.665   6.532   0.206 -0.3637  0.1749 -0.1601
18897TIP3    H278107   5.518   6.555   0.179 -0.3482  0.1488 -0.2682
18898TIP3   OH278108   3.927   3.833  12.248 -0.6673 -0.1679 -0.1301
18898TIP3    H178109   3.980   3.759  12.277 -1.3628 -0.7803 -0.3863
18898TIP3    H278110   3.981   3.877  12.182 -0.3404 -0.5714 -0.1344
18899TIP3   OH278111   0.603   6.195  12.603 -0.1806  0.5571 -0.6477
18899TIP3    H178112   0.649   6.204  12.519  0.5553  1.4950 -0.1692
18899TIP3    H278113   0.620   6.278  12.648 -0.3658 -0.0290  0.5321
18900TIP3   OH278114   3.777   0.006  11.887  0.4704 -0.1683  0.6358
18900TIP3    H178115   3.870  -0.011  11.872  0.7126  0.5448  1.2610
18900TIP3    H278116   3.732  -0.051  11.825  1.3063 -0.9368  0.7215
18901TIP3   OH278117   6.048   2.662   1.216  0.6572 -0.2407 -0.4897
18901TIP3    H178118   6.084   2.664   1.127  1.0961  0.3795 -0.3044
18901TIP3    H278119   6.113   2.709   1.269 -0.8466  1.7975 -0.3100
18902TIP3   OH278120   1.429   0.166   3.992 -0.3085 -0.2767 -0.5639
18902TIP3    H178121   1.459   0.122   4.072  0.6524  0.0411 -0.7391
18902TIP3    H278122   1.342   0.129   3.976 -1.1117  0.6450  1.3756
18903TIP3   OH278123   4.093   6.164   3.700  0.3772 -0.1555 -0.1800
18903TIP3    H178124   4.013   6.119   3.729 -1.5427  2.1926 -1.5079
18903TIP3    H278125   4.136   6.191   3.782 -0.2118 -1.3192  0.5515
18904TIP3   OH278126   6.453   0.647  11.944 -1.2398 -0.3649  0.2572
18904TIP3    H178127   6.402   0.727  11.953  0.9775  1.1620  0.2519
18904TIP3    H278128   6.411   0.599  11.873 -2.4140  0.9965 -0.0002
18905TIP3   OH278129   0.585   1.275   0.287  0.9724 -0.6147  0.1009
18905TIP3    H178130   0.539   1.236   0.362 -1.0981 -0.2012 -0.8805
18905TIP3    H278131   0.642   1.341   0.326  0.6714 -1.0813  1.3897
18906TIP3   OH278132   1.055   0.632  13.327 -0.2694 -0.4464 -0.1816
18906TIP3    H178133   1.093   0.698  13.269  1.1954  1.2428  2.5227
18906TIP3    H278134   0.970   0.668  13.352 -0.7977 -1.0693 -0.9905
18907TIP3   OH278135   6.385   3.562  15.925 -0.3158 -0.2653  0.1076
18907TIP3    H178136   6.304   3.545  15.972 -0.4287  0.7895  0.3186
18907TIP3    H278137   6.358   3.578  15.835 -0.1558 -1.6724 -0.2224
18908TIP3   OH278138   4.439   0.545  11.710  0.0709  0.2377 -0.2429
18908TIP3    H178139   4.523   0.584  11.732  1.5334 -0.6566 -3.5253
18908TIP3    H278140   4.415   0.493  11.787  2.3599  0.7936  0.9152
18909TIP3   OH278141   4.646   5.678  16.395 -0.3789 -0.2080 -0.2844
18909TIP3    H178142   4.597   5.708  16.318  0.1297  0.4058 -0.3761
18909TIP3    H278143   4.579   5.649  16.456 -0.8015 -0.4914 -0.8666
18910TIP3   OH278144   2.868   4.663   4.048 -0.1801 -0.2324 -0.2345
18910TIP3    H178145   2.911   4.745   4.023  1.1274 -0.9462 -0.3976
18910TIP3    H278146   2.888   4.603   3.976 -1.2058 -0.6733 -0.1659
18911TIP3   OH278147   5.800   4.800   5.765 -0.2727  0.0371 -0.6551
18911TIP3    H178148   5.797   4.787   5.670  1.1641 -2.3962 -0.4353
18911TIP3    H278149   5.890   4.829   5.783 -0.7319  1.1825 -0.0675
18912TIP3   OH278150   1.573   1.291   6.649 -0.1794 -0.6002  0.3644
18912TIP3    H178151   1.480   1.311   6.640  0.0007 -0.5525 -2.0352
18912TIP3    H278152   1.617   1.376   6.641  0.0783 -0.6355  1.3828
18913TIP3   OH278153   1.124   6.477   6.433 -0.1570  0.1100  0.2388
18913TIP3    H178154   1.183   6.489   6.508  0.8739 -0.7910 -0.3802
18913TIP3    H278155   1.156   6.396   6.391 -1.1590  0.2077 -0.7541
18914TIP3   OH278156   6.431   3.191   3.972 -0.0649  0.1977 -0.1074
18914TIP3    H178157   6.389   3.269   3.934 -0.6170  0.2085  0.5157
18914TIP3    H278158   6.431   3.127   3.901  0.0401  0.6358 -0.5079
18915TIP3   OH278159   0.084   3.019  14.493  0.0276  0.5372 -0.0544
18915TIP3    H178160   0.151   2.954  14.515 -1.0313 -0.4897  0.2636
18915TIP3    H278161   0.005   2.987  14.537 -0.6233  1.8321 -0.2438
18916TIP3   OH278162   5.598   4.748   2.257  0.1673  0.5113  0.4990
18916TIP3    H178163   5.627   4.816   2.196  0.7901 -0.2180 -0.0390
18916TIP3    H278164   5.633   4.775   2.342  3.0860 -0.6326 -0.2064
18917TIP3   OH278165   3.671   5.230  10.965 -0.1072 -0.4616  0.3037
18917TIP3    H178166   3.674   5.325  10.968  0.0222 -0.4666  0.3673
18917TIP3    H278167   3.578   5.208  10.966 -0.1511 -0.3926  2.1588
18918TIP3   OH278168   5.105   6.268  17.196  0.2802  0.0225 -0.0810
18918TIP3    H178169   5.120   6.232  17.109  1.5345 -0.6749  0.3956
18918TIP3    H278170   5.192   6.274  17.236 -0.1468  1.3768  0.7361
18919TIP3   OH278171   2.695   4.963   1.945  0.0168 -0.0459  0.0171
18919TIP3    H178172   2.721   4.961   1.853 -1.8985 -0.0356 -0.5610
18919TIP3    H278173   2.609   4.923   1.947 -0.8559  1.7392  1.5112
18920TIP3   OH278174   6.585   3.959  16.422  0.5978 -0.4985 -0.5414
18920TIP3    H178175   6.560   3.980  16.332 -0.3271  0.4234 -0.0925
18920TIP3    H278176   6.625   4.039  16.456  0.0114 -0.4884  0.1753
18921TIP3   OH278177   1.074   4.487  14.850 -0.2536 -0.3863  0.0839
18921TIP3    H178178   1.102   4.546  14.920  4.0197 -0.2338 -1.4753
18921TIP3    H278179   1.084   4.399  14.888 -0.5304 -0.2576  0.4634
18922TIP3   OH278180   0.245   6.308  11.322 -0.0463  0.2649  0.0363
18922TIP3    H178181   0.202   6.223  11.331  0.6924 -0.0480  0.8725
18922TIP3    H278182   0.323   6.290  11.270  0.4330  0.2942  0.7247
18923TIP3   OH278183   1.327   0.589   3.638  0.3508 -0.0300  0.5707
18923TIP3    H178184   1.277   0.644   3.578 -0.5016 -0.9848  0.3750
18923TIP3    H278185   1.335   0.505   3.592  1.0293 -0.2865  1.1492
18924TIP3   OH278186   3.048   6.625  13.324 -0.4361  0.0140  0.7816
18924TIP3    H178187   3.082   6.633  13.413 -1.2138  1.0751  1.0007
18924TIP3    H278188   2.972   6.682  13.322 -0.6664 -0.3055 -0.4584
18925TIP3   OH278189   0.300   3.341  14.780  0.0535 -0.1384 -0.0639
18925TIP3    H178190   0.248   3.262  14.796 -1.2075  0.8470  1.0015
18925TIP3    H278191   0.245   3.396  14.725  0.6371  0.2670 -0.2545
18926TIP3   OH278192   6.456   3.383  15.345  0.2941  0.2992 -0.2076
18926TIP3    H178193   6.407   3.321  15.400 -1.3711  0.3172 -1.5791
18926TIP3    H278194   6.398   3.459  15.338  1.1335  0.9064 -0.7867
18927TIP3   OH278195   3.712   2.738   2.131 -0.1100 -0.2807 -0.2678
18927TIP3    H178196   3.648   2.687   2.180  0.0397  0.3456  0.6149
18927TIP3    H278197   3.797   2.704   2.159 -0.0124  0.3528  0.2334
18928TIP3   OH278198   1.668   5.708   2.431  0.2428  0.3884 -0.0676
18928TIP3    H178199   1.655   5.616   2.457  0.7623  0.5037  0.6343
18928TIP3    H278200   1.758   5.711   2.399  0.2614  0.6774  0.0091
18929TIP3   OH278201   2.929   6.564   1.558  0.3992 -0.2201 -0.5216
18929TIP3    H178202   2.936   6.496   1.625  1.1272  0.1206 -0.2441
18929TIP3    H278203   2.966   6.525   1.479 -1.3482 -0.9666 -1.0124
18930TIP3   OH278204   4.481   2.007  13.240 -0.1148 -0.4163  0.4673
18930TIP3    H178205   4.459   1.990  13.149  0.1736 -3.6779  0.8651
18930TIP3    H278206   4.398   1.994  13.287 -0.1856  0.8912  0.7241
18931TIP3   OH278207   2.176   4.398   4.807 -0.0859  0.6877 -0.2708
18931TIP3    H178208   2.174   4.344   4.887  0.2828 -2.3627 -2.1513
18931TIP3    H278209   2.268   4.420   4.796 -0.2098  1.6101  0.3928
18932TIP3   OH278210   0.761   3.295  12.825  0.4188 -0.3099  0.1373
18932TIP3    H178211   0.668   3.295  12.846  0.3076 -1.5844 -0.2318
18932TIP3    H278212   0.766   3.332  12.737  0.0020 -2.0513 -0.6690
18933TIP3   OH278213   2.682   6.080  11.440 -0.2979  0.2739  0.0147
18933TIP3    H178214   2.609   6.090  11.380  0.3413  0.4927 -0.7475
18933TIP3    H278215   2.714   6.170  11.454  0.0184  0.1510  0.0932
18934TIP3   OH278216   1.395   0.772  16.355  0.2211 -0.4868  0.0961
18934TIP3    H178217   1.487   0.786  16.330  0.2550 -0.2605  0.3358
18934TIP3    H278218   1.384   0.677  16.355  0.6935 -0.5521  0.8983
18935TIP3   OH278219   6.098   2.757  17.103  0.1339 -0.3277 -0.0427
18935TIP3    H178220   6.062   2.801  17.180 -0.4456 -0.5883 -0.1587
18935TIP3    H278221   6.054   2.672  17.101 -0.6400  0.0776 -1.2468
18936TIP3   OH278222   6.155   6.771   0.489 -0.0481 -0.0770  0.2416
18936TIP3    H178223   6.215   6.811   0.427 -1.1914  0.4708 -0.5450
18936TIP3    H278224   6.198   6.780   0.574  1.1177 -0.0173 -0.3421
18937TIP3   OH278225   1.096   0.966  12.229  0.1929 -0.0798 -0.3526
18937TIP3    H178226   1.086   0.877  12.195  1.3348 -0.8710  1.2530
18937TIP3    H278227   1.051   0.964  12.314  1.2085  0.5305  0.2206
18938TIP3   OH278228   1.223   2.313  12.358  0.3570 -0.7079  0.3098
18938TIP3    H178229   1.184   2.398  12.382  1.2811 -0.4664  1.0018
18938TIP3    H278230   1.161   2.276  12.295 -0.8690 -0.2130  1.1678
18939TIP3   OH278231   5.093   6.407  14.110 -0.6320  0.2208  0.4274
18939TIP3    H178232   5.042   6.347  14.056 -1.5988  1.4730 -0.1092
18939TIP3    H278233   5.119   6.477  14.050  0.6210  0.2763  0.9973
18940TIP3   OH278234   3.485   1.229  16.084  0.6249 -0.6053 -0.0616
18940TIP3    H178235   3.541   1.176  16.141  1.2318 -0.4100 -0.4617
18940TIP3    H278236   3.414   1.258  16.140  1.4497 -0.0383  0.7264
18941TIP3   OH278237   3.819   0.751   3.738 -0.1073  0.5156 -0.2341
18941TIP3    H178238   3.835   0.661   3.768 -0.5350  0.4789 -0.1193
18941TIP3    H278239   3.753   0.742   3.670 -1.0144  0.8635  0.5895
18942TIP3   OH278240   1.065   0.694  12.123 -0.0849 -0.4569 -0.0427
18942TIP3    H178241   1.014   0.677  12.202 -1.2167 -0.1036 -0.6778
18942TIP3    H278242   1.002   0.687  12.051  0.5475  0.9381 -0.7838
18943TIP3   OH278243   2.820   0.715   0.711  0.7454  0.1031 -0.2775
18943TIP3    H178244   2.909   0.751   0.712  1.7058 -2.0197  2.1640
18943TIP3    H278245   2.780   0.749   0.791  0.5720 -1.5933  0.3870
18944TIP3   OH278246   1.253   6.720  15.985 -0.0661 -0.1287 -0.5113
18944TIP3    H178247   1.261   6.746  15.893  0.9937  1.3645 -0.0443
18944TIP3    H278248   1.198   6.788  16.024  2.3309  1.3255  0.6293
18945TIP3   OH278249   5.692   4.265  12.169  0.3079 -0.5875  0.1517
18945TIP3    H178250   5.636   4.305  12.103  0.5131  2.1022  1.4497
18945TIP3    H278251   5.644   4.188  12.198 -0.3673 -1.0971 -2.1842
18946TIP3   OH278252   3.065   1.242  13.069 -0.0105 -0.1040 -0.3568
18946TIP3    H178253   3.105   1.328  13.079 -0.8408  0.2299  0.2711
18946TIP3    H278254   2.985   1.258  13.018  0.2080 -0.6232 -0.8779
18947TIP3   OH278255   0.584   1.775   4.401  0.3966 -0.1606  0.1968
18947TIP3    H178256   0.623   1.692   4.372  1.2748  0.3448 -0.0892
18947TIP3    H278257   0.630   1.796   4.482 -0.3955 -0.3528  0.7126
18948TIP3   OH278258   0.895   3.497  13.001 -0.3460 -0.1011 -0.0519
18948TIP3    H178259   0.826   3.441  12.966 -1.0243 -0.3084  1.5498
18948TIP3    H278260   0.956   3.437  13.045  0.9666  0.0654 -1.5422
18949TIP3   OH278261   4.966   1.595   1.857  0.6948  0.3917  0.1242
18949TIP3    H178262   4.935   1.532   1.921 -0.2545 -0.2354 -0.9096
18949TIP3    H278263   5.045   1.633   1.896  0.3821 -0.2712  1.4504
18950TIP3   OH278264   5.283   4.565   4.634 -0.1111 -0.1042 -0.4441
18950TIP3    H178265   5.344   4.516   4.689  0.7446 -0.9701 -2.0793
18950TIP3    H278266   5.196   4.539   4.665  0.2759  1.0666  1.8508
18951TIP3   OH278267   0.961   6.092   4.452 -0.1374  0.5846  0.3890
18951TIP3    H178268   0.910   6.104   4.533 -0.1750 -1.2209  0.6926
18951TIP3    H278269   0.969   6.179   4.415 -3.2333  1.0276  0.4753
18952TIP3   OH278270   4.520   3.919   0.951 -0.3230  0.2259  0.4248
18952TIP3    H178271   4.466   3.996   0.969  0.9184  1.4555 -0.9373
18952TIP3    H278272   4.601   3.935   0.999  1.0342  1.1453 -2.0221
18953TIP3   OH278273   4.534   2.526   6.265 -0.1566 -0.5251  0.5489
18953TIP3    H178274   4.603   2.582   6.231 -1.7193  0.2669 -1.5851
18953TIP3    H278275   4.561   2.437   6.241 -0.6952 -0.0753 -2.0522
18954TIP3   OH278276   4.242   5.697   5.042  0.0436 -0.0408  1.0823
18954TIP3    H178277   4.287   5.695   4.957 -1.7050  4.4569 -0.2577
18954TIP3    H278278   4.305   5.741   5.100  0.0794 -0.3299  1.2633
18955TIP3   OH278279   2.779   3.017  14.564 -0.8394 -0.0719 -0.4876
18955TIP3    H178280   2.774   2.933  14.519  0.2581  0.2806 -1.3011
18955TIP3    H278281   2.857   3.010  14.619 -1.5156 -0.0718  0.5043
18956TIP3   OH278282   2.700   5.106  15.656  0.1933 -0.4678 -0.6341
18956TIP3    H178283   2.697   5.182  15.597 -1.2299 -0.3563 -0.4657
18956TIP3    H278284   2.641   5.130  15.728  0.1322 -1.5174 -0.3235
18957TIP3   OH278285   1.953   1.776  16.008  0.6909 -0.7938 -0.1334
18957TIP3    H178286   1.864   1.803  16.029  0.8437 -0.2021 -0.2231
18957TIP3    H278287   2.004   1.858  16.008  1.1535 -1.0730 -0.4641
18958TIP3   OH278288   1.951   1.316   0.336  0.3040  0.3933 -0.1404
18958TIP3    H178289   1.892   1.369   0.282 -0.8980 -0.6476  0.1022
18958TIP3    H278290   1.943   1.228   0.302 -0.6088 -0.3281  1.7877
18959TIP3   OH278291   4.499   1.814  10.898 -0.2671 -0.3336 -0.1841
18959TIP3    H178292   4.471   1.724  10.883 -1.9389 -0.2044  1.7454
18959TIP3    H278293   4.428   1.868  10.865  0.3080  0.2619 -0.4834
18960TIP3   OH278294   0.841   4.453  16.681  0.1917 -0.3980 -0.1650
18960TIP3    H178295   0.804   4.469  16.594 -2.5137 -1.7782  0.6095
18960TIP3    H278296   0.862   4.540  16.714  0.9019  0.1854 -1.9971
18961TIP3   OH278297   2.331   5.078   5.892 -0.4539  0.6754  0.1299
18961TIP3    H178298   2.364   4.988   5.888 -0.7759  0.5246  0.6968
18961TIP3    H278299   2.407   5.133   5.872 -0.0153  0.3133  0.7774
18962TIP3   OH278300   2.215   2.334   0.924  0.2408  0.3555 -0.2907
18962TIP3    H178301   2.284   2.270   0.907 -1.0101 -0.9594 -0.4750
18962TIP3    H278302   2.248   2.384   0.999  1.9625  0.6187 -1.1639
18963TIP3   OH278303   0.301   3.956  16.620  0.1436 -0.3217 -0.9029
18963TIP3    H178304   0.390   3.920  16.628 -0.2917 -1.0923  1.0217
18963TIP3    H278305   0.250   3.884  16.582 -0.2280 -0.9803  0.7415
18964TIP3   OH278306   2.837   5.111   4.930  0.2196 -0.5326  0.2708
18964TIP3    H178307   2.838   5.153   4.844 -1.7024 -0.1235  0.3961
18964TIP3    H278308   2.774   5.162   4.981  0.2782 -1.6126  1.4797
18965TIP3   OH278309   4.044   1.825  12.062  0.2703 -0.6853  0.0095
18965TIP3    H178310   4.137   1.849  12.066 -0.1240  1.3991 -1.6061
18965TIP3    H278311   4.016   1.855  11.975 -2.1259 -0.4851  0.7893
18966TIP3   OH278312   0.193   2.731  15.271 -0.3530 -0.2198 -0.6113
18966TIP3    H178313   0.199   2.646  15.315 -0.3369 -0.6003 -1.3262
18966TIP3    H278314   0.171   2.792  15.340  0.6301 -0.6397  0.1055
18967TIP3   OH278315   0.140   5.655   0.641 -0.0561 -0.2512  0.9289
18967TIP3    H178316   0.049   5.650   0.610 -1.3320  0.7257  4.1129
18967TIP3    H278317   0.136   5.620   0.730  3.0941 -1.7624  0.5946
18968TIP3   OH278318   5.288   4.958  12.741  0.3935 -0.4478 -0.2080
18968TIP3    H178319   5.277   4.905  12.820  1.2972 -1.2593 -0.6161
18968TIP3    H278320   5.367   4.925  12.700 -0.6818 -0.8474 -2.0999
18969TIP3   OH278321   4.125   2.834   0.968 -0.0610 -0.2814 -0.3480
18969TIP3    H178322   4.205   2.887   0.970 -0.7640  0.8343 -0.5392
18969TIP3    H278323   4.121   2.801   0.879 -0.1663  0.2290 -0.5349
18970TIP3   OH278324   2.537   3.482  15.352  0.0193  0.4123 -0.3213
18970TIP3    H178325   2.464   3.508  15.408  0.3338 -1.0997  0.8674
18970TIP3    H278326   2.559   3.393  15.381  1.8611  0.5620 -1.1296
18971TIP3   OH278327   1.092   5.699  12.865 -0.1412  0.0615  0.4466
18971TIP3    H178328   1.112   5.687  12.772  0.2285 -1.4181  0.6948
18971TIP3    H278329   1.175   5.686  12.910 -0.2106  1.2800  0.9733
18972TIP3   OH278330   3.205   2.057  12.969  0.0272 -0.2024  0.7943
18972TIP3    H178331   3.216   2.041  13.063  1.5681  1.0976  0.8872
18972TIP3    H278332   3.215   2.152  12.961 -1.1223 -0.1767 -0.5770
18973TIP3   OH278333   4.213   1.321  11.320  0.7028  0.1661 -0.6560
18973TIP3    H178334   4.175   1.340  11.405 -0.0520 -2.3755 -0.3258
18973TIP3    H278335   4.140   1.327  11.258  1.2192  1.8704 -1.1405
18974TIP3   OH278336   2.471   5.971  11.612 -0.4214  0.8293 -0.7139
18974TIP3    H178337   2.552   6.004  11.572 -0.0896  1.4590  0.4057
18974TIP3    H278338   2.412   5.956  11.539  1.0262 -0.5910 -1.6631
18975TIP3   OH278339   0.742   4.145   1.960 -0.1575 -0.1537  0.0639
18975TIP3    H178340   0.650   4.169   1.961  0.1031  1.0024 -1.0876
18975TIP3    H278341   0.743   4.051   1.979 -1.4929 -0.0234  0.9086
18976TIP3   OH278342   2.105   0.579  13.594  1.0467 -0.0386 -0.7547
18976TIP3    H178343   2.145   0.515  13.535 -0.0250 -1.4002 -0.0550
18976TIP3    H278344   2.011   0.565  13.584  0.8075 -1.1665  2.1081
18977TIP3   OH278345   1.884   3.521  10.910  0.3845  0.2408 -0.1922
18977TIP3    H178346   1.837   3.592  10.953  0.6043 -0.4141  1.1977
18977TIP3    H278347   1.907   3.555  10.824 -2.2910  0.7196 -0.7969
18978TIP3   OH278348   4.456   0.346   1.185  0.4150 -0.0536  0.4274
18978TIP3    H178349   4.506   0.427   1.193  2.4733 -1.0337 -1.5497
18978TIP3    H278350   4.508   0.281   1.231 -1.0739 -0.3866  1.7410
18979TIP3   OH278351   4.562   6.207  16.234  0.4350  0.5878  0.0233
18979TIP3    H178352   4.482   6.260  16.229 -0.3895 -0.4933  1.1558
18979TIP3    H278353   4.621   6.258  16.290 -0.0051  0.7241  0.3695
18980TIP3   OH278354   4.562   5.999  14.226  0.0593 -0.3414 -0.8403
18980TIP3    H178355   4.480   6.007  14.275  0.6646  0.1103  0.1392
18980TIP3    H278356   4.534   5.982  14.136 -1.0837 -1.5519 -0.3019
18981TIP3   OH278357   0.963   5.578   4.375 -0.3763 -0.1012 -0.4239
18981TIP3    H178358   1.003   5.579   4.462  0.4953  0.4466 -0.8198
18981TIP3    H278359   0.922   5.492   4.369 -0.1026 -0.3007  0.3789
18982TIP3   OH278360   1.608   2.458  12.066  0.0094 -0.7214 -0.1177
18982TIP3    H178361   1.560   2.527  12.019 -0.3191 -0.7809  0.1323
18982TIP3    H278362   1.543   2.418  12.123  0.0237 -1.7317 -0.7852
18983TIP3   OH278363   2.840   3.877  11.173  0.1049  0.1856  0.6324
18983TIP3    H178364   2.924   3.903  11.134  0.7490 -0.1493  1.7620
18983TIP3    H278365   2.814   3.953  11.225 -0.0745  0.1145  0.6459
18984TIP3   OH278366   4.523   5.369  14.393  0.3221  0.1341 -0.3806
18984TIP3    H178367   4.468   5.443  14.420  1.0548  0.0724  1.4908
18984TIP3    H278368   4.556   5.333  14.476  2.5018 -0.3338 -1.3730
18985TIP3   OH278369   5.709   1.634  16.499  0.0669 -0.3721 -0.1472
18985TIP3    H178370   5.709   1.677  16.414  0.7461  0.7591  0.4062
18985TIP3    H278371   5.801   1.615  16.517  0.3204  2.0220  1.5740
18986TIP3   OH278372   5.541   2.220  12.919  0.3853  0.2825 -0.3041
18986TIP3    H178373   5.455   2.250  12.889  0.8302  2.0506  0.0879
18986TIP3    H278374   5.558   2.141  12.867 -1.1591  0.2791 -0.8664
18987TIP3   OH278375   3.436   5.346  12.156 -0.7161  0.1248 -0.5025
18987TIP3    H178376   3.451   5.422  12.211 -1.0435  0.4125 -0.8030
18987TIP3    H278377   3.353   5.363  12.113 -1.2006 -0.7823  0.0423
18988TIP3   OH278378   3.226   4.834  15.408 -0.4849 -0.1050 -0.3181
18988TIP3    H178379   3.277   4.915  15.406  0.8030 -0.7362  2.1560
18988TIP3    H278380   3.262   4.781  15.337  0.2266  0.6417 -0.5332
18989TIP3   OH278381   1.736   3.133  13.363  0.1378  0.0367 -0.4116
18989TIP3    H178382   1.758   3.216  13.403  0.6917 -0.0158 -0.6023
18989TIP3    H278383   1.754   3.067  13.430  2.6691 -0.2197 -1.2184
18990TIP3   OH278384   4.033   3.075  14.820 -0.3761 -0.2963  0.0987
18990TIP3    H178385   3.941   3.100  14.823 -0.4077 -0.1632 -1.2919
18990TIP3    H278386   4.056   3.057  14.911 -1.7130 -0.1340  0.4900
18991TIP3   OH278387   3.243   0.552  16.665 -0.2856  0.5085  0.5357
18991TIP3    H178388   3.316   0.576  16.608 -0.8935  2.1470  0.3793
18991TIP3    H278389   3.165   0.584  16.619 -1.0591 -0.6862  0.9659
18992TIP3   OH278390   0.071   1.539  13.772  0.3918  0.2546  0.1791
18992TIP3    H178391  -0.020   1.537  13.800  0.6804  0.6544  1.1866
18992TIP3    H278392   0.117   1.586  13.842  1.2875  0.5053 -0.5576
18993TIP3   OH278393   1.292   1.270  16.859  0.7148  0.6354  0.6735
18993TIP3    H178394   1.305   1.355  16.817 -0.9587  0.7305  0.2756
18993TIP3    H278395   1.280   1.290  16.951 -0.7713  0.9726  0.4290
18994TIP3   OH278396   6.107   1.901   3.464  0.3451 -0.0926  0.1538
18994TIP3    H178397   6.175   1.944   3.516 -0.5987  0.3090  1.0962
18994TIP3    H278398   6.049   1.862   3.529 -0.9188  0.4943 -0.5832
18995TIP3   OH278399   6.052   5.132  13.971 -0.3746 -0.3184  0.0050
18995TIP3    H178400   6.138   5.095  13.991  0.4861  1.9511  0.7921
18995TIP3    H278401   6.058   5.161  13.880 -0.6946 -1.1258 -0.2809
18996TIP3   OH278402   5.330   0.366   2.640  0.3225 -0.4034 -0.3542
18996TIP3    H178403   5.312   0.459   2.626  0.6484 -0.3361 -0.3278
18996TIP3    H278404   5.246   0.330   2.668  0.2036 -0.1078 -0.3222
18997TIP3   OH278405   0.880   3.243  14.657  0.0672  0.6477  0.0280
18997TIP3    H178406   0.857   3.300  14.583  0.7813  0.3143 -0.4618
18997TIP3    H278407   0.976   3.239  14.655  0.0291 -0.8307 -0.1551
18998TIP3   OH278408   1.743   6.086   4.426 -0.0534  0.3705 -0.3976
18998TIP3    H178409   1.796   6.132   4.492 -0.8198 -0.5950  0.9543
18998TIP3    H278410   1.803   6.070   4.353  1.6138 -0.8641  1.1464
18999TIP3   OH278411   6.279   5.399  14.221  0.1152 -0.4303  0.1861
18999TIP3    H178412   6.300   5.480  14.268  0.5912 -0.8930  0.7933
18999TIP3    H278413   6.215   5.425  14.155  0.1768  0.4184  0.4512
19000TIP3   OH278414   2.168   5.889   2.509 -0.2852  0.0411 -0.3989
19000TIP3    H178415   2.118   5.827   2.562 -1.8028  0.4309 -1.3039
19000TIP3    H278416   2.245   5.910   2.562 -0.9515 -0.7876  0.9379
19001TIP3   OH278417   1.169   6.634   0.329  0.1597  0.0995  0.2599
19001TIP3    H178418   1.206   6.700   0.388  0.2199  0.1009  0.2208
19001TIP3    H278419   1.225   6.637   0.252  0.9303 -0.8543  0.7547
19002TIP3   OH278420   1.158   1.228   3.493 -0.6988 -0.4538 -0.4150
19002TIP3    H178421   1.182   1.318   3.511 -0.4118 -0.0646 -2.4271
19002TIP3    H278422   1.168   1.182   3.576 -0.6434  1.3129  0.5889
19003TIP3   OH278423   3.625   3.431   0.018  0.1717 -0.5149 -0.2903
19003TIP3    H178424   3.645   3.384  -0.062 -1.6821  1.5576 -2.0798
19003TIP3    H278425   3.533   3.411   0.036  0.1843  0.1247  0.5541
19004TIP3   OH278426   0.666   3.189   1.778  0.4787 -0.1362  0.4944
19004TIP3    H178427   0.571   3.177   1.776  0.1709  2.0253 -0.1851
19004TIP3    H278428   0.693   3.186   1.686  1.1045 -0.8133  0.6862
19005TIP3   OH278429   0.167   6.121  14.095 -0.7761 -0.1347 -0.0826
19005TIP3    H178430   0.203   6.141  14.008  1.2922  0.1578  0.7749
19005TIP3    H278431   0.080   6.161  14.095 -1.1976 -0.9102 -2.3086
19006TIP3   OH278432   6.664   5.259  11.585  0.2572 -0.4952  1.0740
19006TIP3    H178433   6.632   5.340  11.545 -1.0510 -1.7658 -0.6206
19006TIP3    H278434   6.725   5.288  11.652  1.1247  1.8475 -0.5844
19007TIP3   OH278435   1.444   5.490   5.406  0.2862 -0.2046 -0.3602
19007TIP3    H178436   1.410   5.542   5.479 -0.9607 -0.1329 -0.9626
19007TIP3    H278437   1.421   5.541   5.328  0.0235 -1.1272 -0.9028
19008TIP3   OH278438   6.538   3.508   1.273 -0.3339  0.2119  0.4269
19008TIP3    H178439   6.573   3.477   1.356 -0.2933 -1.3688 -0.1438
19008TIP3    H278440   6.601   3.574   1.243 -0.5168  1.0207  1.7796
19009TIP3   OH278441   2.053   4.148  16.468 -0.7462 -0.4421 -0.0862
19009TIP3    H178442   2.022   4.229  16.507  0.7980 -0.9816  2.5120
19009TIP3    H278443   2.087   4.174  16.382 -0.0749  1.7121  0.7638
19010TIP3   OH278444   5.729   6.106   5.174 -0.2573 -0.1519 -0.3910
19010TIP3    H178445   5.746   6.150   5.091 -0.5909 -0.8635 -0.8412
19010TIP3    H278446   5.634   6.092   5.174 -0.2553 -0.1769  0.1017
19011TIP3   OH278447   5.523   0.807   1.381 -0.3395  0.8775  0.0605
19011TIP3    H178448   5.604   0.857   1.387  0.4823 -0.4356  0.2134
19011TIP3    H278449   5.525   0.748   1.456 -0.6208 -0.3386 -0.8692
19012TIP3   OH278450   4.309   2.356   3.925  0.9961 -0.2981  0.0268
19012TIP3    H178451   4.334   2.347   3.833  0.0648 -0.5951 -0.2109
19012TIP3    H278452   4.230   2.409   3.923  0.3146 -1.2572  0.5560
19013TIP3   OH278453   4.246   1.150  12.511 -0.2285  0.3105  0.3276
19013TIP3    H178454   4.317   1.105  12.558  0.7174  1.7448  0.3411
19013TIP3    H278455   4.215   1.086  12.447  2.3832  0.2299 -0.9866
19014TIP3   OH278456   3.526   3.012  13.277 -0.1958  0.2755 -0.1731
19014TIP3    H178457   3.554   3.077  13.342 -0.4750 -0.2736  0.5223
19014TIP3    H278458   3.560   3.044  13.194  1.1687  0.4103  0.4090
19015TIP3   OH278459   0.238   4.651  12.630 -0.7063 -0.0764 -0.4668
19015TIP3    H178460   0.289   4.727  12.658 -0.4888 -0.9167  1.6890
19015TIP3    H278461   0.177   4.685  12.565  0.1389  1.6962 -0.3972
19016TIP3   OH278462   3.025   6.055  17.108 -0.3129 -0.0872  0.4795
19016TIP3    H178463   3.087   6.128  17.101 -0.0963 -0.3936 -1.2195
19016TIP3    H278464   2.991   6.061  17.197  1.7403  0.4218  1.2904
19017TIP3   OH278465   1.367   2.301  13.962 -0.0170 -0.2750 -0.0071
19017TIP3    H178466   1.301   2.369  13.979  1.6532  1.6427 -0.7972
19017TIP3    H278467   1.444   2.349  13.932  2.2598 -2.3029  2.1621
19018TIP3   OH278468   4.081   1.080  11.683 -0.2452  0.0125  0.2404
19018TIP3    H178469   4.089   1.163  11.637 -0.9988 -0.1059 -0.1260
19018TIP3    H278470   4.139   1.088  11.758  1.7259 -0.1425 -1.2032
19019TIP3   OH278471   1.084   0.976  15.137  0.1744 -0.0475  0.7428
19019TIP3    H178472   1.123   1.004  15.220 -0.5464  0.1324  1.0352
19019TIP3    H278473   0.992   0.961  15.159 -0.2557  1.0081 -0.2476
19020TIP3   OH278474   6.175   4.031  12.767 -0.2772 -0.1078  0.5511
19020TIP3    H178475   6.217   4.044  12.852  0.3150  0.7367  0.1554
19020TIP3    H278476   6.168   4.120  12.731  2.5564 -0.6247 -1.7040
19021TIP3   OH278477   0.580   3.705   5.483 -0.1668  0.1672  0.4463
19021TIP3    H178478   0.488   3.698   5.461 -0.5321  3.2019  0.5386
19021TIP3    H278479   0.581   3.715   5.579 -0.0873  2.9429  0.2283
19022TIP3   OH278480   5.274   2.784  12.428 -0.4041  0.3951 -0.9596
19022TIP3    H178481   5.245   2.740  12.348 -0.2157  1.3606 -1.5845
19022TIP3    H278482   5.303   2.871  12.398  1.4197  0.1293 -0.1069
19023TIP3   OH278483   2.687   0.443  14.319 -0.0989  0.2286 -0.1203
19023TIP3    H178484   2.707   0.531  14.351  0.0807  0.2676 -0.3364
19023TIP3    H278485   2.634   0.458  14.241 -0.3198  0.1378  0.0103
19024TIP3   OH278486   2.832   5.508  15.210 -0.0992 -0.9549  0.1095
19024TIP3    H178487   2.776   5.549  15.276  0.6028  1.6341 -0.8065
19024TIP3    H278488   2.887   5.448  15.261  1.0247  1.5784  2.1434
19025TIP3   OH278489   6.418   1.134   4.985 -0.2601  0.3062  0.3831
19025TIP3    H178490   6.331   1.100   4.965  0.6084 -0.7180 -1.9410
19025TIP3    H278491   6.453   1.072   5.049 -1.2275  0.7647  1.3872
19026TIP3   OH278492   6.451   0.206  14.173 -0.6481 -0.2347  0.4150
19026TIP3    H178493   6.518   0.258  14.218 -0.7339 -1.1597  1.6734
19026TIP3    H278494   6.413   0.151  14.242 -3.1054  0.6334 -0.1470
19027TIP3   OH278495   4.656   1.018   2.983 -0.2614  0.6863  0.9931
19027TIP3    H178496   4.679   0.937   3.028  2.2016  1.3900  1.1766
19027TIP3    H278497   4.588   0.992   2.921 -0.6930 -1.1693  2.1559
19028TIP3   OH278498   5.274   5.031   0.952 -0.1845 -0.2151 -0.0928
19028TIP3    H178499   5.343   4.988   0.903 -1.3013 -2.3818  0.0999
19028TIP3    H278500   5.318   5.065   1.031  1.0278  0.5440 -1.0556
19029TIP3   OH278501   4.183   1.320  12.720  0.0148 -0.0368  0.1096
19029TIP3    H178502   4.188   1.283  12.632  0.6829  0.6164 -0.1426
19029TIP3    H278503   4.254   1.277  12.768 -0.1276 -0.1373  0.2303
19030TIP3   OH278504   6.628   4.469   5.929  0.3366 -0.0687  0.1219
19030TIP3    H178505   6.646   4.443   5.838 -1.9166 -0.1815 -0.3451
19030TIP3    H278506   6.679   4.549   5.941  0.3233  0.2083 -1.4168
19031TIP3   OH278507   3.790   6.377  11.640  0.0703  0.0628  0.3555
19031TIP3    H178508   3.756   6.320  11.571  2.3977  1.3495 -2.0501
19031TIP3    H278509   3.872   6.334  11.668  0.5306  0.9216  0.3474
19032TIP3   OH278510   0.522   2.558  16.676 -0.2045  0.2939 -0.7213
19032TIP3    H178511   0.533   2.532  16.585  0.0445 -1.4399 -0.2255
19032TIP3    H278512   0.603   2.532  16.719 -0.2591  1.2215 -0.0118
19033TIP3   OH278513   4.051   2.307   3.734 -0.0106 -0.2987 -0.2058
19033TIP3    H178514   4.122   2.253   3.700 -0.3462  0.8678 -2.9889
19033TIP3    H278515   4.027   2.365   3.662 -2.4731  0.7148  1.2750
19034TIP3   OH278516   1.477   3.120  16.337  0.1009 -0.3096  0.1121
19034TIP3    H178517   1.426   3.038  16.334 -0.5093 -0.0162  1.6636
19034TIP3    H278518   1.489   3.143  16.245 -0.9920 -1.3748 -0.3352
19035TIP3   OH278519   3.509   0.412  12.838  0.7407  0.2785 -0.2834
19035TIP3    H178520   3.591   0.460  12.828  0.2529  1.2500  0.2435
19035TIP3    H278521   3.460   0.431  12.757  0.1142  1.5561  0.3751
19036TIP3   OH278522   2.031   0.830   5.685  0.2566  0.1883 -0.2530
19036TIP3    H178523   2.026   0.851   5.592 -1.6601  2.2167  0.2276
19036TIP3    H278524   2.107   0.879   5.717  0.7468 -0.2909 -0.6590
19037TIP3   OH278525   1.230   0.570  10.956  0.5955 -0.0856 -0.0069
19037TIP3    H178526   1.276   0.487  10.954  1.0998  0.0874  2.3015
19037TIP3    H278527   1.153   0.554  11.009  0.5300  0.8395  0.1902
19038TIP3   OH278528   0.824   1.719   5.770 -0.1889  0.1896 -0.5280
19038TIP3    H178529   0.811   1.786   5.837 -0.4764  1.0353 -1.3980
19038TIP3    H278530   0.735   1.696   5.742 -0.1347  2.5385 -3.1609
19039TIP3   OH278531   3.954   0.894   2.542 -0.3942  0.4909 -0.2223
19039TIP3    H178532   3.994   0.971   2.583  2.3295  1.1807 -3.6635
19039TIP3    H278533   4.020   0.825   2.549 -0.9470 -0.1511 -1.0728
19040TIP3   OH278534   3.870   1.669  16.180  0.1835  0.3953 -0.5769
19040TIP3    H178535   3.905   1.581  16.196 -0.1623  0.3505 -0.0725
19040TIP3    H278536   3.782   1.654  16.145  0.1058  0.5433 -0.4440
19041TIP3   OH278537   4.382   1.287   0.060 -0.0657 -0.1276  0.3001
19041TIP3    H178538   4.435   1.367   0.053 -0.1278 -0.1797 -0.9981
19041TIP3    H278539   4.435   1.229   0.116  1.0948 -0.0428 -0.6655
19042TIP3   OH278540   2.080   3.384   4.575 -0.2919 -0.0973 -0.1779
19042TIP3    H178541   2.083   3.406   4.482  0.5125 -0.1192 -0.1634
19042TIP3    H278542   2.111   3.294   4.579  3.9337  1.2047  0.4969
19043TIP3   OH278543   0.042   6.053   4.614  0.0810  0.3909  0.2429
19043TIP3    H178544   0.068   6.103   4.691  0.5335  2.6077 -1.2601
19043TIP3    H278545   0.125   6.027   4.573  0.0201  2.5897 -1.5002
19044TIP3   OH278546   2.262   0.345   6.318 -0.3500  0.3413  0.0188
19044TIP3    H178547   2.220   0.405   6.381 -0.8560 -1.2534  1.2743
19044TIP3    H278548   2.350   0.333   6.353 -1.1912 -1.9770  1.5573
19045TIP3   OH278549   6.805   1.038  16.419  0.4159  0.3441  0.3767
19045TIP3    H178550   6.885   0.991  16.395  0.8076  0.4500  1.4345
19045TIP3    H278551   6.752   0.974  16.466 -0.6834 -0.0824 -1.3536
19046TIP3   OH278552   6.558   0.131   3.197  0.3152 -0.3171  0.1208
19046TIP3    H178553   6.472   0.173   3.198 -0.3107 -1.2844 -2.7235
19046TIP3    H278554   6.621   0.204   3.198 -0.5609  0.4473  0.7051
19047TIP3   OH278555   1.342   4.459   2.717 -0.2235 -0.6750 -0.1149
19047TIP3    H178556   1.295   4.468   2.800 -0.6481  3.5378 -0.6257
19047TIP3    H278557   1.283   4.495   2.651  1.2050 -1.3678 -1.8579
19048TIP3   OH278558   2.566   0.783   3.707 -0.2159 -0.2549  0.0986
19048TIP3    H178559   2.498   0.840   3.744  0.8767  0.1789  1.5322
19048TIP3    H278560   2.559   0.702   3.757  0.3064 -0.2126  0.2466
19049TIP3   OH278561   0.036   2.852   2.434 -0.4281  0.3100 -0.3023
19049TIP3    H178562   0.082   2.785   2.384 -3.0233 -1.8945  0.0889
19049TIP3    H278563  -0.021   2.895   2.370 -0.0834  0.9785 -0.1789
19050TIP3   OH278564   2.614   4.701   5.156  0.5214  0.2276 -0.4426
19050TIP3    H178565   2.565   4.660   5.227  0.2523  1.2861 -0.0082
19050TIP3    H278566   2.560   4.686   5.078  0.4123 -0.2076 -0.2874
19051TIP3   OH278567   3.802   3.735   0.128  0.5913  0.4418 -0.0475
19051TIP3    H178568   3.852   3.653   0.136  1.2267  0.7992 -0.2624
19051TIP3    H278569   3.866   3.804   0.148 -0.1302  0.8509  0.8772
19052TIP3   OH278570   0.001   3.622   4.125  0.2827  0.4670 -0.5421
19052TIP3    H178571  -0.080   3.589   4.087  0.6874 -0.9715 -0.2214
19052TIP3    H278572   0.020   3.702   4.076 -1.3723  0.9010 -0.5437
19053TIP3   OH278573   1.994   4.268  13.295  0.0301 -0.1343  0.3534
19053TIP3    H178574   1.918   4.326  13.293 -1.1700 -1.6633 -1.5057
19053TIP3    H278575   1.958   4.182  13.313  1.5590 -0.6634  1.0954
19054TIP3   OH278576   4.933   4.841   4.719 -0.0864 -0.1209  0.0329
19054TIP3    H178577   4.962   4.750   4.723  1.4823  0.3779  2.5804
19054TIP3    H278578   4.851   4.839   4.668 -1.1173 -3.2414  1.5807
19055TIP3   OH278579   2.622   5.854  16.889  0.1915  0.0722 -0.3720
19055TIP3    H178580   2.633   5.822  16.800  2.0439 -1.3384  0.2845
19055TIP3    H278581   2.678   5.932  16.894 -0.1042  0.2944 -0.4977
19056TIP3   OH278582   4.889   5.973  10.713  0.3477  0.0860  0.2306
19056TIP3    H178583   4.814   5.947  10.767 -0.3247  0.2069 -0.6223
19056TIP3    H278584   4.933   5.891  10.692  0.3803  0.0002  0.6267
19057TIP3   OH278585   5.002   3.232  16.210 -0.2628 -0.0870  0.1635
19057TIP3    H178586   5.095   3.210  16.211 -0.2620 -0.3890 -1.8869
19057TIP3    H278587   4.958   3.148  16.198 -0.7849  0.0939  0.7746
19058TIP3   OH278588   6.145   1.870  10.460  0.7924  0.1400 -0.1880
19058TIP3    H178589   6.091   1.830  10.391 -0.0170 -2.2333  1.6779
19058TIP3    H278590   6.101   1.952  10.480  0.3525  0.2943 -1.6454
19059TIP3   OH278591   4.755   3.952   5.874 -0.0702  0.0327 -0.0597
19059TIP3    H178592   4.778   3.892   5.803  1.8056  2.4220 -1.6187
19059TIP3    H278593   4.774   3.903   5.954  0.7374 -1.6797 -1.2481
19060TIP3   OH278594   2.743   3.577   4.982  0.1564 -0.5107  0.2093
19060TIP3    H178595   2.709   3.573   4.893 -2.0682 -0.0866  0.9770
19060TIP3    H278596   2.779   3.490   4.998 -2.2344 -1.6399 -0.1026
19061TIP3   OH278597   3.411   5.969  14.123  0.0920 -0.2761 -0.0048
19061TIP3    H178598   3.436   6.061  14.121 -1.9187  0.3478  0.7257
19061TIP3    H278599   3.355   5.960  14.200  0.3051 -2.1415 -0.0036
19062TIP3   OH278600   0.863   2.210  15.581  0.3140 -0.0079 -0.0225
19062TIP3    H178601   0.918   2.247  15.650 -0.1712  0.5127  0.0960
19062TIP3    H278602   0.916   2.218  15.502  1.2892 -1.5630  0.4364
19063TIP3   OH278603   3.949   0.121   4.477  0.0741  0.2976 -0.1130
19063TIP3    H178604   4.044   0.131   4.471  0.0528  0.1406 -0.8161
19063TIP3    H278605   3.935   0.027   4.488 -0.0321  0.2262 -0.8386
19064TIP3   OH278606   5.058   3.849  13.400 -0.4067 -0.2946 -0.2668
19064TIP3    H178607   4.975   3.854  13.352 -0.2093  1.6485 -0.4725
19064TIP3    H278608   5.037   3.882  13.488  0.3958  1.6250 -0.7392
19065TIP3   OH278609   5.242   2.938   0.753 -0.1469  0.3601 -0.0836
19065TIP3    H178610   5.163   2.940   0.806  1.3139  0.4578  2.2531
19065TIP3    H278611   5.298   3.007   0.789  1.4990 -0.5261 -0.7890
19066TIP3   OH278612   0.777   2.548   4.149  0.0371 -0.0526  0.2321
19066TIP3    H178613   0.788   2.566   4.055 -0.1480  1.9309  0.5405
19066TIP3    H278614   0.804   2.457   4.160  1.1566  0.0244 -1.5516
19067TIP3   OH278615   2.497   0.446   5.464 -0.3466  0.7505  0.4647
19067TIP3    H178616   2.587   0.415   5.478 -0.3630  1.2649  1.8862
19067TIP3    H278617   2.483   0.438   5.369  1.5479  1.5924  0.0612
19068TIP3   OH278618   3.065   6.706  15.194  0.2415 -0.0277  0.5188
19068TIP3    H178619   3.060   6.771  15.123  0.1069  0.2408  0.7758
19068TIP3    H278620   3.038   6.753  15.272 -0.7336 -0.6365  0.5537
19069TIP3   OH278621   5.004   0.067  14.220  0.3685 -0.5856  0.1084
19069TIP3    H178622   4.984   0.045  14.311 -1.0486 -2.4460 -0.6059
19069TIP3    H278623   5.099   0.082  14.220  0.4840 -1.1001  1.7829
19070TIP3   OH278624   5.698   3.355   2.554 -0.4930  0.7456  0.4504
19070TIP3    H178625   5.686   3.360   2.649  1.7682 -0.8443  0.8907
19070TIP3    H278626   5.791   3.370   2.540 -0.0195 -2.6344 -1.1059
19071TIP3   OH278627   2.796   2.480   6.657 -0.3532  0.0589 -0.0952
19071TIP3    H178628   2.778   2.387   6.643  0.2543  0.1311 -1.5292
19071TIP3    H278629   2.891   2.486   6.653 -0.4494  0.9950 -1.9802
19072TIP3   OH278630   4.529   0.770  12.521 -0.1232  0.2202 -0.1624
19072TIP3    H178631   4.449   0.770  12.573  1.6110 -0.7331  2.7748
19072TIP3    H278632   4.575   0.850  12.547  1.6374 -1.1944  1.4272
19073TIP3   OH278633   1.372   1.331  11.152  0.0004  0.0919  0.0001
19073TIP3    H178634   1.336   1.419  11.163  1.1170  0.3532  1.9885
19073TIP3    H278635   1.347   1.306  11.063 -2.2362  1.5227  0.1434
19074TIP3   OH278636   1.046   5.243  15.512  0.0943 -0.2987  0.1315
19074TIP3    H178637   0.987   5.209  15.445 -0.6925  1.0375  0.1269
19074TIP3    H278638   1.044   5.178  15.582 -0.3472 -0.9032 -0.4401
19075TIP3   OH278639   0.237   4.742   0.208  0.0005 -0.0311 -0.4434
19075TIP3    H178640   0.210   4.652   0.229  0.8339  0.1799  1.7948
19075TIP3    H278641   0.242   4.744   0.112 -1.7812 -1.8390 -0.6368
19076TIP3   OH278642   3.306   1.537   2.268  0.3118  0.0031  0.9146
19076TIP3    H178643   3.297   1.445   2.291 -1.9791 -0.4334 -1.3887
19076TIP3    H278644   3.221   1.576   2.290  0.8569  1.3383  0.7859
19077TIP3   OH278645   1.445   5.468  14.542  0.2150 -0.3131  0.3059
19077TIP3    H178646   1.368   5.433  14.587  2.1665 -2.5282  2.1710
19077TIP3    H278647   1.491   5.519  14.609  1.1588 -0.3250 -0.3147
19078TIP3   OH278648   2.751   2.827  10.937  0.3923 -0.4728  0.2366
19078TIP3    H178649   2.695   2.793  10.866 -0.9963  0.3287  0.8989
19078TIP3    H278650   2.721   2.917  10.950  0.9715 -0.4455  1.5006
19079TIP3   OH278651   0.754   0.767   2.923 -0.0911  0.7067  0.0903
19079TIP3    H178652   0.688   0.748   2.857  0.3577 -0.0346 -0.1630
19079TIP3    H278653   0.708   0.820   2.988 -0.9195  0.2544 -0.1070
19080TIP3   OH278654   1.567   4.977  12.464 -0.3474  0.4878 -0.0317
19080TIP3    H178655   1.558   4.890  12.504 -2.5146  1.4036  1.6682
19080TIP3    H278656   1.526   5.037  12.527  0.3080  2.6421 -1.5536
19081TIP3   OH278657   2.834   3.137   1.607 -0.2389  0.2141 -0.6977
19081TIP3    H178658   2.847   3.056   1.656 -0.0516 -0.4233 -1.7963
19081TIP3    H278659   2.922   3.167   1.585 -0.3423  0.2036 -1.1292
19082TIP3   OH278660   4.140   0.429  14.912 -0.5856  0.6889 -0.6292
19082TIP3    H178661   4.151   0.524  14.916 -1.3037  0.7453  0.0790
19082TIP3    H278662   4.152   0.400  15.002 -2.3217  0.3326 -0.4835
19083TIP3   OH278663   2.087   2.824   5.939  0.5385 -0.4114  0.2701
19083TIP3    H178664   2.063   2.762   6.008 -0.5041 -0.2921  0.0255
19083TIP3    H278665   2.103   2.769   5.862  2.1742 -0.5920  0.6854
19084TIP3   OH278666   4.284   4.894   6.436  0.3481  0.0171 -0.6645
19084TIP3    H178667   4.204   4.849   6.464 -0.1238  1.1918 -0.0920
19084TIP3    H278668   4.353   4.828   6.447 -0.4248 -0.7930 -0.5207
19085TIP3   OH278669   2.376   3.507   5.067 -0.1650 -0.6947 -0.2051
19085TIP3    H178670   2.300   3.451   5.086 -1.2108  0.7041 -0.1264
19085TIP3    H278671   2.342   3.596   5.074  1.8833  0.0299  1.5953
19086TIP3   OH278672   4.609   3.948   2.940 -0.3928  0.1930 -0.5775
19086TIP3    H178673   4.593   3.894   3.017  0.6079  0.2215 -0.3480
19086TIP3    H278674   4.704   3.960   2.937 -0.5644  1.7741 -0.7314
19087TIP3   OH278675   5.456   0.523  14.037 -0.1292 -0.0776 -0.7306
19087TIP3    H178676   5.507   0.459  14.088  0.8895  1.6279  0.4886
19087TIP3    H278677   5.407   0.572  14.102 -0.0445  1.0909 -1.5220
19088TIP3   OH278678   0.964   4.696   5.030 -0.0694  0.0660  0.5392
19088TIP3    H178679   1.049   4.656   5.047  0.2925  0.8495  0.6571
19088TIP3    H278680   0.916   4.632   4.979  1.1203  0.1773 -0.7718
19089TIP3   OH278681   4.309   6.507   3.327 -0.5208 -0.1643  0.0351
19089TIP3    H178682   4.330   6.459   3.407 -0.3462  0.6323  0.4791
19089TIP3    H278683   4.220   6.539   3.341 -0.4595  0.0461 -0.0495
19090TIP3   OH278684   5.473   0.729  10.741 -0.0257 -0.3490  0.3379
19090TIP3    H178685   5.385   0.691  10.742 -0.3982  0.4644 -0.4906
19090TIP3    H278686   5.459   0.823  10.740  0.8357 -0.2103 -0.2726
19091TIP3   OH278687   0.535   3.053  13.433 -0.7446  0.2757 -0.3223
19091TIP3    H178688   0.531   2.958  13.424  0.9817 -0.4202  4.0260
19091TIP3    H278689   0.622   3.077  13.400 -0.7771  0.2220 -0.4490
19092TIP3   OH278690   5.001   1.471   3.761  0.4936 -0.0103 -0.3314
19092TIP3    H178691   4.965   1.417   3.691  1.5147 -1.1457 -0.0077
19092TIP3    H278692   4.937   1.463   3.832 -0.1797  0.5579 -0.8530
19093TIP3   OH278693   1.928   3.286  11.932 -0.5430  0.0035 -0.0079
19093TIP3    H178694   1.937   3.358  11.994 -2.5604  0.5132 -0.2567
19093TIP3    H278695   1.997   3.302  11.867 -1.5421  2.2687 -0.5832
19094TIP3   OH278696   4.363   6.502   4.246 -0.0585 -0.0669 -0.3395
19094TIP3    H178697   4.282   6.454   4.229 -2.0200  2.1635  1.8550
19094TIP3    H278698   4.366   6.568   4.176 -0.7234  0.4856  0.1401
19095TIP3   OH278699   3.224   1.089  16.739 -0.3432 -0.1927 -0.3973
19095TIP3    H178700   3.197   1.043  16.819 -2.0908  2.4188  0.6565
19095TIP3    H278701   3.295   1.146  16.767 -0.8157  0.5779 -0.7330
19096TIP3   OH278702   2.768   6.437   4.927  0.6493  0.0198 -0.4043
19096TIP3    H178703   2.710   6.451   4.852 -0.0899 -2.4776 -0.3695
19096TIP3    H278704   2.776   6.524   4.967 -2.7582  0.5950 -0.6593
19097TIP3   OH278705   0.645   0.054  16.769 -0.4342 -0.0121  0.5209
19097TIP3    H178706   0.594  -0.021  16.798 -1.0226 -0.0477 -0.5750
19097TIP3    H278707   0.732   0.041  16.809 -0.4392 -1.4306  0.0953
19098TIP3   OH278708   2.935   0.562  14.023  0.0831  0.7298 -0.8210
19098TIP3    H178709   2.877   0.619  14.074 -0.5765 -0.1157 -0.6064
19098TIP3    H278710   2.912   0.581  13.932 -2.0984 -1.0996 -0.7429
19099TIP3   OH278711   4.509   1.824   3.885  0.3718 -0.1518  0.1258
19099TIP3    H178712   4.518   1.902   3.831  1.4318 -1.1518 -1.1918
19099TIP3    H278713   4.564   1.758   3.843  2.1018 -0.7149  2.9785
19100TIP3   OH278714   4.449   2.563   2.049 -0.1679 -0.3280 -0.0298
19100TIP3    H178715   4.488   2.520   1.973  1.5174  1.6999 -0.4094
19100TIP3    H278716   4.521   2.613   2.088 -1.6766  1.0826  1.1119
19101TIP3   OH278717   0.856   1.078  12.908  0.0537 -0.6961  0.0228
19101TIP3    H178718   0.865   1.172  12.924  2.5752 -1.1153  1.5123
19101TIP3    H278719   0.915   1.060  12.835  0.3992 -1.2924  0.4443
19102TIP3   OH278720   1.237   6.756   6.294 -0.3858  0.6315  0.1498
19102TIP3    H178721   1.221   6.811   6.370 -1.5960  1.5301 -0.7169
19102TIP3    H278722   1.332   6.758   6.282 -0.4077  2.8885 -0.0687
19103TIP3   OH278723   4.081   2.842   3.236  0.5242  0.0758  0.3477
19103TIP3    H178724   4.010   2.881   3.185  0.5812 -1.4695 -0.9766
19103TIP3    H278725   4.160   2.863   3.186  0.5346 -1.8513 -0.5063
19104TIP3   OH278726   0.315   5.018   4.149  0.2219 -0.4922 -0.4604
19104TIP3    H178727   0.325   4.957   4.076  2.1918 -1.0323  0.2040
19104TIP3    H278728   0.311   4.963   4.227 -0.2698  0.1529 -0.0141
19105TIP3   OH278729   1.313   5.315  16.001 -0.2580  0.0150  0.5501
19105TIP3    H178730   1.401   5.283  15.979 -0.6914 -2.5584  2.0869
19105TIP3    H278731   1.281   5.355  15.920  1.7096 -0.4362 -0.5234
19106TIP3   OH278732   5.463   1.495   2.293 -0.7782 -0.5033 -0.7466
19106TIP3    H178733   5.411   1.492   2.373  0.6754 -0.4612  0.2265
19106TIP3    H278734   5.514   1.414   2.294  0.3460  0.1800 -0.8525
19107TIP3   OH278735   4.125   1.519  13.721  0.2602 -0.0793 -0.3902
19107TIP3    H178736   4.219   1.528  13.731  0.4927 -2.8086  0.8469
19107TIP3    H278737   4.096   1.603  13.685  3.2587  0.4622 -1.8251
19108TIP3   OH278738   2.879   5.397   3.234  0.1315  0.1691 -0.3356
19108TIP3    H178739   2.942   5.463   3.205  1.6261 -1.6435 -1.4284
19108TIP3    H278740   2.799   5.417   3.186 -0.2848  2.5862  1.1665
19109TIP3   OH278741   6.001   4.583   5.142  0.4035  0.1486  0.2923
19109TIP3    H178742   5.989   4.644   5.070 -0.1073  2.0420  1.9142
19109TIP3    H278743   5.924   4.527   5.140 -0.2204  1.0007  0.1180
19110TIP3   OH278744   0.064   0.402   4.424 -0.2284  0.3462  0.0926
19110TIP3    H178745  -0.025   0.436   4.430 -0.0717  0.6452  0.9462
19110TIP3    H278746   0.067   0.332   4.490  0.7937  1.8234  1.7007
19111TIP3   OH278747   2.275   3.968   2.602  0.6492  0.5371 -0.3681
19111TIP3    H178748   2.358   4.012   2.582  1.7380 -1.0666  0.4555
19111TIP3    H278749   2.261   3.985   2.696  0.5957 -0.1087 -0.2601
19112TIP3   OH278750   3.127   2.504  14.578  0.1560 -0.4705  0.5840
19112TIP3    H178751   3.189   2.510  14.505 -1.0543  1.1347 -0.3795
19112TIP3    H278752   3.166   2.439  14.637  1.9068 -0.7336 -0.7668
19113TIP3   OH278753   2.805   3.841   4.491  0.1777  0.5439  0.4623
19113TIP3    H178754   2.883   3.871   4.537  0.7758 -0.0447 -0.1406
19113TIP3    H278755   2.734   3.851   4.554  0.9612 -0.1836  1.4970
19114TIP3   OH278756   3.510   2.658   2.279 -0.4604 -0.4080 -0.4713
19114TIP3    H178757   3.528   2.701   2.363 -0.3314 -0.5162 -0.4430
19114TIP3    H278758   3.437   2.708   2.241  0.5472  0.6643 -1.0467
19115TIP3   OH278759   3.304   0.751   3.713 -0.3004  0.0541  0.0079
19115TIP3    H178760   3.219   0.712   3.736  0.5045 -0.3088  2.8675
19115TIP3    H278761   3.353   0.679   3.674 -0.7410 -0.2102 -0.0659
19116TIP3   OH278762   2.371   1.912   0.927  0.2247 -0.8806 -0.6267
19116TIP3    H178763   2.318   1.900   1.006  1.7871 -0.2955  0.5615
19116TIP3    H278764   2.362   1.830   0.879 -0.9474 -1.1532  0.0191
19117TIP3   OH278765   3.002   3.199  12.530 -0.0028 -0.3439  0.3346
19117TIP3    H178766   2.925   3.255  12.529 -0.5488 -1.0927 -0.0279
19117TIP3    H278767   3.019   3.182  12.622  0.5466  0.9162  0.4871
19118TIP3   OH278768   3.008   6.623  11.441 -0.6050  0.0425 -0.4122
19118TIP3    H178769   3.073   6.619  11.511 -0.8436 -1.4216 -0.2284
19118TIP3    H278770   3.034   6.697  11.387 -0.8535  1.6921  1.6314
19119TIP3   OH278771   2.800   5.686   2.987  0.3189 -0.3442 -0.3819
19119TIP3    H178772   2.772   5.774   2.962 -0.7188 -0.4477  0.3338
19119TIP3    H278773   2.881   5.700   3.036 -0.0898  0.2623  0.1363
19120TIP3   OH278774   0.858   6.100   1.048  0.7423 -0.4696 -0.0948
19120TIP3    H178775   0.780   6.101   0.994  1.1337 -1.0070 -0.6847
19120TIP3    H278776   0.912   6.030   1.012  2.0670  0.7044 -0.5257
19121TIP3   OH278777   0.377   0.727   0.948  0.5577 -0.1141  0.2790
19121TIP3    H178778   0.313   0.769   0.891  0.2906  0.1798  0.7783
19121TIP3    H278779   0.450   0.704   0.891 -1.1158 -3.0676 -0.9035
19122TIP3   OH278780   3.805   0.711   1.456  0.1186 -0.1799  0.3660
19122TIP3    H178781   3.795   0.718   1.361  2.8942  0.3339  0.0078
19122TIP3    H278782   3.828   0.800   1.485 -2.2876  0.0518  1.8305
19123TIP3   OH278783   6.142   0.468  15.911 -0.2823 -0.3055  0.6105
19123TIP3    H178784   6.103   0.465  15.824 -2.4719  0.4554  1.4922
19123TIP3    H278785   6.212   0.403  15.909  0.1059  0.1018 -1.8643
19124TIP3   OH278786   1.500   2.930  14.012  0.1250  0.3187 -0.1236
19124TIP3    H178787   1.512   2.849  14.061  1.6637  0.8084  0.3582
19124TIP3    H278788   1.503   2.999  14.079  1.7449  0.9623 -0.7984
19125TIP3   OH278789   2.607   6.676  15.983  0.0945 -0.6937  0.2275
19125TIP3    H178790   2.565   6.618  15.920  0.0031 -0.4016  0.0214
19125TIP3    H278791   2.671   6.725  15.932 -0.5347  0.1178  0.2015
19126TIP3   OH278792   2.907   6.519  12.480 -0.3521  0.4332 -0.1018
19126TIP3    H178793   2.874   6.434  12.451  1.8160  0.0941 -1.8109
19126TIP3    H278794   2.901   6.575  12.402  3.4984  0.1518 -0.7816
19127TIP3   OH278795   5.972   1.838  11.203 -0.1457  0.2566 -0.1805
19127TIP3    H178796   5.955   1.840  11.109  0.3171  0.3303 -0.2634
19127TIP3    H278797   6.047   1.779  11.213 -0.1866  0.2545  0.1434
19128TIP3   OH278798   4.466   4.244  11.829  0.5070 -0.1510 -0.4469
19128TIP3    H178799   4.508   4.228  11.745  0.4406  1.6777 -0.8841
19128TIP3    H278800   4.534   4.284  11.883  0.1586  0.0071 -0.1212
19129TIP3   OH278801   6.062   0.840  13.186  0.0439  0.1503 -0.3893
19129TIP3    H178802   6.110   0.757  13.192  2.2496  1.3240  5.4654
19129TIP3    H278803   6.130   0.908  13.190 -1.8337  2.2642 -1.8457
19130TIP3   OH278804   2.324   4.945  12.108 -0.1624  0.2110 -0.6792
19130TIP3    H178805   2.293   4.975  12.022  0.1753 -0.1614 -0.9356
19130TIP3    H278806   2.290   4.856  12.116 -0.6639  0.4384 -0.1779
19131TIP3   OH278807   4.968   2.993   1.525 -0.1710 -0.5744 -0.3720
19131TIP3    H178808   4.918   2.991   1.443 -0.9422  1.8172 -0.0499
19131TIP3    H278809   4.974   3.086   1.547  2.6372 -0.9358  0.7509
19132TIP3   OH278810   4.074   5.682  17.127  0.2789 -0.5820 -0.2735
19132TIP3    H178811   4.127   5.662  17.049  0.5505 -0.1639 -0.2040
19132TIP3    H278812   3.984   5.664  17.100  0.2480  0.5681 -1.0452
19133TIP3   OH278813   3.844   2.584   5.174  0.0995  0.2291  0.3143
19133TIP3    H178814   3.811   2.597   5.263  1.7972 -0.1798  1.0349
19133TIP3    H278815   3.771   2.610   5.118 -1.5220 -0.8156  1.8192
19134TIP3   OH278816   1.181   5.397   4.922 -0.7248  0.1128  0.0382
19134TIP3    H178817   1.091   5.425   4.907 -0.6648  0.4693  0.3600
19134TIP3    H278818   1.213   5.375   4.835 -1.9188 -2.4465  0.1447
19135TIP3   OH278819   2.027   1.101  16.135  0.3910  0.0362  0.5728
19135TIP3    H178820   2.117   1.067  16.133 -0.1527 -1.5604  1.5456
19135TIP3    H278821   1.979   1.043  16.076 -0.1644  0.4104  0.6581
19136TIP3   OH278822   6.414   1.361   4.509  0.0437  0.2912  0.2067
19136TIP3    H178823   6.333   1.325   4.544  0.2992 -0.5824 -0.0727
19136TIP3    H278824   6.471   1.285   4.497  1.7258  1.0420  2.4746
19137TIP3   OH278825   6.068   4.814  12.405  0.3058 -0.3760 -0.0349
19137TIP3    H178826   6.052   4.808  12.310  0.1674 -1.3962  0.0376
19137TIP3    H278827   6.045   4.904  12.427 -1.3429 -0.5867 -0.6840
19138TIP3   OH278828   5.592   4.378  11.913 -0.2519  0.1368  0.2683
19138TIP3    H178829   5.605   4.442  11.843  3.4625 -1.5091 -0.8115
19138TIP3    H278830   5.522   4.321  11.881 -1.1758  1.5659 -0.3372
19139TIP3   OH278831   0.380   4.635   4.366  0.3683  0.2802 -0.4409
19139TIP3    H178832   0.429   4.621   4.447  0.1773 -0.2215 -0.4140
19139TIP3    H278833   0.326   4.713   4.384  0.4943  0.3049 -0.1689
19140TIP3   OH278834   4.439   3.386  12.504  0.3896  0.2541 -0.0567
19140TIP3    H178835   4.489   3.371  12.585 -1.0453  1.1418  1.0314
19140TIP3    H278836   4.388   3.306  12.492 -1.7120  1.2572  1.6686
19141TIP3   OH278837   5.668   5.700   1.049  0.5899  0.3552  0.4603
19141TIP3    H178838   5.603   5.635   1.076 -0.1912  0.7795 -0.3482
19141TIP3    H278839   5.693   5.673   0.961 -0.6572  1.8187 -0.3780
19142TIP3   OH278840   2.477   3.826   4.308  0.9249  0.0201 -0.3445
19142TIP3    H178841   2.509   3.770   4.379 -1.1605 -0.4127  0.3268
19142TIP3    H278842   2.395   3.785   4.280 -0.6361  2.5910  0.0829
19143TIP3   OH278843   4.290   0.903  14.082  0.1849 -0.4310 -0.5174
19143TIP3    H178844   4.203   0.933  14.107  0.9288  0.8710  0.6150
19143TIP3    H278845   4.313   0.955  14.005  0.9575  1.0744  0.6892
19144TIP3   OH278846   1.556   0.420   5.543  0.1056 -0.1060  0.6238
19144TIP3    H178847   1.621   0.400   5.611  0.8958  2.1843  0.6436
19144TIP3    H278848   1.492   0.476   5.588 -0.8927 -0.8200  0.1296
19145TIP3   OH278849   1.985   1.121  15.405  0.7851 -0.7926  0.0972
19145TIP3    H178850   1.984   1.215  15.422  1.4439 -1.0854  1.9971
19145TIP3    H278851   1.893   1.098  15.391  0.3042 -0.2125  1.9861
19146TIP3   OH278852   3.909   5.003   0.727 -0.3910 -0.3370 -0.1236
19146TIP3    H178853   3.912   4.936   0.794 -0.2677 -0.8775 -0.6635
19146TIP3    H278854   3.948   4.962   0.650  1.3219  0.9017  0.0180
19147TIP3   OH278855   3.954   1.426   1.376 -0.4187 -0.1029  0.2599
19147TIP3    H178856   3.979   1.407   1.286 -0.0079 -0.0989  0.3728
19147TIP3    H278857   3.871   1.474   1.368 -0.0596  0.4700 -0.1533
19148TIP3   OH278858   0.794   1.848  15.759 -0.2218  0.0987  0.2549
19148TIP3    H178859   0.751   1.793  15.694 -0.6015 -1.7805  2.0076
19148TIP3    H278860   0.781   1.803  15.842  0.3224  2.3485  1.6689
19149TIP3   OH278861   6.238   2.837  12.127  0.3503 -0.1670  0.3783
19149TIP3    H178862   6.329   2.863  12.140  0.7177 -1.2353  0.0085
19149TIP3    H278863   6.191   2.880  12.199  0.7517  2.2359 -0.6904
19150TIP3   OH278864   0.628   0.858   3.931 -0.2569 -0.5821 -0.1938
19150TIP3    H178865   0.537   0.883   3.949  0.0284 -0.5702  1.3207
19150TIP3    H278866   0.647   0.900   3.847 -1.1439  0.8217  0.2550
19151TIP3   OH278867   5.790   0.816   3.929 -0.3796  0.2096  0.3511
19151TIP3    H178868   5.741   0.734   3.933 -0.6082  0.3432  0.3399
19151TIP3    H278869   5.787   0.850   4.019  0.0358  0.0204  0.4361
19152TIP3   OH278870   6.229   4.297  11.614  0.8202  0.0146  0.3497
19152TIP3    H178871   6.186   4.366  11.564  1.3284  0.4540  0.5118
19152TIP3    H278872   6.176   4.288  11.693  1.2546  0.8553  0.7506
19153TIP3   OH278873   2.958   2.331  15.630 -0.1569  0.1469  0.0631
19153TIP3    H178874   3.039   2.289  15.604 -0.7787 -1.1319  0.1077
19153TIP3    H278875   2.955   2.412  15.579  0.3088 -0.6296 -1.2483
19154TIP3   OH278876   0.167   2.189   4.209 -0.3598 -0.1810 -0.1972
19154TIP3    H178877   0.233   2.120   4.201 -0.3039 -0.0618 -0.8508
19154TIP3    H278878   0.189   2.234   4.291  1.6173  1.1187 -1.3505
19155TIP3   OH278879   1.733   0.138  14.265 -0.7071  0.0970  0.2720
19155TIP3    H178880   1.661   0.076  14.255 -0.3470 -0.2723 -0.1487
19155TIP3    H278881   1.699   0.207  14.321 -1.7367  0.4698 -0.7818
19156TIP3   OH278882   3.129   5.768   5.148  0.2864 -0.1877 -0.9317
19156TIP3    H178883   3.052   5.810   5.186  0.0085 -0.4158 -1.2293
19156TIP3    H278884   3.203   5.817   5.182  0.1467 -1.1759  0.9556
19157TIP3   OH278885   0.969   1.441   6.600  0.6197 -0.0655 -0.3444
19157TIP3    H178886   0.896   1.379   6.602  0.1522  0.4564 -0.9014
19157TIP3    H278887   1.042   1.392   6.639 -0.3360 -0.1729  1.4611
19158TIP3   OH278888   4.358   4.122   0.989 -0.3448 -0.1727 -0.1065
19158TIP3    H178889   4.337   4.176   0.913  1.0941  1.6017  0.6682
19158TIP3    H278890   4.416   4.177   1.042 -0.6097 -1.6721  1.8587
19159TIP3   OH278891   4.642   5.089  14.285 -0.2259  0.1650 -0.0767
19159TIP3    H178892   4.696   5.157  14.327  0.4230 -0.0433 -0.5577
19159TIP3    H278893   4.665   5.008  14.330  3.0245 -0.7245 -2.8754
19160TIP3   OH278894   3.868   4.728  10.702  0.1547  0.1291 -0.4225
19160TIP3    H178895   3.935   4.675  10.658 -0.2522  0.1767 -1.1140
19160TIP3    H278896   3.787   4.679  10.690  0.3887 -1.2288  2.5731
19161TIP3   OH278897   2.464   2.935  11.508  0.3950  0.0793  0.5351
19161TIP3    H178898   2.534   2.980  11.556  1.1892  0.8275 -1.2500
19161TIP3    H278899   2.384   2.963  11.552  1.1692 -0.9916  2.7916
19162TIP3   OH278900   2.006   0.238  13.096  0.0797  0.0336 -0.1507
19162TIP3    H178901   2.013   0.150  13.133 -0.2343  1.0909  2.6490
19162TIP3    H278902   1.923   0.236  13.047 -0.1621 -1.1078  0.2654
19163TIP3   OH278903   2.479   4.618  15.037  0.1117 -0.4291 -0.3019
19163TIP3    H178904   2.509   4.570  14.960  0.8151  0.0118 -0.3155
19163TIP3    H278905   2.421   4.686  15.002 -0.7756 -1.1585 -0.2936
19164TIP3   OH278906   5.228   2.846   1.702  0.0190 -0.7832 -0.2277
19164TIP3    H178907   5.292   2.793   1.749  0.1643 -0.2352  0.2040
19164TIP3    H278908   5.144   2.824   1.742  0.2258  0.2093  0.8015
19165TIP3   OH278909   1.803   3.199   5.477 -0.1607 -0.1692 -0.0449
19165TIP3    H178910   1.746   3.277   5.477 -2.0859 -1.4559 -1.5931
19165TIP3    H278911   1.815   3.177   5.569 -1.2598  0.8112  0.3575
19166TIP3   OH278912   3.372   5.457   3.702 -0.2917  0.4004 -0.5636
19166TIP3    H178913   3.354   5.396   3.773  0.1415  0.2265 -0.5983
19166TIP3    H278914   3.300   5.445   3.640 -0.6556  0.5328 -0.1713
19167TIP3   OH278915   0.655   2.305   3.186 -0.3656  0.1459 -0.3309
19167TIP3    H178916   0.618   2.242   3.248  0.3904 -0.2972 -0.3103
19167TIP3    H278917   0.711   2.252   3.129 -0.9802  0.5553 -1.3534
19168TIP3   OH278918   3.123   0.191  15.322  0.5902  0.3598 -0.1806
19168TIP3    H178919   3.087   0.213  15.236 -0.6269  0.6570  0.3837
19168TIP3    H278920   3.152   0.275  15.359 -0.7776  0.5574  0.5141
19169TIP3   OH278921   3.151   6.277  12.940  0.0181  0.2173  0.4769
19169TIP3    H178922   3.216   6.288  12.871  0.5275 -0.1615  0.8851
19169TIP3    H278923   3.182   6.202  12.991 -0.2617  0.5759  1.1992
19170TIP3   OH278924   1.896   2.195  12.782 -0.1461 -0.4879 -0.6296
19170TIP3    H178925   1.952   2.239  12.718  0.6356 -0.2554  0.1872
19170TIP3    H278926   1.813   2.242  12.777  0.6650  1.1360  0.2175
19171TIP3   OH278927   1.330   4.250  16.926 -0.0646  0.1307 -0.2756
19171TIP3    H178928   1.329   4.345  16.938 -1.0350 -0.1762  3.1038
19171TIP3    H278929   1.241   4.229  16.896 -0.3612  0.1615  0.5668
19172TIP3   OH278930   1.823   5.209  15.646 -0.1589  0.2790 -0.5129
19172TIP3    H178931   1.858   5.281  15.698  0.3262 -0.6874  0.5665
19172TIP3    H278932   1.734   5.236  15.625  0.2605  1.5140 -0.7979
19173TIP3   OH278933   1.635   4.987   2.544  0.1305 -0.1727  0.6927
19173TIP3    H178934   1.656   4.906   2.497 -0.3079  0.3342 -0.3990
19173TIP3    H278935   1.659   5.056   2.484 -1.4600  0.4884  0.7798
19174TIP3   OH278936   3.920   4.890   6.091  0.6633 -0.3532 -0.0996
19174TIP3    H178937   3.925   4.802   6.127 -0.6723  0.3348  1.9058
19174TIP3    H278938   3.829   4.898   6.061  0.5711  0.5736  0.4023
19175TIP3   OH278939   6.186   0.924  12.037 -0.4909  0.1133  0.2170
19175TIP3    H178940   6.118   0.867  12.001 -2.6943  1.9565  1.2406
19175TIP3    H278941   6.189   0.902  12.130  0.3626  0.0517  0.1853
19176TIP3   OH278942   4.379   3.347   5.208  0.4510  0.4820  0.6012
19176TIP3    H178943   4.465   3.347   5.248 -0.3499  0.5789  2.4139
19176TIP3    H278944   4.348   3.257   5.219  0.2356  0.4919  0.1145
19177TIP3   OH278945   2.926   3.063  15.093  0.5440  0.1958  0.4866
19177TIP3    H178946   2.963   3.033  15.176 -0.7650 -0.6219  0.7982
19177TIP3    H278947   2.862   2.996  15.069 -0.1121  1.1232 -0.4751
19178TIP3   OH278948   6.440   3.812   6.174 -0.5011 -0.0494 -0.6383
19178TIP3    H178949   6.519   3.790   6.223 -0.5861  0.4228 -0.2755
19178TIP3    H278950   6.434   3.908   6.180 -0.2255  0.0667 -2.0242
19179TIP3   OH278951   0.971   0.565  16.542 -0.0050  0.4594 -0.3250
19179TIP3    H178952   0.886   0.531  16.569  0.5047 -0.4306  0.1998
19179TIP3    H278953   0.952   0.618  16.465 -1.3134  1.8790  0.8960
19180TIP3   OH278954   2.741   5.591  11.514 -0.1968  0.3427 -0.2739
19180TIP3    H178955   2.692   5.649  11.455  0.2371  1.0804  0.0788
19180TIP3    H278956   2.805   5.648  11.556  0.2174 -0.3933  0.1118
19181TIP3   OH278957   2.046   0.401   6.079  0.7480 -0.8801  0.1731
19181TIP3    H178958   2.026   0.439   6.165  1.4797  0.3307 -0.1549
19181TIP3    H278959   2.124   0.449   6.050  1.9821 -2.9382 -0.1279
19182TIP3   OH278960   6.328   1.591   1.760  0.1886 -0.2969 -0.2290
19182TIP3    H178961   6.335   1.561   1.851  0.0724  0.1331 -0.0760
19182TIP3    H278962   6.377   1.526   1.710 -0.8839 -1.3088 -0.0216
19183TIP3   OH278963   2.736   6.357   0.202 -0.2805 -0.0623 -0.5660
19183TIP3    H178964   2.775   6.288   0.256 -1.6560 -1.8448 -1.6933
19183TIP3    H278965   2.797   6.368   0.129 -0.2056 -0.3265 -0.5445
19184TIP3   OH278966   1.820   4.754   4.134  0.2881  0.3126 -0.1606
19184TIP3    H178967   1.808   4.751   4.229  2.1091 -1.6165  0.0850
19184TIP3    H278968   1.734   4.731   4.098 -0.1531 -0.0253  1.0648
19185TIP3   OH278969   6.776   5.563  13.451 -0.7582  0.1402  0.3275
19185TIP3    H178970   6.696   5.566  13.399 -0.8807  2.5241  0.5429
19185TIP3    H278971   6.834   5.626  13.408  1.0004 -1.4412  0.2384
19186TIP3   OH278972   2.332   6.615   2.529  0.5415 -0.3187 -0.0767
19186TIP3    H178973   2.349   6.522   2.512  0.6365 -0.1004 -1.2124
19186TIP3    H278974   2.277   6.615   2.608 -3.4057 -1.6237 -2.5586
19187TIP3   OH278975   5.293   3.350   0.896  0.1919  0.1092 -0.0375
19187TIP3    H178976   5.312   3.444   0.887 -1.7617  0.5248 -0.2812
19187TIP3    H278977   5.380   3.309   0.898  1.1050  1.8955 -0.0180
19188TIP3   OH278978   2.064   4.172   4.650 -0.1780 -0.5710 -0.2208
19188TIP3    H178979   2.110   4.255   4.665 -1.3109  0.0513 -0.0252
19188TIP3    H278980   2.082   4.150   4.559 -1.7801  1.1793 -1.0470
19189TIP3   OH278981   5.896   5.010   0.687 -0.1119 -0.2138  0.1392
19189TIP3    H178982   5.896   4.995   0.781 -1.9713 -0.5267  0.1389
19189TIP3    H278983   5.854   4.933   0.650 -1.0922  0.6968 -0.7491
19190TIP3   OH278984   1.313   5.932   3.565  0.1550 -0.6552  0.8080
19190TIP3    H178985   1.349   6.007   3.518  2.2228 -1.5955  0.7713
19190TIP3    H278986   1.299   5.963   3.654 -1.5774  0.4883  0.1870
19191TIP3   OH278987   6.524   2.226   2.336  0.0301 -0.3374  0.1138
19191TIP3    H178988   6.592   2.235   2.269  0.4135 -0.5016  0.4809
19191TIP3    H278989   6.500   2.133   2.333 -2.1333  0.1909 -1.9139
19192TIP3   OH278990   4.597   5.273   1.228  0.0280  0.0720  0.5715
19192TIP3    H178991   4.516   5.226   1.208 -2.2054  3.2564  1.4624
19192TIP3    H278992   4.626   5.307   1.143  0.5345 -1.0975  0.2466
19193TIP3   OH278993   2.069   3.688   5.598  0.0768  0.1710 -0.4419
19193TIP3    H178994   2.130   3.710   5.528  0.1470 -0.0390 -0.4481
19193TIP3    H278995   2.060   3.769   5.649  1.8391 -0.2880  0.6937
19194TIP3   OH278996   5.776   1.790  15.082  0.0223 -0.5439 -0.0305
19194TIP3    H178997   5.692   1.745  15.081 -0.5978  0.6060 -0.1845
19194TIP3    H278998   5.808   1.784  14.992 -1.1580  1.3038 -0.6336
19195TIP3   OH278999   6.181   0.910  14.736  0.4434 -0.1358 -0.0510
19195TIP3    H179000   6.144   0.928  14.649 -0.7930  2.3298  0.8715
19195TIP3    H279001   6.255   0.970  14.744  0.4502 -0.2286  0.6619
19196TIP3   OH279002   3.488   3.914   4.452 -0.7363  0.0733 -0.3269
19196TIP3    H179003   3.511   3.980   4.518  0.4652  1.4492 -2.0126
19196TIP3    H279004   3.475   3.833   4.501 -1.2510  1.3364  1.7150
19197TIP3   OH279005   1.885   3.508  14.132 -0.4435 -0.0740 -0.2802
19197TIP3    H179006   1.822   3.577  14.109 -0.9288 -0.2024  0.6274
19197TIP3    H279007   1.938   3.545  14.202  0.9852  0.2868 -1.4914
19198TIP3   OH279008   3.967   6.576  17.128  0.3405  0.1678 -0.3069
19198TIP3    H179009   4.016   6.600  17.050 -0.4365 -0.4102 -0.9819
19198TIP3    H279010   4.032   6.536  17.186  0.4596 -1.7285 -1.6937
19199TIP3   OH279011   0.181   2.920   4.015 -0.0627  0.0288  0.3337
19199TIP3    H179012   0.256   2.925   3.956 -1.7048  1.1852 -1.8096
19199TIP3    H279013   0.160   2.827   4.019  0.2834 -0.1006 -0.6573
19200TIP3   OH279014   5.019   1.242  12.192  0.6234 -0.2018 -0.1077
19200TIP3    H179015   4.975   1.186  12.129 -1.4067  0.0389  1.0167
19200TIP3    H279016   5.013   1.330  12.155  2.0741 -0.4275 -0.9426
19201TIP3   OH279017   4.452   5.310  13.643  0.5091  0.1796 -0.8510
19201TIP3    H179018   4.428   5.338  13.731  0.0793 -2.7697  0.0577
19201TIP3    H279019   4.423   5.382  13.587 -1.4744  1.0741  1.1720
19202TIP3   OH279020   3.423   5.389   1.334 -0.4620 -0.2825 -0.2953
19202TIP3    H179021   3.442   5.351   1.249 -0.3682 -0.3983 -0.2227
19202TIP3    H279022   3.331   5.367   1.350 -0.1808 -1.2144  0.1218
19203TIP3   OH279023   0.097   0.758   2.973  0.3021  0.1101 -0.5762
19203TIP3    H179024   0.025   0.709   3.012  0.4415 -2.0544 -2.7642
19203TIP3    H279025   0.058   0.802   2.898  0.9982 -0.1469 -1.1058
19204TIP3   OH279026   0.230   3.516   1.885  0.1413 -0.6261  0.9751
19204TIP3    H179027   0.201   3.527   1.795  1.3265  2.5594  0.8659
19204TIP3    H279028   0.287   3.439   1.883  0.4616 -0.3868 -1.0807
19205TIP3   OH279029   2.775   5.238   0.475 -0.3312  0.3050  0.7729
19205TIP3    H179030   2.703   5.297   0.453 -0.8342 -0.0831  1.3541
19205TIP3    H279031   2.809   5.208   0.391  0.1861  1.7195  0.4567
19206TIP3   OH279032   5.194   5.143   1.638  0.1697  0.2322  0.2228
19206TIP3    H179033   5.221   5.130   1.547  0.4969 -1.3208  0.5172
19206TIP3    H279034   5.105   5.108   1.643  0.4159 -0.3605  0.6461
19207TIP3   OH279035   4.506   1.476   2.372 -0.0826  0.2625  0.0437
19207TIP3    H179036   4.421   1.502   2.408 -0.5606 -1.9190  0.6842
19207TIP3    H279037   4.485   1.402   2.314  1.2108  0.8093 -1.1589
19208TIP3   OH279038   6.260   5.718   6.034  0.0595  0.4465  0.2612
19208TIP3    H179039   6.219   5.783   5.977  0.9029  0.8112  0.0625
19208TIP3    H279040   6.228   5.739   6.121 -1.0547  0.0325 -0.0250
19209TIP3   OH279041   2.853   3.318   5.983 -0.7453 -0.3667  0.1369
19209TIP3    H179042   2.840   3.341   6.074 -0.2868  0.5836 -0.0332
19209TIP3    H279043   2.805   3.385   5.934 -0.3792 -0.4448 -0.3334
19210TIP3   OH279044   1.200   2.631  15.254 -0.2835  0.4868  0.0537
19210TIP3    H179045   1.240   2.684  15.323  0.8792  1.8155 -1.5599
19210TIP3    H279046   1.249   2.548  15.256  0.3532  0.8594  0.2443
19211TIP3   OH279047   0.114   4.446   5.621  0.2106 -0.0054 -0.4052
19211TIP3    H179048   0.099   4.529   5.576  0.5080  0.2831  0.0162
19211TIP3    H279049   0.191   4.409   5.579  0.3936  0.1885 -0.2467
19212TIP3   OH279050   1.630   3.297  11.147  0.2359  0.1244 -0.5194
19212TIP3    H179051   1.541   3.279  11.176 -0.1164  1.0437 -0.9948
19212TIP3    H279052   1.658   3.372  11.200  0.0700  0.9733 -1.6083
19213TIP3   OH279053   0.278   6.513  15.981  0.0112 -0.2810 -0.4247
19213TIP3    H179054   0.283   6.583  16.046 -1.5724 -1.1374  0.6502
19213TIP3    H279055   0.261   6.559  15.898 -1.2669  0.6125  0.2995
19214TIP3   OH279056   2.172   3.927  14.497  0.5276 -0.6036  0.1638
19214TIP3    H179057   2.198   3.839  14.525  0.2260 -1.2633 -1.4781
19214TIP3    H279058   2.169   3.921  14.401 -0.3240  0.9623  0.0634
19215TIP3   OH279059   0.965   4.847  14.216  0.7514  0.0155 -0.3219
19215TIP3    H179060   0.940   4.816  14.130  0.6126 -0.7772  0.0007
19215TIP3    H279061   1.015   4.927  14.199  1.4194 -0.5726 -1.1792
19216TIP3   OH279062   6.747   4.139  14.458  0.1421 -0.4517  0.1262
19216TIP3    H179063   6.841   4.133  14.442  0.1644  1.2277 -0.5913
19216TIP3    H279064   6.729   4.233  14.459 -1.4878 -0.7404  0.5608
19217TIP3   OH279065   3.013   4.360  11.525  0.1796  0.1415 -0.3370
19217TIP3    H179066   2.936   4.304  11.515 -0.6017  1.1691 -0.3604
19217TIP3    H279067   3.014   4.414  11.446  0.7843  0.3025 -0.2238
19218TIP3   OH279068   4.406   6.475   2.820  0.2222  0.0626  0.0050
19218TIP3    H179069   4.485   6.425   2.799  0.4336  0.5312 -0.3123
19218TIP3    H279070   4.368   6.496   2.735 -1.0705 -1.4508  0.1436
19219TIP3   OH279071   3.394   3.000   4.180 -0.1282 -0.3028  0.6520
19219TIP3    H179072   3.329   2.970   4.244  0.1556 -1.7403  0.2947
19219TIP3    H279073   3.354   3.078   4.141 -0.5078  0.3265  2.2301
19220TIP3   OH279074   0.818   4.805   3.262 -0.3581 -0.0314 -0.3906
19220TIP3    H179075   0.741   4.804   3.319 -0.0556 -1.3209  0.0425
19220TIP3    H279076   0.806   4.882   3.206 -1.8960 -0.1184 -0.2356
19221TIP3   OH279077   4.737   5.537  12.065 -0.8186 -0.1433  0.1979
19221TIP3    H179078   4.752   5.591  12.142 -0.0647  0.5465 -0.4162
19221TIP3    H279079   4.651   5.565  12.033 -0.1468  1.1825 -0.4915
19222TIP3   OH279080   1.615   0.673  13.895 -0.0132  0.2851 -0.1243
19222TIP3    H179081   1.635   0.756  13.852  1.2084 -0.2459 -0.6300
19222TIP3    H279082   1.645   0.606  13.833  0.3960 -0.5095  0.9018
19223TIP3   OH279083   4.711   1.921  12.437  0.1316 -0.3505  0.5523
19223TIP3    H179084   4.651   1.931  12.511  0.4733 -0.5882  0.8695
19223TIP3    H279085   4.702   1.829  12.412  0.6509 -0.4901  0.8614
19224TIP3   OH279086   5.767   5.350   2.792 -0.0478 -0.1298 -0.1975
19224TIP3    H179087   5.734   5.438   2.775 -2.4267 -0.7554  0.8555
19224TIP3    H279088   5.732   5.296   2.721 -1.0290 -0.7406  0.7288
19225TIP3   OH279089   6.087   1.977   2.211 -0.1447 -0.4795 -0.1320
19225TIP3    H179090   6.121   1.984   2.300  0.7389 -2.2809 -0.2920
19225TIP3    H279091   6.000   2.017   2.216  0.0524 -0.1767  1.4250
19226TIP3   OH279092   6.579   6.481   6.379 -0.6013 -0.3136  0.2804
19226TIP3    H179093   6.615   6.520   6.300 -0.7155 -1.0371 -0.1428
19226TIP3    H279094   6.505   6.537   6.403 -3.6198 -2.5535 -2.8332
19227TIP3   OH279095   4.792   3.829   0.291  0.6353 -0.0757 -0.4587
19227TIP3    H179096   4.755   3.807   0.205  0.3831 -1.6201  0.0177
19227TIP3    H279097   4.719   3.822   0.351  0.6304  1.7984 -0.1913
19228TIP3   OH279098   1.340   2.380  12.783  0.2480  0.0823 -0.2968
19228TIP3    H179099   1.363   2.292  12.815  0.3238  0.3987  0.5414
19228TIP3    H279100   1.246   2.387  12.795  0.2641  0.1710 -0.2194
19229TIP3   OH279101   2.722   2.374   2.279 -0.3996 -0.2829 -0.0574
19229TIP3    H179102   2.721   2.330   2.194  4.1145 -2.2680  0.6138
19229TIP3    H279103   2.690   2.309   2.341 -0.8247  0.0759  0.1038
19230TIP3   OH279104   6.655   2.050   5.582  0.3080  0.1442  0.4878
19230TIP3    H179105   6.674   2.128   5.531  2.1067 -0.0647  0.7644
19230TIP3    H279106   6.677   2.074   5.672  1.4352 -0.8284  0.4940
19231TIP3   OH279107   5.916   3.680   2.655  0.2386  0.2335  0.7409
19231TIP3    H179108   5.996   3.713   2.614  0.7707  1.1705  2.4376
19231TIP3    H279109   5.894   3.745   2.722 -1.6069 -0.3148  0.7330
19232TIP3   OH279110   3.284   5.661   3.431  0.2416  0.2002  0.2347
19232TIP3    H179111   3.278   5.704   3.345 -0.2762 -1.3366 -0.5401
19232TIP3    H279112   3.344   5.588   3.417  0.9877  0.5432  1.4852
19233TIP3   OH279113   4.134   2.142   2.098 -0.2631 -0.3540 -0.4119
19233TIP3    H179114   4.058   2.090   2.124 -0.5750  0.7682  1.0739
19233TIP3    H279115   4.207   2.081   2.101 -1.0839 -1.4801 -1.9644
19234TIP3   OH279116   4.571   2.089  13.488  0.9688 -0.0804 -0.1577
19234TIP3    H179117   4.561   2.057  13.398  0.0968 -0.6251  0.1238
19234TIP3    H279118   4.487   2.128  13.509  1.8068  1.8913 -0.2639
19235TIP3   OH279119   5.281   5.781   4.352 -0.4106  0.3092  0.2665
19235TIP3    H179120   5.304   5.703   4.303  0.3469 -0.4170  1.7236
19235TIP3    H279121   5.351   5.843   4.333 -1.1138  0.7530 -1.0480
19236TIP3   OH279122   3.451   1.697  14.078 -0.4681  0.3589  0.1688
19236TIP3    H179123   3.423   1.765  14.139 -0.6254  1.9579 -1.6066
19236TIP3    H279124   3.537   1.727  14.046  0.2127 -1.1029  0.5376
19237TIP3   OH279125   1.042   2.999   3.192 -0.4500 -0.4981  0.0992
19237TIP3    H179126   0.960   2.951   3.175 -1.2757  0.7215  0.5085
19237TIP3    H279127   1.024   3.088   3.163  0.9197 -0.3195 -0.2391
19238TIP3   OH279128   4.046   4.376   2.123 -0.0985  0.2284 -0.1765
19238TIP3    H179129   3.958   4.402   2.097  0.1448  0.4335 -0.8342
19238TIP3    H279130   4.103   4.416   2.057  0.4996  0.2433  0.3373
19239TIP3   OH279131   4.214   2.990   2.565 -0.0710 -0.1794 -0.3024
19239TIP3    H179132   4.309   2.981   2.560 -0.1170 -1.2899  0.4354
19239TIP3    H279133   4.180   2.930   2.498 -0.2798 -2.2333  1.5148
19240TIP3   OH279134   5.172   5.913   5.825  0.1803 -0.1120  0.1743
19240TIP3    H179135   5.096   5.971   5.817 -0.8118 -1.4912 -0.7737
19240TIP3    H279136   5.196   5.917   5.917 -0.8223  0.6089  0.4164
19241TIP3   OH279137   1.557   0.216  11.386  0.4525 -0.1028  0.2310
19241TIP3    H179138   1.609   0.288  11.422 -1.4883  1.3975  0.1861
19241TIP3    H279139   1.489   0.259  11.334 -0.6761 -1.9831  0.0625
19242TIP3   OH279140   2.524   1.773  15.089  0.2296 -0.3143 -0.1825
19242TIP3    H179141   2.479   1.781  15.005  0.5146  0.1273 -0.2992
19242TIP3    H279142   2.616   1.757  15.065  0.3632  0.1043  0.0397
19243TIP3   OH279143   2.239   5.162   4.398 -0.2223  0.0586  0.3987
19243TIP3    H179144   2.333   5.155   4.379 -0.2560  0.1893  0.1849
19243TIP3    H279145   2.217   5.079   4.441 -0.7901 -1.6649 -2.9079
19244TIP3   OH279146   2.831   6.633  10.805  0.2690 -0.0146 -0.2528
19244TIP3    H179147   2.819   6.712  10.858  1.6150  0.5948 -0.8182
19244TIP3    H279148   2.826   6.561  10.868 -2.8464  0.3316  0.0196
19245TIP3   OH279149   0.799   4.932   2.800  0.0249  0.3670  0.5002
19245TIP3    H179150   0.707   4.928   2.776  0.2345  0.2942 -0.2975
19245TIP3    H279151   0.804   5.006   2.861 -0.1684  1.9416 -1.3111
19246TIP3   OH279152   0.880   2.447   0.576  0.0164 -0.2791  0.3426
19246TIP3    H179153   0.811   2.404   0.525  0.1145  0.8631 -0.8209
19246TIP3    H279154   0.840   2.465   0.661 -0.6158 -0.9698  0.2008
19247TIP3   OH279155   4.734   6.776   6.571  0.0472  0.5605 -0.6760
19247TIP3    H179156   4.714   6.869   6.565  0.7993  0.6673 -1.7921
19247TIP3    H279157   4.765   6.752   6.484  2.6127 -0.0580  0.3156
19248TIP3   OH279158   6.431   6.503  17.173 -0.4878  0.3388 -0.1977
19248TIP3    H179159   6.409   6.561  17.246 -1.2291  1.2087 -1.0964
19248TIP3    H279160   6.521   6.528  17.149 -0.5176  0.5685 -0.0700
19249TIP3   OH279161   2.908   3.795  15.648  0.0567  0.0619  0.0280
19249TIP3    H179162   2.845   3.725  15.631  1.4212 -0.9432 -1.2269
19249TIP3    H279163   2.885   3.864  15.587  0.8436 -0.7974 -1.2956
19250TIP3   OH279164   1.522   6.050  11.914 -0.4201  0.1362 -0.2462
19250TIP3    H179165   1.453   6.000  11.957 -0.5900  0.9208  0.4224
19250TIP3    H279166   1.488   6.140  11.911  1.0408  0.7909  1.2045
19251TIP3   OH279167   1.978   1.307  16.314  0.4888 -0.2145  0.1922
19251TIP3    H179168   2.033   1.371  16.269 -0.5096 -0.4429 -1.4208
19251TIP3    H279169   1.978   1.231  16.256 -2.4375  0.1904 -0.4469
19252TIP3   OH279170   5.402   5.707  12.479  0.3271 -0.9590 -0.1190
19252TIP3    H179171   5.349   5.786  12.491  0.2832 -0.9620 -0.2839
19252TIP3    H279172   5.341   5.643  12.443  0.7024 -0.6088 -1.4317
19253TIP3   OH279173   5.751   0.772  16.973  1.0180 -0.1863  0.2517
19253TIP3    H179174   5.725   0.726  17.053  2.2212  1.8968  1.9480
19253TIP3    H279175   5.701   0.854  16.975  0.0938 -0.6271 -1.8700
19254TIP3   OH279176   6.424   0.070   0.435 -0.2273 -0.2045 -0.2225
19254TIP3    H179177   6.436  -0.005   0.493  0.8347 -0.4280 -0.7264
19254TIP3    H279178   6.511   0.088   0.399 -0.6333  0.7169 -0.7885
19255TIP3   OH279179   0.880   5.297   4.946 -0.1286  0.5303  0.1895
19255TIP3    H179180   0.890   5.287   4.852  1.0417 -0.9875  0.4357
19255TIP3    H279181   0.803   5.352   4.956 -2.2080 -1.8601 -1.5956
19256TIP3   OH279182   5.847   2.544  14.941 -0.0778 -0.0570 -0.0924
19256TIP3    H179183   5.913   2.610  14.965  0.1631 -0.2024 -0.3553
19256TIP3    H279184   5.787   2.543  15.016 -0.2243  0.6401 -0.1884
19257TIP3   OH279185   5.814   0.033   1.620 -0.3688 -0.0305  0.2645
19257TIP3    H179186   5.793   0.119   1.655  1.4782  0.2564  0.7724
19257TIP3    H279187   5.735   0.007   1.572 -1.1447  1.7128  0.5067
19258TIP3   OH279188   1.445   6.420   2.869  0.0711  0.2474 -0.2006
19258TIP3    H179189   1.356   6.435   2.838  0.0607  0.6171  0.0036
19258TIP3    H279190   1.444   6.449   2.960  0.1716 -0.5832  0.0656
19259TIP3   OH279191   6.029   4.650   4.397 -0.2464  0.2421 -0.0236
19259TIP3    H179192   6.071   4.606   4.323 -0.0006  0.9293 -0.3051
19259TIP3    H279193   5.968   4.585   4.432 -0.2520 -0.1473 -0.7295
19260TIP3   OH279194   1.695   0.622  11.724 -0.7326 -0.0638 -0.1522
19260TIP3    H179195   1.610   0.610  11.765 -0.2566 -1.7351  0.4098
19260TIP3    H279196   1.744   0.542  11.744  2.0215  1.9552  2.0638
19261TIP3   OH279197   1.775   0.229   1.798 -0.3301  0.1228  0.2187
19261TIP3    H179198   1.803   0.146   1.759 -2.0619 -1.4356  2.0631
19261TIP3    H279199   1.856   0.269   1.830  0.4572 -1.2221 -0.0086
19262TIP3   OH279200   3.733   1.972  13.521 -0.0336  0.5490 -0.1461
19262TIP3    H179201   3.701   1.895  13.473  1.2167 -0.5777  0.7558
19262TIP3    H279202   3.714   2.045  13.463 -0.1512 -0.5741 -1.5868
19263TIP3   OH279203   1.344   0.622  11.622 -0.5949  0.0052  0.2787
19263TIP3    H179204   1.269   0.677  11.643 -1.5245 -0.9471 -0.4419
19263TIP3    H279205   1.394   0.618  11.704  0.9323  3.9575 -0.2377
19264TIP3   OH279206   0.975   3.630   3.269  0.2939 -0.1126  0.4154
19264TIP3    H179207   1.028   3.701   3.234 -1.1879  0.5041 -0.6528
19264TIP3    H279208   0.956   3.574   3.194  0.3608 -0.9574  1.0051
19265TIP3   OH279209   6.190   0.055   3.874 -0.2018 -0.0821 -0.3830
19265TIP3    H179210   6.265   0.045   3.816  0.4248 -0.0470  0.3963
19265TIP3    H279211   6.218   0.122   3.937 -0.3854 -0.9783  0.6868
19266TIP3   OH279212   3.304   4.465  16.582  0.4527  0.0189  0.1976
19266TIP3    H179213   3.283   4.455  16.489  2.0326  1.0132 -0.3119
19266TIP3    H279214   3.314   4.376  16.615  3.7108 -0.4162 -1.5749
19267TIP3   OH279215   5.046   2.832   4.728 -0.3004  0.2660 -0.1186
19267TIP3    H179216   5.119   2.773   4.748 -0.3071 -0.0299 -0.9242
19267TIP3    H279217   5.004   2.793   4.650 -1.0427  0.6754  0.0675
19268TIP3   OH279218   4.336   4.513  12.788 -0.3413  0.8757  0.5546
19268TIP3    H179219   4.242   4.523  12.798 -0.5692 -0.0121 -0.5250
19268TIP3    H279220   4.352   4.523  12.694  0.4045 -0.6225  0.4886
19269TIP3   OH279221   0.001   2.530   0.137  0.5743 -0.1461 -0.3066
19269TIP3    H179222   0.060   2.514   0.063  0.8547 -1.5944  0.2118
19269TIP3    H279223   0.005   2.450   0.189 -1.4939 -0.1038 -0.0137
19270TIP3   OH279224   6.025   1.229  13.633  0.3370  0.2800  0.0584
19270TIP3    H179225   6.081   1.186  13.697  0.0776  1.7176  1.2994
19270TIP3    H279226   6.030   1.322  13.655 -2.8909  0.4541  0.5507
19271TIP3   OH279227   3.562   4.966   0.051 -0.5848  0.5614 -0.3164
19271TIP3    H179228   3.635   4.904   0.047 -1.4814 -0.6638  0.9844
19271TIP3    H279229   3.554   4.988   0.144 -1.8287  0.6964 -0.4332
19272TIP3   OH279230   2.246   0.446  11.278 -0.7285 -0.2341  0.2800
19272TIP3    H179231   2.328   0.417  11.237 -2.0680 -1.1634 -1.9201
19272TIP3    H279232   2.237   0.390  11.355  0.1461 -0.8950 -0.0752
19273TIP3   OH279233   5.383   5.538   2.400 -0.2078  0.0620 -0.2297
19273TIP3    H179234   5.383   5.607   2.466 -1.4652  0.4815 -0.6448
19273TIP3    H279235   5.436   5.468   2.438  0.4194  0.9260  0.5341
19274TIP3   OH279236   3.463   5.051  13.875  0.1608 -0.2879  0.5882
19274TIP3    H179237   3.429   5.023  13.789  0.1157 -0.3485  0.6255
19274TIP3    H279238   3.388   5.094  13.917  0.6678  1.3592 -0.1240
19275TIP3   OH279239   2.626   4.759  14.158  0.5883 -0.1954  0.2031
19275TIP3    H179240   2.536   4.793  14.163 -0.2082 -2.2922  1.4521
19275TIP3    H279241   2.640   4.742  14.065 -0.7730 -0.9002  0.0945
19276TIP3   OH279242   6.157   2.312   5.176 -0.0995 -0.5598 -0.1449
19276TIP3    H179243   6.170   2.248   5.246 -5.1729  1.4370  3.3108
19276TIP3    H279244   6.098   2.268   5.114 -2.2622 -0.0243  1.3833
19277TIP3   OH279245   5.318   3.167   3.557 -0.9564 -0.2042 -0.4948
19277TIP3    H179246   5.230   3.140   3.583 -2.3766  3.5793 -0.7250
19277TIP3    H279247   5.318   3.160   3.461 -0.9349 -0.3967 -0.4807
19278TIP3   OH279248   0.242   2.105   1.880  0.3499  0.1313  0.1009
19278TIP3    H179249   0.214   2.162   1.952 -0.7316 -0.1367 -0.0858
19278TIP3    H279250   0.301   2.042   1.921  0.8663  0.8410  0.4750
19279TIP3   OH279251   1.319   2.915  12.803 -0.4054  0.2151 -0.3323
19279TIP3    H179252   1.299   2.865  12.724 -1.1744  0.3581 -0.2316
19279TIP3    H279253   1.406   2.884  12.829 -0.9019 -1.1519 -0.2199
19280TIP3   OH279254   2.438   2.162   3.290  0.1183 -0.8059 -0.6403
19280TIP3    H179255   2.511   2.190   3.236 -1.7766  0.8205 -2.5420
19280TIP3    H279256   2.363   2.213   3.258 -1.8987 -2.4753  1.0846
19281TIP3   OH279257   5.877   4.792  14.271 -0.2373  0.6039 -0.4155
19281TIP3    H179258   5.904   4.784  14.179  1.4277 -1.1872  0.1343
19281TIP3    H279259   5.944   4.743  14.319 -2.7747 -1.3116  1.4668
19282TIP3   OH279260   2.841   4.126   3.331  0.0382  0.1642 -0.2666
19282TIP3    H179261   2.921   4.084   3.300 -0.2937  0.6141 -1.7955
19282TIP3    H279262   2.793   4.148   3.252 -1.7828 -0.3975  0.6331
19283TIP3   OH279263   4.071   6.154  13.014 -0.3504 -0.0849 -0.1705
19283TIP3    H179264   4.077   6.114  12.927  1.8907  1.5261 -0.8567
19283TIP3    H279265   4.111   6.090  13.073 -0.6313 -0.6179 -0.5502
19284TIP3   OH279266   2.503   3.658   1.207  0.2733  0.2594 -0.9214
19284TIP3    H179267   2.568   3.675   1.275 -1.3771  0.7958  0.5908
19284TIP3    H279268   2.549   3.604   1.143  1.8457 -0.4581  0.7220
19285TIP3   OH279269   5.273   4.285   2.994 -0.2260 -0.1361  0.1391
19285TIP3    H179270   5.281   4.285   2.899 -2.5401 -1.5764 -0.1481
19285TIP3    H279271   5.194   4.233   3.011 -2.1610  3.2056  2.6279
19286TIP3   OH279272   6.255   3.984   4.672  1.0051  0.1371 -0.6423
19286TIP3    H179273   6.246   3.892   4.646 -0.3125 -0.1641  0.7418
19286TIP3    H279274   6.349   4.000   4.674  1.2191 -0.6909 -2.4860
19287TIP3   OH279275   2.751   2.095  13.176  0.3748 -0.5403 -0.0665
19287TIP3    H179276   2.750   2.144  13.258 -2.3427  0.0638 -0.3805
19287TIP3    H279277   2.690   2.023  13.190 -0.4349 -0.2048 -1.6342
19288TIP3   OH279278   3.512   2.391  13.741 -0.0422  0.3229  0.1711
19288TIP3    H179279   3.538   2.451  13.811 -1.9177  0.5245  0.7551
19288TIP3    H279280   3.468   2.319  13.786  0.4402 -0.5245 -0.6768
19289TIP3   OH279281   2.979   2.612   6.108 -0.1326 -0.4579 -0.6502
19289TIP3    H179282   3.019   2.687   6.064 -1.5408  0.4931 -0.3758
19289TIP3    H279283   3.042   2.589   6.177 -0.2862  1.3976  0.1804
19290TIP3   OH279284   4.350   0.624   0.195  0.0267 -0.1867 -0.2165
19290TIP3    H179285   4.312   0.693   0.140  1.1317  0.6424  0.0146
19290TIP3    H279286   4.375   0.556   0.133 -0.1061  0.0849 -0.5747
19291TIP3   OH279287   4.404   0.998   2.494 -0.2718 -0.5594 -0.2181
19291TIP3    H179288   4.315   1.002   2.531  0.0559  1.8512  0.4661
19291TIP3    H279289   4.456   1.055   2.550  1.3473 -0.5694 -1.6365
19292TIP3   OH279290   6.560   6.384  13.169  0.5824  0.1367 -0.1709
19292TIP3    H179291   6.551   6.291  13.146 -0.4912  0.2412 -0.2046
19292TIP3    H279292   6.480   6.425  13.138  1.0392  1.0865 -0.1416
19293TIP3   OH279293   2.520   3.928  13.931 -0.1288 -0.3304 -0.0849
19293TIP3    H179294   2.503   4.017  13.962  0.7389 -1.1687  3.1572
19293TIP3    H279295   2.437   3.882  13.943 -0.0657 -0.4206 -0.0010
19294TIP3   OH279296   4.331   5.848  10.756 -0.1128  0.0652  0.0126
19294TIP3    H179297   4.284   5.764  10.754 -1.0910  0.5903  0.4983
19294TIP3    H279298   4.268   5.911  10.722  0.3305  0.7485  0.4442
19295TIP3   OH279299   1.072   1.928   1.272  0.5023  0.1895 -0.0811
19295TIP3    H179300   0.993   1.970   1.306  0.3387  0.4433 -0.7669
19295TIP3    H279301   1.140   1.996   1.276  1.0688 -0.4329  1.8414
19296TIP3   OH279302   2.989   4.876   1.755 -0.5919  0.2444 -0.2052
19296TIP3    H179303   3.011   4.865   1.847 -1.4778  1.3942  0.1806
19296TIP3    H279304   2.895   4.858   1.751 -0.9427  1.9065 -0.5094
19297TIP3   OH279305   2.837   1.151   2.466 -0.0517 -0.2444 -0.1336
19297TIP3    H179306   2.832   1.245   2.482 -2.3840 -0.4920  1.1233
19297TIP3    H279307   2.871   1.142   2.377 -1.1521  1.8419 -0.8150
19298TIP3   OH279308   3.732   5.613  15.926  0.1766  0.1973 -0.0099
19298TIP3    H179309   3.719   5.533  15.876  1.9674  0.2115 -0.5833
19298TIP3    H279310   3.772   5.674  15.863 -3.1234  2.3795 -0.2634
19299TIP3   OH279311   0.548   5.194  14.409  0.5770  0.1323 -0.0703
19299TIP3    H179312   0.513   5.225  14.326  0.8045  1.4810  0.3092
19299TIP3    H279313   0.624   5.141  14.385  1.0961  1.1409 -0.7018
19300TIP3   OH279314   0.606   2.643  12.719  0.0539 -0.6496 -0.0747
19300TIP3    H179315   0.580   2.631  12.628  0.9458 -0.3543 -0.3823
19300TIP3    H279316   0.624   2.736  12.727 -0.0198 -0.6722  0.4071
19301TIP3   OH279317   5.489   3.226   4.766 -0.0876 -0.2990 -0.8190
19301TIP3    H179318   5.578   3.226   4.800 -0.2514 -0.1421 -0.3882
19301TIP3    H279319   5.434   3.207   4.842 -0.4755  0.2972 -0.9483
19302TIP3   OH279320   3.300   5.110   3.629  0.2065 -0.1574  0.2915
19302TIP3    H179321   3.245   5.188   3.634  0.5126  0.1371 -0.8333
19302TIP3    H279322   3.259   5.055   3.562  1.5394  0.2927 -0.9368
19303TIP3   OH279323   4.130   4.306  15.412 -0.1221  0.6592  0.5234
19303TIP3    H179324   4.126   4.291  15.317  0.6815 -1.1155  0.7176
19303TIP3    H279325   4.108   4.398  15.423 -2.2478  0.4366 -1.2106
19304TIP3   OH279326   5.893   2.559  17.138  0.4260  0.0306 -0.0309
19304TIP3    H179327   5.847   2.590  17.216  0.3712  1.8491 -0.7421
19304TIP3    H279328   5.869   2.466  17.131 -2.1448  0.6155  0.3041
19305TIP3   OH279329   4.713   1.239  16.704 -0.4726  0.1243 -0.3771
19305TIP3    H179330   4.667   1.165  16.665  0.8795 -0.2458 -1.2862
19305TIP3    H279331   4.762   1.201  16.777 -1.1949  0.4500  0.3028
19306TIP3   OH279332   1.947   3.761   5.027 -0.2641  0.1638  0.1763
19306TIP3    H179333   1.915   3.812   5.102 -0.4054 -0.5602  0.6181
19306TIP3    H279334   1.867   3.733   4.981 -0.1601  1.4668 -0.8482
19307TIP3   OH279335   5.719   5.033  15.614 -0.9297 -0.3051 -0.3266
19307TIP3    H179336   5.695   5.035  15.707  1.4976 -1.5441  0.3954
19307TIP3    H279337   5.701   5.122  15.584  2.1949  1.5505  2.4949
19308TIP3   OH279338   4.511   5.397   4.552  0.1306 -0.3980  0.6604
19308TIP3    H179339   4.452   5.392   4.477 -0.1824  1.2417  0.7446
19308TIP3    H279340   4.597   5.417   4.513 -0.3931  2.5277  0.7400
19309TIP3   OH279341   2.602   3.352   5.133 -0.5580 -0.1253 -0.2973
19309TIP3    H179342   2.558   3.411   5.193  0.0852  0.2132 -0.1459
19309TIP3    H279343   2.554   3.361   5.051 -1.1524 -0.2397  0.0346
19310TIP3   OH279344   4.503   0.769  16.549 -0.0814 -0.4494 -0.1541
19310TIP3    H179345   4.514   0.692  16.605  2.5654 -0.5656 -0.7305
19310TIP3    H279346   4.512   0.736  16.460 -0.7980  0.2750 -0.5160
19311TIP3   OH279347   2.661   5.876  12.984  0.1542 -0.0764  0.8423
19311TIP3    H179348   2.598   5.911  13.046  1.8333  0.8448  2.1207
19311TIP3    H279349   2.617   5.802  12.944 -1.2018 -0.3741  2.7599
19312TIP3   OH279350   3.810   0.030  11.436 -0.2821 -0.3197 -0.3977
19312TIP3    H179351   3.889   0.029  11.383  0.4116 -2.6012  0.5625
19312TIP3    H279352   3.773   0.117  11.422  0.5988 -0.2978 -3.4793
19313TIP3   OH279353   3.455   3.447   0.374  0.0957 -0.4297 -0.1231
19313TIP3    H179354   3.384   3.402   0.327  0.3757 -1.0086 -0.0016
19313TIP3    H279355   3.456   3.406   0.461  0.9468 -0.8160 -0.3089
19314TIP3   OH279356   3.935   2.512   1.441 -0.0984  0.5335  0.3804
19314TIP3    H179357   3.985   2.496   1.522 -0.9758 -1.3799  0.5952
19314TIP3    H279358   3.884   2.591   1.460  1.7358  1.7394  0.6528
19315TIP3   OH279359   4.427   6.195   4.451  0.0473  0.3664 -0.1398
19315TIP3    H179360   4.359   6.179   4.516 -0.2012 -0.0645 -0.4964
19315TIP3    H279361   4.506   6.215   4.502  0.4749 -2.2767  0.4106
19316TIP3   OH279362   1.247   5.360  13.410 -0.1034 -0.1366  0.4054
19316TIP3    H179363   1.320   5.361  13.347  0.3363 -0.9342  0.8876
19316TIP3    H279364   1.275   5.419  13.480  0.3302 -0.8530  0.8502
19317TIP3   OH279365   2.892   4.421   1.696 -0.0247  0.0409 -0.2555
19317TIP3    H179366   2.819   4.472   1.661 -1.0136 -0.3632  1.1276
19317TIP3    H279367   2.937   4.386   1.619 -0.4631  1.4235 -1.1671
19318TIP3   OH279368   5.988   1.278   1.056 -0.0618  0.7159  0.0036
19318TIP3    H179369   6.011   1.369   1.038  1.9310  0.2765  0.1172
19318TIP3    H279370   6.029   1.259   1.141  1.6384 -0.9279 -1.0966
19319TIP3   OH279371   5.067   1.476   1.181 -0.1526  0.1932 -0.4904
19319TIP3    H179372   5.081   1.381   1.177  0.8153  0.2988  0.0185
19319TIP3    H279373   5.154   1.512   1.200 -0.8013  1.0458  1.0394
19320TIP3   OH279374   6.025   3.466   4.567 -0.2767 -0.1365  0.2683
19320TIP3    H179375   5.942   3.510   4.584 -0.9099 -1.1475 -0.0869
19320TIP3    H279376   6.061   3.513   4.491 -0.6770  0.1140  0.2271
19321TIP3   OH279377   2.417   6.017   4.034  0.9829 -0.5818  0.2463
19321TIP3    H179378   2.485   6.030   4.100  0.7253 -0.8149  0.5612
19321TIP3    H279379   2.392   6.106   4.008  2.3036 -0.4888 -0.8189
19322TIP3   OH279380   2.654   4.552  11.780 -0.2400 -0.2117  0.4768
19322TIP3    H179381   2.739   4.536  11.820  0.7135  0.0052 -1.3289
19322TIP3    H279382   2.597   4.486  11.817  1.4405 -2.2305 -0.3228
19323TIP3   OH279383   5.985   3.156  16.100  0.3990 -0.2560  0.3916
19323TIP3    H179384   5.992   3.061  16.105 -0.5541 -0.6314 -3.1590
19323TIP3    H279385   5.914   3.177  16.162 -1.4729 -2.2837 -0.8949
19324TIP3   OH279386   5.169   3.198  12.231 -0.3705  0.1438 -0.9353
19324TIP3    H179387   5.179   3.277  12.284 -3.8642 -0.4670  0.9355
19324TIP3    H279388   5.201   3.223  12.144  2.0064  2.3938  0.4524
19325TIP3   OH279389   1.938   2.164  16.608  0.2796  0.4960  0.2192
19325TIP3    H179390   1.998   2.202  16.672  1.4625 -2.2840  0.8933
19325TIP3    H279391   1.992   2.106  16.555 -1.1377  0.8915 -1.7937
19326TIP3   OH279392   1.169   4.728  14.340 -0.1357  0.4719 -0.2485
19326TIP3    H179393   1.087   4.743  14.293  0.2607  0.5915 -0.9350
19326TIP3    H279394   1.228   4.691  14.273  0.3930  0.4762  0.2049
19327TIP3   OH279395   5.856   6.084  16.620 -0.5098  0.1780  0.2312
19327TIP3    H179396   5.924   6.152  16.617 -0.6223  0.3633  1.3819
19327TIP3    H279397   5.779   6.125  16.580  0.1421 -0.1707 -1.4540
19328TIP3   OH279398   3.022   2.930  11.368 -0.8534 -0.1148  0.5012
19328TIP3    H179399   3.028   2.901  11.277  0.4482  1.1884  0.1243
19328TIP3    H279400   3.035   2.851  11.420  1.2948 -0.4818 -0.4769
19329TIP3   OH279401   2.429   4.989   0.580  0.4612 -0.2112  0.5248
19329TIP3    H179402   2.516   5.012   0.614  0.7911 -0.6007 -0.0404
19329TIP3    H279403   2.446   4.956   0.492 -0.3566  0.4826  0.1055
19330TIP3   OH279404   3.301   2.404  14.139 -0.2912 -0.1795 -0.0591
19330TIP3    H179405   3.383   2.451  14.157  0.1952  0.6890 -3.7144
19330TIP3    H279406   3.232   2.467  14.158  0.0072 -0.1137  0.8329
19331TIP3   OH279407   4.771   0.815   0.979 -0.5161 -0.1537  0.7096
19331TIP3    H179408   4.854   0.856   1.003 -0.3212 -0.7531  1.0743
19331TIP3    H279409   4.707   0.886   0.985  0.2203  0.7541 -1.2885
19332TIP3   OH279410   1.765   1.816   2.636 -0.4988  0.3440 -0.6606
19332TIP3    H179411   1.670   1.817   2.646 -0.7102  1.9883 -2.2923
19332TIP3    H279412   1.781   1.753   2.566 -0.5301  1.0516 -1.3169
19333TIP3   OH279413   0.145   4.307   2.490 -0.0706 -0.2976  0.1290
19333TIP3    H179414   0.127   4.283   2.581  1.9911 -0.1702  0.6238
19333TIP3    H279415   0.220   4.253   2.465  0.3855  0.7872 -0.9652
19334TIP3   OH279416   1.728   3.390   0.852  0.0691  0.4391 -0.2471
19334TIP3    H179417   1.782   3.350   0.920 -1.1516 -0.1410  0.4146
19334TIP3    H279418   1.675   3.318   0.818 -0.6727  1.0929 -0.4971
19335TIP3   OH279419   5.301   0.881   3.298 -0.2203 -0.2534 -0.4268
19335TIP3    H179420   5.364   0.945   3.331 -1.5626  1.6688 -1.4597
19335TIP3    H279421   5.348   0.797   3.303  1.8865  0.8894  0.1713
19336TIP3   OH279422   4.199   4.737  14.947 -0.6810 -0.1337 -0.3830
19336TIP3    H179423   4.211   4.650  14.985  1.6644 -0.0996 -0.8733
19336TIP3    H279424   4.195   4.796  15.022 -2.4734 -0.6479 -0.0402
19337TIP3   OH279425   3.729   4.188  15.779  0.2713  0.1777  0.1870
19337TIP3    H179426   3.728   4.144  15.864  2.6354  0.5720  0.4816
19337TIP3    H279427   3.799   4.145  15.730  0.4781  1.4571 -0.7000
19338TIP3   OH279428   3.092   5.527  14.158 -0.2650 -0.2189  0.1746
19338TIP3    H179429   3.159   5.586  14.192  0.3431 -0.8544  0.1100
19338TIP3    H279430   3.083   5.551  14.066 -1.9565  1.5461  0.7314
19339TIP3   OH279431   1.142   6.440  11.104 -0.4829 -0.2813  0.4225
19339TIP3    H179432   1.213   6.474  11.049 -2.3114  1.7859 -0.8391
19339TIP3    H279433   1.063   6.451  11.051 -1.8095 -2.3407  1.8304
19340TIP3   OH279434   3.444   2.412   1.397  0.3722  0.6449  0.3423
19340TIP3    H179435   3.375   2.420   1.332 -0.1260 -0.4391  0.7041
19340TIP3    H279436   3.521   2.451   1.356  0.2167 -0.4919 -1.1204
19341TIP3   OH279437   6.263   6.045  14.923  0.1377 -0.0330  0.6765
19341TIP3    H179438   6.295   5.955  14.923  0.2770  0.0118  0.2093
19341TIP3    H279439   6.206   6.051  15.000 -0.0552 -0.5885  0.5787
19342TIP3   OH279440   4.667   5.872   0.241 -0.4547 -0.0081 -0.5257
19342TIP3    H179441   4.597   5.939   0.238 -0.0847  0.3753 -0.7288
19342TIP3    H279442   4.748   5.922   0.232 -0.2389 -0.6259 -2.7835
19343TIP3   OH279443   1.596   0.831   5.704 -0.0116 -0.3572  0.0276
19343TIP3    H179444   1.678   0.838   5.753 -0.9759 -0.8932  1.7966
19343TIP3    H279445   1.624   0.811   5.614  1.8486  1.6753  0.0663
19344TIP3   OH279446   1.701   5.437   5.418 -0.5247  0.7661  0.1149
19344TIP3    H179447   1.750   5.505   5.372  1.7736 -0.7056  0.2103
19344TIP3    H279448   1.609   5.457   5.399  0.1757  1.9796 -2.5595
19345TIP3   OH279449   2.522   3.365  14.424  0.0025 -0.3303  0.3410
19345TIP3    H179450   2.588   3.376  14.355 -0.5207  2.1631  0.1522
19345TIP3    H279451   2.439   3.362  14.378 -0.3370  1.1737  0.8171
19346TIP3   OH279452   6.022   5.378  10.630  0.0230  0.1625 -0.1335
19346TIP3    H179453   6.004   5.285  10.646 -0.6808  0.6405  2.2148
19346TIP3    H279454   5.952   5.406  10.571  0.2621 -0.7717 -0.8959
19347TIP3   OH279455   5.894   4.166  12.687 -0.0207  0.2971  0.3441
19347TIP3    H179456   5.870   4.258  12.697 -1.8941  0.0278 -0.9763
19347TIP3    H279457   5.901   4.153  12.592  2.6314 -0.4086  0.5593
19348TIP3   OH279458   1.193   6.715  12.321 -0.1508 -0.1991  0.0741
19348TIP3    H179459   1.119   6.750  12.272 -1.1334 -0.9606  0.9743
19348TIP3    H279460   1.267   6.769  12.295 -1.5906  2.6319  1.4329
19349TIP3   OH279461   4.839   3.302   5.066 -0.2163  0.3360 -0.1975
19349TIP3    H179462   4.756   3.335   5.031 -1.8307 -1.2678  1.8367
19349TIP3    H279463   4.817   3.270   5.154  2.7456  0.5683  0.7536
19350TIP3   OH279464   6.475   1.079   4.456  0.2498 -0.2150 -1.3387
19350TIP3    H179465   6.447   1.074   4.364 -0.2757 -1.0602 -1.1522
19350TIP3    H279466   6.426   1.009   4.499  0.4492  0.2112 -0.3973
19351TIP3   OH279467   5.724   1.066   1.239 -0.9219 -0.1512  0.3948
19351TIP3    H179468   5.756   1.117   1.314 -1.6835  0.7371  0.1298
19351TIP3    H279469   5.655   1.120   1.201  1.5343  0.9755 -2.9076
19352TIP3   OH279470   0.861   4.780   1.930 -0.4242 -0.3094 -0.1774
19352TIP3    H179471   0.852   4.759   2.023 -2.6967  0.3332 -0.1815
19352TIP3    H279472   0.863   4.876   1.927 -0.0337 -0.3269 -0.7773
19353TIP3   OH279473   2.080   5.775  11.757 -0.4069 -0.0552 -0.0355
19353TIP3    H179474   2.171   5.794  11.779 -0.5382  0.6554 -0.0576
19353TIP3    H279475   2.082   5.753  11.664 -0.2238 -0.2795  0.0216
19354TIP3   OH279476   6.695   5.466   5.771  0.2666  0.3182 -0.3966
19354TIP3    H179477   6.659   5.383   5.803 -1.0673  1.2749  0.7101
19354TIP3    H279478   6.754   5.494   5.840  0.7319  0.2904 -0.7797
19355TIP3   OH279479   2.954   2.077   2.610  0.0566 -0.5492  0.4551
19355TIP3    H179480   3.022   2.138   2.637 -2.2248  3.5719 -2.1331
19355TIP3    H279481   2.990   2.030   2.535  0.5964  0.4651  0.0739
19356TIP3   OH279482   0.636   2.342   2.388  0.0616 -0.1778  0.1781
19356TIP3    H179483   0.683   2.275   2.338  3.4927  2.1710 -0.1155
19356TIP3    H279484   0.601   2.401   2.322  0.2992  0.2932  0.4722
19357TIP3   OH279485   6.320   0.670  14.305 -0.4375 -0.2178  0.0809
19357TIP3    H179486   6.235   0.628  14.320  0.5090 -2.5253 -0.5789
19357TIP3    H279487   6.325   0.681  14.210 -0.2247  0.4899  0.1647
19358TIP3   OH279488   6.652   5.313  12.052 -0.2051 -0.1710 -0.0898
19358TIP3    H179489   6.682   5.309  11.961 -0.2798 -0.5517 -0.0985
19358TIP3    H279490   6.630   5.405  12.065 -0.5577 -0.1792 -0.5744
19359TIP3   OH279491   6.611   4.049   3.136  0.2249  0.3070  0.4542
19359TIP3    H179492   6.565   3.982   3.086  1.1501  0.2760 -0.3923
19359TIP3    H279493   6.582   4.036   3.226 -0.0337 -0.8714  0.2173
19360TIP3   OH279494   0.023   0.328  12.933 -0.0548  0.4221  0.6053
19360TIP3    H179495   0.097   0.311  12.875  0.4130 -0.3749  1.4146
19360TIP3    H279496   0.062   0.365  13.012 -0.3260 -1.3315  1.6176
19361TIP3   OH279497   5.080   3.199   3.855 -0.2956  0.8995 -0.7095
19361TIP3    H179498   5.127   3.145   3.919 -1.2068  0.4612 -0.3896
19361TIP3    H279499   5.106   3.288   3.874  1.3796  0.5748 -1.3546
19362TIP3   OH279500   3.447   5.213  14.120 -0.0915  0.3033  0.2818
19362TIP3    H179501   3.373   5.237  14.177 -0.1152  1.1451 -0.0910
19362TIP3    H279502   3.431   5.261  14.039 -0.2566 -1.1827 -0.6006
19363TIP3   OH279503   4.131   5.951  13.215 -0.2175 -0.0653  0.0940
19363TIP3    H179504   4.063   5.894  13.178 -0.6311  0.0353  0.6915
19363TIP3    H279505   4.138   5.925  13.306  1.1472 -0.6325 -0.1573
19364TIP3   OH279506   3.347   2.328  13.324  0.1473 -0.1537  0.1772
19364TIP3    H179507   3.349   2.258  13.259  2.2530  1.5081 -1.7036
19364TIP3    H279508   3.297   2.398  13.282  0.6075  0.5439  0.7716
19365TIP3   OH279509   0.555   1.768  15.261  0.1121  0.1902  0.1127
19365TIP3    H179510   0.465   1.745  15.285  0.0595 -1.2330 -1.2799
19365TIP3    H279511   0.553   1.863  15.249 -1.3024  0.1413 -0.2453
19366TIP3   OH279512   0.233   2.145  15.877  0.4288  0.5826  0.7789
19366TIP3    H179513   0.160   2.188  15.920 -0.4860 -0.0744 -0.0473
19366TIP3    H279514   0.242   2.191  15.793  0.7204  0.4171  0.7162
19367TIP3   OH279515   2.515   2.135  13.385  0.5902  0.1227 -0.3135
19367TIP3    H179516   2.435   2.147  13.334  0.5888 -0.3212 -0.4147
19367TIP3    H279517   2.579   2.192  13.342  0.3737  0.3573 -0.3286
19368TIP3   OH279518   0.843   0.715  13.801  0.1809  0.4615 -0.3385
19368TIP3    H179519   0.840   0.730  13.896  0.7050  0.9078 -0.3911
19368TIP3    H279520   0.926   0.670  13.786  0.1961  0.5805 -0.6162
19369TIP3   OH279521   1.295   6.261   2.543 -0.6155 -0.0032 -0.1541
19369TIP3    H179522   1.326   6.240   2.631  0.9955  0.6220 -0.5351
19369TIP3    H279523   1.201   6.280   2.554 -0.5411 -0.3867  1.3334
19370TIP3   OH279524   6.302   4.243   5.023 -0.4182 -0.0578  0.4625
19370TIP3    H179525   6.388   4.205   5.005 -0.9766 -0.2551 -2.0915
19370TIP3    H279526   6.241   4.169   5.020 -1.0388  0.4831 -0.7747
19371TIP3   OH279527   2.037   1.717   3.870  0.1099 -0.0781  0.2502
19371TIP3    H179528   2.052   1.804   3.833  0.6595 -0.5014 -0.5515
19371TIP3    H279529   2.120   1.672   3.860 -0.0567 -0.5842  1.0092
19372TIP3   OH279530   2.953   3.518   0.479  0.5778 -0.2213 -0.1900
19372TIP3    H179531   2.886   3.557   0.422  1.7854 -0.7346 -2.0652
19372TIP3    H279532   2.927   3.543   0.568 -1.2593  0.8420 -0.9707
19373TIP3   OH279533   2.637   6.442  13.198  0.3705  0.0915 -0.2779
19373TIP3    H179534   2.621   6.453  13.292  0.8746 -0.5860 -0.1054
19373TIP3    H279535   2.705   6.376  13.193 -0.7650 -1.0658 -1.1655
19374TIP3   OH279536   1.261   5.181  16.306  0.2562  0.3847 -0.4366
19374TIP3    H179537   1.336   5.126  16.327  0.8667  0.9049 -1.2359
19374TIP3    H279538   1.274   5.207  16.215 -1.7179 -0.8392 -1.1380
19375TIP3   OH279539   2.126   4.414   1.100 -0.3517  0.0189 -0.3894
19375TIP3    H179540   2.067   4.412   1.025 -1.1003 -0.4590  0.1974
19375TIP3    H279541   2.174   4.331   1.096  1.7989  1.2379 -2.0138
19376TIP3   OH279542   6.434   5.778  15.354 -0.4880  0.2281  0.0898
19376TIP3    H179543   6.443   5.704  15.294 -0.4789  0.7690 -0.5879
19376TIP3    H279544   6.476   5.851  15.309 -0.9809  0.7830  0.5142
19377TIP3   OH279545   5.309   3.962  12.362  0.3793 -0.0730 -0.0086
19377TIP3    H179546   5.340   3.980  12.450  1.2859  1.4191 -0.5937
19377TIP3    H279547   5.217   3.988  12.363  0.2224 -0.6301  0.6394
19378TIP3   OH279548   6.301   4.395  16.998 -0.0924  0.2139 -0.3781
19378TIP3    H179549   6.364   4.460  17.029 -1.6322  1.2200  0.8421
19378TIP3    H279550   6.304   4.326  17.064 -0.5804  0.4956 -0.0510
19379TIP3   OH279551   2.614   5.782   5.155  0.5610  0.4482  0.0206
19379TIP3    H179552   2.554   5.764   5.227  0.4924 -1.0869 -0.3868
19379TIP3    H279553   2.701   5.784   5.196  0.4415  0.5169  0.2738
19380TIP3   OH279554   4.934   5.810   3.976 -0.1758  0.6354 -0.1181
19380TIP3    H179555   4.982   5.764   3.907 -2.7415  0.9584 -2.2776
19380TIP3    H279556   4.870   5.746   4.007 -1.3185  1.5467 -0.5318
19381TIP3   OH279557   2.507   4.301  11.837  0.2354  0.3726  1.1712
19381TIP3    H179558   2.596   4.266  11.826  0.0614  0.0336  0.8098
19381TIP3    H279559   2.452   4.223  11.849 -0.0263  0.5763  1.3004
19382TIP3   OH279560   3.103   2.422   1.113  0.0220  0.0257  0.7488
19382TIP3    H179561   3.129   2.353   1.174  0.7365 -0.0692  0.3457
19382TIP3    H279562   3.176   2.483   1.113  0.9157 -0.9116 -1.4040
19383TIP3   OH279563   2.156   5.649  12.638  0.5154 -0.3129  0.0722
19383TIP3    H179564   2.108   5.597  12.573 -1.3915 -0.2817  1.3623
19383TIP3    H279565   2.168   5.735  12.596  0.8731 -0.8125 -0.8772
19384TIP3   OH279566   6.430   3.726   0.395 -0.6755 -0.2253 -0.1722
19384TIP3    H179567   6.471   3.741   0.309 -1.0129 -1.0131 -0.4779
19384TIP3    H279568   6.372   3.801   0.407 -1.0884 -0.4120 -0.9153
19385TIP3   OH279569   2.189   2.696  15.148 -0.0504 -0.2251  0.4048
19385TIP3    H179570   2.247   2.771  15.158 -0.1558  0.1729 -1.5397
19385TIP3    H279571   2.248   2.621  15.141  0.4524  0.3103 -2.8356
19386TIP3   OH279572   1.083   1.825   0.171 -0.2579  0.2667 -0.2285
19386TIP3    H179573   1.112   1.803   0.259  1.6261 -0.4350 -0.9560
19386TIP3    H279574   1.101   1.745   0.120  0.0912  1.1443 -1.5295
19387TIP3   OH279575   3.128   5.075   2.329  0.1571  0.2309  0.4062
19387TIP3    H179576   3.152   5.168   2.322 -2.1317  0.7825 -0.9875
19387TIP3    H279577   3.050   5.075   2.385 -0.3737 -0.7558 -0.3230
19388TIP3   OH279578   6.417   3.713   4.877 -0.0410  0.1261  0.2098
19388TIP3    H179579   6.350   3.685   4.814  0.2504  0.2027 -0.1383
19388TIP3    H279580   6.378   3.696   4.962 -0.4276 -0.0163  0.0084
19389TIP3   OH279581   2.730   6.064   4.638 -0.4042 -0.1058  0.7391
19389TIP3    H179582   2.672   5.989   4.646  0.9572 -1.2218  0.4829
19389TIP3    H279583   2.816   6.027   4.622  0.0529  1.5387 -1.1052
19390TIP3   OH279584   1.782   1.079   5.572  0.7766  0.2682  0.0054
19390TIP3    H179585   1.799   1.003   5.516 -0.1887  0.4694 -0.5831
19390TIP3    H279586   1.766   1.042   5.659 -1.5387 -0.3995 -0.6433
19391TIP3   OH279587   5.856   0.808  13.011  0.0665  0.4961  0.3387
19391TIP3    H179588   5.912   0.836  13.083 -0.0621  3.3027 -0.5360
19391TIP3    H279589   5.916   0.797  12.937  0.1491 -2.0207  0.6917
19392TIP3   OH279590   5.718   0.514   1.249  0.0473  0.0628  0.0346
19392TIP3    H179591   5.623   0.503   1.248  0.0525 -0.0481  0.4668
19392TIP3    H279592   5.739   0.526   1.342  0.4094  0.4918 -0.1000
19393TIP3   OH279593   2.907   0.141  13.224 -0.6298  0.6875  0.0795
19393TIP3    H179594   2.825   0.161  13.179 -1.6601  1.0353  2.0355
19393TIP3    H279595   2.933   0.223  13.265 -0.9567 -0.1264  2.0148
19394TIP3   OH279596   5.877   5.113   4.138 -0.2071 -0.1295  0.3100
19394TIP3    H179597   5.907   5.193   4.180 -0.3586  0.3209 -0.4190
19394TIP3    H279598   5.781   5.118   4.143 -0.2160 -0.2697  0.2769
19395TIP3   OH279599   5.446   2.001   0.380 -0.4955 -0.4443  0.5138
19395TIP3    H179600   5.359   1.977   0.349 -1.0683  0.5009  1.3310
19395TIP3    H279601   5.440   1.992   0.476 -0.5497  2.1967  0.8323
19396TIP3   OH279602   3.466   4.559   2.207 -0.3467 -0.5588 -0.4931
19396TIP3    H179603   3.379   4.587   2.180 -0.9844 -0.9036  1.0792
19396TIP3    H279604   3.519   4.639   2.205 -0.3881 -0.5443 -2.4919
19397TIP3   OH279605   0.990   5.971  10.529  0.4832  0.0836 -0.5822
19397TIP3    H179606   1.040   6.040  10.484  1.2184 -1.5962 -2.5120
19397TIP3    H279607   1.032   5.964  10.615  0.5695  1.8125 -0.4340
19398TIP3   OH279608   1.099   5.052  10.971 -0.5061  0.2194 -0.1040
19398TIP3    H179609   1.060   5.123  11.023  0.6969  0.5165  0.4236
19398TIP3    H279610   1.163   5.096  10.915 -0.0042 -0.4133 -0.0257
19399TIP3   OH279611   6.735   4.646   0.502  0.0341  0.7072  0.1581
19399TIP3    H179612   6.650   4.628   0.462  0.0729  1.3426 -0.2220
19399TIP3    H279613   6.753   4.737   0.480 -0.4664  1.4614  2.5340
19400TIP3   OH279614   5.938   2.769  11.999  0.5904 -0.3055  0.4587
19400TIP3    H179615   5.914   2.850  12.045 -2.9490 -1.0781  0.2499
19400TIP3    H279616   5.922   2.700  12.063  0.2337 -1.0523 -0.4195
19401TIP3   OH279617   2.150   0.534   1.793 -0.5632 -0.0902  0.0662
19401TIP3    H179618   2.229   0.574   1.756  0.1738  0.3188  1.9479
19401TIP3    H279619   2.113   0.602   1.849 -0.5886 -1.2418  1.5041
19402TIP3   OH279620   4.932   3.102   2.425 -0.9464 -0.5584  0.5745
19402TIP3    H179621   4.883   3.050   2.489 -1.4474 -0.0545  0.6013
19402TIP3    H279622   4.878   3.179   2.410 -0.8242 -0.6535 -0.4314
19403TIP3   OH279623   4.440   1.881  13.721  0.5475 -0.4326  0.3638
19403TIP3    H179624   4.419   1.918  13.807  1.2196 -0.1286  0.4015
19403TIP3    H279625   4.495   1.947  13.679  0.2201 -0.5786 -0.3073
19404TIP3   OH279626   2.962   1.098   3.562 -0.0577  0.1931 -0.4456
19404TIP3    H179627   2.957   1.124   3.654  1.0765 -1.0109 -0.0162
19404TIP3    H279628   3.052   1.118   3.536 -0.0124 -0.5885 -0.9359
19405TIP3   OH279629   1.340   2.214  11.778 -0.4382 -0.1325 -0.8302
19405TIP3    H179630   1.356   2.134  11.729  0.2391 -0.8888  0.5759
19405TIP3    H279631   1.414   2.222  11.837 -0.1349  1.9158 -1.3888
19406TIP3   OH279632   0.298   6.775  14.582 -0.3285 -0.1792 -0.4983
19406TIP3    H179633   0.266   6.720  14.511 -0.4631  0.5378 -1.0111
19406TIP3    H279634   0.343   6.847  14.537  1.1448 -0.6469  0.1847
19407TIP3   OH279635   2.729   3.042  16.478 -0.1402 -0.1784  0.5293
19407TIP3    H179636   2.680   3.057  16.559 -1.4820 -1.5247  0.0184
19407TIP3    H279637   2.669   2.992  16.423  0.8513  0.4564 -1.1996
19408TIP3   OH279638   3.040   5.640   0.491 -0.3624 -0.6967  0.2563
19408TIP3    H179639   3.048   5.545   0.500 -0.3261 -0.6874  0.3194
19408TIP3    H279640   3.045   5.673   0.580  0.8433 -0.5399  0.1553
19409TIP3   OH279641   6.005   0.907  16.031 -0.0783  0.0544  0.2876
19409TIP3    H179642   5.921   0.945  16.003 -1.0911 -2.4498 -0.4341
19409TIP3    H279643   6.045   0.876  15.949  0.0108 -1.5898  0.9207
19410TIP3   OH279644   0.328   6.540   3.459  0.3028  0.7854  0.5924
19410TIP3    H179645   0.271   6.591   3.402 -0.1585 -0.2207  0.1189
19410TIP3    H279646   0.393   6.602   3.491 -1.3183  2.0670  1.5039
19411TIP3   OH279647   5.066   4.445  12.137  0.8052 -0.0214 -0.8274
19411TIP3    H179648   4.997   4.486  12.086  0.2328 -1.3517 -1.1776
19411TIP3    H279649   5.020   4.384  12.195  1.5653  0.3403  0.1942
19412TIP3   OH279650   1.388   4.813   2.564  0.1749  0.7448  0.6399
19412TIP3    H179651   1.416   4.721   2.558 -0.0050  0.7320 -0.1771
19412TIP3    H279652   1.468   4.863   2.553 -0.1790  0.7347 -3.0718
19413TIP3   OH279653   5.704   6.401   3.575 -0.1263 -0.2604  0.1142
19413TIP3    H179654   5.640   6.332   3.560  0.4776 -0.6543 -0.7725
19413TIP3    H279655   5.738   6.384   3.663  0.7558 -1.7477 -0.4709
19414TIP3   OH279656   3.479   4.814  12.425 -0.1337  0.2033  0.3951
19414TIP3    H179657   3.564   4.823  12.468  0.1055 -3.1240  0.9019
19414TIP3    H279658   3.416   4.807  12.496 -0.5630  0.5344  0.0561
19415TIP3   OH279659   0.230   5.309  11.576  0.3153 -0.0809  0.4812
19415TIP3    H179660   0.322   5.309  11.548  0.4178  0.1379  0.8192
19415TIP3    H279661   0.231   5.269  11.663  0.1502  0.3205  0.6723
19416TIP3   OH279662   1.814   6.772  15.466  0.2843  0.0606  0.7324
19416TIP3    H179663   1.844   6.769  15.557  3.6878 -2.0461 -0.2938
19416TIP3    H279664   1.875   6.831  15.422 -1.6981  1.5565 -0.1652
19417TIP3   OH279665   1.706   5.453  15.954  0.4084  0.9122  0.0118
19417TIP3    H179666   1.649   5.435  16.029  0.6980 -2.1779 -0.3996
19417TIP3    H279667   1.651   5.436  15.878  1.8269 -2.6479 -0.3995
19418TIP3   OH279668   2.056   0.770   1.967  0.1589  0.4843 -0.1267
19418TIP3    H179669   2.013   0.781   2.052  0.2760  1.3521 -0.1742
19418TIP3    H279670   1.986   0.746   1.907  0.3344 -2.0764  0.5643
19419TIP3   OH279671   1.171   3.230   0.851 -0.1722 -0.0863 -0.1478
19419TIP3    H179672   1.244   3.228   0.913  0.4131 -2.0791 -0.8172
19419TIP3    H279673   1.095   3.200   0.901 -0.2924  0.8936  0.2645
19420TIP3   OH279674   6.386   5.604  15.589  0.1017 -0.0691 -0.0121
19420TIP3    H179675   6.456   5.617  15.526 -1.6999  0.5193 -1.9907
19420TIP3    H279676   6.345   5.690  15.598 -1.2257 -0.6882  0.0285
19421TIP3   OH279677   2.545   1.771   5.148  0.2090  0.1612 -0.3493
19421TIP3    H179678   2.640   1.761   5.143  0.3759  1.7214 -1.0509
19421TIP3    H279679   2.524   1.764   5.241  0.8510 -1.2554 -0.2885
19422TIP3   OH279680   0.324   5.524   2.575 -0.2690  0.3694  0.4342
19422TIP3    H179681   0.272   5.602   2.592 -1.1219 -0.3476  1.2058
19422TIP3    H279682   0.373   5.509   2.656 -0.7212 -0.3355  0.5926
19423TIP3   OH279683   6.609   1.310  14.315  0.7709  0.7061  0.4317
19423TIP3    H179684   6.593   1.401  14.341  2.2135  0.9866  0.4714
19423TIP3    H279685   6.705   1.304  14.311  0.7300 -1.0206  1.1797
19424TIP3   OH279686   3.225   2.323  13.876  0.0114 -0.0552 -0.1400
19424TIP3    H179687   3.252   2.350  13.964 -0.8299 -0.7141  0.3356
19424TIP3    H279688   3.218   2.406  13.827 -0.0200  0.3626  0.5608
19425TIP3   OH279689   5.557   5.620   4.645 -0.1441  0.1522  0.1631
19425TIP3    H179690   5.593   5.539   4.609 -1.4773 -0.4852  0.1895
19425TIP3    H279691   5.588   5.622   4.735 -0.8952 -0.8799  0.4750
19426TIP3   OH279692   3.037   0.378  10.816 -0.1090 -0.6178 -0.1860
19426TIP3    H179693   3.001   0.404  10.731 -1.4388 -0.5374  0.3795
19426TIP3    H279694   3.006   0.444  10.877 -2.0068 -2.4326  0.9536
19427TIP3   OH279695   6.444   3.392  16.281  0.5278 -0.3326  0.8166
19427TIP3    H179696   6.535   3.368  16.266  0.6115 -0.2283  1.1334
19427TIP3    H279697   6.394   3.311  16.267  0.5808 -0.2036 -0.1283
19428TIP3   OH279698   3.501   1.957  16.070 -0.2060 -0.3634 -0.2440
19428TIP3    H179699   3.467   1.905  15.997  0.6777  0.0509 -0.9755
19428TIP3    H279700   3.568   2.012  16.030 -0.8728  1.0890  0.5699
19429TIP3   OH279701   0.167   5.952  13.019 -0.0652  0.2025  0.5274
19429TIP3    H179702   0.220   5.953  12.939 -1.0295 -3.0705 -0.3047
19429TIP3    H279703   0.231   5.952  13.090  0.9718 -0.5086 -0.3691
19430TIP3   OH279704   1.205   0.833   1.068 -0.2981  0.1342  0.6363
19430TIP3    H179705   1.122   0.876   1.088 -0.4307 -0.3994  1.3053
19430TIP3    H279706   1.179   0.751   1.025 -0.0016  1.5892 -2.5839
19431TIP3   OH279707   5.056   6.354  14.712  1.1540 -0.0516  0.0120
19431TIP3    H179708   5.008   6.330  14.633  0.8985 -0.8988  0.4116
19431TIP3    H279709   5.133   6.400  14.681  0.2803  1.0000 -0.6626
19432TIP3   OH279710   1.028   2.314  16.976  0.9436  0.1639  0.1191
19432TIP3    H179711   0.956   2.305  17.039  0.9476 -0.9155 -0.0086
19432TIP3    H279712   1.089   2.245  16.999  1.6837  0.7321 -0.1181
19433TIP3   OH279713   4.084   4.185   0.249 -0.4939 -0.3401  0.0613
19433TIP3    H179714   4.045   4.119   0.191  0.0175 -0.6609  0.0679
19433TIP3    H279715   4.045   4.168   0.334  0.5978 -1.5078  0.3630
19434TIP3   OH279716   2.377   1.457   6.038 -0.1396 -0.4933 -0.3065
19434TIP3    H179717   2.432   1.413   6.104  0.3180 -1.2121 -1.1450
19434TIP3    H279718   2.290   1.421   6.052 -0.7607  1.5922  1.8881
19435TIP3   OH279719   2.570   2.960  16.207 -0.1095 -0.1224 -0.5637
19435TIP3    H179720   2.531   2.932  16.289 -0.3328  1.1650 -0.2024
19435TIP3    H279721   2.604   2.880  16.167 -1.4231 -0.9943  0.0177
19436TIP3   OH279722   1.719   6.410  12.494 -0.1383  0.2566 -0.3777
19436TIP3    H179723   1.776   6.486  12.488  0.9429 -0.3838  1.1785
19436TIP3    H279724   1.753   6.350  12.428 -0.3024  0.6745 -0.8491
19437TIP3   OH279725   0.813   0.383  12.092  0.3646 -0.1355 -0.2825
19437TIP3    H179726   0.742   0.445  12.107 -1.7390 -2.2493 -0.9589
19437TIP3    H279727   0.775   0.315  12.037  3.8311  0.2403 -3.5162
19438TIP3   OH279728   5.217   1.653  12.140 -0.1683 -0.0619  0.0981
19438TIP3    H179729   5.275   1.730  12.143  3.0641 -2.1417 -2.2597
19438TIP3    H279730   5.227   1.613  12.226  0.4261  0.6099  0.3584
19439TIP3   OH279731   2.236   0.890   3.496 -0.2990  0.0176  0.4073
19439TIP3    H179732   2.259   0.804   3.461  0.0986  0.2098  0.1811
19439TIP3    H279733   2.150   0.878   3.536  0.8717 -1.1325  2.7572
19440TIP3   OH279734   5.671   5.194   3.756 -0.0760  0.4193 -0.1477
19440TIP3    H179735   5.693   5.166   3.845  0.4071 -0.4938 -0.5462
19440TIP3    H279736   5.754   5.219   3.717  0.0786 -1.4283 -1.0988
19441TIP3   OH279737   4.539   4.592  17.202  0.0362  0.5681  0.0965
19441TIP3    H179738   4.488   4.672  17.187 -2.0266 -0.5260  0.9256
19441TIP3    H279739   4.581   4.575  17.117  1.2469  2.9592  0.1307
19442TIP3   OH279740   0.652   0.524   1.499  0.5240 -0.2353 -0.3968
19442TIP3    H179741   0.656   0.434   1.466 -0.5976 -0.0956 -0.9777
19442TIP3    H279742   0.560   0.548   1.490  0.9341  1.2314 -0.9570
19443TIP3   OH279743   4.114   3.927   3.090  0.0866  0.1297 -0.2437
19443TIP3    H179744   4.162   3.947   3.170  0.2742 -1.0733 -0.0441
19443TIP3    H279745   4.179   3.941   3.020 -0.0536  1.0924 -0.1975
19444TIP3   OH279746   0.810   2.353  11.405  0.1055 -0.0867  0.1213
19444TIP3    H179747   0.883   2.292  11.391 -0.8790 -1.1827 -0.3838
19444TIP3    H279748   0.738   2.298  11.436 -0.5496  0.9568  0.5001
19445TIP3   OH279749   5.871   0.457  17.071 -0.2738 -0.2976 -0.4470
19445TIP3    H179750   5.805   0.458  17.140 -1.0737 -0.7839 -1.1856
19445TIP3    H279751   5.928   0.531  17.092  0.0080 -0.9201  1.2017
19446TIP3   OH279752   6.547   2.124   0.315 -0.0061  0.0275 -0.5703
19446TIP3    H179753   6.512   2.205   0.277 -0.0955  0.6416  0.7678
19446TIP3    H279754   6.621   2.153   0.368  0.2168 -0.8272 -0.3997
19447TIP3   OH279755   2.349   2.979   5.372 -0.2036  0.1553  0.0614
19447TIP3    H179756   2.384   3.068   5.373 -0.6698  0.3870 -1.6430
19447TIP3    H279757   2.279   2.981   5.306  0.9238 -1.8744 -1.3157
19448TIP3   OH279758   1.394   5.060  13.347  0.0300 -0.0370 -0.6570
19448TIP3    H179759   1.478   5.098  13.317  0.0355 -0.2836 -0.9649
19448TIP3    H279760   1.363   5.010  13.271  0.5595 -1.5539  0.0957
19449TIP3   OH279761   2.394   0.081  12.671 -0.0037 -0.1627  0.3020
19449TIP3    H179762   2.438   0.087  12.586  0.1699 -1.9766  0.2174
19449TIP3    H279763   2.337   0.005  12.662 -1.4320  0.7637  1.1939
19450TIP3   OH279764   2.936   1.768   2.632 -0.4036 -0.3101 -0.0080
19450TIP3    H179765   2.988   1.842   2.663 -0.8462 -0.6177  1.5543
19450TIP3    H279766   2.957   1.761   2.539 -0.1279  1.5884 -0.1228
19451TIP3   OH279767   0.390   0.253   3.966 -0.3811  0.0533 -0.2959
19451TIP3    H179768   0.308   0.299   3.950 -0.2019  0.5151  0.0941
19451TIP3    H279769   0.407   0.205   3.885 -1.9483 -1.4838  0.2333
19452TIP3   OH279770   3.124   1.559  12.108 -0.1105 -0.4506  0.6098
19452TIP3    H179771   3.037   1.520  12.107 -0.6499  0.5689 -2.3540
19452TIP3    H279772   3.111   1.647  12.143 -1.2880  1.3351 -3.6680
19453TIP3   OH279773   6.737   3.945   1.050 -0.4832  0.3466  0.2081
19453TIP3    H179774   6.656   3.996   1.052 -2.6417 -2.7965  0.2318
19453TIP3    H279775   6.733   3.891   1.128  1.5080 -0.1181  0.0261
19454TIP3   OH279776   1.888   5.175  14.454 -0.1123  0.3303  0.1406
19454TIP3    H179777   1.928   5.090  14.474 -0.2416  0.6179  1.7873
19454TIP3    H279778   1.898   5.225  14.535 -2.1707  1.0327  0.0245
19455TIP3   OH279779   3.464   1.335  15.277  0.7193  0.0913  0.7273
19455TIP3    H179780   3.493   1.388  15.351  0.7084  1.8589 -0.4694
19455TIP3    H279781   3.509   1.373  15.201  0.7604 -1.6775 -0.2035
19456TIP3   OH279782   3.287   0.625   1.882  0.1536 -0.0819 -0.2863
19456TIP3    H179783   3.315   0.664   1.965 -0.7707  2.2710 -0.9755
19456TIP3    H279784   3.200   0.663   1.867 -0.1423 -1.3039 -1.8095
19457TIP3   OH279785   2.473   5.486  15.323 -0.5238 -0.4953 -0.5681
19457TIP3    H179786   2.428   5.424  15.265  0.2394 -0.2648 -1.4364
19457TIP3    H279787   2.501   5.557  15.265 -1.3726  0.6696  0.4153
19458TIP3   OH279788   1.656   0.110   2.506  0.0121 -0.3486 -0.2365
19458TIP3    H179789   1.729   0.064   2.547  0.9696  0.4866 -0.9450
19458TIP3    H279790   1.663   0.200   2.538 -0.0620 -0.0114 -1.1214
19459TIP3   OH279791   5.613   5.630   0.035  0.0944  0.5997 -0.2354
19459TIP3    H179792   5.683   5.583   0.081 -1.1148 -1.9831 -0.8598
19459TIP3    H279793   5.642   5.631  -0.056 -0.0787  0.6828 -0.2883
19460TIP3   OH279794   3.627   2.045   2.498  0.2409  0.4159 -0.0702
19460TIP3    H179795   3.591   2.004   2.577  2.1210 -0.6293  0.3013
19460TIP3    H279796   3.635   1.973   2.436 -0.4395  1.0828 -0.9495
19461TIP3   OH279797   4.795   5.894  14.708 -0.5363  0.4579  0.4846
19461TIP3    H179798   4.702   5.886  14.691 -0.5938  0.2951  0.8622
19461TIP3    H279799   4.821   5.975  14.662 -0.9029  0.6212  0.5603
19462TIP3   OH279800   4.588   0.747   4.181 -0.1357 -0.2257 -0.4370
19462TIP3    H179801   4.593   0.691   4.258 -0.1082 -0.4977 -0.6360
19462TIP3    H279802   4.678   0.755   4.150 -0.0787  0.3065 -0.1410
19463TIP3   OH279803   4.950   2.751  15.008 -0.1758 -0.1654 -0.3552
19463TIP3    H179804   5.008   2.679  15.031  0.7240  1.3050  2.3719
19463TIP3    H279805   5.008   2.815  14.966 -0.0505  0.7375  1.1496
19464TIP3   OH279806   3.980   0.462   4.847  0.1211 -0.2219 -0.0542
19464TIP3    H179807   3.963   0.510   4.928 -2.2514  0.1721 -0.6898
19464TIP3    H279808   3.962   0.526   4.777  2.1298 -0.5446 -0.9324
19465TIP3   OH279809   3.266   4.015  14.759 -0.1515 -0.0446 -0.6993
19465TIP3    H179810   3.289   4.007  14.852 -2.5157  0.4193  0.0053
19465TIP3    H279811   3.210   3.940  14.742  0.9694 -0.6107 -2.0322
19466TIP3   OH279812   6.010   0.989  17.193  0.6158  0.2743 -0.3705
19466TIP3    H179813   5.973   0.914  17.241  1.6907 -0.0710 -0.0499
19466TIP3    H279814   5.934   1.036  17.159 -0.0793 -0.9481 -0.5465
19467TIP3   OH279815   2.237   4.564  12.813 -0.3931 -0.3262  0.8220
19467TIP3    H179816   2.182   4.562  12.892 -2.6018 -2.0821 -0.6343
19467TIP3    H279817   2.264   4.655  12.805  1.7794 -0.3884  4.7433
19468TIP3   OH279818   4.420   0.634  10.992  0.2368  0.5061 -0.0548
19468TIP3    H179819   4.484   0.563  10.989  0.7146  0.9185  0.1887
19468TIP3    H279820   4.473   0.714  10.986 -0.1361  0.8950  1.3558
19469TIP3   OH279821   3.519   6.678  15.560 -0.2689 -0.0616 -0.0248
19469TIP3    H179822   3.550   6.670  15.469 -1.0110 -0.5706 -0.2444
19469TIP3    H279823   3.446   6.739  15.555 -0.1783  0.0698  0.2626
19470TIP3   OH279824   0.982   3.285   3.396  0.4004  0.0219  0.3770
19470TIP3    H179825   0.943   3.262   3.312 -0.6892 -0.2425  0.9345
19470TIP3    H279826   1.076   3.286   3.379  0.2118 -0.2309 -0.7922
19471TIP3   OH279827   5.649   6.776  10.885  0.5220  0.0095  0.0875
19471TIP3    H179828   5.704   6.809  10.956  0.4008 -0.2533  0.3056
19471TIP3    H279829   5.559   6.785  10.918  0.1121  3.7506 -1.5881
19472TIP3   OH279830   2.430   0.900   1.827  0.3510 -0.0400 -0.2260
19472TIP3    H179831   2.523   0.911   1.848  0.0020  1.1750  0.8462
19472TIP3    H279832   2.426   0.820   1.775  2.2657  1.0596 -2.1916
19473TIP3   OH279833   1.600   3.829   0.087  0.0079 -0.2940  0.0401
19473TIP3    H179834   1.506   3.808   0.085 -0.3963  1.3862  0.0123
19473TIP3    H279835   1.618   3.869   0.002  1.1787 -2.1773 -0.6443
19474TIP3   OH279836   6.205   3.635  14.504 -0.6237 -0.0717  0.1945
19474TIP3    H179837   6.129   3.693  14.505  0.5743  1.5840 -0.1438
19474TIP3    H279838   6.242   3.642  14.592  0.1527  0.5905 -0.1679
19475TIP3   OH279839   6.432   1.133   2.593 -0.1689 -0.1223  0.4747
19475TIP3    H179840   6.440   1.038   2.579 -0.1449 -0.1255  0.5085
19475TIP3    H279841   6.374   1.163   2.524 -0.9031 -0.3022  0.9944
19476TIP3   OH279842   2.600   2.845   0.246  0.0363 -0.3005 -0.0071
19476TIP3    H179843   2.519   2.814   0.286 -0.1898 -2.1582 -1.7474
19476TIP3    H279844   2.610   2.792   0.167  3.5826 -1.0519  0.7609
19477TIP3   OH279845   5.068   4.527  13.957 -0.1340 -0.0334  0.3122
19477TIP3    H179846   5.086   4.506  14.049 -1.0113  2.2790  1.0776
19477TIP3    H279847   5.154   4.544  13.919  0.1655 -0.1155  0.9382
19478TIP3   OH279848   2.223   3.319   5.611 -0.3078  0.3002  0.3277
19478TIP3    H179849   2.241   3.238   5.658  0.2598  0.0737 -0.2765
19478TIP3    H279850   2.287   3.381   5.646  1.3269 -0.3405 -1.3781
19479TIP3   OH279851   2.887   1.089  15.436  0.4054  0.1583  0.1638
19479TIP3    H179852   2.800   1.123  15.460  0.4935 -0.1045  0.8706
19479TIP3    H279853   2.880   0.995  15.448  0.7594  0.1234  0.1002
19480TIP3   OH279854   4.260   2.940  12.474  0.5219  0.0956  0.4743
19480TIP3    H179855   4.284   3.028  12.446  0.8609 -0.4894 -1.1796
19480TIP3    H279856   4.319   2.920  12.545  1.1300  0.8244  0.1847
19481TIP3   OH279857   3.119   1.935   1.603 -0.3078  0.4220 -0.0311
19481TIP3    H179858   3.069   1.874   1.658  1.6153 -0.2796  1.0200
19481TIP3    H279859   3.098   1.909   1.513 -1.3145 -0.2748  0.3880
19482TIP3   OH279860   0.380   3.215   3.172 -0.2833  0.1734 -0.1286
19482TIP3    H179861   0.321   3.157   3.219 -0.0398 -0.9673 -1.1733
19482TIP3    H279862   0.412   3.276   3.238 -2.3622  0.6190  0.5268
19483TIP3   OH279863   6.092   6.673   6.486 -1.0581 -0.4483  0.3268
19483TIP3    H179864   6.057   6.742   6.430 -1.5839  0.5337  1.8202
19483TIP3    H279865   6.014   6.624   6.514 -0.7470 -1.2749 -0.2180
19484TIP3   OH279866   1.536   1.488   4.348  0.0483  0.3171  0.8190
19484TIP3    H179867   1.448   1.523   4.333 -0.1098  0.6537  2.3182
19484TIP3    H279868   1.541   1.411   4.293 -1.3445  0.0687  1.0031
19485TIP3   OH279869   4.604   6.248   5.877  0.2354 -0.4822 -0.4194
19485TIP3    H179870   4.533   6.210   5.928  0.4951 -2.3055 -1.3278
19485TIP3    H279871   4.680   6.193   5.897  0.7075 -0.2606 -1.5284
19486TIP3   OH279872   0.560   5.121   1.155  0.0834  0.2849  0.4209
19486TIP3    H179873   0.644   5.093   1.192 -0.0445  0.4502  0.8432
19486TIP3    H279874   0.496   5.102   1.224 -0.5323 -1.7267 -0.6425
19487TIP3   OH279875   2.839   1.620   5.663 -0.5373  0.0261 -0.0127
19487TIP3    H179876   2.913   1.602   5.605  0.5340  1.0217  0.9936
19487TIP3    H279877   2.775   1.552   5.641  0.4567 -0.5616 -1.2638
19488TIP3   OH279878   6.234   2.500   4.331 -0.1830  0.0493  0.6937
19488TIP3    H179879   6.176   2.468   4.400 -0.6036 -0.2808  0.1908
19488TIP3    H279880   6.310   2.441   4.334 -0.8897 -0.9244 -0.1353
19489TIP3   OH279881   5.511   3.193   6.477 -0.0881 -0.1858  0.9269
19489TIP3    H179882   5.506   3.282   6.510 -0.6307 -0.0811  0.5888
19489TIP3    H279883   5.461   3.141   6.541  0.2761 -0.2585  1.1538
19490TIP3   OH279884   5.833   5.762   2.839 -0.3588  0.7014  0.4875
19490TIP3    H179885   5.864   5.755   2.929 -0.8721  2.2293  0.8176
19490TIP3    H279886   5.898   5.817   2.795  0.1688 -0.4614 -0.2405
19491TIP3   OH279887   5.917   1.924  11.640  0.1610 -0.0052 -0.3442
19491TIP3    H179888   5.994   1.892  11.593 -0.5340  0.0406 -1.5695
19491TIP3    H279889   5.858   1.954  11.571 -0.7108  0.5159  0.5993
19492TIP3   OH279890   2.253   0.961   5.764  0.4664  0.2860 -0.5552
19492TIP3    H179891   2.240   0.966   5.859 -1.2619  0.1808 -0.7506
19492TIP3    H279892   2.268   1.051   5.737  0.7353  0.3465 -0.2039
19493TIP3   OH279893   6.391   5.345  16.011  0.6543 -0.0213 -0.1419
19493TIP3    H179894   6.382   5.360  15.916  0.4740 -1.3833 -0.3615
19493TIP3    H279895   6.323   5.400  16.050  0.7847  0.6266 -0.7910
19494TIP3   OH279896   5.665   2.236  15.008 -0.3098 -0.1564  0.2796
19494TIP3    H179897   5.693   2.175  15.076 -0.8047 -0.3005  0.3572
19494TIP3    H279898   5.603   2.186  14.955  2.0026 -0.9486 -1.8917
19495TIP3   OH279899   3.763   3.571   6.516 -0.8073  0.2902  0.1773
19495TIP3    H179900   3.851   3.554   6.550 -0.7917  2.7131  1.6222
19495TIP3    H279901   3.750   3.505   6.447  1.4587 -1.1742  1.0392
19496TIP3   OH279902   0.773   5.429  14.289  0.3170  0.0074  0.9011
19496TIP3    H179903   0.824   5.506  14.266  0.1581  0.3056  1.5134
19496TIP3    H279904   0.837   5.369  14.328  0.4467 -0.1867  0.3943
19497TIP3   OH279905   3.215   4.123   2.426 -0.2754 -0.1094  0.0722
19497TIP3    H179906   3.212   4.219   2.431 -1.7282 -0.0988 -0.4986
19497TIP3    H279907   3.201   4.104   2.333 -1.0477 -0.8845  0.3370
19498TIP3   OH279908   1.668   1.974  11.864 -0.1398  0.0388 -0.5176
19498TIP3    H179909   1.639   1.883  11.860  2.3865 -0.8981  0.2614
19498TIP3    H279910   1.742   1.978  11.804  0.6390  1.2006  0.4715
19499TIP3   OH279911   1.868   3.906   5.229 -0.1387  0.6508  0.1718
19499TIP3    H179912   1.881   3.832   5.288 -3.0098  1.6251  2.2389
19499TIP3    H279913   1.775   3.926   5.235 -0.5831  1.1178 -4.4739
19500TIP3   OH279914   5.612   6.651   4.315  0.2523  0.0962 -0.0419
19500TIP3    H179915   5.590   6.687   4.401  1.3654  2.1062 -0.5362
19500TIP3    H279916   5.530   6.653   4.266 -0.3374 -0.8424  0.8469
19501TIP3   OH279917   1.575   5.209   4.155 -0.3557  0.5706  0.0475
19501TIP3    H179918   1.500   5.261   4.126  0.2245  1.4325  0.0465
19501TIP3    H279919   1.636   5.273   4.191  0.6578 -0.0290 -0.5288
19502TIP3   OH279920   4.356   2.085  14.199  0.3051  0.1661 -0.6561
19502TIP3    H179921   4.355   2.106  14.105  2.2958  0.4473 -0.6600
19502TIP3    H279922   4.449   2.074  14.220 -0.1922 -4.4953  0.2715
19503TIP3   OH279923   6.806   5.460  13.692 -0.5841 -0.5584  0.0075
19503TIP3    H179924   6.792   5.500  13.606  0.7950 -0.1825 -0.0694
19503TIP3    H279925   6.860   5.524  13.739 -0.6689 -1.1162  0.8721
19504TIP3   OH279926   6.666   5.340   3.874 -0.6283 -0.1515 -0.0845
19504TIP3    H179927   6.733   5.317   3.938 -0.2317 -0.2604 -0.5387
19504TIP3    H279928   6.641   5.430   3.898 -1.9473 -0.8865  1.4846
19505TIP3   OH279929   0.399   6.786   1.371 -0.4051  0.0790 -0.0498
19505TIP3    H179930   0.427   6.779   1.463 -0.4473  1.3411  0.0817
19505TIP3    H279931   0.476   6.819   1.325 -0.4721 -0.2768 -0.4183
19506TIP3   OH279932   3.659   3.447   5.156  0.6404 -0.7121 -0.7576
19506TIP3    H179933   3.692   3.383   5.219 -0.8531  0.5633  1.4522
19506TIP3    H279934   3.564   3.444   5.166  0.3831 -0.0776 -2.6266
19507TIP3   OH279935   6.720   1.264  13.628  0.5098  1.1545  0.4342
19507TIP3    H179936   6.672   1.222  13.556 -1.3562 -0.2751  2.3542
19507TIP3    H279937   6.785   1.199  13.654  1.1588  1.6542  0.0865
19508TIP3   OH279938   3.545   3.163   2.073  0.3745 -0.3537 -0.2474
19508TIP3    H179939   3.538   3.254   2.100  0.2201 -0.4049 -0.1163
19508TIP3    H279940   3.574   3.116   2.151  4.8493  0.1989 -1.2781
19509TIP3   OH279941   3.880   5.949   3.545 -0.2167 -0.1624  0.0173
19509TIP3    H179942   3.975   5.933   3.545 -0.3115 -1.1819 -2.5044
19509TIP3    H279943   3.842   5.866   3.517 -1.8880  0.2548  0.9531
19510TIP3   OH279944   0.483   2.218   4.414  0.1235  0.5049  0.3187
19510TIP3    H179945   0.471   2.151   4.481 -2.2272 -0.3432 -0.8403
19510TIP3    H279946   0.547   2.181   4.354  0.2047  0.0943  0.6511
19511TIP3   OH279947   0.502   2.012   4.604  0.1769  0.6918  0.1890
19511TIP3    H179948   0.597   2.016   4.595  0.2547 -0.0428  0.5852
19511TIP3    H279949   0.487   1.945   4.670 -0.5541  2.3367  1.7684
19512TIP3   OH279950   4.406   5.431  13.145  0.0333  0.3922 -0.0204
19512TIP3    H179951   4.490   5.385  13.147  0.0191  0.3963  0.8108
19512TIP3    H279952   4.341   5.363  13.166 -0.1904  0.3627 -0.7768
19513TIP3   OH279953   5.116   0.084  16.250  0.3686  0.3839 -0.0870
19513TIP3    H179954   5.056   0.062  16.321  0.5041 -0.6334 -0.2678
19513TIP3    H279955   5.060   0.101  16.175  0.2805 -0.2452 -0.1710
19514TIP3   OH279956   6.560   6.043   1.584  0.2898 -0.3711 -0.3375
19514TIP3    H179957   6.587   6.078   1.669  0.8413  0.5450 -0.8732
19514TIP3    H279958   6.506   6.112   1.545 -0.2289 -0.9117 -0.6051
19515TIP3   OH279959   2.171   3.411  12.122 -0.0255  0.4998 -0.4219
19515TIP3    H179960   2.261   3.381  12.113 -0.3613 -0.4790 -0.6417
19515TIP3    H279961   2.178   3.496  12.165  0.8647 -0.6832  1.9097
19516TIP3   OH279962   0.135   0.689   5.157  0.3686  0.1223 -0.4690
19516TIP3    H179963   0.128   0.718   5.248 -2.6850 -2.7043  0.3974
19516TIP3    H279964   0.130   0.769   5.106 -0.7977  1.6122  1.8014
19517TIP3   OH279965   4.114   5.485  14.052 -0.1000 -0.1605  0.2753
19517TIP3    H179966   4.083   5.575  14.060 -1.4012 -0.5826  0.2219
19517TIP3    H279967   4.045   5.440  14.004  1.7125 -0.6213 -2.0920
19518TIP3   OH279968   0.741   4.702  16.059 -1.1394  0.3567 -0.5206
19518TIP3    H179969   0.837   4.695  16.067 -1.1624  0.5588 -0.0698
19518TIP3    H279970   0.728   4.755  15.980 -0.8865  0.1157 -0.7286
19519TIP3   OH279971   2.595   3.024  15.588  0.0449 -0.0154  0.3511
19519TIP3    H179972   2.562   2.935  15.600  1.7304 -1.0494 -1.8655
19519TIP3    H279973   2.688   3.019  15.612  0.0378  1.3056  0.7566
19520TIP3   OH279974   1.925   1.298   5.563 -0.1138 -0.3887 -0.0941
19520TIP3    H179975   1.999   1.286   5.623 -0.0119 -4.0025 -0.7137
19520TIP3    H279976   1.871   1.220   5.576 -1.6979  0.1976 -2.5381
19521TIP3   OH279977   5.260   4.739   0.291  0.0555 -0.3843 -0.4749
19521TIP3    H179978   5.297   4.754   0.379  1.4746 -1.6771 -0.8119
19521TIP3    H279979   5.181   4.793   0.289  1.4023  1.7883  0.6424
19522TIP3   OH279980   1.613   0.357  14.350  0.0261  0.0428 -0.2741
19522TIP3    H179981   1.653   0.338  14.434 -0.9273 -0.7430  0.0246
19522TIP3    H279982   1.611   0.453  14.344  2.6462  0.1307 -0.6734
19523TIP3   OH279983   6.296   4.896  12.868  0.1075  0.2843  0.8733
19523TIP3    H179984   6.385   4.879  12.836 -0.6743 -2.0865 -0.2826
19523TIP3    H279985   6.253   4.942  12.796 -1.3965 -4.3071 -1.5963
19524TIP3   OH279986   0.317   5.589  14.640 -0.1028  0.1561 -0.1477
19524TIP3    H179987   0.298   5.513  14.696  1.1053 -0.1645 -0.1382
19524TIP3    H279988   0.387   5.559  14.582  1.7514  1.8190  1.1177
19525TIP3   OH279989   2.082   3.582  13.820  0.1748  0.0395  0.7456
19525TIP3    H179990   2.055   3.662  13.866 -1.0405  0.6653 -0.9857
19525TIP3    H279991   2.105   3.521  13.891  1.1771  1.9062  2.1118
19526TIP3   OH279992   1.035   4.942   2.619  0.4417 -0.5013 -0.2337
19526TIP3    H179993   0.943   4.948   2.642  0.3381 -0.8956 -0.5328
19526TIP3    H279994   1.078   4.914   2.700  0.4578  0.7091  0.2030
19527TIP3   OH279995   4.573   6.231  16.799 -0.1114 -0.2278  0.0797
19527TIP3    H179996   4.607   6.237  16.888 -0.0869  0.5499  0.0229
19527TIP3    H279997   4.612   6.305  16.753 -0.5784 -0.2891 -0.4249
19528TIP3   OH279998   3.267   0.527   1.383 -0.0342 -0.4438  0.0724
19528TIP3    H179999   3.230   0.546   1.297 -1.0732  2.0636  0.9751
19528TIP3    H280000   3.191   0.528   1.442  0.4922 -3.2383  0.9392
19529TIP3   OH280001   2.411   4.122   3.512  0.4665 -0.2631 -0.3414
19529TIP3    H180002   2.499   4.083   3.516  0.9686  0.5717 -2.0647
19529TIP3    H280003   2.413   4.177   3.433 -0.7317  1.9683  1.0895
19530TIP3   OH280004   6.010   3.806   1.804  0.1082  0.1779  0.6735
19530TIP3    H180005   6.043   3.765   1.724 -1.3657  0.1748  0.0339
19530TIP3    H280006   6.040   3.748   1.875 -1.0825 -1.5314 -0.1281
19531TIP3   OH280007   0.486   2.870  16.105 -0.1943 -0.5473  0.4264
19531TIP3    H180008   0.505   2.945  16.050  0.7724 -1.0403  0.0589
19531TIP3    H280009   0.471   2.798  16.044  1.5117 -1.2438  0.7765
19532TIP3   OH280010   4.146   4.759   1.958  0.7790 -0.4119  0.4668
19532TIP3    H180011   4.062   4.767   1.912  0.3204  1.8712  1.5643
19532TIP3    H280012   4.173   4.669   1.942  0.3068 -0.0193 -3.5703
19533TIP3   OH280013   5.204   4.388  14.650 -0.0340 -0.2950 -0.4130
19533TIP3    H180014   5.266   4.316  14.639  1.0226  0.5292  0.0056
19533TIP3    H280015   5.170   4.377  14.739 -0.1882 -0.5237 -0.5014
19534TIP3   OH280016   0.182   0.635   3.581 -0.5016  0.3915 -0.0496
19534TIP3    H180017   0.086   0.626   3.583 -0.7016  2.0222 -0.6134
19534TIP3    H280018   0.200   0.673   3.495  0.7401 -0.5819 -0.2374
19535TIP3   OH280019   3.220   1.823  11.215  0.1996 -0.7151  0.7986
19535TIP3    H180020   3.246   1.841  11.125 -1.1260 -2.7868 -0.0862
19535TIP3    H280021   3.295   1.850  11.268  1.3854 -0.3049 -0.9956
19536TIP3   OH280022   4.070   3.906  14.273 -0.0716  0.4865 -0.4430
19536TIP3    H180023   4.116   3.833  14.315  1.3265  1.4829 -0.1496
19536TIP3    H280024   4.119   3.923  14.193 -1.5012 -0.0633 -1.4770
19537TIP3   OH280025   0.306   2.078   1.274 -0.5710  0.5603  0.1583
19537TIP3    H180026   0.243   2.025   1.225 -1.5395  0.6625  1.2461
19537TIP3    H280027   0.269   2.166   1.271  0.7314  1.0969 -1.1462
19538TIP3   OH280028   4.415   2.595  13.480 -0.4988 -0.0584 -0.2819
19538TIP3    H180029   4.330   2.617  13.517 -0.1234  0.8066  0.1122
19538TIP3    H280030   4.429   2.504  13.504 -0.5128  0.3167  1.2994
19539TIP3   OH280031   4.122   3.882  12.617  0.1208  0.1314 -0.0580
19539TIP3    H180032   4.100   3.801  12.571  1.0570  0.3787 -0.9630
19539TIP3    H280033   4.109   3.860  12.710  1.3113 -1.3898 -0.2067
19540TIP3   OH280034   3.122   5.696   5.641  0.2992  0.1452 -0.2070
19540TIP3    H180035   3.212   5.706   5.669 -0.3532 -1.1463  2.7631
19540TIP3    H280036   3.118   5.608   5.603  0.1231 -0.2210  0.6295
19541TIP3   OH280037   1.012   2.360  16.709  0.5203  0.3894  0.3668
19541TIP3    H180038   1.013   2.359  16.805  0.0258  2.0002  0.4134
19541TIP3    H280039   0.960   2.437  16.686 -0.0091 -0.3874 -1.2130
19542TIP3   OH280040   2.218   6.014   0.169 -0.2212 -0.3083  0.7594
19542TIP3    H180041   2.283   6.080   0.191  0.1555 -0.8447  1.2953
19542TIP3    H280042   2.251   5.934   0.209 -0.7541 -0.7850  0.2576
19543TIP3   OH280043   1.085   0.144   5.906  0.2341  0.2967  0.3626
19543TIP3    H180044   1.091   0.228   5.952 -2.8962  1.2335 -0.7270
19543TIP3    H280045   1.033   0.088   5.964 -0.7126  0.3157 -0.4421
19544TIP3   OH280046   1.651   0.821  14.913  0.0031  0.0541  0.0047
19544TIP3    H180047   1.645   0.728  14.891  1.9397  0.2632 -1.8101
19544TIP3    H280048   1.745   0.838  14.919 -0.3394  1.5183  2.2717
19545TIP3   OH280049   2.552   1.080   4.670 -0.1680 -0.5068 -0.9942
19545TIP3    H180050   2.459   1.067   4.648 -0.5927  0.3839  0.2205
19545TIP3    H280051   2.572   1.007   4.729 -0.0642 -0.7417 -1.3149
19546TIP3   OH280052   6.501   2.851   1.129 -0.0949  0.4516  0.3627
19546TIP3    H180053   6.480   2.938   1.095 -1.4404 -1.2230 -3.6390
19546TIP3    H280054   6.424   2.826   1.181  0.4934  1.7129  1.9297
19547TIP3   OH280055   2.775   3.726   1.338  0.5026 -0.6231  0.6055
19547TIP3    H180056   2.810   3.724   1.249 -0.8990 -0.7477  0.0342
19547TIP3    H280057   2.809   3.806   1.376  0.5963 -0.2413 -0.2691
19548TIP3   OH280058   3.240   6.593  16.861  0.3771  0.7723 -0.2189
19548TIP3    H180059   3.294   6.544  16.798  2.0786  0.3481  1.4959
19548TIP3    H280060   3.278   6.573  16.946 -2.6500  0.2791  1.1487
19549TIP3   OH280061   6.328   3.968   0.617 -0.2145  0.4854 -0.5509
19549TIP3    H180062   6.418   4.001   0.611 -0.1671  0.4213 -0.1948
19549TIP3    H280063   6.288   3.992   0.534  0.5736 -0.8238 -1.3360
19550TIP3   OH280064   4.341   1.337  13.953  0.1160 -0.5055 -0.4660
19550TIP3    H180065   4.399   1.368  14.023  2.0106  0.4793 -2.3363
19550TIP3    H280066   4.276   1.406  13.943  0.9870  0.2814 -0.9008
19551TIP3   OH280067   6.390   0.992   3.218 -0.1656 -1.6875 -0.9393
19551TIP3    H180068   6.446   0.985   3.141  1.6702 -3.7958  0.4418
19551TIP3    H280069   6.421   1.070   3.263 -0.9000 -0.7428 -2.0084
19552TIP3   OH280070   4.802   2.537   2.671 -0.1480  0.6285  0.2629
19552TIP3    H180071   4.889   2.562   2.704 -0.4810 -0.2386  1.8990
19552TIP3    H280072   4.795   2.581   2.586  2.3628 -0.2230 -0.4683
19553TIP3   OH280073   3.335   4.931   3.239  0.2583 -0.5646  0.2055
19553TIP3    H180074   3.247   4.931   3.200 -0.2377 -1.3144  1.2524
19553TIP3    H280075   3.367   5.020   3.228 -0.6017 -0.3062 -0.2754
19554TIP3   OH280076   6.316   5.473   5.915 -0.3360 -0.0555 -0.7638
19554TIP3    H180077   6.249   5.470   5.846  0.5103  3.2045 -1.9150
19554TIP3    H280078   6.306   5.560   5.953  2.9382  0.3940 -0.7173
19555TIP3   OH280079   6.181   1.971   5.663 -0.4637  0.7533  0.0980
19555TIP3    H180080   6.132   2.038   5.710 -0.1293  1.3379 -0.3795
19555TIP3    H280081   6.262   1.961   5.712 -0.2950  1.0645 -0.1145
19556TIP3   OH280082   4.352   6.005   2.346 -0.7402  0.3664 -1.4340
19556TIP3    H180083   4.440   6.035   2.367 -1.5038  1.3160  0.8685
19556TIP3    H280084   4.348   5.915   2.377 -0.5242  0.2571 -1.7248
19557TIP3   OH280085   1.321   1.856  15.165 -0.1510  0.4507  0.1936
19557TIP3    H180086   1.253   1.919  15.189 -0.0221  0.3443  0.8609
19557TIP3    H280087   1.274   1.782  15.129 -0.3607  0.5608  0.2395
19558TIP3   OH280088   0.603   0.055   2.072 -0.2499  0.4100  0.6024
19558TIP3    H180089   0.581   0.131   2.019 -1.3167 -0.6153 -0.4895
19558TIP3    H280090   0.541   0.057   2.145  0.3678  1.0925  1.1362
19559TIP3   OH280091   2.303   6.546  14.009 -0.0180 -0.2360 -0.2092
19559TIP3    H180092   2.298   6.629  14.056  0.2263 -0.5215  0.3243
19559TIP3    H280093   2.390   6.511  14.030 -0.6190 -1.2614  0.6587
19560TIP3   OH280094   0.090   2.793  16.060 -0.4167 -0.0105 -0.4678
19560TIP3    H180095   0.004   2.750  16.066  0.1183 -1.0015  0.4777
19560TIP3    H280096   0.070   2.882  16.032 -1.7238 -0.3199 -0.6122
19561TIP3   OH280097   5.562   0.979   0.224 -0.4326 -0.1333 -0.5831
19561TIP3    H180098   5.618   1.053   0.200 -0.6541  0.5292  0.8746
19561TIP3    H280099   5.477   1.000   0.185 -0.1172 -0.3648 -1.4287
19562TIP3   OH280100   5.545   4.185   5.455  0.3593  0.0419  0.3504
19562TIP3    H180101   5.554   4.139   5.372  1.0632  0.1030  0.3879
19562TIP3    H280102   5.460   4.229   5.449  0.0831 -0.5257 -0.0421
19563TIP3   OH280103   3.828   0.518   3.504  0.6966  0.1472  0.2761
19563TIP3    H180104   3.767   0.506   3.577  0.2071  3.3589  0.5667
19563TIP3    H280105   3.772   0.537   3.429  1.2116  2.4938  0.4048
19564TIP3   OH280106   0.289   2.505  10.742  0.2333 -0.1742 -0.1389
19564TIP3    H180107   0.348   2.581  10.738 -0.9377  0.9210  1.7624
19564TIP3    H280108   0.300   2.462  10.657  0.9014  2.1575 -1.3282
19565TIP3   OH280109   0.945   6.272   6.624  0.0690 -0.6216 -0.5598
19565TIP3    H180110   1.027   6.227   6.642  0.0321 -0.0097  1.3382
19565TIP3    H280111   0.970   6.349   6.573  0.7588 -0.1229  0.5140
19566TIP3   OH280112   0.544   2.917  14.481  0.2148 -0.2898  0.3072
19566TIP3    H180113   0.497   2.866  14.415 -1.6626 -0.0652  1.3839
19566TIP3    H280114   0.602   2.974  14.431  0.9080 -2.0584 -1.0028
19567TIP3   OH280115   1.470   1.816  14.666 -0.1115  0.7064 -0.3410
19567TIP3    H180116   1.419   1.735  14.660 -0.9538  1.3052 -3.3487
19567TIP3    H280117   1.554   1.794  14.625  0.1241  1.0522 -0.0496
19568TIP3   OH280118   3.534   1.514  15.496  0.4553 -0.5249 -0.1151
19568TIP3    H180119   3.533   1.479  15.585  0.0593 -0.4176 -0.0752
19568TIP3    H280120   3.544   1.609  15.508 -0.8203 -0.3698 -0.1324
19569TIP3   OH280121   1.869   4.667   4.610  0.0967 -0.1328  0.1291
19569TIP3    H180122   1.845   4.596   4.550 -0.6431  1.8153 -2.0236
19569TIP3    H280123   1.867   4.746   4.555  0.0400  1.6852  2.6107
19570TIP3   OH280124   5.197   3.810   3.688 -0.2134  0.7364 -0.1872
19570TIP3    H180125   5.252   3.849   3.756  0.5346 -0.7556  0.1153
19570TIP3    H280126   5.109   3.810   3.726  0.0404  0.7428  0.4182
19571TIP3   OH280127   3.372   4.247   5.086  0.6211  0.3803  0.3168
19571TIP3    H180128   3.314   4.175   5.111  0.2306  0.2556 -0.8744
19571TIP3    H280129   3.426   4.262   5.163 -0.9206  0.4351  1.4214
19572TIP3   OH280130   5.239   5.828  13.489 -0.5100  0.7881 -0.0803
19572TIP3    H180131   5.255   5.864  13.577 -1.0245  0.1409  0.2942
19572TIP3    H280132   5.158   5.871  13.461 -0.7551  0.4428  0.0844
19573TIP3   OH280133   5.963   0.956  15.595  0.6796 -0.5571 -0.0381
19573TIP3    H180134   5.907   0.921  15.527  0.2804  0.9806 -0.5495
19573TIP3    H280135   5.948   1.051  15.592  2.8491 -0.1565  0.2092
19574TIP3   OH280136   5.679   3.473  15.763  0.5300 -0.4513  0.2121
19574TIP3    H180137   5.617   3.422  15.814 -0.5909 -1.7387 -2.2375
19574TIP3    H280138   5.731   3.408  15.716  1.1590  0.6388 -0.6569
19575TIP3   OH280139   1.350   6.722  11.167  0.2140 -0.2962 -0.3871
19575TIP3    H180140   1.327   6.668  11.091  0.2881  0.7613 -1.2012
19575TIP3    H280141   1.372   6.807  11.129  0.1192  0.3023  0.8441
19576TIP3   OH280142   3.291   6.262   0.160 -0.0660  0.3101  0.6575
19576TIP3    H180143   3.314   6.340   0.211  1.2830  0.9238 -0.8051
19576TIP3    H280144   3.375   6.226   0.132 -0.6155 -2.1467  1.9004
19577TIP3   OH280145   3.694   4.896   4.027 -0.0098  0.8464 -0.5294
19577TIP3    H180146   3.708   4.852   3.943  1.5817 -2.0981  1.1093
19577TIP3    H280147   3.599   4.901   4.036 -0.2055  0.8306 -2.2928
19578TIP3   OH280148   3.548   4.899  11.723  0.6147 -0.0914  0.8111
19578TIP3    H180149   3.582   4.986  11.700 -1.1045  0.4867  0.2448
19578TIP3    H280150   3.540   4.900  11.818  1.1296  0.1592  0.8530
19579TIP3   OH280151   6.733   2.543   0.535 -0.0109 -0.3413 -0.7892
19579TIP3    H180152   6.721   2.606   0.606 -2.2123 -1.1890 -0.3218
19579TIP3    H280153   6.689   2.582   0.460  2.0847  0.4302 -1.6955
19580TIP3   OH280154   2.566   1.765   5.445  0.7268  0.8713  0.4675
19580TIP3    H180155   2.508   1.834   5.477  0.7016  1.6834 -1.2416
19580TIP3    H280156   2.654   1.804   5.448  0.5949  1.4178 -1.5125
19581TIP3   OH280157   2.815   3.343   1.850 -0.0440 -0.1951  0.0537
19581TIP3    H180158   2.880   3.278   1.879  0.1179  1.1407  3.0898
19581TIP3    H280159   2.863   3.401   1.792  1.5899  0.7166  2.1703
19582TIP3   OH280160   3.792   3.284  12.429  0.5224 -0.5232  0.2454
19582TIP3    H180161   3.804   3.269  12.523 -0.7990 -1.7712  0.2446
19582TIP3    H280162   3.703   3.316  12.420  1.6617  2.8957 -0.3154
19583TIP3   OH280163   5.578   5.811   4.057  0.6633 -0.4167  0.2257
19583TIP3    H180164   5.650   5.872   4.041 -0.6082  1.2736  0.5537
19583TIP3    H280165   5.582   5.749   3.985  0.8917  1.2182 -1.2494
19584TIP3   OH280166   5.712   2.473   2.508  0.7334 -0.7940 -0.2449
19584TIP3    H180167   5.767   2.539   2.551  0.2268 -0.7646  0.3720
19584TIP3    H280168   5.737   2.478   2.416 -0.4820  1.4790 -0.5284
19585TIP3   OH280169   0.386   4.750  16.722  0.4830  0.4608 -0.3753
19585TIP3    H180170   0.447   4.676  16.719 -1.5983 -1.3263 -1.6240
19585TIP3    H280171   0.337   4.738  16.803 -0.7181 -0.3548 -1.1756
19586TIP3   OH280172   1.306   5.477   2.527 -0.5257 -0.0486 -0.3392
19586TIP3    H180173   1.302   5.493   2.433  0.2798  0.4452 -0.3003
19586TIP3    H280174   1.270   5.556   2.567  0.5261  0.3813 -0.2117
19587TIP3   OH280175   5.120   4.940  15.112 -0.0036  0.3312 -0.2315
19587TIP3    H180176   5.148   4.873  15.050  1.3737 -0.1959  0.9214
19587TIP3    H280177   5.029   4.918  15.131 -0.1168 -0.1286 -1.2247
19588TIP3   OH280178   1.621   3.246  10.441 -0.1984  0.0731 -0.5955
19588TIP3    H180179   1.675   3.255  10.362 -1.6372 -1.8670 -1.8833
19588TIP3    H280180   1.677   3.201  10.504  0.6316  0.7443 -0.8321
19589TIP3   OH280181   5.867   5.660  12.323 -0.3719  0.5406 -0.0324
19589TIP3    H180182   5.890   5.676  12.232 -0.0654  1.1403  0.1401
19589TIP3    H280183   5.871   5.565  12.333 -3.2522  0.1882 -1.3793
19590TIP3   OH280184   6.679   1.062  12.083 -0.0236 -0.5091 -0.1015
19590TIP3    H180185   6.619   1.056  12.008 -1.5995 -0.4655  1.1151
19590TIP3    H280186   6.755   1.010  12.056  1.0206  2.2482 -3.0823
19591TIP3   OH280187   1.828   4.555   3.589  0.5258 -1.1047  0.1346
19591TIP3    H180188   1.920   4.579   3.598  0.9599 -2.6986  0.3870
19591TIP3    H280189   1.814   4.550   3.495  0.2199  0.7645  0.0629
19592TIP3   OH280190   0.686   1.864  12.482 -0.4099 -0.1351  0.2045
19592TIP3    H180191   0.623   1.858  12.410 -1.2078  1.0403  0.7803
19592TIP3    H280192   0.753   1.924  12.450 -0.0184 -0.7234 -0.0880
19593TIP3   OH280193   3.983   1.098  16.146  0.0020  0.1089 -0.3349
19593TIP3    H180194   4.069   1.069  16.115 -0.2388 -2.4809  1.1400
19593TIP3    H280195   3.932   1.111  16.066  0.8308 -1.5083 -1.1812
19594TIP3   OH280196   0.371   3.396  13.780  0.4047 -0.2352 -0.4937
19594TIP3    H180197   0.280   3.420  13.763  0.3954 -0.9423 -1.5414
19594TIP3    H280198   0.422   3.467  13.742  0.2895  0.4390  0.5853
19595TIP3   OH280199   4.366   1.725  14.126  0.2294  0.5391  0.3593
19595TIP3    H180200   4.360   1.661  14.056  1.0532  0.5589  0.2634
19595TIP3    H280201   4.434   1.691  14.184 -0.0532  0.8055  0.8588
19596TIP3   OH280202   3.899   5.911  14.745  0.4542 -0.4473 -0.5779
19596TIP3    H180203   3.896   6.003  14.719  0.4844 -0.4048 -0.4300
19596TIP3    H280204   3.951   5.909  14.825 -0.1354 -0.4981 -0.1857
19597TIP3   OH280205   3.806   3.469  13.945 -0.0276  0.4017  0.2348
19597TIP3    H180206   3.838   3.559  13.936  0.3951  0.1533 -0.9507
19597TIP3    H280207   3.823   3.430  13.860 -1.2087 -0.4862  0.3929
19598TIP3   OH280208   1.033   1.035  14.857 -0.0490  0.4969  0.1682
19598TIP3    H180209   1.113   1.036  14.806  0.2073  0.5507  0.5680
19598TIP3    H280210   1.017   1.127  14.879 -0.9286  0.6526 -0.9953
19599TIP3   OH280211   0.467   6.173  10.506 -0.0325  0.0583  0.0462
19599TIP3    H180212   0.393   6.114  10.491 -0.7788  0.7843  0.8051
19599TIP3    H280213   0.542   6.128  10.464 -0.9532 -0.5139 -1.0417
19600TIP3   OH280214   4.992   5.118  14.121 -0.1619 -0.6757  0.1097
19600TIP3    H180215   4.917   5.122  14.180  0.9117  0.7333  1.4599
19600TIP3    H280216   4.974   5.184  14.054 -0.3464 -0.7037  0.1317
19601TIP3   OH280217   3.258   1.146   0.789 -0.1726  0.0585  0.4523
19601TIP3    H180218   3.184   1.089   0.767 -1.8181  2.8022 -1.9226
19601TIP3    H280219   3.330   1.115   0.734  0.0239 -1.6344  1.5896
19602TIP3   OH280220   0.301   1.400  14.166 -0.6593 -0.4151  0.5344
19602TIP3    H180221   0.323   1.446  14.247 -1.0953  0.9135 -0.0621
19602TIP3    H280222   0.353   1.320  14.168  1.6170  0.9901  0.7726
19603TIP3   OH280223   0.778   1.266  13.310  0.1504 -0.1651  0.3158
19603TIP3    H180224   0.703   1.291  13.363  0.3067  0.7925  0.1046
19603TIP3    H280225   0.850   1.257  13.373  0.0893 -0.1010  0.3955
19604TIP3   OH280226   5.115   2.354  15.530 -0.1255 -0.1610  0.5346
19604TIP3    H180227   5.067   2.298  15.470 -1.3645 -0.6354  1.8971
19604TIP3    H280228   5.185   2.299  15.564  0.5135  0.0774 -0.3844
19605TIP3   OH280229   4.314   2.205  15.401  0.3465  0.1139 -0.4002
19605TIP3    H180230   4.314   2.266  15.327  1.4866  1.6161  0.7629
19605TIP3    H280231   4.406   2.203  15.430  0.4558 -2.5883 -0.6828
19606TIP3   OH280232   6.003   3.580   1.352 -0.7059  0.6386 -0.4091
19606TIP3    H180233   5.941   3.640   1.310  0.5961  0.7930 -2.2703
19606TIP3    H280234   5.948   3.512   1.391 -2.1097  1.8418 -0.2091
19607TIP3   OH280235   6.325   0.897  12.519 -0.0179  0.1763 -0.7179
19607TIP3    H180236   6.377   0.967  12.480  1.0972  0.1735  0.6846
19607TIP3    H280237   6.265   0.943  12.579  1.6376 -0.0810  1.2404
19608TIP3   OH280238   1.386   1.362  10.723  0.4718 -0.0228 -0.0435
19608TIP3    H180239   1.464   1.383  10.773 -0.3702  2.6163  0.3751
19608TIP3    H280240   1.375   1.437  10.664 -2.0732  0.1137  0.4458
19609TIP3   OH280241   2.053   2.076  16.160  0.7136  0.1558  0.0508
19609TIP3    H180242   2.147   2.097  16.166  1.4328 -2.7105  0.1924
19609TIP3    H280243   2.030   2.044  16.246 -0.0675 -0.4272 -0.3705
19610TIP3   OH280244   5.236   6.520  12.854  0.0749 -0.2260 -0.1554
19610TIP3    H180245   5.331   6.535  12.852 -0.0450  0.6811  0.2973
19610TIP3    H280246   5.212   6.537  12.946 -0.3242 -1.7690  0.0397
19611TIP3   OH280247   5.035   5.673  17.050 -0.2958  0.9554 -0.2811
19611TIP3    H180248   4.961   5.625  17.013  0.4572 -0.4935  0.0190
19611TIP3    H280249   5.005   5.702  17.136  0.0282 -1.1978  0.6228
19612TIP3   OH280250   1.934   0.530  11.527 -0.1322 -0.3896  0.8926
19612TIP3    H180251   1.938   0.435  11.525 -2.1145 -0.5151  0.7935
19612TIP3    H280252   1.841   0.550  11.531  0.1883  1.5694 -0.1262
19613TIP3   OH280253   5.390   3.479  14.087 -0.4808 -0.5727 -0.1675
19613TIP3    H180254   5.441   3.404  14.118 -0.3403 -0.1740  0.6050
19613TIP3    H280255   5.351   3.450  14.005 -1.1707 -1.8129  0.5687
19614TIP3   OH280256   1.878   4.515   4.376  0.3827  0.1353 -0.1497
19614TIP3    H180257   1.973   4.506   4.378  0.5432  0.7258 -2.4634
19614TIP3    H280258   1.846   4.426   4.358  0.6254  0.2118 -1.0173
19615TIP3   OH280259   4.916   1.536  16.980  0.3058  0.8743  0.3047
19615TIP3    H180260   5.007   1.509  16.966  0.2474  0.4985  0.6218
19615TIP3    H280261   4.891   1.493  17.061  0.7053  3.1439  1.7097
19616TIP3   OH280262   5.122   2.824  15.720 -0.0088 -0.1441  0.2895
19616TIP3    H180263   5.072   2.876  15.657 -0.0528 -1.2779 -0.6378
19616TIP3    H280264   5.058   2.764  15.757  0.3968 -0.7259  0.0507
19617TIP3   OH280265   1.629   4.869  15.235 -0.4721  0.4573 -0.1089
19617TIP3    H180266   1.697   4.801  15.240 -1.1752 -0.3119 -0.6305
19617TIP3    H280267   1.639   4.905  15.147 -0.8230  0.2494 -0.2345
19618TIP3   OH280268   2.661   2.344  12.332 -0.4003  0.2007  0.2071
19618TIP3    H180269   2.637   2.351  12.425 -0.8970 -2.8783  0.4196
19618TIP3    H280270   2.735   2.284  12.331  0.9358  1.7973 -1.2859
19619TIP3   OH280271   4.886   1.747   5.261 -0.1831  0.8326 -0.2485
19619TIP3    H180272   4.812   1.799   5.294  0.3726  0.0304  2.5371
19619TIP3    H280273   4.948   1.746   5.334  0.6967 -2.0419 -0.9157
19620TIP3   OH280274   5.532   6.471   2.830  0.3192  0.1688 -0.1024
19620TIP3    H180275   5.559   6.558   2.801  3.0691 -0.3829  0.5254
19620TIP3    H280276   5.614   6.425   2.847 -1.0007 -1.2055  3.5852
19621TIP3   OH280277   1.363   2.705  17.046  0.2906  0.0792 -0.7292
19621TIP3    H180278   1.439   2.725  17.100  1.0950  0.0277 -1.8026
19621TIP3    H280279   1.399   2.693  16.958 -0.8017 -1.1897 -1.0286
19622TIP3   OH280280   0.837   4.915  15.055  0.1235  0.3164  0.3162
19622TIP3    H180281   0.916   4.956  15.088 -0.0656  0.8896  0.0639
19622TIP3    H280282   0.768   4.942  15.115  0.3501 -1.3457  1.3748
19623TIP3   OH280283   4.779   2.771  14.387 -0.2582 -0.4686  0.0793
19623TIP3    H180284   4.791   2.848  14.332 -0.0372  0.5933  1.5492
19623TIP3    H280285   4.686   2.750  14.377 -0.3254 -0.0121 -0.3276
19624TIP3   OH280286   0.953   3.254   6.090  0.1725  0.0672  0.6149
19624TIP3    H180287   0.968   3.181   6.029 -0.3879  0.8794 -0.5133
19624TIP3    H280288   0.861   3.246   6.114  0.1708  0.2790  0.6727
19625TIP3   OH280289   1.906   3.487   2.380  0.2435 -0.2004 -0.8460
19625TIP3    H180290   1.944   3.575   2.375  0.4089  0.1079  2.8316
19625TIP3    H280291   1.971   3.430   2.339  0.6518  1.2394 -2.2690
19626TIP3   OH280292   0.819   2.432   3.564  0.2003 -0.0653  0.2646
19626TIP3    H180293   0.882   2.414   3.494 -1.6274 -1.1259 -1.1808
19626TIP3    H280294   0.836   2.524   3.587  2.2144 -0.2915 -0.0744
19627TIP3   OH280295   6.524   4.284   1.393 -0.0499 -0.0426 -0.0154
19627TIP3    H180296   6.512   4.191   1.378  1.7109  0.0414 -2.5516
19627TIP3    H280297   6.435   4.319   1.397 -0.7667 -1.8898  2.0103
19628TIP3   OH280298   6.660   5.598  14.118  0.1108 -0.1252 -0.8034
19628TIP3    H180299   6.736   5.652  14.143 -0.6676  0.5008  0.2887
19628TIP3    H280300   6.697   5.510  14.104  0.7784 -0.3346  1.7736
19629TIP3   OH280301   3.299   0.902  11.859  0.2554 -0.0828  0.8285
19629TIP3    H180302   3.354   0.825  11.847  0.1609 -0.0180 -0.0713
19629TIP3    H280303   3.358   0.976  11.843 -0.1518 -0.0200 -0.4400
19630TIP3   OH280304   5.724   0.191  11.897  0.2719 -0.2175 -0.0493
19630TIP3    H180305   5.649   0.164  11.844 -1.4202  0.4549  1.8743
19630TIP3    H280306   5.739   0.283  11.872  1.2960 -0.6824 -1.2911
19631TIP3   OH280307   4.116   4.392   5.187  0.0086  0.1193 -0.2297
19631TIP3    H180308   4.113   4.316   5.130  0.8324 -1.6995  2.0023
19631TIP3    H280309   4.068   4.460   5.139  0.5143 -1.3107 -2.9354
19632TIP3   OH280310   6.072   1.254  11.862  0.4036 -0.1138  0.0536
19632TIP3    H180311   6.116   1.337  11.839  2.0112 -1.0355 -0.3423
19632TIP3    H280312   5.981   1.279  11.876  0.8125  1.7061 -0.2194
19633TIP3   OH280313   4.636   5.125   3.933 -0.1843 -0.6947 -0.1573
19633TIP3    H180314   4.605   5.162   3.851 -0.7991 -0.2742  0.2544
19633TIP3    H280315   4.679   5.043   3.908  0.4702 -0.1101 -0.9900
19634TIP3   OH280316   4.507   2.701   5.704  0.6886  0.2627 -0.0660
19634TIP3    H180317   4.504   2.793   5.727  0.5841  0.0101  0.9792
19634TIP3    H280318   4.587   2.668   5.745  0.2106 -0.3236  0.4206
19635TIP3   OH280319   3.511   5.802   4.100  0.2207 -0.0494 -0.0205
19635TIP3    H180320   3.514   5.773   4.009  1.5299  0.7387 -0.2530
19635TIP3    H280321   3.481   5.725   4.148 -1.6215 -0.1604 -1.2092
19636TIP3   OH280322   3.148   6.065   5.184 -0.0029  0.4210  0.0372
19636TIP3    H180323   3.135   6.081   5.277  0.6903 -0.6873  0.3480
19636TIP3    H280324   3.061   6.076   5.146  0.0164  2.5607  0.5178
19637TIP3   OH280325   1.265   0.505   3.239 -0.5961 -0.8044 -0.0801
19637TIP3    H180326   1.179   0.526   3.203  0.0216  0.9066 -0.6090
19637TIP3    H280327   1.325   0.567   3.198  0.8455 -1.7247  0.5605
19638TIP3   OH280328   6.793   6.787   5.368  0.4796  0.3124  0.1393
19638TIP3    H180329   6.824   6.843   5.297  2.1054  0.1484  0.6756
19638TIP3    H280330   6.846   6.708   5.360  0.0029 -0.1030  0.9615
19639TIP3   OH280331   4.340   5.476   1.074 -0.4422 -0.0033 -0.1076
19639TIP3    H180332   4.305   5.459   1.162  0.4750  0.0613  0.2844
19639TIP3    H280333   4.391   5.398   1.053  0.9721  0.7905  0.2633
19640TIP3   OH280334   1.113   3.276  12.173 -0.1963 -0.3080 -0.5841
19640TIP3    H180335   1.169   3.348  12.143 -1.3007  0.8630  0.0584
19640TIP3    H280336   1.028   3.317  12.189 -0.7110 -1.6595  0.3157
19641TIP3   OH280337   1.532   3.041   0.194  0.1170  0.2624  0.7797
19641TIP3    H180338   1.501   2.951   0.208  0.9968 -0.1932 -0.1007
19641TIP3    H280339   1.542   3.049   0.099 -0.1643  1.3738  0.8317
19642TIP3   OH280340   2.677   5.611   1.027  0.5217 -0.3799  0.1196
19642TIP3    H180341   2.606   5.640   1.084 -0.3831 -1.1206 -0.5902
19642TIP3    H280342   2.756   5.621   1.080  0.4807  4.0531 -0.2421
19643TIP3   OH280343   6.505   1.929   2.344  0.1376  0.0366 -0.1566
19643TIP3    H180344   6.513   1.942   2.439  0.4380 -0.2347 -0.1450
19643TIP3    H280345   6.415   1.898   2.332 -0.0683  0.5726 -0.0166
19644TIP3   OH280346   5.695   6.503   5.784  0.0063 -0.4222  0.1057
19644TIP3    H180347   5.686   6.575   5.847 -2.1041 -0.3038 -0.2638
19644TIP3    H280348   5.675   6.543   5.699  2.9444 -0.5491 -0.7492
19645TIP3   OH280349   3.364   3.051  12.022 -0.1848  0.1866  0.1148
19645TIP3    H180350   3.292   3.092  11.974 -0.1313  0.2965  0.1272
19645TIP3    H280351   3.437   3.051  11.960 -0.2441 -0.0790  0.0443
19646TIP3   OH280352   0.738   2.629   2.794  0.0133  0.3875 -0.5344
19646TIP3    H180353   0.833   2.638   2.786  0.2694 -0.8633  0.7630
19646TIP3    H280354   0.723   2.604   2.885 -1.2212 -3.1677 -1.5560
19647TIP3   OH280355   6.674   5.243  17.127  0.0834 -0.5229 -0.1496
19647TIP3    H180356   6.625   5.191  17.191 -0.0200 -0.1673  0.0559
19647TIP3    H280357   6.608   5.271  17.063 -0.2262  1.0041  0.7952
19648TIP3   OH280358   3.777   0.397  16.475  0.3159  0.2049  0.0329
19648TIP3    H180359   3.718   0.438  16.538 -0.2689 -1.4351  0.5962
19648TIP3    H280360   3.729   0.321  16.443  1.8303 -0.7675 -0.0348
19649TIP3   OH280361   5.060   4.121  13.588  0.1404 -0.2064 -0.0750
19649TIP3    H180362   5.087   4.162  13.506  4.0775  0.4693  1.3239
19649TIP3    H280363   4.979   4.165  13.612  0.4290  1.6389 -2.1619
19650TIP3   OH280364   4.583   6.017  11.365 -0.1963 -0.1292 -0.6761
19650TIP3    H180365   4.570   6.013  11.459  2.5980 -0.8300 -0.2106
19650TIP3    H280366   4.511   6.071  11.332 -0.9734  0.5188  1.8993
19651TIP3   OH280367   0.587   6.386  13.409 -0.1024  0.3764 -0.3413
19651TIP3    H180368   0.495   6.412  13.420  0.0977  1.0787 -0.2597
19651TIP3    H280369   0.635   6.469  13.410  0.5774 -0.0173  0.0229
19652TIP3   OH280370   2.831   0.029  11.246 -0.6203  0.5342  0.4691
19652TIP3    H180371   2.797   0.026  11.157  0.9349 -0.0099 -0.1227
19652TIP3    H280372   2.919  -0.008  11.241 -0.5372  0.3789  2.2516
19653TIP3   OH280373   6.728   1.866   2.690  0.0773  0.9517  0.4203
19653TIP3    H180374   6.704   1.774   2.680  0.4951  0.9781 -1.0790
19653TIP3    H280375   6.781   1.885   2.613 -0.2734  2.5413  0.5437
19654TIP3   OH280376   1.983   3.242  12.289  1.0857 -0.3879  0.6816
19654TIP3    H180377   1.967   3.333  12.312 -1.8832 -0.4662 -0.6198
19654TIP3    H280378   2.047   3.246  12.218 -0.2729  0.9120 -0.5690
19655TIP3   OH280379   3.842   2.324   4.503  0.0517  0.3214 -0.0331
19655TIP3    H180380   3.811   2.405   4.462 -2.3577 -1.8039 -2.8302
19655TIP3    H280381   3.823   2.336   4.596 -1.4891  2.4634 -0.5297
19656TIP3   OH280382   4.531   5.843  16.765 -0.4002 -0.1808  0.9120
19656TIP3    H180383   4.531   5.909  16.834 -4.5110  1.1327 -0.0162
19656TIP3    H280384   4.588   5.880  16.697 -0.2981  1.0037  1.6112
19657TIP3   OH280385   1.237   4.271   4.054 -0.5508  0.1929 -0.2335
19657TIP3    H180386   1.199   4.332   4.117 -0.5705  0.4628 -0.5020
19657TIP3    H280387   1.187   4.190   4.065  0.6819 -0.4046  1.4398
19658TIP3   OH280388   4.536   0.630  16.301  0.3517  0.6753 -0.1621
19658TIP3    H180389   4.603   0.662  16.240  0.1616  0.1391 -0.6611
19658TIP3    H280390   4.566   0.543  16.326 -0.0144  0.5467 -0.1677
19659TIP3   OH280391   0.599   2.518  14.480 -0.1622  0.6776 -0.1610
19659TIP3    H180392   0.604   2.570  14.400  1.0144 -0.5670 -0.9631
19659TIP3    H280393   0.539   2.447  14.458  1.0841 -0.3486 -0.4092
19660TIP3   OH280394   0.022   3.651  14.142  0.1437  0.2157  0.4018
19660TIP3    H180395   0.041   3.739  14.174  0.7115  0.3642 -0.3081
19660TIP3    H280396  -0.020   3.665  14.057  2.4758 -0.1715 -0.9233
19661TIP3   OH280397   2.782   2.870  14.316 -0.0883 -0.7812  0.4605
19661TIP3    H180398   2.822   2.798  14.364 -1.3473 -2.3598 -0.7461
19661TIP3    H280399   2.813   2.861  14.226 -2.6058 -1.7685 -0.4128
19662TIP3   OH280400   1.958   1.454  16.987 -0.1572  0.4524  0.4431
19662TIP3    H180401   1.898   1.382  17.006  1.0297 -0.5755  0.4264
19662TIP3    H280402   1.961   1.458  16.891  0.1521  0.1895  0.4400
19663TIP3   OH280403   4.956   2.439  15.767 -0.0730  0.3266 -0.4971
19663TIP3    H180404   4.931   2.522  15.728  0.0135  0.5012 -0.1887
19663TIP3    H280405   5.032   2.410  15.716 -0.9833 -0.2921 -1.5459
19664TIP3   OH280406   1.245   3.425   3.082 -0.4031 -0.8322  0.5506
19664TIP3    H180407   1.336   3.434   3.109 -0.0516 -1.9796 -0.1648
19664TIP3    H280408   1.226   3.504   3.031  0.4492 -0.9787  0.0043
19665TIP3   OH280409   2.352   4.237  13.812  0.2314  0.5348 -0.0070
19665TIP3    H180410   2.392   4.222  13.726 -0.5683 -0.3104 -0.2527
19665TIP3    H280411   2.304   4.320  13.802 -0.1785  0.2446 -0.5068
19666TIP3   OH280412   0.450   5.445   3.126  0.1879 -0.2906  0.3311
19666TIP3    H180413   0.485   5.514   3.182  0.3666 -0.2099  0.1209
19666TIP3    H280414   0.382   5.404   3.179 -2.2277  2.1201 -0.6448
19667TIP3   OH280415   4.948   5.117   4.601 -0.4403  0.7115  0.6118
19667TIP3    H180416   4.870   5.096   4.653  0.6384 -0.0721  1.9885
19667TIP3    H280417   5.021   5.085   4.654  0.6769 -1.4598 -2.0123
19668TIP3   OH280418   1.922   2.537  11.189  0.3273  0.2309 -0.4336
19668TIP3    H180419   1.960   2.585  11.115 -0.9667  0.3511 -1.0474
19668TIP3    H280420   1.892   2.454  11.152  2.1616 -0.9395  0.5388
19669TIP3   OH280421   0.134   6.252   5.736  0.0157  0.7052  0.2889
19669TIP3    H180422   0.205   6.314   5.755  1.3170  0.2410 -2.5477
19669TIP3    H280423   0.054   6.302   5.750  0.9917  2.4804 -0.1978
19670TIP3   OH280424   6.356   1.784  17.010  0.6675  0.2344 -0.2946
19670TIP3    H180425   6.424   1.806  16.947  1.1024 -0.0721  0.0634
19670TIP3    H280426   6.361   1.853  17.076  0.0397  0.6999 -0.7170
19671TIP3   OH280427   5.532   2.344   0.912 -0.3849 -0.5182  0.2272
19671TIP3    H180428   5.523   2.407   0.840  2.1064  0.7488  0.9037
19671TIP3    H280429   5.506   2.392   0.990 -0.6264 -1.0646  0.4907
19672TIP3   OH280430   1.791   6.749   0.867 -0.1443  0.0586  0.0952
19672TIP3    H180431   1.716   6.733   0.809 -1.8444  0.1076  2.1592
19672TIP3    H280432   1.804   6.844   0.864 -0.9284  0.1878  0.6022
19673TIP3   OH280433   2.537   1.532  15.953 -0.1098  0.1265  0.2006
19673TIP3    H180434   2.447   1.508  15.933 -0.3182  1.4900 -0.6181
19673TIP3    H280435   2.569   1.461  16.009 -0.8617 -1.7056 -1.5508
19674TIP3   OH280436   1.172   4.980   1.531  0.0844  0.3813  0.2895
19674TIP3    H180437   1.144   5.056   1.583  0.8717  1.2441 -0.5146
19674TIP3    H280438   1.111   4.978   1.457 -0.2169 -0.0502  0.5478
19675TIP3   OH280439   2.425   1.119  14.770  0.7857 -0.4933  0.1126
19675TIP3    H180440   2.519   1.138  14.760  0.7349 -1.1699 -2.6141
19675TIP3    H280441   2.383   1.205  14.769  1.4093 -0.0244  3.5425
19676TIP3   OH280442   2.276   6.395   5.246 -0.0127  0.2924  0.5166
19676TIP3    H180443   2.238   6.457   5.183  1.3944 -0.5817 -1.3110
19676TIP3    H280444   2.208   6.329   5.259 -0.5600  0.8253  0.3806
19677TIP3   OH280445   2.489   0.035  15.306  0.3641 -0.7305  0.6623
19677TIP3    H180446   2.466  -0.018  15.230 -2.1857 -0.5841  1.2665
19677TIP3    H280447   2.581   0.058  15.291 -0.4368  0.8109 -3.3405
19678TIP3   OH280448   1.351   3.380  11.606  0.2859 -0.1447 -0.4493
19678TIP3    H180449   1.410   3.443  11.646  0.6938  0.1131 -1.4308
19678TIP3    H280450   1.363   3.300  11.657  0.2115  0.3906  0.4250
19679TIP3   OH280451   6.796   5.774  15.108 -0.3240  0.4763 -0.9071
19679TIP3    H180452   6.853   5.705  15.142 -0.6058  0.7055  0.0712
19679TIP3    H280453   6.855   5.833  15.061  0.1201  0.2889 -0.5946
19680TIP3   OH280454   2.779   5.246   3.708  0.7360 -0.2357 -0.0970
19680TIP3    H180455   2.768   5.261   3.614  2.7884 -1.0903 -0.5208
19680TIP3    H280456   2.848   5.308   3.734 -0.7595  0.9850  1.1900
19681TIP3   OH280457   6.709   4.287  14.763 -0.0030 -0.3078 -0.0073
19681TIP3    H180458   6.763   4.210  14.781 -0.3004 -1.0894 -2.1591
19681TIP3    H280459   6.619   4.256  14.767 -0.3065  0.7102  2.3230
19682TIP3   OH280460   4.278   0.406   1.918  0.5631  0.1948 -0.6437
19682TIP3    H180461   4.305   0.344   1.850  0.7849  0.1810 -0.5417
19682TIP3    H280462   4.185   0.386   1.932  0.7729 -0.5036 -0.2035
19683TIP3   OH280463   1.865   4.869  13.956 -0.0438  0.2411  0.0890
19683TIP3    H180464   1.848   4.948  14.008  0.4955  0.1338  0.4277
19683TIP3    H280465   1.914   4.901  13.880 -0.9260  0.4143 -0.4275
19684TIP3   OH280466   4.048   3.293  16.057 -0.0204  0.0707  0.1831
19684TIP3    H180467   4.133   3.332  16.038 -0.0401  0.2784  0.5184
19684TIP3    H280468   4.068   3.200  16.071  0.3870  0.3528  1.7261
19685TIP3   OH280469   0.473   5.446   3.554  0.1254  0.6642 -0.7020
19685TIP3    H180470   0.529   5.369   3.544  0.4939  0.6147  1.3488
19685TIP3    H280471   0.423   5.430   3.633 -0.6014  2.0557 -0.8411
19686TIP3   OH280472   6.061   5.085  11.915 -0.3934  0.2547 -0.1840
19686TIP3    H180473   6.034   5.000  11.879 -0.2520  1.0475 -2.2495
19686TIP3    H280474   5.984   5.141  11.906 -0.4708  0.3942  1.1271
19687TIP3   OH280475   4.862   3.607  16.077  0.1004 -0.1103  0.2473
19687TIP3    H180476   4.792   3.542  16.086  0.7762 -0.8026  0.5960
19687TIP3    H280477   4.851   3.641  15.988  0.7941 -1.9590 -0.5909
19688TIP3   OH280478   6.431   2.060  16.530 -0.1750 -0.5587 -0.4834
19688TIP3    H180479   6.343   2.086  16.503  0.2179  0.0659 -1.2422
19688TIP3    H280480   6.441   2.096  16.618 -0.0582  0.9639 -1.0717
19689TIP3   OH280481   0.985   5.805  13.241  0.3160  0.8987 -0.5002
19689TIP3    H180482   1.028   5.874  13.191  1.2824 -0.6692 -1.9894
19689TIP3    H280483   1.051   5.736  13.249 -0.8617 -0.2138  0.1409
19690TIP3   OH280484   4.663   0.211   4.422  1.0363 -0.2600  0.1252
19690TIP3    H180485   4.595   0.144   4.433  0.1435  0.3813 -1.2118
19690TIP3    H280486   4.718   0.178   4.351  0.2087  0.7018 -0.9825
19691TIP3   OH280487   6.801   4.860  12.152  0.0271  0.9330 -0.4002
19691TIP3    H180488   6.741   4.930  12.177 -1.0903  0.3138 -1.2363
19691TIP3    H280489   6.745   4.782  12.145  1.3725 -0.2600  1.3778
19692TIP3   OH280490   5.951   5.916  14.969 -0.0700  0.4648  0.2318
19692TIP3    H180491   5.985   5.925  15.058 -2.2837  2.5973  0.9870
19692TIP3    H280492   5.899   5.836  14.972  0.0015  0.4316  0.8258
19693TIP3   OH280493   1.735   2.687  15.559  0.5123  0.4193 -0.5080
19693TIP3    H180494   1.724   2.775  15.522 -1.8404  0.5344  0.2841
19693TIP3    H280495   1.775   2.701  15.644  0.3830  0.7212 -0.4949
19694TIP3   OH280496   3.888   3.239   2.684 -0.2120  0.2841  0.2226
19694TIP3    H180497   3.928   3.325   2.681 -1.8076  1.0363 -0.8187
19694TIP3    H280498   3.921   3.200   2.765  0.4995  1.8719  0.7333
19695TIP3   OH280499   5.514   6.451  15.100 -0.1066 -0.7410 -0.2232
19695TIP3    H180500   5.474   6.401  15.171  0.7090  0.9749  1.5400
19695TIP3    H280501   5.451   6.521  15.082 -0.5806 -1.4915 -1.6707
19696TIP3   OH280502   4.096   1.138  13.637 -0.1791 -0.1517  0.0974
19696TIP3    H180503   4.095   1.232  13.652  0.9083  0.1829 -1.7195
19696TIP3    H280504   4.142   1.103  13.714 -2.7025  0.4571  2.0325
19697TIP3   OH280505   6.126   1.761  11.487 -0.0430  0.3501 -0.8204
19697TIP3    H180506   6.138   1.710  11.406 -2.8069 -0.0303 -1.1006
19697TIP3    H280507   6.169   1.709  11.554  1.1126 -0.0394 -1.8297
19698TIP3   OH280508   3.290   4.555  14.172  0.5004  0.6070 -0.2788
19698TIP3    H180509   3.318   4.478  14.123 -0.6428 -2.3540  3.2372
19698TIP3    H280510   3.366   4.580  14.223  0.2612  0.3639  0.2068
19699TIP3   OH280511   0.734   0.582   3.673 -0.0136  0.4226  0.4891
19699TIP3    H180512   0.773   0.654   3.624  1.7535  0.4255  1.8163
19699TIP3    H280513   0.743   0.606   3.765  0.8287 -1.5615  0.9919
19700TIP3   OH280514   2.893   1.755   2.024 -0.3016 -1.1613 -0.0451
19700TIP3    H180515   2.986   1.751   2.048 -0.1019 -1.2758 -0.8084
19700TIP3    H280516   2.852   1.687   2.078  0.3834 -2.4400 -1.0687
19701TIP3   OH280517   2.850   3.874  17.246  0.5128  0.0589  0.0057
19701TIP3    H180518   2.787   3.928  17.199  0.7680  0.9091  0.6108
19701TIP3    H280519   2.869   3.924  17.326 -0.4344 -1.6553  1.3583
19702TIP3   OH280520   2.806   6.344  14.034 -0.8035  0.5094  0.0467
19702TIP3    H180521   2.787   6.272  14.095  0.2847 -0.8362 -1.1519
19702TIP3    H280522   2.838   6.301  13.955  2.7571  2.3612  0.2774
19703TIP3   OH280523   2.064   5.599   2.578 -0.0110  0.6022  0.7379
19703TIP3    H180524   2.035   5.545   2.503  2.2438 -0.4438  0.5365
19703TIP3    H280525   2.048   5.543   2.654 -0.6391  0.9545  0.8703
19704TIP3   OH280526   3.432   2.297  12.162 -0.1717  0.0296  0.0398
19704TIP3    H180527   3.352   2.307  12.212 -0.7178 -2.2062 -0.3017
19704TIP3    H280528   3.502   2.302  12.227 -0.8185 -1.9326  0.9793
19705TIP3   OH280529   0.462   0.878  15.272  0.0002 -0.3023 -0.5620
19705TIP3    H180530   0.463   0.920  15.186  3.3139 -0.5733 -0.7808
19705TIP3    H280531   0.411   0.938  15.327 -2.1662 -0.1048 -2.6282
19706TIP3   OH280532   2.431   6.571   4.159 -0.5529  0.5416 -0.0397
19706TIP3    H180533   2.452   6.480   4.180 -0.0920  1.0612  1.9825
19706TIP3    H280534   2.486   6.591   4.084 -1.4597 -1.1379 -1.2329
19707TIP3   OH280535   2.829   3.408   3.644  0.6360 -0.3212 -0.2149
19707TIP3    H180536   2.799   3.449   3.725 -1.8807  0.0037 -1.2313
19707TIP3    H280537   2.839   3.316   3.666 -0.6806 -0.3570  0.3402
19708TIP3   OH280538   2.428   2.444   5.340  0.8264  0.3275 -0.4687
19708TIP3    H180539   2.509   2.403   5.370  1.0406 -0.1591 -1.6607
19708TIP3    H280540   2.407   2.508   5.408  1.0448 -1.0272  0.9384
19709TIP3   OH280541   1.782   2.069   4.662  0.4179  0.2261  0.0514
19709TIP3    H180542   1.746   1.982   4.679  2.5417 -0.4978  1.2874
19709TIP3    H280543   1.797   2.070   4.567  0.7395 -0.9317  0.0728
19710TIP3   OH280544   5.703   3.468  12.484 -0.1978 -0.4597  0.4776
19710TIP3    H180545   5.718   3.374  12.499  1.8601  0.0429  1.9548
19710TIP3    H280546   5.780   3.511  12.522 -0.8265  1.8113 -0.6658
19711TIP3   OH280547   5.392   0.673  11.423  0.5476  0.2768  0.4274
19711TIP3    H180548   5.399   0.648  11.515  1.1114 -2.8650 -0.3667
19711TIP3    H280549   5.476   0.649  11.385 -0.8992 -1.9621 -1.5941
19712TIP3   OH280550   3.175   3.629   4.134 -0.2991  0.4459 -0.1254
19712TIP3    H180551   3.237   3.585   4.076  0.0021 -2.4662  2.1855
19712TIP3    H280552   3.090   3.589   4.115 -0.6684  1.2736 -0.2675
19713TIP3   OH280553   2.536   5.398   2.537  0.1887  0.5088  0.0467
19713TIP3    H180554   2.600   5.469   2.528 -0.3107  0.9717  0.0810
19713TIP3    H280555   2.587   5.318   2.528  0.9047  0.8527  0.8996
19714TIP3   OH280556   1.172   4.462   1.696  0.1207 -0.3274  0.9517
19714TIP3    H180557   1.129   4.548   1.693  0.3805 -0.1913 -1.8043
19714TIP3    H280558   1.265   4.482   1.702  0.1747 -0.3943  0.4142
19715TIP3   OH280559   5.171   3.264  11.497 -0.8103  0.3627 -0.3625
19715TIP3    H180560   5.111   3.202  11.537 -0.0029  0.2790  0.7621
19715TIP3    H280561   5.184   3.232  11.408  0.6693 -1.9037  0.5884
19716TIP3   OH280562   3.660   5.679   3.167 -0.1614  0.0190 -1.1618
19716TIP3    H180563   3.596   5.700   3.100 -0.6074 -3.1067 -1.8737
19716TIP3    H280564   3.740   5.657   3.119 -0.3661 -1.8625 -0.7385
19717TIP3   OH280565   2.837   3.054   5.005 -0.2387  0.1682 -1.2735
19717TIP3    H180566   2.742   3.048   4.998 -0.2175 -1.1634 -0.6865
19717TIP3    H280567   2.854   3.144   5.035 -1.4785 -0.3831  1.3043
19718TIP3   OH280568   4.213   0.477  14.367 -0.1026 -0.2388  0.2108
19718TIP3    H180569   4.249   0.546  14.311  0.8681 -0.3437  0.6727
19718TIP3    H280570   4.286   0.453  14.425 -1.0188 -0.2725  1.3798
19719TIP3   OH280571   1.950   6.216   1.043  0.0269 -0.3348  0.2360
19719TIP3    H180572   2.006   6.237   0.968 -0.7940 -1.5370 -0.7509
19719TIP3    H280573   1.869   6.185   1.005 -0.2969 -1.3152  1.6294
19720TIP3   OH280574   3.556   1.879   0.988 -0.2004 -0.3140  0.1347
19720TIP3    H180575   3.624   1.941   1.013  0.8414 -0.6789 -1.5907
19720TIP3    H280576   3.534   1.833   1.069  0.0957  1.2368  1.1292
19721TIP3   OH280577   0.546   1.076   3.782 -0.5444  0.5102  0.6192
19721TIP3    H180578   0.545   1.108   3.692 -3.0316 -2.4864 -0.6173
19721TIP3    H280579   0.574   1.151   3.834  0.1968  2.6171 -2.5403
19722TIP3   OH280580   2.502   1.909  14.776 -0.2370  0.2347 -0.1014
19722TIP3    H180581   2.472   1.973  14.710  0.6253  1.6554  0.8315
19722TIP3    H280582   2.534   1.835  14.724  0.4302  1.3187 -1.3101
19723TIP3   OH280583   5.522   1.216   1.139  0.9314 -0.8224 -0.4365
19723TIP3    H180584   5.503   1.279   1.069  0.8541 -1.1701 -0.7328
19723TIP3    H280585   5.460   1.144   1.124  0.9855 -0.9471 -0.0729
19724TIP3   OH280586   0.699   2.602  15.358  0.2221  0.0084 -0.5469
19724TIP3    H180587   0.668   2.563  15.440  0.5566 -1.2420 -0.9937
19724TIP3    H280588   0.787   2.633  15.379  0.6496 -1.0843 -0.6295
19725TIP3   OH280589   6.372   0.560  14.895 -0.4968 -0.6909  0.3060
19725TIP3    H180590   6.279   0.571  14.875 -0.1936  0.6171 -0.5254
19725TIP3    H280591   6.417   0.611  14.828  0.7471  0.3782  1.8646
19726TIP3   OH280592   0.928   6.311   3.145  0.5543  0.7590  0.0552
19726TIP3    H180593   0.888   6.225   3.133  0.6143  0.5969  0.9676
19726TIP3    H280594   1.022   6.295   3.142  0.5616  0.8689 -0.2889
19727TIP3   OH280595   3.192   5.179  14.414 -0.1606  0.4523  0.0672
19727TIP3    H180596   3.283   5.203  14.425  0.6624 -1.8042 -1.1208
19727TIP3    H280597   3.170   5.206  14.325  0.2997 -1.5102 -0.7024
19728TIP3   OH280598   6.557   2.395  16.765  0.6039 -0.4430  0.4288
19728TIP3    H180599   6.473   2.419  16.803 -0.3297 -1.3773 -0.9681
19728TIP3    H280600   6.598   2.479  16.744 -0.5013  0.0050  0.0156
19729TIP3   OH280601   4.783   3.373  12.982 -0.1866  0.1953  0.3971
19729TIP3    H180602   4.740   3.322  13.051  0.1537 -0.7805 -0.0942
19729TIP3    H280603   4.876   3.355  12.993 -0.1768 -0.5617 -0.7539
19730TIP3   OH280604   5.528   6.325   0.829 -0.1185  0.2587 -0.0274
19730TIP3    H180605   5.612   6.366   0.806 -1.1437  1.8192 -1.1663
19730TIP3    H280606   5.521   6.250   0.770  0.5007  0.0448  0.1545
19731TIP3   OH280607   0.175   5.754  13.375 -0.0922 -0.0636  0.0107
19731TIP3    H180608   0.141   5.749  13.286 -1.8307  1.2764  0.5647
19731TIP3    H280609   0.270   5.762  13.364  0.1039 -2.9685 -1.5901
19732TIP3   OH280610   3.298   0.993   3.403  0.0524  0.1521  0.1757
19732TIP3    H180611   3.303   0.926   3.335 -0.8411  0.2539  0.0014
19732TIP3    H280612   3.279   1.074   3.357  1.1825  0.5564  0.3830
19733TIP3   OH280613   2.817   5.609   0.308 -0.4028  0.3486  0.4965
19733TIP3    H180614   2.797   5.523   0.346  2.4088 -1.3079 -1.3798
19733TIP3    H280615   2.898   5.635   0.353  0.8170  0.1730 -1.4957
19734TIP3   OH280616   3.260   1.807   3.295  0.5308  0.4061 -0.1942
19734TIP3    H180617   3.241   1.770   3.381  1.0975  1.5820  0.4746
19734TIP3    H280618   3.217   1.893   3.296 -0.9222 -0.2518 -1.7662
19735TIP3   OH280619   1.388   3.570   1.141 -0.4206 -0.1918 -0.2773
19735TIP3    H180620   1.296   3.568   1.113 -1.3473  4.2409  1.5830
19735TIP3    H280621   1.424   3.648   1.099  1.8761 -0.6031  0.7816
19736TIP3   OH280622   2.420   5.380   3.491 -0.5122  0.1711 -0.1447
19736TIP3    H180623   2.516   5.376   3.489 -0.5123 -2.8832  1.1372
19736TIP3    H280624   2.391   5.311   3.431 -1.9042  0.1832  0.4735
19737TIP3   OH280625   3.209   4.567  17.042  0.1732 -0.1032  0.0908
19737TIP3    H180626   3.271   4.603  16.979 -0.7499  1.7152  0.1438
19737TIP3    H280627   3.188   4.480  17.008  1.8052 -0.2784 -0.5615
19738TIP3   OH280628   4.486   3.819  14.365  0.0618 -0.0274  0.1519
19738TIP3    H180629   4.513   3.730  14.389 -0.9165 -0.7781 -1.3424
19738TIP3    H280630   4.468   3.862  14.448  1.6358 -0.8538  0.9678
19739TIP3   OH280631   1.100   3.570  17.173 -0.2284  0.2646  0.0800
19739TIP3    H180632   1.173   3.515  17.203  0.6781  0.5009 -1.6175
19739TIP3    H280633   1.080   3.538  17.085 -2.4352 -0.0227  0.6109
19740TIP3   OH280634   3.231   0.625  17.232  0.4572  0.4296 -0.0439
19740TIP3    H180635   3.151   0.612  17.182 -0.4064  0.5660  1.2425
19740TIP3    H280636   3.237   0.720  17.244 -0.0372  0.3331  1.1380
19741TIP3   OH280637   5.152   6.566  13.815  0.0266 -0.1238  0.3906
19741TIP3    H180638   5.106   6.624  13.876 -2.5641  0.9745 -2.3519
19741TIP3    H280639   5.088   6.499  13.793  0.6389 -0.1397 -1.5102
19742TIP3   OH280640   4.116   5.219  13.753 -0.4477  0.6240  0.4108
19742TIP3    H180641   4.136   5.312  13.737 -1.3424  0.6727 -0.5090
19742TIP3    H280642   4.115   5.179  13.666  2.6852 -0.8894  0.9274
19743TIP3   OH280643   5.149   6.004   1.925  0.0494 -0.4063 -0.3496
19743TIP3    H180644   5.155   5.925   1.978  0.8551 -0.2599 -0.2027
19743TIP3    H280645   5.058   6.006   1.894 -1.2599  0.8408  3.0899
19744TIP3   OH280646   6.514   5.294  11.090 -0.1846  0.1161  0.5420
19744TIP3    H180647   6.487   5.232  11.157  0.4996 -0.6941  0.0766
19744TIP3    H280648   6.472   5.263  11.010  1.1034 -0.4501  0.0651
19745TIP3   OH280649   5.551   6.795   0.661 -0.1949 -0.0749  0.0492
19745TIP3    H180650   5.508   6.857   0.602 -2.6306 -1.2191  0.4912
19745TIP3    H280651   5.582   6.725   0.605 -1.8605 -0.8045 -0.0320
19746TIP3   OH280652   1.668   3.066   1.783 -0.8070  0.4804 -0.2375
19746TIP3    H180653   1.577   3.057   1.810 -1.1658 -0.0973 -1.5533
19746TIP3    H280654   1.716   3.003   1.837 -0.9753  1.6639  1.3367
19747TIP3   OH280655   0.931   4.340   0.521  0.0588 -0.1080 -0.4507
19747TIP3    H180656   1.024   4.358   0.506  0.3439  0.7354  1.9593
19747TIP3    H280657   0.893   4.338   0.433  1.8509  2.4091 -1.4071
19748TIP3   OH280658   1.100   5.685   3.547  0.5787 -1.3033  0.6405
19748TIP3    H180659   1.006   5.675   3.534  0.7540 -2.5870  0.1501
19748TIP3    H280660   1.135   5.699   3.459  0.5963  2.0741  1.0774
19749TIP3   OH280661   0.604   0.186   5.834  0.0642 -0.0077 -0.0320
19749TIP3    H180662   0.567   0.237   5.906  0.2230 -1.6727  1.2925
19749TIP3    H280663   0.530   0.169   5.776 -0.4222  0.0145  0.5709
19750TIP3   OH280664   3.848   0.529  14.460 -0.9816  0.3133 -0.4515
19750TIP3    H180665   3.865   0.508  14.551 -0.1396 -1.9659 -1.0708
19750TIP3    H280666   3.916   0.592  14.436 -0.1617 -0.3549  0.0652
19751TIP3   OH280667   2.476   3.797   0.760  0.0400  0.2910  0.4521
19751TIP3    H180668   2.566   3.775   0.735  0.0395  2.2464 -1.6241
19751TIP3    H280669   2.438   3.713   0.786  2.1497 -0.7634  0.4102
19752TIP3   OH280670   4.097   4.113  15.157 -0.3106  0.1461  0.2183
19752TIP3    H180671   4.031   4.175  15.125  0.3273  0.6124 -0.2119
19752TIP3    H280672   4.128   4.068  15.078  2.2308  2.2235 -0.1191
19753TIP3   OH280673   6.772   4.712  15.230  0.0930 -0.5842 -0.1315
19753TIP3    H180674   6.861   4.682  15.213  0.0285 -0.7960 -0.0958
19753TIP3    H280675   6.752   4.769  15.155 -0.1776 -1.4947 -0.7740
19754TIP3   OH280676   2.888   6.654  16.081 -0.2751  0.4212 -0.0612
19754TIP3    H180677   2.958   6.639  16.017  0.9343  1.9851  0.8448
19754TIP3    H280678   2.817   6.596  16.052  1.1382 -0.7362 -1.3779
19755TIP3   OH280679   5.161   5.026  13.769  0.1063  0.0686  0.3758
19755TIP3    H180680   5.111   5.074  13.703 -2.3381 -1.9385  0.6152
19755TIP3    H280681   5.095   4.989  13.828  1.6925 -3.5177  0.2088
19756TIP3   OH280682   1.653   5.586   1.711  0.4754  0.0121  0.1645
19756TIP3    H180683   1.603   5.668   1.713  1.8250  0.8725 -0.0968
19756TIP3    H280684   1.636   5.546   1.796 -0.0521  0.6507  0.3702
19757TIP3   OH280685   1.607   4.070   3.810  0.9469  0.7740 -0.6508
19757TIP3    H180686   1.638   4.153   3.846 -2.1700  1.8411 -0.0779
19757TIP3    H280687   1.636   4.004   3.872  0.6473  1.8847  0.7173
19758TIP3   OH280688   1.398   3.630   5.825 -0.3943 -0.3770  0.3500
19758TIP3    H180689   1.435   3.662   5.907  0.2824 -1.8399  0.6515
19758TIP3    H280690   1.345   3.703   5.792  2.3664  1.7113  0.1069
19759TIP3   OH280691   0.284   0.116  17.180 -0.1228 -0.4854 -0.1423
19759TIP3    H180692   0.211   0.177  17.191  2.0231  2.3666 -0.2295
19759TIP3    H280693   0.248   0.030  17.198 -3.4747  0.7536 -0.2916
19760TIP3   OH280694   1.560   0.028   4.974  0.1952  0.1000 -0.2946
19760TIP3    H180695   1.605  -0.044   4.929  0.8937 -0.9692  1.9197
19760TIP3    H280696   1.477   0.037   4.928  0.4516 -1.5611 -1.1794
19761TIP3   OH280697   0.749   4.168   3.342  0.1308  0.3905  0.2820
19761TIP3    H180698   0.666   4.121   3.340  0.6581 -0.6215  1.0734
19761TIP3    H280699   0.728   4.253   3.380 -1.0809  1.3940 -2.3955
19762TIP3   OH280700   2.096   3.156  16.448  0.2049  0.0083  0.0555
19762TIP3    H180701   2.005   3.129  16.443  0.3690 -0.3303 -1.5352
19762TIP3    H280702   2.132   3.136  16.362  1.2695  1.9837 -0.0215
19763TIP3   OH280703   3.469   1.544  13.403 -0.1869  0.2547 -0.3062
19763TIP3    H180704   3.527   1.529  13.329  1.1679 -0.7141  0.8906
19763TIP3    H280705   3.420   1.462  13.412  0.4002 -0.0237  0.4777
19764TIP3   OH280706   3.500   5.184   4.252  0.3306 -0.0029  0.1941
19764TIP3    H180707   3.431   5.247   4.233 -0.9100 -0.9957  1.2178
19764TIP3    H280708   3.464   5.100   4.225  1.8424 -0.3578 -0.8654
19765TIP3   OH280709   4.068   6.625  16.877  0.8513 -0.4814 -0.0016
19765TIP3    H180710   4.063   6.560  16.807  1.2245 -0.4563 -0.0583
19765TIP3    H280711   4.160   6.623  16.904  1.5237  1.9249 -1.8230
19766TIP3   OH280712   6.455   1.436   3.679  0.3752 -0.6152 -0.3659
19766TIP3    H180713   6.529   1.375   3.680  1.6811  0.9367  0.4288
19766TIP3    H280714   6.428   1.442   3.771  1.9659  1.9391  0.0252
19767TIP3   OH280715   0.591   6.436  16.055  0.8743  0.0011 -0.5274
19767TIP3    H180716   0.535   6.514  16.058 -2.0756 -1.7162 -3.3876
19767TIP3    H280717   0.652   6.453  15.983  2.3710  0.8224  0.8836
19768TIP3   OH280718   1.898   4.235  10.572  0.0778 -0.5728  0.5990
19768TIP3    H180719   1.808   4.223  10.601 -0.5935 -1.5006 -1.6830
19768TIP3    H280720   1.926   4.148  10.542  1.7459 -0.2924  1.1812
19769TIP3   OH280721   6.693   6.510   0.127  0.5710  0.1124 -0.3459
19769TIP3    H180722   6.734   6.425   0.145 -1.8774 -1.4022 -1.3624
19769TIP3    H280723   6.615   6.512   0.183 -0.5934  0.6694 -1.9009
19770TIP3   OH280724   1.926   1.940  10.883 -0.5614 -0.0218 -0.2347
19770TIP3    H180725   1.918   1.852  10.844 -0.1055  0.0031 -0.3980
19770TIP3    H280726   1.965   1.993  10.814 -1.1088  0.3882 -0.2344
19771TIP3   OH280727   0.614   0.144  11.586 -0.1602 -0.2317 -0.0184
19771TIP3    H180728   0.541   0.153  11.647  0.7939  0.9920  1.0165
19771TIP3    H280729   0.608   0.221  11.530 -0.4153 -0.8072 -0.7917
19772TIP3   OH280730   0.297   1.692  15.019  0.6185 -0.0957  0.3940
19772TIP3    H180731   0.308   1.610  15.067  2.9683  0.1254  0.3475
19772TIP3    H280732   0.250   1.667  14.939  0.8523 -1.3068  0.6192
19773TIP3   OH280733   1.832   3.309  14.593 -0.0856  0.0783  0.4181
19773TIP3    H180734   1.749   3.295  14.549  0.1429  1.8112 -0.6501
19773TIP3    H280735   1.837   3.239  14.659 -1.7807 -0.7968 -0.3399
19774TIP3   OH280736   4.349   2.870  13.262  0.0154 -0.3653 -0.0890
19774TIP3    H180737   4.275   2.814  13.240 -0.2695 -0.8187  1.7951
19774TIP3    H280738   4.426   2.820  13.234 -0.3254 -0.6340 -0.5591
19775TIP3   OH280739   2.696   6.147  15.764 -0.2687  0.5418 -0.1817
19775TIP3    H180740   2.663   6.082  15.825  1.7236 -0.1490  0.2258
19775TIP3    H280741   2.790   6.153  15.783  0.1596  1.3182 -2.2312
19776TIP3   OH280742   2.095   4.507   2.781  0.6971 -0.1278 -0.0766
19776TIP3    H180743   2.124   4.588   2.824  1.4003 -0.1230 -0.5341
19776TIP3    H280744   2.144   4.438   2.826 -0.4512 -0.3926  0.8115
19777TIP3   OH280745   6.142   1.470  13.664 -0.3356 -0.3185 -0.6239
19777TIP3    H180746   6.146   1.557  13.702  0.3422 -0.2018 -0.9536
19777TIP3    H280747   6.179   1.480  13.576 -0.6706 -0.8458 -0.8325
19778TIP3   OH280748   5.442   6.780   3.868  0.5272  0.6187 -0.7055
19778TIP3    H180749   5.473   6.690   3.867  1.2995  0.7318  2.1567
19778TIP3    H280750   5.505   6.827   3.813  0.4133 -0.4877 -1.8105
19779TIP3   OH280751   0.191   0.027   5.669  0.3459  0.2464  0.3508
19779TIP3    H180752   0.104  -0.001   5.640  0.6336 -1.2348  0.8613
19779TIP3    H280753   0.179   0.050   5.761 -0.0213  2.5080 -0.2092
19780TIP3   OH280754   5.849   4.261  16.550  0.2814 -0.2714  0.8875
19780TIP3    H180755   5.809   4.229  16.630  0.1998 -0.1709  0.8874
19780TIP3    H280756   5.943   4.264  16.569  0.3352 -0.9054  0.7515
19781TIP3   OH280757   5.947   1.813   2.603  0.7878  0.2534  0.0122
19781TIP3    H180758   5.959   1.719   2.599 -1.1810 -0.0549  0.3705
19781TIP3    H280759   5.882   1.826   2.672  0.5792  1.8296 -0.4482
19782TIP3   OH280760   0.203   6.413  16.220  0.4366  0.0737  0.2484
19782TIP3    H180761   0.254   6.458  16.153  0.2006  1.4209  0.9278
19782TIP3    H280762   0.127   6.379  16.173 -0.4866  2.2766  0.0225
19783TIP3   OH280763   0.800   4.529  16.396 -0.4692  0.0112 -0.0170
19783TIP3    H180764   0.789   4.447  16.349  0.2812  0.8045 -1.6729
19783TIP3    H280765   0.887   4.560  16.370 -0.1845  0.6794  1.6305
19784TIP3   OH280766   3.628   1.381  15.023 -0.2002  0.1314  0.3337
19784TIP3    H180767   3.607   1.332  14.943  2.8321  3.1434 -2.6032
19784TIP3    H280768   3.691   1.325  15.069  0.4125 -0.3481 -1.0343
19785TIP3   OH280769   2.545   6.211  16.163  0.1353  0.2346  0.5228
19785TIP3    H180770   2.515   6.189  16.074 -0.9707 -1.1231  1.1901
19785TIP3    H280771   2.627   6.258  16.149  0.0755 -0.0753 -1.2159
19786TIP3   OH280772   2.387   4.626   0.140 -0.1082  0.2315 -0.0537
19786TIP3    H180773   2.352   4.538   0.148 -2.3433  1.0350 -0.1276
19786TIP3    H280774   2.439   4.625   0.060 -1.1252 -0.7203 -0.7202
19787TIP3   OH280775   3.467   1.694  11.719 -0.0790 -0.4500 -0.3025
19787TIP3    H180776   3.463   1.716  11.813  1.3976  0.0129 -0.3246
19787TIP3    H280777   3.472   1.599  11.717 -0.9922 -0.5164  0.0426
19788TIP3   OH280778   1.441   3.534  11.280 -0.3799 -0.0810  0.3820
19788TIP3    H180779   1.378   3.462  11.274  0.8086 -1.1973  0.8684
19788TIP3    H280780   1.393   3.604  11.324 -1.5348 -0.5896 -0.0285
19789TIP3   OH280781   4.896   4.259   4.735  0.1272  0.2016  0.2399
19789TIP3    H180782   4.952   4.289   4.664  2.0778 -0.8557  1.2643
19789TIP3    H280783   4.807   4.268   4.700  0.9328  1.2612 -1.7058
19790TIP3   OH280784   1.315   4.577   1.111  0.3666 -0.5471 -0.0735
19790TIP3    H180785   1.252   4.638   1.151 -0.3316 -1.5074  0.3281
19790TIP3    H280786   1.273   4.550   1.030  0.4356 -0.8964  0.0075
19791TIP3   OH280787   0.613   1.371  12.115  0.1256  0.0145  0.5359
19791TIP3    H180788   0.589   1.282  12.090  1.3079 -0.8042  2.0895
19791TIP3    H280789   0.708   1.374  12.107  0.1317  1.0581  0.7440
19792TIP3   OH280790   5.580   6.205   2.717 -0.0099 -0.0713 -0.1287
19792TIP3    H180791   5.594   6.117   2.749  1.6141 -0.5572 -1.9781
19792TIP3    H280792   5.491   6.204   2.682  0.3533 -1.3290 -1.0809
19793TIP3   OH280793   1.204   5.562  11.275 -0.3268  0.3973  0.1525
19793TIP3    H180794   1.234   5.544  11.186  1.1558 -0.8570  0.8671
19793TIP3    H280795   1.129   5.504  11.288  0.7861 -1.0429  0.4150
19794TIP3   OH280796   1.140   4.093  14.394 -0.7152  0.1230 -0.6521
19794TIP3    H180797   1.234   4.098  14.379 -0.3609 -0.4207  1.0971
19794TIP3    H280798   1.129   4.126  14.483 -2.3645  1.5093 -1.3363
19795TIP3   OH280799   2.207   0.039  12.904  0.3655  0.0515 -0.0463
19795TIP3    H180800   2.139   0.106  12.918  1.6681  1.4882 -0.3556
19795TIP3    H280801   2.280   0.087  12.866  1.9128 -1.2828  1.1416
19796TIP3   OH280802   0.921   0.328   4.062  0.3892 -0.2635 -0.3078
19796TIP3    H180803   0.827   0.315   4.051  0.4857 -0.7389 -0.5842
19796TIP3    H280804   0.954   0.342   3.973  0.6462 -0.5415 -0.2570
19797TIP3   OH280805   0.530   6.251   6.557  0.0699  0.2987  0.2738
19797TIP3    H180806   0.438   6.244   6.581 -0.1162  1.1634 -0.1558
19797TIP3    H280807   0.577   6.223   6.636 -0.5471 -0.8124  0.2701
19798TIP3   OH280808   5.699   2.570   1.060 -0.2385  0.1045  0.2498
19798TIP3    H180809   5.685   2.627   1.135 -0.6971  0.7665 -0.3281
19798TIP3    H280810   5.693   2.481   1.096  2.7734  0.3153  1.6013
19799TIP3   OH280811   6.409   5.228   3.551 -0.7803 -0.1460  0.1915
19799TIP3    H180812   6.386   5.200   3.639  1.0470  1.6949  1.3558
19799TIP3    H280813   6.476   5.296   3.564 -0.4789  0.2258 -2.6117
19800TIP3   OH280814   4.228   6.788  11.363 -0.2847  0.0590  0.1247
19800TIP3    H180815   4.297   6.849  11.389 -1.4913  1.4928  0.0645
19800TIP3    H280816   4.156   6.843  11.332 -1.4967 -1.3806  0.2246
19801TIP3   OH280817   1.023   5.159   3.667  0.6011  0.4985 -0.4257
19801TIP3    H180818   1.024   5.220   3.592 -0.4577  1.5703  0.3842
19801TIP3    H280819   1.041   5.074   3.629  1.0175  1.1591 -1.7751
19802TIP3   OH280820   2.876   4.218  12.923 -0.2117  0.5652  0.0137
19802TIP3    H180821   2.970   4.223  12.938 -0.5647  0.8198  2.5518
19802TIP3    H280822   2.865   4.148  12.858  1.4997 -2.7118  2.9539
19803TIP3   OH280823   4.255   1.102   5.185  0.6092  0.1162 -0.7610
19803TIP3    H180824   4.174   1.071   5.144  0.3044  1.3227 -1.1009
19803TIP3    H280825   4.254   1.063   5.272 -1.8529  2.4097  0.3852
19804TIP3   OH280826   6.142   5.074   0.853  0.2047 -0.2204  0.0569
19804TIP3    H180827   6.101   5.089   0.768  0.0008 -0.1121  0.1731
19804TIP3    H280828   6.103   5.140   0.911  0.8633  0.1756  0.0640
19805TIP3   OH280829   2.547   5.695  13.917 -0.6078 -0.5345 -0.0309
19805TIP3    H180830   2.498   5.767  13.876  1.2511  0.8913  0.1083
19805TIP3    H280831   2.528   5.703  14.010  0.9794  1.0174  0.2289
19806TIP3   OH280832   2.044   0.838   3.089 -0.3409 -0.3067 -0.3840
19806TIP3    H180833   2.021   0.825   3.181 -1.6251  1.4281 -0.4137
19806TIP3    H280834   2.088   0.923   3.087 -0.2130 -0.3779 -1.3520
19807TIP3   OH280835   3.203   0.453  15.402 -0.2576 -0.5594 -0.4338
19807TIP3    H180836   3.232   0.482  15.316 -0.5798 -0.3858 -0.4836
19807TIP3    H280837   3.275   0.478  15.461 -0.8781  1.1207 -0.3368
19808TIP3   OH280838   5.843   1.383  11.922  0.7300 -0.1034 -0.2595
19808TIP3    H180839   5.857   1.426  11.838 -2.1340 -2.0782 -1.9061
19808TIP3    H280840   5.767   1.429  11.960  1.4035  0.1503  0.8215
19809TIP3   OH280841   2.055   2.073  15.843  0.5624  0.4148 -0.5482
19809TIP3    H180842   2.049   1.995  15.788  3.1048 -0.8782  0.8294
19809TIP3    H280843   2.139   2.113  15.821  3.1002 -1.6773  3.9401
19810TIP3   OH280844   2.552   0.610  12.433 -0.8216  0.1046 -0.3170
19810TIP3    H180845   2.560   0.620  12.339  0.3508  0.3594 -0.2042
19810TIP3    H280846   2.506   0.689  12.463  0.8096  1.1251 -0.4207
19811TIP3   OH280847   1.204   6.794  15.239  0.2962 -0.4518  0.1480
19811TIP3    H180848   1.222   6.700  15.243 -2.0528 -0.9543  0.3948
19811TIP3    H280849   1.288   6.834  15.214  1.5482 -2.5089  0.8442
19812TIP3   OH280850   1.749   2.623  13.675  0.4141  0.0418 -0.5057
19812TIP3    H180851   1.820   2.673  13.716  0.9976 -0.0501 -1.3688
19812TIP3    H280852   1.676   2.684  13.672  0.2605 -0.0560  0.9448
19813TIP3   OH280853   2.324   4.804   4.897  0.1784  0.0552 -0.1108
19813TIP3    H180854   2.259   4.775   4.833  0.0870 -0.8109  0.3611
19813TIP3    H280855   2.325   4.736   4.963 -0.1309  1.1925  1.1150
19814TIP3   OH280856   0.370   1.916  14.598 -0.4918 -0.3063 -0.3398
19814TIP3    H180857   0.423   1.849  14.642  0.0182  1.5539  2.0506
19814TIP3    H280858   0.291   1.924  14.652 -2.5723 -1.7868 -2.8850
19815TIP3   OH280859   5.700   1.078  13.044  0.4911 -0.0663  0.3036
19815TIP3    H180860   5.760   1.057  13.115  1.8441 -0.4367 -0.8960
19815TIP3    H280861   5.722   1.015  12.975 -1.4869 -0.3966 -0.0832
19816TIP3   OH280862   3.786   2.437   2.728  0.2659 -0.1103 -0.3850
19816TIP3    H180863   3.865   2.445   2.674  1.4976 -0.6898  1.2549
19816TIP3    H280864   3.796   2.504   2.795 -1.5943  1.0777 -1.2335
19817TIP3   OH280865   5.136   4.295  14.914 -0.0077 -0.3011  0.3125
19817TIP3    H180866   5.220   4.259  14.941  0.4462  1.5161  1.4201
19817TIP3    H280867   5.082   4.217  14.894  1.5596 -1.5079  0.6208
19818TIP3   OH280868   1.687   3.540  15.212 -0.5057 -0.7305 -0.0853
19818TIP3    H180869   1.720   3.489  15.286  1.5051 -0.2272 -0.5818
19818TIP3    H280870   1.710   3.488  15.135  0.7291  0.4252 -0.5403
19819TIP3   OH280871   2.975   6.170  16.481 -0.2817 -0.0578  0.5833
19819TIP3    H180872   2.900   6.166  16.422 -0.2332  1.4219  0.3785
19819TIP3    H280873   2.940   6.208  16.561 -0.2014 -1.4285  1.2917
19820TIP3   OH280874   4.724   2.834   0.237 -0.2600 -0.0757 -0.1112
19820TIP3    H180875   4.735   2.831   0.142 -0.5733 -2.5387 -0.1487
19820TIP3    H280876   4.805   2.797   0.272 -0.5702 -0.1865  0.5221
19821TIP3   OH280877   3.947   5.508   0.620  0.3770  0.0403  0.2423
19821TIP3    H180878   3.948   5.426   0.670  1.4878 -0.1467 -0.0529
19821TIP3    H280879   4.038   5.518   0.590 -0.4200 -0.2793 -2.4465
19822TIP3   OH280880   2.840   3.372   3.101 -0.3135  0.0519  0.1145
19822TIP3    H180881   2.861   3.279   3.102  0.4985  0.1474 -2.3615
19822TIP3    H280882   2.923   3.417   3.114 -0.4730  0.4247 -0.1072
19823TIP3   OH280883   5.619   6.471  13.859  0.1930  0.0807  0.5571
19823TIP3    H180884   5.558   6.455  13.787  0.5043  0.5130  0.1829
19823TIP3    H280885   5.604   6.400  13.921 -0.0911 -0.2926  0.0642
19824TIP3   OH280886   3.152   5.434  12.133  0.0874 -0.0420  0.4187
19824TIP3    H180887   3.097   5.359  12.159 -0.1690 -0.7120 -1.8411
19824TIP3    H280888   3.108   5.510  12.171 -0.6615 -0.8615  1.2471
19825TIP3   OH280889   2.452   5.039  15.969 -0.4297  0.4061 -0.3306
19825TIP3    H180890   2.441   5.099  15.896 -2.3262 -0.4884 -0.8472
19825TIP3    H280891   2.516   4.975  15.938 -0.2095  0.7897 -0.6828
19826TIP3   OH280892   2.036   6.374   4.800  0.1610  0.0410 -0.0590
19826TIP3    H180893   2.132   6.379   4.797  0.1479  0.2151 -0.2337
19826TIP3    H280894   2.008   6.464   4.815  0.0117  0.0656 -0.4578
19827TIP3   OH280895   6.445   2.307   0.129 -0.2265 -0.3346  0.2784
19827TIP3    H180896   6.350   2.295   0.131 -0.2252 -3.0141 -3.8326
19827TIP3    H280897   6.458   2.389   0.081 -0.4310  0.2125  1.1461
19828TIP3   OH280898   3.520   2.973   2.291  0.2473  0.2296  0.0840
19828TIP3    H180899   3.532   2.982   2.386 -0.5606 -0.1784  0.2373
19828TIP3    H280900   3.602   2.937   2.259  0.3032 -0.2209  0.7259
19829TIP3   OH280901   6.206   0.806  16.741  0.7009 -0.2901 -0.0142
19829TIP3    H180902   6.199   0.888  16.692 -2.2046 -1.5295 -1.9403
19829TIP3    H280903   6.162   0.824  16.823  2.4399  0.7552  0.7629
19830TIP3   OH280904   6.630   0.493  15.471 -0.4065  0.5612  0.1332
19830TIP3    H180905   6.625   0.404  15.437  0.9883  0.5213 -0.0200
19830TIP3    H280906   6.579   0.545  15.408 -0.9708 -0.0738  0.0551
19831TIP3   OH280907   0.767   4.282  11.719 -0.1249  0.0951 -0.6155
19831TIP3    H180908   0.850   4.327  11.738  0.2995 -0.7192 -0.5064
19831TIP3    H280909   0.700   4.341  11.754  0.5172 -0.3055  1.4472
19832TIP3   OH280910   6.509   5.402   1.621 -0.4896  0.2520 -0.1006
19832TIP3    H180911   6.529   5.496   1.613  0.1999  0.1409  0.2410
19832TIP3    H280912   6.593   5.362   1.641 -0.7779 -0.4512 -0.2825
19833TIP3   OH280913   0.155   5.129   0.724 -0.1028  0.3992 -0.1289
19833TIP3    H180914   0.236   5.106   0.678 -0.0484 -0.1157  0.2140
19833TIP3    H280915   0.147   5.063   0.793 -0.6722  0.6104  0.0134
19834TIP3   OH280916   4.501   5.270   1.644  0.8940 -0.4955  0.1855
19834TIP3    H180917   4.554   5.191   1.637  0.9970 -0.3828 -0.3530
19834TIP3    H280918   4.557   5.332   1.691  0.6952 -0.8378  0.8892
19835TIP3   OH280919   2.571   6.190  15.235  0.2387  0.0516 -0.1180
19835TIP3    H180920   2.566   6.241  15.316  1.1333 -1.3839  0.8825
19835TIP3    H280921   2.488   6.141  15.233 -0.2518  0.8878 -0.6433
19836TIP3   OH280922   2.761   0.298  11.182  0.4046  0.5019 -0.2136
19836TIP3    H180923   2.741   0.286  11.089 -1.3956 -0.1686  0.1962
19836TIP3    H280924   2.818   0.224  11.204  1.3643  1.0188 -0.9010
19837TIP3   OH280925   0.287   0.544   5.431  0.4282 -0.1742 -0.3622
19837TIP3    H180926   0.198   0.547   5.466  0.0349 -1.5899 -1.1672
19837TIP3    H280927   0.343   0.525   5.506  0.0226  0.4455  0.0993
19838TIP3   OH280928   2.904   6.480  14.657 -0.2135 -0.8005  0.1392
19838TIP3    H180929   2.818   6.453  14.626 -1.6172  2.7742  0.3746
19838TIP3    H280930   2.954   6.498  14.578 -1.2116  1.0801 -0.1357
19839TIP3   OH280931   0.409   2.139  15.086 -0.4124 -0.3670  0.1135
19839TIP3    H180932   0.482   2.078  15.085 -0.3710 -0.4124 -2.7309
19839TIP3    H280933   0.428   2.200  15.015 -1.1527  2.1543  1.9332
19840TIP3   OH280934   5.628   2.550   5.228  0.6247 -0.5854 -0.2548
19840TIP3    H180935   5.554   2.495   5.201 -0.6524  0.8297  0.2315
19840TIP3    H280936   5.607   2.637   5.195  0.6006  0.5110  2.4033
19841TIP3   OH280937   1.542   3.695   3.149 -0.3740  0.3056  0.0161
19841TIP3    H180938   1.549   3.599   3.148 -1.2402  0.2317  0.3050
19841TIP3    H280939   1.547   3.720   3.057  1.0061  0.0819  0.0130
19842TIP3   OH280940   1.352   5.551   5.666 -0.4109 -0.7818  0.0276
19842TIP3    H180941   1.280   5.611   5.686 -0.2960 -0.1334 -1.3645
19842TIP3    H280942   1.315   5.464   5.677 -1.8659 -0.4809 -1.9951
19843TIP3   OH280943   4.242   0.053   3.188  0.2117  0.4024 -0.1269
19843TIP3    H180944   4.218  -0.038   3.171 -1.4443  0.6054  0.9810
19843TIP3    H280945   4.166   0.104   3.159  1.1868  1.4740 -0.8985
19844TIP3   OH280946   1.741   6.237   0.197  0.2907 -0.0433  0.1890
19844TIP3    H180947   1.824   6.277   0.222  0.3387  0.7145 -1.0954
19844TIP3    H280948   1.764   6.148   0.170  1.0284  0.8093 -2.1413
19845TIP3   OH280949   5.173   1.252  10.340 -1.0339  0.2379 -0.0104
19845TIP3    H180950   5.194   1.344  10.325  0.2587 -0.1979 -1.1926
19845TIP3    H280951   5.156   1.246  10.434  1.0360  1.3111  0.5128
19846TIP3   OH280952   4.594   1.635  13.915 -0.0478  0.4184  0.3858
19846TIP3    H180953   4.637   1.704  13.864 -1.1714  0.2805 -0.7974
19846TIP3    H280954   4.660   1.566  13.922  0.3019  0.6524 -0.4499
19847TIP3   OH280955   3.341   4.211   1.082 -0.2417  0.2201  0.4152
19847TIP3    H180956   3.351   4.132   1.134  0.0982 -0.3311 -0.4589
19847TIP3    H280957   3.420   4.214   1.028  0.4348  1.9238  1.4217
19848TIP3   OH280958   1.161   3.976  15.326 -0.3573 -0.2728 -0.4024
19848TIP3    H180959   1.113   4.057  15.315 -1.1812 -0.3600  1.9837
19848TIP3    H280960   1.130   3.920  15.254 -1.4526  0.7519 -0.7643
19849TIP3   OH280961   1.898   0.906   2.838 -0.5399  0.2040 -0.4685
19849TIP3    H180962   1.918   0.935   2.928 -0.3295  2.0332 -1.0618
19849TIP3    H280963   1.981   0.872   2.805 -1.1820 -2.9831  0.8313
19850TIP3   OH280964   3.032   6.386   2.610  0.5264 -0.1214  0.2032
19850TIP3    H180965   2.963   6.402   2.676 -0.1406 -3.0548  0.3512
19850TIP3    H280966   3.014   6.450   2.541 -1.0722  0.5509  1.1744
19851TIP3   OH280967   0.401   2.767  12.118  0.6108  0.2900  0.3042
19851TIP3    H180968   0.401   2.820  12.038  0.1299  0.9752  0.7458
19851TIP3    H280969   0.491   2.771  12.150  0.8514 -0.1548 -0.3062
19852TIP3   OH280970   5.765   0.657  15.971 -0.7674 -0.0413 -0.1367
19852TIP3    H180971   5.858   0.665  15.948 -0.9089  2.0311 -0.1707
19852TIP3    H280972   5.738   0.573  15.935  1.2992 -1.1033  0.6361
19853TIP3   OH280973   4.563   2.257  16.808  0.5499  0.0914 -0.1372
19853TIP3    H180974   4.572   2.349  16.829  1.0868 -0.0467  0.2543
19853TIP3    H280975   4.498   2.224  16.870 -0.9757  0.5750 -1.4189
19854TIP3   OH280976   2.453   0.296   3.113 -0.1679 -0.6385 -0.6290
19854TIP3    H180977   2.398   0.373   3.103 -1.3779 -1.3641  0.1356
19854TIP3    H280978   2.458   0.257   3.026  0.2071  0.1340 -0.9558
19855TIP3   OH280979   5.510   0.050  13.017 -1.0150 -0.0368 -0.5883
19855TIP3    H180980   5.505   0.017  12.928  0.0428  0.7252 -0.9656
19855TIP3    H280981   5.567   0.127  13.010  0.2953 -0.7908  0.9563
19856TIP3   OH280982   5.627   5.184  14.823 -0.3192  0.5809 -0.4497
19856TIP3    H180983   5.688   5.233  14.879 -0.2632 -1.1890  1.1475
19856TIP3    H280984   5.558   5.247  14.803  1.4111  2.3090 -1.3864
19857TIP3   OH280985   3.802   1.071  15.933  0.1147 -0.0619 -0.5074
19857TIP3    H180986   3.784   0.988  15.976  0.8679 -0.0359 -0.1307
19857TIP3    H280987   3.733   1.080  15.868 -1.4888  0.2409  1.1556
19858TIP3   OH280988   4.155   5.661   3.011  0.4845 -0.8740 -0.7410
19858TIP3    H180989   4.118   5.621   2.932  0.2559 -0.7787 -0.6813
19858TIP3    H280990   4.249   5.643   3.004  0.1736 -3.2161  0.3126
19859TIP3   OH280991   5.973   4.925  16.006 -0.4015 -0.2891  0.0182
19859TIP3    H180992   5.922   4.962  16.078  1.3372  0.6002  0.8777
19859TIP3    H280993   6.064   4.943  16.031  0.3409 -1.9461 -1.3466
19860TIP3   OH280994   3.276   2.332   2.177 -0.4449  0.0716  0.1523
19860TIP3    H180995   3.261   2.414   2.129 -0.5635 -0.7795 -1.3165
19860TIP3    H280996   3.363   2.342   2.215 -0.3374  0.7610 -0.2574
19861TIP3   OH280997   0.025   0.938  13.381  0.4225  0.5535 -0.0703
19861TIP3    H180998   0.060   0.945  13.292 -0.0356  0.7261 -0.2392
19861TIP3    H280999   0.037   0.846  13.405  0.4160  0.4749 -0.3645
19862TIP3   OH281000   1.405   4.370  15.935  0.2817  0.7425  0.3737
19862TIP3    H181001   1.491   4.409  15.952  2.5229 -2.8288 -1.5996
19862TIP3    H281002   1.414   4.279  15.962 -2.8174  0.1632 -0.2044
19863TIP3   OH281003   0.142   3.395   4.631  0.6149 -0.0405 -0.3150
19863TIP3    H181004   0.083   3.363   4.563  0.3853  1.4105 -0.8401
19863TIP3    H281005   0.229   3.391   4.591  0.5157  0.5310 -0.5961
19864TIP3   OH281006   0.591   4.734   2.980  0.1144  0.7842 -0.4648
19864TIP3    H181007   0.663   4.764   3.036 -0.6303  1.4546  0.1557
19864TIP3    H281008   0.546   4.667   3.032  0.7709 -0.2329 -1.1828
19865TIP3   OH281009   0.700   3.577   0.112 -0.2903 -0.0158  0.8855
19865TIP3    H181010   0.649   3.540   0.041  0.6317  0.6796 -0.1698
19865TIP3    H281011   0.788   3.542   0.100  0.0869  0.8143  1.1288
19866TIP3   OH281012   5.350   0.731  17.136 -0.3046 -0.2205  0.2439
19866TIP3    H181013   5.321   0.640  17.149  1.0656 -0.5921  0.9249
19866TIP3    H281014   5.298   0.782  17.197 -0.6963 -0.6325  0.2601
19867TIP3   OH281015   6.027   1.341  15.052 -0.2608 -0.4247 -0.2366
19867TIP3    H181016   6.117   1.361  15.076  0.3156 -0.3532 -2.2650
19867TIP3    H281017   6.020   1.246  15.059  0.6589 -0.6729 -2.0842
19868TIP3   OH281018   4.916   2.693   6.353  0.0932 -0.1353  0.2659
19868TIP3    H181019   5.004   2.700   6.315  0.9908 -1.4349  1.9433
19868TIP3    H281020   4.928   2.721   6.444 -1.5491  0.9429  0.2011
19869TIP3   OH281021   3.434   0.327  11.415  0.7787 -0.2123 -0.3454
19869TIP3    H181022   3.391   0.324  11.330  0.9086 -1.2789 -0.3801
19869TIP3    H281023   3.525   0.302  11.397  0.7675 -0.6111  0.1294
19870TIP3   OH281024   1.367   4.403  14.281  0.2767 -0.1721 -0.4153
19870TIP3    H181025   1.390   4.334  14.219  2.6338  0.9853 -0.9560
19870TIP3    H281026   1.383   4.485  14.233 -0.4816  0.7606  0.8487
19871TIP3   OH281027   3.632   5.241  15.223 -0.2251 -0.7818 -0.0328
19871TIP3    H181028   3.699   5.261  15.158  2.0749 -1.3810  1.9817
19871TIP3    H281029   3.605   5.326  15.257  1.3069 -0.5898  0.7736
19872TIP3   OH281030   4.995   4.345   5.245  0.4588  0.0136  0.1424
19872TIP3    H181031   4.940   4.285   5.194 -0.8150  1.1396  0.1400
19872TIP3    H281032   4.959   4.341   5.334  2.2551 -1.4440  0.8628
19873TIP3   OH281033   2.802   4.710   2.647 -0.0860 -0.1213  0.1148
19873TIP3    H181034   2.803   4.615   2.642 -1.2347 -0.2724  1.8501
19873TIP3    H281035   2.753   4.738   2.570  0.2524 -0.9074 -0.4072
19874TIP3   OH281036   0.532   0.902   2.513  0.1539  0.2632 -0.1258
19874TIP3    H181037   0.459   0.955   2.480  0.0432 -0.1327 -0.5312
19874TIP3    H281038   0.607   0.961   2.508  0.7758 -0.5677 -3.9297
19875TIP3   OH281039   1.346   5.490   1.206 -0.0798 -0.4096  0.0018
19875TIP3    H181040   1.296   5.410   1.189  1.0436 -1.0709 -0.2630
19875TIP3    H281041   1.408   5.494   1.134 -0.7758  1.2584 -0.5504
19876TIP3   OH281042   6.611   5.960  13.236 -0.9705  0.1685  0.1600
19876TIP3    H181043   6.613   5.986  13.143  0.0223  1.8569  0.6039
19876TIP3    H281044   6.692   5.997  13.272 -0.9243 -1.1941  1.5306
19877TIP3   OH281045   5.997   0.511  16.134  0.5481 -0.2398 -0.5286
19877TIP3    H181046   6.050   0.484  16.059  0.6279 -0.0413 -0.5445
19877TIP3    H281047   6.060   0.546  16.197  0.5786 -1.1838 -0.0135
19878TIP3   OH281048   2.012   3.077   4.583  0.5351 -0.0803 -0.2552
19878TIP3    H181049   1.961   3.004   4.549  0.8996 -0.7953  0.6833
19878TIP3    H281050   2.101   3.042   4.593  0.5557  0.2609  0.9028
19879TIP3   OH281051   5.353   3.963   4.908  0.1459 -0.0787  0.5708
19879TIP3    H181052   5.307   3.880   4.893  1.6545 -0.8487 -0.0329
19879TIP3    H281053   5.285   4.030   4.900 -1.0317 -1.2136  0.6498
19880TIP3   OH281054   5.911   5.609   3.874  0.2763 -0.6139  0.5628
19880TIP3    H181055   5.986   5.667   3.888 -0.9437  1.6965 -1.6811
19880TIP3    H281056   5.950   5.526   3.845  2.0479  0.8468 -1.5998
19881TIP3   OH281057   5.024   0.990   3.439  0.3114  0.4137  0.9948
19881TIP3    H181058   5.100   0.937   3.467 -1.0310 -2.3630 -0.1934
19881TIP3    H281059   5.037   1.001   3.344 -0.4481  0.4571  0.8937
19882TIP3   OH281060   4.496   3.191   5.611 -0.4077 -0.3261  0.4468
19882TIP3    H181061   4.412   3.234   5.629 -0.6326 -0.2171 -0.7755
19882TIP3    H281062   4.493   3.111   5.662 -1.5328 -0.6252 -0.0556
19883TIP3   OH281063   0.902   1.067  11.172  0.1158 -0.1219  0.2475
19883TIP3    H181064   0.955   1.057  11.093  1.3415  1.2769  0.8573
19883TIP3    H281065   0.819   1.105  11.141 -0.7389 -2.5946 -0.7477
19884TIP3   OH281066   3.448   2.291  16.046  0.1475  0.1620  0.4164
19884TIP3    H181067   3.516   2.348  16.082 -0.1303  0.2545  0.7951
19884TIP3    H281068   3.380   2.289  16.113 -0.2066  0.0347  0.0558
19885TIP3   OH281069   4.618   2.040   3.099 -0.3213 -0.2267  0.6076
19885TIP3    H181070   4.530   2.004   3.084 -0.3970  0.7982 -2.1795
19885TIP3    H281071   4.605   2.108   3.165 -2.2337  1.6361 -1.4938
19886TIP3   OH281072   6.744   6.753   4.717 -0.2439  0.4045  0.1435
19886TIP3    H181073   6.797   6.801   4.654 -0.6133  0.4155 -0.1626
19886TIP3    H281074   6.741   6.664   4.683 -0.0163  0.2877  0.4214
19887TIP3   OH281075   5.469   2.863  12.135  0.1877 -0.4581 -0.1169
19887TIP3    H181076   5.525   2.921  12.083  0.5547 -0.0363  0.7368
19887TIP3    H281077   5.400   2.920  12.169  0.4486 -0.5571  0.5815
19888TIP3   OH281078   0.758   5.504   5.384 -0.0763  0.1381  0.0785
19888TIP3    H181079   0.682   5.523   5.329  0.0318 -0.1049 -0.1581
19888TIP3    H281080   0.804   5.433   5.338 -0.4634 -0.6883  0.9279
19889TIP3   OH281081   0.340   1.143   1.059 -0.0542 -0.0923 -0.4989
19889TIP3    H181082   0.341   1.202   1.135 -2.7263  1.9648 -1.8893
19889TIP3    H281083   0.390   1.189   0.992 -0.4326 -0.3650 -0.9727
19890TIP3   OH281084   1.314   2.635  12.197 -0.0237  0.6498  0.4733
19890TIP3    H181085   1.229   2.668  12.226 -0.8974 -1.0747  0.0222
19890TIP3    H281086   1.372   2.649  12.272 -1.2857 -0.2278  1.6539
19891TIP3   OH281087   6.743   2.816  12.139  0.7680 -0.5655  0.3194
19891TIP3    H181088   6.792   2.885  12.183  1.7451 -0.4693 -0.8388
19891TIP3    H281089   6.781   2.734  12.173  1.2513 -0.4969 -0.0429
19892TIP3   OH281090   1.552   2.821  13.618 -0.0587 -0.0470 -0.1482
19892TIP3    H181091   1.485   2.825  13.687  1.8940 -0.9890  1.9426
19892TIP3    H281092   1.525   2.887  13.554 -2.0520  0.7958  1.4593
19893TIP3   OH281093   3.513   2.313  16.448  0.4508  0.3819 -0.1182
19893TIP3    H181094   3.421   2.329  16.425 -0.3632  0.8115  2.9867
19893TIP3    H281095   3.544   2.397  16.483  1.1056 -0.4996  1.5199
19894TIP3   OH281096   5.375   1.871   1.210 -0.2814  0.4136 -0.4206
19894TIP3    H181097   5.369   1.841   1.300  0.2101  1.2683 -0.0916
19894TIP3    H281098   5.289   1.907   1.190 -0.2298  0.7193 -0.1009
19895TIP3   OH281099   0.592   2.527   3.433 -0.7264 -0.6086 -0.3524
19895TIP3    H181100   0.603   2.483   3.348 -2.8583 -3.0551  0.4906
19895TIP3    H281101   0.658   2.485   3.489 -0.5678 -0.3373 -0.3363
19896TIP3   OH281102   3.987   3.200   3.883  0.7818 -0.2776 -0.3284
19896TIP3    H181103   3.996   3.244   3.968  1.0903  0.9429 -0.9688
19896TIP3    H281104   4.068   3.222   3.836  0.4875 -0.6972 -1.0399
19897TIP3   OH281105   0.509   4.508   6.608 -0.8055  0.0980  0.4761
19897TIP3    H181106   0.544   4.576   6.665  0.7317  0.5728 -0.9870
19897TIP3    H281107   0.473   4.555   6.533 -0.3510 -0.6537 -0.2269
19898TIP3   OH281108   2.338   1.810   0.075  0.0244 -0.2588  0.7982
19898TIP3    H181109   2.255   1.773   0.047  0.5252 -0.6263 -0.2723
19898TIP3    H281110   2.317   1.862   0.152 -1.2746  0.0294  0.2792
19899TIP3   OH281111   2.268   6.220   2.943  0.0344  0.1507  0.4106
19899TIP3    H181112   2.278   6.153   2.877 -0.7378  0.6651 -0.2445
19899TIP3    H281113   2.266   6.302   2.894 -1.1687  0.4960  0.9950
19900TIP3   OH281114   5.955   2.561   0.343  0.4154 -0.4513 -0.1384
19900TIP3    H181115   5.923   2.566   0.253  2.0571  2.6721 -0.6911
19900TIP3    H281116   5.901   2.623   0.391 -0.4578 -2.1018  1.1291
19901TIP3   OH281117   0.209   4.018  10.648 -0.2973  0.1822  0.2428
19901TIP3    H181118   0.281   4.036  10.587 -0.9140 -0.9810 -0.8834
19901TIP3    H281119   0.243   4.046  10.733  0.6416  1.7403 -0.5899
19902TIP3   OH281120   3.234   1.829   3.999 -0.5424 -0.0738  0.9290
19902TIP3    H181121   3.165   1.888   3.970  0.7926  0.6872 -0.9053
19902TIP3    H281122   3.204   1.742   3.973 -1.5159  0.0416  1.6293
19903TIP3   OH281123   2.441   6.759   0.578 -0.2761  0.2908 -0.3911
19903TIP3    H181124   2.473   6.849   0.579  0.6501 -0.0129  0.7458
19903TIP3    H281125   2.426   6.739   0.486  0.5141  1.2770 -0.7508
19904TIP3   OH281126   1.970   1.103   1.933  0.0472  0.2196 -0.4631
19904TIP3    H181127   2.002   1.178   1.983  1.0225  0.2981 -1.1624
19904TIP3    H281128   2.050   1.062   1.899 -0.4497 -1.2329  0.0342
19905TIP3   OH281129   0.764   3.922   5.429  0.3622 -0.3004  0.4618
19905TIP3    H181130   0.708   3.845   5.442 -0.2426 -0.1796 -1.2413
19905TIP3    H281131   0.832   3.892   5.368  0.1697  0.4768 -0.1464
19906TIP3   OH281132   5.718   5.959   1.310  0.0704 -0.0388  0.3892
19906TIP3    H181133   5.644   5.966   1.250  0.4033 -0.6544 -0.1110
19906TIP3    H281134   5.678   5.950   1.397 -0.4348 -0.0911  0.1552
19907TIP3   OH281135   4.767   6.720   6.297 -0.1238  0.1834  0.1308
19907TIP3    H181136   4.717   6.799   6.280  1.6062  1.1402 -0.8517
19907TIP3    H281137   4.714   6.649   6.261  0.0372  1.3688 -2.6748
19908TIP3   OH281138   1.275   3.301  13.187  0.1075 -0.0817 -0.4351
19908TIP3    H181139   1.352   3.341  13.149  0.6925  1.4116  2.0812
19908TIP3    H281140   1.300   3.209  13.201  1.8850  0.6018  1.2836
19909TIP3   OH281141   1.949   6.684  11.128 -0.0820  0.4508 -0.3947
19909TIP3    H181142   2.020   6.621  11.137 -0.5518 -0.0340  0.0097
19909TIP3    H281143   1.875   6.633  11.096 -0.0282  1.1118 -1.6452
19910TIP3   OH281144   0.749   5.399   4.292 -0.2882 -0.4714  0.2187
19910TIP3    H181145   0.697   5.369   4.218 -0.6575 -1.1105  0.7250
19910TIP3    H281146   0.743   5.328   4.356  1.6104 -0.7895  0.1045
19911TIP3   OH281147   2.107   3.158  16.726 -0.4759  0.1105  0.5656
19911TIP3    H181148   2.112   3.145  16.631  1.5384  0.1156  0.6425
19911TIP3    H281149   2.024   3.116  16.750 -1.3269  0.6130 -1.2555
19912TIP3   OH281150   6.620   5.411  16.828 -0.2664  0.1594  0.3494
19912TIP3    H181151   6.614   5.410  16.733 -3.6360  0.4755  0.4655
19912TIP3    H281152   6.651   5.498  16.850  1.2290 -0.1417 -0.4169
19913TIP3   OH281153   3.143   0.371  13.116  0.0364  0.3956 -0.4620
19913TIP3    H181154   3.108   0.413  13.038  0.1661  1.8527  0.2439
19913TIP3    H281155   3.090   0.405  13.188 -0.3109 -1.1893  0.0670
19914TIP3   OH281156   2.423   6.567   1.305 -0.1842  0.0948 -0.1388
19914TIP3    H181157   2.493   6.524   1.255 -0.2353 -0.5679  0.3611
19914TIP3    H281158   2.434   6.537   1.394 -1.4262 -0.4256 -0.1400
19915TIP3   OH281159   1.105   1.566  16.973 -0.3259 -0.1157 -0.3411
19915TIP3    H181160   1.092   1.544  16.881 -0.2343  1.1302 -0.6664
19915TIP3    H281161   1.199   1.585  16.979  0.1550 -2.3862  0.5230
19916TIP3   OH281162   4.388   1.250  16.580  0.0074  0.2068 -0.1925
19916TIP3    H181163   4.349   1.185  16.638  2.4952 -0.5994  0.6833
19916TIP3    H281164   4.400   1.204  16.496  2.0053 -0.6448  0.4995
19917TIP3   OH281165   1.316   2.418  15.794  0.5595  0.0530  0.4648
19917TIP3    H181166   1.397   2.439  15.747  0.7711  0.0058  0.8069
19917TIP3    H281167   1.332   2.447  15.883  0.2375 -0.0581  0.5595
19918TIP3   OH281168   5.591   3.761  14.375 -0.5303  0.4508  0.8107
19918TIP3    H181169   5.500   3.742  14.355 -0.8594 -0.0338  2.6523
19918TIP3    H281170   5.630   3.676  14.393 -0.0455  0.7901  1.3670
19919TIP3   OH281171   5.835   2.166   2.377 -0.7354  0.3292  0.5786
19919TIP3    H181172   5.918   2.208   2.354 -0.9262 -0.3163 -1.5184
19919TIP3    H281173   5.785   2.234   2.422  0.1619  1.3692  0.0495
19920TIP3   OH281174   2.710   5.705   5.831 -0.1286 -0.1818  0.0178
19920TIP3    H181175   2.755   5.734   5.752  0.2473 -1.8254 -0.4011
19920TIP3    H281176   2.654   5.779   5.855  0.3682  0.6542 -1.3011
19921TIP3   OH281177   6.455   4.776  12.207 -0.1429  0.0779  0.0785
19921TIP3    H181178   6.423   4.825  12.131  1.8752  1.2730 -0.0632
19921TIP3    H281179   6.497   4.698  12.170 -0.8199 -0.3111  0.1141
19922TIP3   OH281180   4.557   2.359   2.997  0.0864  0.1786  0.3890
19922TIP3    H181181   4.514   2.316   3.071  0.5763 -2.7835 -0.9230
19922TIP3    H281182   4.496   2.428   2.971 -0.7371  0.3696  2.6221
19923TIP3   OH281183   2.261   0.675   0.977  0.1163 -0.3560 -0.4113
19923TIP3    H181184   2.211   0.751   1.006 -0.4946 -1.3463  1.2519
19923TIP3    H281185   2.263   0.683   0.881 -0.7518  1.2236 -0.3341
19924TIP3   OH281186   3.432   3.350  12.186 -0.3034 -0.4570 -0.3599
19924TIP3    H181187   3.340   3.325  12.199 -0.3902 -0.3696 -0.7757
19924TIP3    H281188   3.475   3.329  12.269 -0.5014 -1.4134 -0.4845
19925TIP3   OH281189   1.890   5.962  13.957  0.4146 -0.1228 -0.1111
19925TIP3    H181190   1.878   6.011  13.875 -1.1005  1.0367  0.7565
19925TIP3    H281191   1.842   6.012  14.022  1.4888 -1.1006  1.4896
19926TIP3   OH281192   0.601   2.190   1.605  0.2836 -0.4311  0.7110
19926TIP3    H181193   0.646   2.269   1.636 -0.8498  1.5104 -2.1347
19926TIP3    H281194   0.508   2.212   1.611 -0.0207 -0.9572 -1.3634
19927TIP3   OH281195   2.322   4.503   2.286 -0.0466 -0.2474 -0.0224
19927TIP3    H181196   2.291   4.525   2.374 -0.7294 -1.5994  0.0889
19927TIP3    H281197   2.248   4.522   2.228 -0.7181 -2.2683  0.0939
19928TIP3   OH281198   1.920   1.881   3.373  0.3030 -0.3102 -0.0892
19928TIP3    H181199   1.943   1.840   3.290  0.8329 -0.5527  0.1660
19928TIP3    H281200   1.969   1.963   3.373  1.6631 -1.0745  0.6905
19929TIP3   OH281201   2.336   1.387  16.212 -0.2129  0.2742  0.1314
19929TIP3    H181202   2.361   1.430  16.130  2.0692 -0.9196  0.1394
19929TIP3    H281203   2.370   1.445  16.281  0.3961 -0.1237  0.1749
19930TIP3   OH281204   3.397   0.270   1.264  0.5415  0.2086 -0.3872
19930TIP3    H181205   3.319   0.226   1.230  0.8053 -1.0165  0.5177
19930TIP3    H281206   3.439   0.308   1.187 -0.8282  0.7136 -0.9125
19931TIP3   OH281207   3.014   5.818  14.315  0.3005 -0.4576  0.2011
19931TIP3    H181208   3.104   5.849  14.310  0.3182 -0.6955 -2.5176
19931TIP3    H281209   3.022   5.723  14.328  0.4576 -0.5163 -0.3121
19932TIP3   OH281210   3.825   5.117   1.765 -0.4352 -0.4824 -0.3068
19932TIP3    H181211   3.866   5.197   1.731 -0.8706  0.1605  0.6492
19932TIP3    H281212   3.739   5.145   1.795  0.2701 -0.8044  2.1873
19933TIP3   OH281213   0.449   1.273  16.221  0.8948 -0.1429  0.0090
19933TIP3    H181214   0.395   1.246  16.295  2.3613 -1.6681  0.6112
19933TIP3    H281215   0.450   1.196  16.163 -0.6119  1.1826 -1.8800
19934TIP3   OH281216   0.533   5.500   0.437  0.7133  0.3177 -0.7231
19934TIP3    H181217   0.588   5.561   0.388  0.5983 -0.8888 -2.4181
19934TIP3    H281218   0.595   5.438   0.476  0.8149  1.3478  0.8355
19935TIP3   OH281219   6.689   6.759   2.603 -0.0880 -0.3974  0.5118
19935TIP3    H181220   6.722   6.719   2.523 -2.0169 -2.5625  0.6920
19935TIP3    H281221   6.767   6.772   2.658  0.7845 -3.2084  0.0841
19936TIP3   OH281222   2.736   4.562   6.076 -0.4839 -0.0605  0.4300
19936TIP3    H181223   2.757   4.502   6.147  2.0683  0.0490 -0.1389
19936TIP3    H281224   2.788   4.531   6.002 -1.9121  0.7224 -0.9659
19937TIP3   OH281225   4.483   3.724   5.862  0.3276  0.0973 -0.1291
19937TIP3    H181226   4.575   3.743   5.880  1.0861  0.1817 -3.4512
19937TIP3    H281227   4.434   3.783   5.920  2.3455  0.7975  0.9475
19938TIP3   OH281228   5.957   5.654   4.870 -0.0752  0.1234  0.1904
19938TIP3    H181229   5.894   5.707   4.920 -0.2375  0.9568 -0.8562
19938TIP3    H281230   6.041   5.695   4.888 -0.1027  0.2772 -0.0295
19939TIP3   OH281231   0.522   6.447  14.899 -0.0578 -0.3737 -0.4067
19939TIP3    H181232   0.605   6.494  14.900  0.5696 -1.4336 -0.8666
19939TIP3    H281233   0.464   6.500  14.845  0.3555  0.3118 -0.1875
19940TIP3   OH281234   1.115   1.571   5.907  0.2551  0.0650  0.7187
19940TIP3    H181235   1.183   1.561   5.975  2.8082  1.7604 -1.3897
19940TIP3    H281236   1.064   1.646   5.935  2.0911  1.5643  0.2798
19941TIP3   OH281237   2.371   1.293  11.147 -0.7850 -0.2503  0.4550
19941TIP3    H181238   2.464   1.317  11.140 -0.9097 -0.1469 -1.8510
19941TIP3    H281239   2.371   1.211  11.195  0.4536  0.0282  0.9715
19942TIP3   OH281240   2.376   3.349  16.407  0.1082  0.5740 -0.2542
19942TIP3    H181241   2.282   3.349  16.425 -0.3630 -0.6760 -2.3761
19942TIP3    H281242   2.396   3.439  16.384 -0.3830  1.0062  0.9073
19943TIP3   OH281243   1.972   0.960   3.855  0.1031  0.0170 -0.2564
19943TIP3    H181244   1.913   1.021   3.810 -0.0396  0.2351  0.2275
19943TIP3    H281245   2.056   1.007   3.859 -0.1635  0.4231  0.6468
19944TIP3   OH281246   0.905   3.631  16.299 -0.6945  0.1924  0.3953
19944TIP3    H181247   0.951   3.601  16.221  0.2706 -0.4174  1.1645
19944TIP3    H281248   0.820   3.660  16.268 -0.7705 -1.1311 -0.7091
19945TIP3   OH281249   6.549   1.669  12.317  0.2740  0.0214 -0.6256
19945TIP3    H181250   6.523   1.627  12.235 -1.7702  0.5956 -0.3193
19945TIP3    H281251   6.564   1.760  12.293  0.7473 -0.0330 -0.5467
19946TIP3   OH281252   5.339   1.038   1.045  0.7858  0.0969  0.3082
19946TIP3    H181253   5.312   1.025   0.954 -1.8426  1.7804  0.7525
19946TIP3    H281254   5.393   0.961   1.065 -1.1907 -1.9952 -1.7005
19947TIP3   OH281255   3.032   2.032   3.882 -0.3898 -0.5953  0.3516
19947TIP3    H181256   3.033   2.113   3.831  1.5927 -0.8854 -0.1458
19947TIP3    H281257   2.965   1.978   3.840 -1.5363  0.6340  0.5140
19948TIP3   OH281258   1.260   2.222  15.338  0.2459  0.1422 -0.4027
19948TIP3    H181259   1.226   2.145  15.383 -0.5282 -0.6484 -2.2305
19948TIP3    H281260   1.316   2.186  15.268  0.8265  1.2842 -0.5522
19949TIP3   OH281261   1.998   5.154  11.744 -0.0398 -0.2842  0.0552
19949TIP3    H181262   1.934   5.085  11.761  1.2220 -1.1248  1.6978
19949TIP3    H281263   2.053   5.120  11.674 -2.1476  1.0594 -2.4712
19950TIP3   OH281264   2.343   2.469  15.164  0.5449 -0.5759  0.1485
19950TIP3    H181265   2.260   2.437  15.199  0.9707  0.4502  2.3041
19950TIP3    H281266   2.409   2.422  15.215  1.2059  1.1166  0.9234
19951TIP3   OH281267   6.361   1.917  14.009 -0.0990  0.6685 -0.0912
19951TIP3    H181268   6.319   1.884  13.930 -2.2019  0.2405  1.1248
19951TIP3    H281269   6.365   2.012  13.998 -0.9975  0.6680 -0.4297
19952TIP3   OH281270   1.228   2.686  15.760 -0.1202 -0.0659 -0.4815
19952TIP3    H181271   1.276   2.603  15.762 -0.7478 -0.4359 -0.4461
19952TIP3    H281272   1.295   2.752  15.741 -0.0622 -0.9554 -4.0876
19953LIG      S81273   4.357   4.648   6.108  0.0142  0.0570  0.1415
19953LIG     F181274   3.790   3.136   6.067 -0.0461  0.7184  0.2882
19953LIG     F281275   3.998   3.066   6.245  0.0785 -1.2645  0.4142
19953LIG     N181276   4.066   4.496   6.090 -0.4187  0.1831  0.0779
19953LIG     N281277   4.004   3.688   6.116  0.0922 -0.2895 -0.0577
19953LIG     C181278   4.066   4.343   6.073  0.1159  0.7239  0.0638
19953LIG     C281279   4.120   4.573   5.980  0.2823 -0.2119 -0.4918
19953LIG     C381280   4.119   4.546   6.223  1.1594  0.5776  0.5715
19953LIG     C481281   3.985   4.274   6.177  0.1756 -0.2581  0.3165
19953LIG     C581282   4.275   4.574   5.966  0.1252 -0.0251 -0.1693
19953LIG     C681283   4.271   4.536   6.216 -0.1160 -0.1806  0.6666
19953LIG     C781284   3.992   4.124   6.163  0.6144  0.6229  0.1581
19953LIG     C881285   3.889   3.615   6.179 -0.5294  0.4425 -0.3002
19953LIG     C981286   4.000   4.055   6.041  0.7900  0.2275 -0.2696
19953LIG    C1081287   3.978   4.039   6.274  0.5490 -0.0511  0.0995
19953LIG    C1181288   4.011   3.833   6.135  0.1048 -0.0495  0.4754
19953LIG    C1281289   4.025   3.916   6.027 -0.1552  0.0464  0.1910
19953LIG    C1381290   3.982   3.894   6.264  0.8252  0.2721  0.8736
19953LIG    C1481291   3.915   3.458   6.171  0.5931 -0.5084 -0.5121
19953LIG    C1581292   3.755   3.645   6.109  0.0522  0.0347  0.2802
19953LIG    C1681293   3.835   3.359   6.107 -0.1007  0.3741  0.0652
19953LIG    C1781294   4.024   3.419   6.257  0.4035 -0.1334  0.4999
19953LIG    C1881295   3.874   3.224   6.119  0.0067 -0.0158 -0.0301
19953LIG    C1981296   4.050   3.283   6.270 -0.8791 -0.6175 -0.4319
19953LIG    C2081297   3.974   3.193   6.207  0.2263  0.7046 -0.3293
19953LIG     H181298   4.165   4.292   6.069  0.3820  0.6651  3.8223
19953LIG     H281299   4.035   4.333   5.966  1.2018  3.5602 -0.5973
19953LIG     H381300   4.105   4.680   6.008 -1.8647 -0.2989 -1.1395
19953LIG     H481301   4.055   4.557   5.891 -1.5770  1.6337  0.4528
19953LIG     H581302   4.075   4.496   6.312 -0.8145 -0.7193 -1.0339
19953LIG     H681303   4.096   4.654   6.234 -0.4877  0.2308  0.9199
19953LIG     H781304   3.880   4.310   6.170  0.0658 -0.2500  1.7799
19953LIG     H881305   4.025   4.294   6.278 -1.5255 -3.0609  1.6655
19953LIG     H981306   4.292   4.465   5.960  0.5974  0.0894 -1.1000
19953LIG    H1081307   4.319   4.624   5.877  1.5719  2.6919  1.9049
19953LIG    H1181308   4.309   4.558   6.318  0.7423 -0.7806  0.4817
19953LIG    H1281309   4.313   4.434   6.205  1.2951  0.5040 -0.8266
19953LIG    H1381310   3.880   3.636   6.287 -3.3053 -0.3916 -0.2918
19953LIG    H1481311   4.027   4.107   5.950  2.8219 -0.3904 -0.0711
19953LIG    H1581312   3.960   4.081   6.372 -0.8601  0.3679 -0.3266
19953LIG    H1681313   4.044   3.643   6.034 -2.0756 -1.1611 -0.7150
19953LIG    H1781314   4.031   3.866   5.932  1.2867 -1.3509  0.9810
19953LIG    H1881315   3.963   3.820   6.340  0.6289 -0.9320 -0.2881
19953LIG    H1981316   3.749   3.648   5.998  1.1980  1.7776  0.2331
19953LIG    H2081317   3.705   3.735   6.150  1.7249  0.3962  1.6707
19953LIG    H2181318   3.679   3.571   6.143  2.7704 -1.3730  3.8967
19953LIG    H2281319   3.746   3.382   6.050 -0.3377 -0.3202  0.1579
19953LIG    H2381320   4.078   3.490   6.317  2.0289 -0.3518 -0.6126
19953LIG    H2481321   4.127   3.254   6.341 -0.4459 -0.7182 -0.9320
   6.81311   6.81311  17.25258
